 running on   52 total cores
 distrk:  each k-point on   52 cores,    1 groups
 distr:  one band on   13 cores,    4 groups
 using from now: INCAR     
 vasp.5.4.4.18Apr17-6-g9f103f2a35 (build Oct 31 2019 15:01:46) complex          
  
 POSCAR found type information on POSCAR  Sc Cl C 
 POSCAR found :  3 types and      80 ions
 scaLAPACK is switched off
 LDA part: xc-table for Pade appr. of Perdew
 generate k-points for:    3    3    1
 POSCAR, INCAR and KPOINTS ok, starting setup
 FFT: planning ...
 WAVECAR not read
 entering main loop
       N       E                     dE             d eps       ncg     rms          rms(c)
DAV:   1     0.122141011769E+05    0.12214E+05   -0.26820E+05  4432   0.152E+03
DAV:   2     0.172931535903E+04   -0.10485E+05   -0.10217E+05  5224   0.522E+02
DAV:   3    -0.402720010373E+03   -0.21320E+04   -0.20467E+04  6800   0.283E+02
DAV:   4    -0.641423862310E+03   -0.23870E+03   -0.23343E+03  6096   0.997E+01
DAV:   5    -0.652103626880E+03   -0.10680E+02   -0.10623E+02  6080   0.282E+01    0.705E+01
DAV:   6    -0.521794485919E+03    0.13031E+03   -0.70123E+02  5840   0.498E+01    0.302E+01
DAV:   7    -0.526211037480E+03   -0.44166E+01   -0.83150E+01  5904   0.226E+01    0.153E+01
DAV:   8    -0.524105390990E+03    0.21056E+01   -0.90980E+00  5944   0.717E+00    0.924E+00
DAV:   9    -0.523647921935E+03    0.45747E+00   -0.34272E+00  5440   0.382E+00    0.292E+00
DAV:  10    -0.523524498154E+03    0.12342E+00   -0.57615E-01  5800   0.204E+00    0.169E+00
DAV:  11    -0.523507894893E+03    0.16603E-01   -0.18345E-01  5624   0.833E-01    0.755E-01
DAV:  12    -0.523494712072E+03    0.13183E-01   -0.29631E-02  6192   0.456E-01    0.295E-01
DAV:  13    -0.523491524367E+03    0.31877E-02   -0.77459E-03  5272   0.245E-01    0.172E-01
DAV:  14    -0.523490243370E+03    0.12810E-02   -0.57986E-03  5288   0.136E-01    0.163E-01
DAV:  15    -0.523491650401E+03   -0.14070E-02   -0.15179E-03  5544   0.863E-02    0.929E-02
DAV:  16    -0.523493663023E+03   -0.20126E-02   -0.93890E-04  5800   0.545E-02    0.535E-02
DAV:  17    -0.523496935474E+03   -0.32725E-02   -0.61272E-04  4864   0.503E-02    0.318E-02
DAV:  18    -0.523499005046E+03   -0.20696E-02   -0.22756E-04  5144   0.273E-02    0.213E-02
DAV:  19    -0.523500293993E+03   -0.12889E-02   -0.11619E-04  4632   0.191E-02    0.156E-02
DAV:  20    -0.523501428236E+03   -0.11342E-02   -0.41307E-05  4192   0.110E-02    0.112E-02
DAV:  21    -0.523501837012E+03   -0.40878E-03   -0.22360E-05  4400   0.728E-03    0.846E-03
DAV:  22    -0.523502172686E+03   -0.33567E-03   -0.44968E-06  3856   0.498E-03    0.554E-03
DAV:  23    -0.523502824251E+03   -0.65157E-03   -0.20273E-05  3616   0.521E-03    0.423E-03
DAV:  24    -0.523502951432E+03   -0.12718E-03   -0.29083E-06  3648   0.359E-03    0.375E-03
DAV:  25    -0.523503022875E+03   -0.71443E-04   -0.13879E-06  3032   0.231E-03    0.206E-03
DAV:  26    -0.523503105774E+03   -0.82899E-04   -0.25636E-06  3328   0.234E-03    0.223E-03
DAV:  27    -0.523503126574E+03   -0.20800E-04   -0.30132E-07  2648   0.170E-03    0.160E-03
DAV:  28    -0.523503142305E+03   -0.15730E-04   -0.33522E-07  2736   0.143E-03    0.765E-04
DAV:  29    -0.523503151373E+03   -0.90690E-05   -0.30880E-07  2544   0.142E-03    0.453E-04
DAV:  30    -0.523503160094E+03   -0.87204E-05   -0.32984E-07  2568   0.138E-03    0.640E-04
DAV:  31    -0.523503164344E+03   -0.42498E-05   -0.26114E-07  2576   0.128E-03    0.320E-04
DAV:  32    -0.523503165247E+03   -0.90327E-06   -0.15257E-07  2400   0.936E-04
   1 F= -.52350317E+03 E0= -.52350317E+03  d E =-.637739E-11
