<?xml version="1.0" encoding="ISO-8859-1"?>
<modeling>
 <generator>
  <i name="program" type="string">vasp </i>
  <i name="version" type="string">5.4.4.18Apr17-6-g9f103f2a35  </i>
  <i name="subversion" type="string">(build Oct 31 2019 15:01:46) complex            parallel </i>
  <i name="platform" type="string">LinuxIFC </i>
  <i name="date" type="string">2024 04 30 </i>
  <i name="time" type="string">04:00:10 </i>
 </generator>
 <incar>
  <i type="int" name="ISTART">     0</i>
  <i type="string" name="PREC">anormal</i>
  <i type="logical" name="ADDGRID"> T  </i>
  <i type="int" name="IBRION">    -1</i>
  <i name="EDIFF">      0.00000100</i>
  <i name="EDIFFG">     -0.01000000</i>
  <i type="int" name="NSW">     1</i>
  <i type="int" name="ISIF">     2</i>
  <i type="int" name="ISYM">     2</i>
  <i name="ENCUT">    600.00000000</i>
  <i name="POTIM">      1.00000000</i>
  <i type="string" name="LREAL"> Auto.</i>
  <i type="int" name="ISMEAR">     0</i>
  <i name="SIGMA">      0.05000000</i>
  <i name="KSPACING">      0.25000000</i>
  <i type="logical" name="LWAVE"> F  </i>
  <i type="logical" name="LCHARG"> F  </i>
  <i type="logical" name="LSCALAPACK"> F  </i>
  <v type="int" name="KPOINT_BSE">    -1     0     0     0</v>
 </incar>
 <structure name="primitive_cell" >
  <crystal>
   <varray name="basis" >
    <v>      13.79398668       0.00000000       0.00000000 </v>
    <v>      -6.89699334      11.94594288       0.00000000 </v>
    <v>       0.00000000       0.00000000      27.81022107 </v>
   </varray>
   <i name="volume">   4582.62876984 </i>
   <varray name="rec_basis" >
    <v>       0.07249536       0.04185521       0.00000000 </v>
    <v>       0.00000000       0.08371043       0.00000000 </v>
    <v>       0.00000000       0.00000000       0.03595800 </v>
   </varray>
  </crystal>
  <varray name="positions" >
   <v>       0.08683498       0.17378488      -0.45271021 </v>
   <v>       0.00070958       0.25818711      -0.49926358 </v>
   <v>       0.25492826       0.25906341       0.49826171 </v>
   <v>      -0.00595640      -0.00431200      -0.49741450 </v>
   <v>      -0.07474768       0.07960329      -0.39392729 </v>
   <v>       0.16701919       0.33280831      -0.39056626 </v>
   <v>       0.15215631       0.07213790      -0.39212338 </v>
   <v>       0.15726994       0.31983390       0.45654554 </v>
   <v>      -0.07646038       0.09402005       0.46094467 </v>
   <v>       0.16462941       0.07795701       0.45764715 </v>
   <v>       0.08048335       0.41860396      -0.45342855 </v>
   <v>       0.34072770       0.41825648      -0.45957548 </v>
   <v>       0.33277273       0.16342243      -0.45650942 </v>
   <v>      -0.17530523       0.15938569      -0.45606652 </v>
   <v>      -0.16609217      -0.08532044      -0.45366424 </v>
   <v>       0.08132221      -0.08698066      -0.45584191 </v>
   <v>       0.39745740       0.30867390      -0.39555216 </v>
   <v>      -0.08027295       0.33141391      -0.40071938 </v>
   <v>       0.26091476      -0.49306415      -0.49624468 </v>
   <v>       0.25047229      -0.00088620      -0.49933035 </v>
   <v>       0.07325996       0.16950607       0.39269354 </v>
   <v>      -0.25652466       0.00685369       0.49567376 </v>
   <v>      -0.06580099      -0.16637499      -0.39706613 </v>
   <v>      -0.08806780       0.33027097       0.45801422 </v>
   <v>       0.42250134       0.34110469       0.45792528 </v>
   <v>      -0.09160943      -0.16026259       0.45638459 </v>
   <v>       0.11882886       0.42983624       0.40127961 </v>
   <v>       0.00568023      -0.49834032      -0.49827802 </v>
   <v>      -0.24477851       0.25169499      -0.49723046 </v>
   <v>      -0.16025807       0.17245348       0.39720367 </v>
   <v>      -0.32840182       0.07556797      -0.39973580 </v>
   <v>       0.15669844      -0.42096653      -0.39665765 </v>
   <v>      -0.14956264      -0.06699654       0.39243202 </v>
   <v>       0.42070126      -0.41605101      -0.39869979 </v>
   <v>       0.08716969      -0.08182470       0.39881603 </v>
   <v>       0.34408376       0.41794621       0.39508252 </v>
   <v>      -0.49373543       0.24647086      -0.49987378 </v>
   <v>      -0.24949009      -0.25165735      -0.49993152 </v>
   <v>      -0.00634086      -0.25405022      -0.49797397 </v>
   <v>       0.34145804       0.16740492       0.39493904 </v>
   <v>       0.40940208       0.06793494      -0.39893458 </v>
   <v>      -0.48598350      -0.49118289       0.49696772 </v>
   <v>       0.39859999       0.08253263       0.45777149 </v>
   <v>      -0.34538748      -0.16168070      -0.39141933 </v>
   <v>       0.16722511      -0.41828207       0.46029460 </v>
   <v>       0.17276735      -0.17364904      -0.39099536 </v>
   <v>       0.15987266      -0.16574296       0.45901051 </v>
   <v>       0.34011640      -0.33916255      -0.45471670 </v>
   <v>      -0.33508967      -0.14638158       0.45070759 </v>
   <v>      -0.41648272       0.41846362      -0.46173012 </v>
   <v>       0.43296597      -0.40480891       0.45198268 </v>
   <v>      -0.34608256       0.07661763       0.45507959 </v>
   <v>      -0.17496889      -0.33239641      -0.45750313 </v>
   <v>      -0.16990455       0.42347121      -0.45662937 </v>
   <v>      -0.42622006      -0.08665814      -0.45941692 </v>
   <v>       0.34576870      -0.08625041      -0.46113048 </v>
   <v>       0.07497659      -0.33640746      -0.45797563 </v>
   <v>      -0.40794685      -0.32728567      -0.45286212 </v>
   <v>      -0.41600795       0.16523708      -0.45673171 </v>
   <v>      -0.35730781       0.31708452      -0.39158058 </v>
   <v>      -0.13241106       0.43265628       0.39444465 </v>
   <v>       0.31819029      -0.34045778       0.39539985 </v>
   <v>      -0.08544183      -0.40240848      -0.39978153 </v>
   <v>      -0.42012503       0.40254035       0.39550384 </v>
   <v>      -0.49453676       0.00590181       0.49878968 </v>
   <v>       0.25617357      -0.24309078      -0.49960489 </v>
   <v>       0.49838269      -0.24436758       0.49510168 </v>
   <v>      -0.16425232      -0.33021620       0.39867243 </v>
   <v>      -0.32123318       0.32117356       0.45502428 </v>
   <v>      -0.32720144      -0.41520176      -0.38956047 </v>
   <v>       0.32600538      -0.08853448       0.38982191 </v>
   <v>      -0.07428628      -0.41563000       0.45712541 </v>
   <v>      -0.33131726      -0.40958634       0.45179287 </v>
   <v>      -0.44388752      -0.09247966       0.39250893 </v>
   <v>      -0.40799118       0.16590948       0.39870448 </v>
   <v>       0.08439402      -0.31642363       0.39512570 </v>
   <v>      -0.24979354       0.49533404       0.49660059 </v>
   <v>       0.41458134      -0.17324144      -0.38957615 </v>
   <v>      -0.41348451      -0.32240312       0.39487209 </v>
   <v>       0.39849347      -0.17429435       0.45288194 </v>
  </varray>
 </structure>
 <varray name="primitive_index" >
  <v type="int" >        1 </v>
  <v type="int" >       66 </v>
  <v type="int" >       70 </v>
  <v type="int" >       65 </v>
  <v type="int" >       61 </v>
  <v type="int" >       50 </v>
  <v type="int" >       49 </v>
  <v type="int" >       18 </v>
  <v type="int" >       29 </v>
  <v type="int" >       17 </v>
  <v type="int" >        2 </v>
  <v type="int" >        6 </v>
  <v type="int" >        5 </v>
  <v type="int" >       13 </v>
  <v type="int" >       16 </v>
  <v type="int" >        4 </v>
  <v type="int" >       54 </v>
  <v type="int" >       62 </v>
  <v type="int" >       71 </v>
  <v type="int" >       69 </v>
  <v type="int" >       33 </v>
  <v type="int" >       77 </v>
  <v type="int" >       64 </v>
  <v type="int" >       30 </v>
  <v type="int" >       22 </v>
  <v type="int" >       32 </v>
  <v type="int" >       34 </v>
  <v type="int" >       67 </v>
  <v type="int" >       78 </v>
  <v type="int" >       45 </v>
  <v type="int" >       57 </v>
  <v type="int" >       51 </v>
  <v type="int" >       48 </v>
  <v type="int" >       55 </v>
  <v type="int" >       36 </v>
  <v type="int" >       38 </v>
  <v type="int" >       74 </v>
  <v type="int" >       80 </v>
  <v type="int" >       68 </v>
  <v type="int" >       37 </v>
  <v type="int" >       53 </v>
  <v type="int" >       75 </v>
  <v type="int" >       21 </v>
  <v type="int" >       60 </v>
  <v type="int" >       19 </v>
  <v type="int" >       52 </v>
  <v type="int" >       20 </v>
  <v type="int" >        7 </v>
  <v type="int" >       28 </v>
  <v type="int" >       10 </v>
  <v type="int" >       23 </v>
  <v type="int" >       25 </v>
  <v type="int" >       15 </v>
  <v type="int" >       14 </v>
  <v type="int" >       12 </v>
  <v type="int" >        8 </v>
  <v type="int" >        3 </v>
  <v type="int" >       11 </v>
  <v type="int" >        9 </v>
  <v type="int" >       58 </v>
  <v type="int" >       46 </v>
  <v type="int" >       39 </v>
  <v type="int" >       63 </v>
  <v type="int" >       42 </v>
  <v type="int" >       73 </v>
  <v type="int" >       72 </v>
  <v type="int" >       76 </v>
  <v type="int" >       47 </v>
  <v type="int" >       26 </v>
  <v type="int" >       59 </v>
  <v type="int" >       40 </v>
  <v type="int" >       31 </v>
  <v type="int" >       27 </v>
  <v type="int" >       44 </v>
  <v type="int" >       41 </v>
  <v type="int" >       35 </v>
  <v type="int" >       79 </v>
  <v type="int" >       56 </v>
  <v type="int" >       43 </v>
  <v type="int" >       24 </v>
 </varray>
 <kpoints>
  <generation param="Gamma">
   <v type="int" name="divisions">       3        3        1 </v>
   <v name="usershift">      0.00000000       0.00000000       0.00000000 </v>
   <v name="genvec1">      0.33333333      -0.00000000       0.00000000 </v>
   <v name="genvec2">      0.00000000       0.33333333       0.00000000 </v>
   <v name="genvec3">      0.00000000       0.00000000       1.00000000 </v>
   <v name="shift">      0.00000000       0.00000000       0.00000000 </v>
  </generation>
  <varray name="kpointlist" >
   <v>       0.00000000       0.00000000       0.00000000 </v>
   <v>       0.33333333      -0.00000000       0.00000000 </v>
   <v>       0.00000000       0.33333333       0.00000000 </v>
   <v>       0.33333333       0.33333333       0.00000000 </v>
   <v>      -0.33333333       0.33333333       0.00000000 </v>
  </varray>
  <varray name="weights" >
   <v>       0.11111111 </v>
   <v>       0.22222222 </v>
   <v>       0.22222222 </v>
   <v>       0.22222222 </v>
   <v>       0.22222222 </v>
  </varray>
 </kpoints>
 <parameters>
  <separator name="general" >
   <i type="string" name="SYSTEM">unknown system</i>
   <i type="logical" name="LCOMPAT"> F  </i>
  </separator>
  <separator name="electronic" >
   <i type="string" name="PREC">anorma</i>
   <i name="ENMAX">    600.00000000</i>
   <i name="ENAUG">    644.87300000</i>
   <i name="EDIFF">      0.00000100</i>
   <i type="int" name="IALGO">    38</i>
   <i type="int" name="IWAVPR">    10</i>
   <i type="int" name="NBANDS">   384</i>
   <i name="NELECT">    640.00000000</i>
   <i type="int" name="TURBO">     0</i>
   <i type="int" name="IRESTART">     0</i>
   <i type="int" name="NREBOOT">     0</i>
   <i type="int" name="NMIN">     0</i>
   <i name="EREF">      0.00000000</i>
   <separator name="electronic smearing" >
    <i type="int" name="ISMEAR">     0</i>
    <i name="SIGMA">      0.05000000</i>
    <i name="KSPACING">      0.25000000</i>
    <i type="logical" name="KGAMMA"> T  </i>
   </separator>
   <separator name="electronic projectors" >
    <i type="logical" name="LREAL"> T  </i>
    <v name="ROPT">     -0.00025000     -0.00025000     -0.00025000</v>
    <i type="int" name="LMAXPAW">  -100</i>
    <i type="int" name="LMAXMIX">     2</i>
    <i type="logical" name="NLSPLINE"> F  </i>
   </separator>
   <separator name="electronic startup" >
    <i type="int" name="ISTART">     0</i>
    <i type="int" name="ICHARG">     2</i>
    <i type="int" name="INIWAV">     1</i>
   </separator>
   <separator name="electronic spin" >
    <i type="int" name="ISPIN">     1</i>
    <i type="logical" name="LNONCOLLINEAR"> F  </i>
    <v name="MAGMOM">      1.00000000      1.00000000      1.00000000      1.00000000      1.00000000      1.00000000      1.00000000      1.00000000      1.00000000      1.00000000      1.00000000      1.00000000      1.00000000      1.00000000      1.00000000      1.00000000      1.00000000      1.00000000      1.00000000      1.00000000
      1.00000000      1.00000000      1.00000000      1.00000000      1.00000000      1.00000000      1.00000000      1.00000000      1.00000000      1.00000000      1.00000000      1.00000000      1.00000000      1.00000000      1.00000000      1.00000000      1.00000000      1.00000000      1.00000000      1.00000000
      1.00000000      1.00000000      1.00000000      1.00000000      1.00000000      1.00000000      1.00000000      1.00000000      1.00000000      1.00000000      1.00000000      1.00000000      1.00000000      1.00000000      1.00000000      1.00000000      1.00000000      1.00000000      1.00000000      1.00000000
      1.00000000      1.00000000      1.00000000      1.00000000      1.00000000      1.00000000      1.00000000      1.00000000      1.00000000      1.00000000      1.00000000      1.00000000      1.00000000      1.00000000      1.00000000      1.00000000      1.00000000      1.00000000      1.00000000      1.00000000
</v>
    <i name="NUPDOWN">     -1.00000000</i>
    <i type="logical" name="LSORBIT"> F  </i>
    <v name="SAXIS">      0.00000000      0.00000000      1.00000000</v>
    <i type="logical" name="LSPIRAL"> F  </i>
    <v name="QSPIRAL">      0.00000000      0.00000000      0.00000000</v>
    <i type="logical" name="LZEROZ"> F  </i>
   </separator>
   <separator name="electronic exchange-correlation" >
    <i type="logical" name="LASPH"> F  </i>
    <i type="logical" name="LMETAGGA"> F  </i>
   </separator>
   <separator name="electronic convergence" >
    <i type="int" name="NELM">    60</i>
    <i type="int" name="NELMDL">    -5</i>
    <i type="int" name="NELMIN">     2</i>
    <i name="ENINI">    600.00000000</i>
    <separator name="electronic convergence detail" >
     <i type="logical" name="LDIAG"> T  </i>
     <i type="logical" name="LSUBROT"> F  </i>
     <i name="WEIMIN">      0.00000000</i>
     <i name="EBREAK">      0.00000000</i>
     <i name="DEPER">      0.30000000</i>
     <i type="int" name="NRMM">     4</i>
     <i name="TIME">      0.40000000</i>
    </separator>
   </separator>
   <separator name="electronic mixer" >
    <i name="AMIX">      0.40000000</i>
    <i name="BMIX">      1.00000000</i>
    <i name="AMIN">      0.10000000</i>
    <i name="AMIX_MAG">      1.60000000</i>
    <i name="BMIX_MAG">      1.00000000</i>
    <separator name="electronic mixer details" >
     <i type="int" name="IMIX">     4</i>
     <i type="logical" name="MIXFIRST"> F  </i>
     <i type="int" name="MAXMIX">   -45</i>
     <i name="WC">    100.00000000</i>
     <i type="int" name="INIMIX">     1</i>
     <i type="int" name="MIXPRE">     1</i>
     <i type="int" name="MREMOVE">     5</i>
    </separator>
   </separator>
   <separator name="electronic dipolcorrection" >
    <i type="logical" name="LDIPOL"> F  </i>
    <i type="logical" name="LMONO"> F  </i>
    <i type="int" name="IDIPOL">     0</i>
    <i name="EPSILON">      1.00000000</i>
    <v name="DIPOL">   -100.00000000   -100.00000000   -100.00000000</v>
    <i name="EFIELD">      0.00000000</i>
   </separator>
  </separator>
  <separator name="grids" >
   <i type="int" name="NGX">   112</i>
   <i type="int" name="NGY">   112</i>
   <i type="int" name="NGZ">   224</i>
   <i type="int" name="NGXF">   224</i>
   <i type="int" name="NGYF">   224</i>
   <i type="int" name="NGZF">   448</i>
   <i type="logical" name="ADDGRID"> T  </i>
  </separator>
  <separator name="ionic" >
   <i type="int" name="NSW">     1</i>
   <i type="int" name="IBRION">    -1</i>
   <i type="int" name="MDALGO">     0</i>
   <i type="int" name="ISIF">     2</i>
   <i name="PSTRESS">      0.00000000</i>
   <i name="EDIFFG">     -0.01000000</i>
   <i type="int" name="NFREE">     0</i>
   <i name="POTIM">      1.00000000</i>
   <i name="SMASS">     -3.00000000</i>
   <i name="SCALEE">      1.00000000</i>
  </separator>
  <separator name="ionic md" >
   <i name="TEBEG">      0.00010000</i>
   <i name="TEEND">      0.00010000</i>
   <i type="int" name="NBLOCK">     1</i>
   <i type="int" name="KBLOCK">     1</i>
   <i type="int" name="NPACO">   256</i>
   <i name="APACO">     16.00000000</i>
  </separator>
  <separator name="symmetry" >
   <i type="int" name="ISYM">     2</i>
   <i name="SYMPREC">      0.00001000</i>
  </separator>
  <separator name="dos" >
   <i type="int" name="LORBIT">     0</i>
   <v name="RWIGS">     -1.00000000     -1.00000000     -1.00000000</v>
   <i type="int" name="NEDOS">   301</i>
   <i name="EMIN">     10.00000000</i>
   <i name="EMAX">    -10.00000000</i>
   <i name="EFERMI">      0.00000000</i>
  </separator>
  <separator name="writing" >
   <i type="int" name="NWRITE">     2</i>
   <i type="logical" name="LWAVE"> F  </i>
   <i type="logical" name="LDOWNSAMPLE"> F  </i>
   <i type="logical" name="LCHARG"> F  </i>
   <i type="logical" name="LPARD"> F  </i>
   <i type="logical" name="LVTOT"> F  </i>
   <i type="logical" name="LVHAR"> F  </i>
   <i type="logical" name="LELF"> F  </i>
   <i type="logical" name="LOPTICS"> F  </i>
   <v name="STM">      0.00000000      0.00000000      0.00000000      0.00000000      0.00000000      0.00000000      0.00000000</v>
  </separator>
  <separator name="performance" >
   <i type="int" name="NPAR">     4</i>
   <i type="int" name="NSIM">     4</i>
   <i type="int" name="NBLK">    -1</i>
   <i type="logical" name="LPLANE"> T  </i>
   <i type="logical" name="LSCALAPACK"> F  </i>
   <i type="logical" name="LSCAAWARE"> F  </i>
   <i type="logical" name="LSCALU"> F  </i>
   <i type="logical" name="LASYNC"> F  </i>
   <i type="logical" name="LORBITALREAL"> F  </i>
  </separator>
  <separator name="miscellaneous" >
   <i type="int" name="IDIOT">     3</i>
   <i type="int" name="ISPECIAL">     0</i>
   <i type="logical" name="LMUSIC"> F  </i>
   <v name="POMASS">     44.95600000     35.45300000     12.01100000</v>
   <v name="DARWINR">      0.00000000      0.00000000      0.00000000</v>
   <v name="DARWINV">      1.00000000      1.00000000      1.00000000</v>
   <i type="logical" name="LCORR"> T  </i>
  </separator>
  <i type="logical" name="GGA_COMPAT"> T  </i>
  <i type="logical" name="LBERRY"> F  </i>
  <i type="int" name="ICORELEVEL">     0</i>
  <i type="logical" name="LDAU"> F  </i>
  <i type="int" name="I_CONSTRAINED_M">     0</i>
  <separator name="electronic exchange-correlation" >
   <i type="string" name="GGA">--</i>
   <i type="int" name="VOSKOWN">     0</i>
   <i type="logical" name="LHFCALC"> F  </i>
   <i type="string" name="PRECFOCK"></i>
   <i type="logical" name="LSYMGRAD"> F  </i>
   <i type="logical" name="LHFONE"> F  </i>
   <i type="logical" name="LRHFCALC"> F  </i>
   <i type="logical" name="LTHOMAS"> F  </i>
   <i type="logical" name="LMODELHF"> F  </i>
   <i name="ENCUT4O">     -1.00000000</i>
   <i type="int" name="EXXOEP">     0</i>
   <i type="int" name="FOURORBIT">     0</i>
   <i name="AEXX">      0.00000000</i>
   <i name="HFALPHA">      0.00000000</i>
   <i name="MCALPHA">      0.00000000</i>
   <i name="ALDAX">      1.00000000</i>
   <i name="AGGAX">      1.00000000</i>
   <i name="ALDAC">      1.00000000</i>
   <i name="AGGAC">      1.00000000</i>
   <i type="int" name="NKREDX">     1</i>
   <i type="int" name="NKREDY">     1</i>
   <i type="int" name="NKREDZ">     1</i>
   <i type="logical" name="SHIFTRED"> F  </i>
   <i type="logical" name="ODDONLY"> F  </i>
   <i type="logical" name="EVENONLY"> F  </i>
   <i type="int" name="LMAXFOCK">     0</i>
   <i type="int" name="NMAXFOCKAE">     0</i>
   <i type="logical" name="LFOCKAEDFT"> F  </i>
   <i name="HFSCREEN">      0.00000000</i>
   <i name="HFSCREENC">      0.00000000</i>
   <i type="int" name="NBANDSGWLOW">     0</i>
  </separator>
  <separator name="vdW DFT" >
   <i type="logical" name="LUSE_VDW"> F  </i>
   <i name="Zab_VDW">     -0.84910000</i>
   <i name="PARAM1">      0.12340000</i>
   <i name="PARAM2">      1.00000000</i>
   <i name="PARAM3">      0.00000000</i>
  </separator>
  <separator name="model GW" >
   <i type="int" name="MODEL_GW">     0</i>
   <i name="MODEL_EPS0">     34.36971577</i>
   <i name="MODEL_ALPHA">      1.00000000</i>
  </separator>
  <separator name="linear response parameters" >
   <i type="logical" name="LEPSILON"> F  </i>
   <i type="logical" name="LRPA"> F  </i>
   <i type="logical" name="LNABLA"> F  </i>
   <i type="logical" name="LVEL"> F  </i>
   <i type="int" name="KINTER">     0</i>
   <i name="CSHIFT">      0.10000000</i>
   <i name="OMEGAMAX">     -1.00000000</i>
   <i name="DEG_THRESHOLD">      0.00200000</i>
   <i name="RTIME">     -0.10000000</i>
   <i name="WPLASMAI">      0.00000000</i>
   <v name="DFIELD">      0.00000000      0.00000000      0.00000000</v>
   <v name="WPLASMA">      0.00000000      0.00000000      0.00000000      0.00000000      0.00000000      0.00000000      0.00000000      0.00000000      0.00000000</v>
  </separator>
  <separator name="orbital magnetization" >
   <i type="logical" name="NUCIND"> F  </i>
   <v name="MAGPOS">      0.00000000      0.00000000      0.00000000</v>
   <i type="logical" name="LNICSALL"> T  </i>
   <i type="logical" name="ORBITALMAG"> F  </i>
   <i type="logical" name="LMAGBLOCH"> F  </i>
   <i type="logical" name="LCHIMAG"> F  </i>
   <i type="logical" name="LGAUGE"> T  </i>
   <i type="int" name="MAGATOM">     0</i>
   <v name="MAGDIPOL">      0.00000000      0.00000000      0.00000000</v>
   <v name="AVECCONST">      0.00000000      0.00000000      0.00000000</v>
  </separator>
  <separator name="response functions" >
   <i type="logical" name="LADDER"> F  </i>
   <i type="logical" name="LRPAFORCE"> F  </i>
   <i type="logical" name="LFXC"> F  </i>
   <i type="logical" name="LHARTREE"> T  </i>
   <i type="int" name="IBSE">     0</i>
   <v type="int" name="KPOINT">    -1     0     0     0</v>
   <i type="logical" name="LTCTE"> F  </i>
   <i type="logical" name="LTETE"> F  </i>
   <i type="logical" name="LTRIPLET"> F  </i>
   <i type="logical" name="LFXCEPS"> F  </i>
   <i type="logical" name="LFXHEG"> F  </i>
   <i type="int" name="NATURALO">     2</i>
   <i type="logical" name="L2ORDER"> F  </i>
   <i type="logical" name="LMP2LT"> F  </i>
   <i type="logical" name="LUSEW"> F  </i>
   <i name="ENCUTGW">     -2.00000000</i>
   <i name="ENCUTGWSOFT">     -2.00000000</i>
   <i name="ENCUTLF">     -1.00000000</i>
   <i type="int" name="LMAXMP2">    -1</i>
   <i name="SCISSOR">      0.00000000</i>
   <i type="int" name="NOMEGA">     0</i>
   <i type="int" name="NOMEGAR">     0</i>
   <i type="int" name="NBANDSGW">    -1</i>
   <i type="int" name="NBANDSO">    -1</i>
   <i type="int" name="NBANDSV">    -1</i>
   <i type="int" name="NELM">     1</i>
   <i type="int" name="NELMHF">     1</i>
   <i type="int" name="DIM">     3</i>
   <i type="int" name="ANTIRES">     0</i>
   <i name="OMEGAMAX">    -30.00000000</i>
   <i name="OMEGAMIN">    -30.00000000</i>
   <i name="OMEGATL">   -200.00000000</i>
   <i type="int" name="OMEGAGRID">   140</i>
   <i name="CSHIFT">     -0.10000000</i>
   <i type="logical" name="SELFENERGY"> F  </i>
   <i type="logical" name="LSPECTRAL"> F  </i>
   <i type="logical" name="LSPECTRALGW"> F  </i>
   <i type="logical" name="LSINGLES"> F  </i>
   <i type="logical" name="LFERMIGW"> F  </i>
   <i type="logical" name="ODDONLYGW"> F  </i>
   <i type="logical" name="EVENONLYGW"> F  </i>
   <i type="int" name="NKREDLFX">     1</i>
   <i type="int" name="NKREDLFY">     1</i>
   <i type="int" name="NKREDLFZ">     1</i>
   <i type="int" name="MAXMEM">  2800</i>
   <i type="int" name="TELESCOPE">     0</i>
   <i type="int" name="TAUPAR">     1</i>
   <i type="int" name="OMEGAPAR">    -1</i>
   <i name="LAMBDA">      1.00000000</i>
  </separator>
  <separator name="External order field" >
   <i name="OFIELD_KAPPA">      0.00000000</i>
   <v name="OFIELD_K">      0.00000000      0.00000000      0.00000000</v>
   <i name="OFIELD_Q6_NEAR">      0.00000000</i>
   <i name="OFIELD_Q6_FAR">      0.00000000</i>
   <i name="OFIELD_A">      0.00000000</i>
  </separator>
 </parameters>
 <atominfo>
  <atoms>      80 </atoms>
  <types>       3 </types>
  <array name="atoms" >
   <dimension dim="1">ion</dimension>
   <field type="string">element</field>
   <field type="int">atomtype</field>
   <set>
    <rc><c>Sc</c><c>   1</c></rc>
    <rc><c>Sc</c><c>   1</c></rc>
    <rc><c>Sc</c><c>   1</c></rc>
    <rc><c>Sc</c><c>   1</c></rc>
    <rc><c>Sc</c><c>   1</c></rc>
    <rc><c>Sc</c><c>   1</c></rc>
    <rc><c>Sc</c><c>   1</c></rc>
    <rc><c>Sc</c><c>   1</c></rc>
    <rc><c>Sc</c><c>   1</c></rc>
    <rc><c>Sc</c><c>   1</c></rc>
    <rc><c>Sc</c><c>   1</c></rc>
    <rc><c>Sc</c><c>   1</c></rc>
    <rc><c>Sc</c><c>   1</c></rc>
    <rc><c>Sc</c><c>   1</c></rc>
    <rc><c>Sc</c><c>   1</c></rc>
    <rc><c>Sc</c><c>   1</c></rc>
    <rc><c>Sc</c><c>   1</c></rc>
    <rc><c>Sc</c><c>   1</c></rc>
    <rc><c>Sc</c><c>   1</c></rc>
    <rc><c>Sc</c><c>   1</c></rc>
    <rc><c>Sc</c><c>   1</c></rc>
    <rc><c>Sc</c><c>   1</c></rc>
    <rc><c>Sc</c><c>   1</c></rc>
    <rc><c>Sc</c><c>   1</c></rc>
    <rc><c>Sc</c><c>   1</c></rc>
    <rc><c>Sc</c><c>   1</c></rc>
    <rc><c>Sc</c><c>   1</c></rc>
    <rc><c>Sc</c><c>   1</c></rc>
    <rc><c>Sc</c><c>   1</c></rc>
    <rc><c>Sc</c><c>   1</c></rc>
    <rc><c>Sc</c><c>   1</c></rc>
    <rc><c>Sc</c><c>   1</c></rc>
    <rc><c>Cl</c><c>   2</c></rc>
    <rc><c>Cl</c><c>   2</c></rc>
    <rc><c>Cl</c><c>   2</c></rc>
    <rc><c>Cl</c><c>   2</c></rc>
    <rc><c>Cl</c><c>   2</c></rc>
    <rc><c>Cl</c><c>   2</c></rc>
    <rc><c>Cl</c><c>   2</c></rc>
    <rc><c>Cl</c><c>   2</c></rc>
    <rc><c>Cl</c><c>   2</c></rc>
    <rc><c>Cl</c><c>   2</c></rc>
    <rc><c>Cl</c><c>   2</c></rc>
    <rc><c>Cl</c><c>   2</c></rc>
    <rc><c>Cl</c><c>   2</c></rc>
    <rc><c>Cl</c><c>   2</c></rc>
    <rc><c>Cl</c><c>   2</c></rc>
    <rc><c>Cl</c><c>   2</c></rc>
    <rc><c>Cl</c><c>   2</c></rc>
    <rc><c>Cl</c><c>   2</c></rc>
    <rc><c>Cl</c><c>   2</c></rc>
    <rc><c>Cl</c><c>   2</c></rc>
    <rc><c>Cl</c><c>   2</c></rc>
    <rc><c>Cl</c><c>   2</c></rc>
    <rc><c>Cl</c><c>   2</c></rc>
    <rc><c>Cl</c><c>   2</c></rc>
    <rc><c>Cl</c><c>   2</c></rc>
    <rc><c>Cl</c><c>   2</c></rc>
    <rc><c>Cl</c><c>   2</c></rc>
    <rc><c>Cl</c><c>   2</c></rc>
    <rc><c>Cl</c><c>   2</c></rc>
    <rc><c>Cl</c><c>   2</c></rc>
    <rc><c>Cl</c><c>   2</c></rc>
    <rc><c>Cl</c><c>   2</c></rc>
    <rc><c>C </c><c>   3</c></rc>
    <rc><c>C </c><c>   3</c></rc>
    <rc><c>C </c><c>   3</c></rc>
    <rc><c>C </c><c>   3</c></rc>
    <rc><c>C </c><c>   3</c></rc>
    <rc><c>C </c><c>   3</c></rc>
    <rc><c>C </c><c>   3</c></rc>
    <rc><c>C </c><c>   3</c></rc>
    <rc><c>C </c><c>   3</c></rc>
    <rc><c>C </c><c>   3</c></rc>
    <rc><c>C </c><c>   3</c></rc>
    <rc><c>C </c><c>   3</c></rc>
    <rc><c>C </c><c>   3</c></rc>
    <rc><c>C </c><c>   3</c></rc>
    <rc><c>C </c><c>   3</c></rc>
    <rc><c>C </c><c>   3</c></rc>
   </set>
  </array>
  <array name="atomtypes" >
   <dimension dim="1">type</dimension>
   <field type="int">atomspertype</field>
   <field type="string">element</field>
   <field>mass</field>
   <field>valence</field>
   <field type="string">pseudopotential</field>
   <set>
    <rc><c>  32</c><c>Sc</c><c>     44.95600000</c><c>     11.00000000</c><c>  PAW_PBE Sc_sv 07Sep2000               </c></rc>
    <rc><c>  32</c><c>Cl</c><c>     35.45300000</c><c>      7.00000000</c><c>  PAW_PBE Cl 06Sep2000                  </c></rc>
    <rc><c>  16</c><c>C </c><c>     12.01100000</c><c>      4.00000000</c><c>  PAW_PBE C 08Apr2002                   </c></rc>
   </set>
  </array>
 </atominfo>
 <structure name="initialpos" >
  <crystal>
   <varray name="basis" >
    <v>      13.79398668       0.00000000       0.00000000 </v>
    <v>      -6.89699334      11.94594288       0.00000000 </v>
    <v>       0.00000000       0.00000000      27.81022107 </v>
   </varray>
   <i name="volume">   4582.62876984 </i>
   <varray name="rec_basis" >
    <v>       0.07249536       0.04185521       0.00000000 </v>
    <v>       0.00000000       0.08371043       0.00000000 </v>
    <v>       0.00000000       0.00000000       0.03595800 </v>
   </varray>
  </crystal>
  <varray name="positions" >
   <v>       0.08683498       0.17378488       0.54728979 </v>
   <v>       0.08048335       0.41860396       0.54657145 </v>
   <v>       0.07497659       0.66359254       0.54202437 </v>
   <v>       0.08132221       0.91301934       0.54415809 </v>
   <v>       0.33277273       0.16342243       0.54349058 </v>
   <v>       0.34072770       0.41825648       0.54042452 </v>
   <v>       0.34011640       0.66083745       0.54528330 </v>
   <v>       0.34576870       0.91374959       0.53886952 </v>
   <v>       0.58399205       0.16523708       0.54326829 </v>
   <v>       0.58351728       0.41846362       0.53826988 </v>
   <v>       0.59205315       0.67271433       0.54713788 </v>
   <v>       0.57377994       0.91334186       0.54058308 </v>
   <v>       0.82469477       0.15938569       0.54393348 </v>
   <v>       0.83009545       0.42347121       0.54337063 </v>
   <v>       0.82503111       0.66760359       0.54249687 </v>
   <v>       0.83390783       0.91467956       0.54633576 </v>
   <v>       0.16462941       0.07795701       0.45764715 </v>
   <v>       0.15726994       0.31983390       0.45654554 </v>
   <v>       0.16722511       0.58171793       0.46029460 </v>
   <v>       0.15987266       0.83425704       0.45901051 </v>
   <v>       0.39859999       0.08253263       0.45777149 </v>
   <v>       0.42250134       0.34110469       0.45792528 </v>
   <v>       0.43296597       0.59519109       0.45198268 </v>
   <v>       0.39849347       0.82570565       0.45288194 </v>
   <v>       0.65391744       0.07661763       0.45507959 </v>
   <v>       0.67876682       0.32117356       0.45502428 </v>
   <v>       0.66868274       0.59041366       0.45179287 </v>
   <v>       0.66491033       0.85361842       0.45070759 </v>
   <v>       0.92353962       0.09402005       0.46094467 </v>
   <v>       0.91193220       0.33027097       0.45801422 </v>
   <v>       0.92571372       0.58437000       0.45712541 </v>
   <v>       0.90839057       0.83973741       0.45638459 </v>
   <v>       0.07325996       0.16950607       0.39269354 </v>
   <v>       0.11882886       0.42983624       0.40127961 </v>
   <v>       0.08439402       0.68357637       0.39512570 </v>
   <v>       0.08716969       0.91817530       0.39881603 </v>
   <v>       0.34145804       0.16740492       0.39493904 </v>
   <v>       0.34408376       0.41794621       0.39508252 </v>
   <v>       0.31819029       0.65954222       0.39539985 </v>
   <v>       0.32600538       0.91146552       0.38982191 </v>
   <v>       0.59200882       0.16590948       0.39870448 </v>
   <v>       0.57987497       0.40254035       0.39550384 </v>
   <v>       0.58651549       0.67759688       0.39487209 </v>
   <v>       0.55611248       0.90752034       0.39250893 </v>
   <v>       0.83974193       0.17245348       0.39720367 </v>
   <v>       0.86758894       0.43265628       0.39444465 </v>
   <v>       0.83574768       0.66978380       0.39867243 </v>
   <v>       0.85043736       0.93300346       0.39243202 </v>
   <v>       0.15215631       0.07213790       0.60787662 </v>
   <v>       0.16701919       0.33280831       0.60943374 </v>
   <v>       0.15669844       0.57903347       0.60334235 </v>
   <v>       0.17276735       0.82635096       0.60900464 </v>
   <v>       0.40940208       0.06793494       0.60106542 </v>
   <v>       0.39745740       0.30867390       0.60444784 </v>
   <v>       0.42070126       0.58394899       0.60130021 </v>
   <v>       0.41458134       0.82675856       0.61042385 </v>
   <v>       0.67159818       0.07556797       0.60026420 </v>
   <v>       0.64269219       0.31708452       0.60841942 </v>
   <v>       0.67279856       0.58479824       0.61043953 </v>
   <v>       0.65461252       0.83831930       0.60858067 </v>
   <v>       0.92525232       0.07960329       0.60607271 </v>
   <v>       0.91972705       0.33141391       0.59928062 </v>
   <v>       0.91455817       0.59759152       0.60021847 </v>
   <v>       0.93419901       0.83362501       0.60293387 </v>
   <v>       0.99404360       0.99568800       0.50258550 </v>
   <v>       0.00070958       0.25818711       0.50073642 </v>
   <v>       0.00568023       0.50165968       0.50172198 </v>
   <v>       0.99365914       0.74594978       0.50202603 </v>
   <v>       0.25047229       0.99911380       0.50066965 </v>
   <v>       0.25492826       0.25906341       0.49826171 </v>
   <v>       0.26091476       0.50693585       0.50375532 </v>
   <v>       0.25617357       0.75690922       0.50039511 </v>
   <v>       0.50546324       0.00590181       0.49878968 </v>
   <v>       0.50626457       0.24647086       0.50012622 </v>
   <v>       0.51401650       0.50881711       0.49696772 </v>
   <v>       0.49838269       0.75563242       0.49510168 </v>
   <v>       0.74347534       0.00685369       0.49567376 </v>
   <v>       0.75522149       0.25169499       0.50276954 </v>
   <v>       0.75020646       0.49533404       0.49660059 </v>
   <v>       0.75050991       0.74834265       0.50006848 </v>
  </varray>
  <varray name="velocities" >
   <v>       0.00000000       0.00000000       0.00000000 </v>
   <v>       0.00000000       0.00000000       0.00000000 </v>
   <v>       0.00000000       0.00000000       0.00000000 </v>
   <v>       0.00000000       0.00000000       0.00000000 </v>
   <v>       0.00000000       0.00000000       0.00000000 </v>
   <v>       0.00000000       0.00000000       0.00000000 </v>
   <v>       0.00000000       0.00000000       0.00000000 </v>
   <v>       0.00000000       0.00000000       0.00000000 </v>
   <v>       0.00000000       0.00000000       0.00000000 </v>
   <v>       0.00000000       0.00000000       0.00000000 </v>
   <v>       0.00000000       0.00000000       0.00000000 </v>
   <v>       0.00000000       0.00000000       0.00000000 </v>
   <v>       0.00000000       0.00000000       0.00000000 </v>
   <v>       0.00000000       0.00000000       0.00000000 </v>
   <v>       0.00000000       0.00000000       0.00000000 </v>
   <v>       0.00000000       0.00000000       0.00000000 </v>
   <v>       0.00000000       0.00000000       0.00000000 </v>
   <v>       0.00000000       0.00000000       0.00000000 </v>
   <v>       0.00000000       0.00000000       0.00000000 </v>
   <v>       0.00000000       0.00000000       0.00000000 </v>
   <v>       0.00000000       0.00000000       0.00000000 </v>
   <v>       0.00000000       0.00000000       0.00000000 </v>
   <v>       0.00000000       0.00000000       0.00000000 </v>
   <v>       0.00000000       0.00000000       0.00000000 </v>
   <v>       0.00000000       0.00000000       0.00000000 </v>
   <v>       0.00000000       0.00000000       0.00000000 </v>
   <v>       0.00000000       0.00000000       0.00000000 </v>
   <v>       0.00000000       0.00000000       0.00000000 </v>
   <v>       0.00000000       0.00000000       0.00000000 </v>
   <v>       0.00000000       0.00000000       0.00000000 </v>
   <v>       0.00000000       0.00000000       0.00000000 </v>
   <v>       0.00000000       0.00000000       0.00000000 </v>
   <v>       0.00000000       0.00000000       0.00000000 </v>
   <v>       0.00000000       0.00000000       0.00000000 </v>
   <v>       0.00000000       0.00000000       0.00000000 </v>
   <v>       0.00000000       0.00000000       0.00000000 </v>
   <v>       0.00000000       0.00000000       0.00000000 </v>
   <v>       0.00000000       0.00000000       0.00000000 </v>
   <v>       0.00000000       0.00000000       0.00000000 </v>
   <v>       0.00000000       0.00000000       0.00000000 </v>
   <v>       0.00000000       0.00000000       0.00000000 </v>
   <v>       0.00000000       0.00000000       0.00000000 </v>
   <v>       0.00000000       0.00000000       0.00000000 </v>
   <v>       0.00000000       0.00000000       0.00000000 </v>
   <v>       0.00000000       0.00000000       0.00000000 </v>
   <v>       0.00000000       0.00000000       0.00000000 </v>
   <v>       0.00000000       0.00000000       0.00000000 </v>
   <v>       0.00000000       0.00000000       0.00000000 </v>
   <v>       0.00000000       0.00000000       0.00000000 </v>
   <v>       0.00000000       0.00000000       0.00000000 </v>
   <v>       0.00000000       0.00000000       0.00000000 </v>
   <v>       0.00000000       0.00000000       0.00000000 </v>
   <v>       0.00000000       0.00000000       0.00000000 </v>
   <v>       0.00000000       0.00000000       0.00000000 </v>
   <v>       0.00000000       0.00000000       0.00000000 </v>
   <v>       0.00000000       0.00000000       0.00000000 </v>
   <v>       0.00000000       0.00000000       0.00000000 </v>
   <v>       0.00000000       0.00000000       0.00000000 </v>
   <v>       0.00000000       0.00000000       0.00000000 </v>
   <v>       0.00000000       0.00000000       0.00000000 </v>
   <v>       0.00000000       0.00000000       0.00000000 </v>
   <v>       0.00000000       0.00000000       0.00000000 </v>
   <v>       0.00000000       0.00000000       0.00000000 </v>
   <v>       0.00000000       0.00000000       0.00000000 </v>
   <v>       0.00000000       0.00000000       0.00000000 </v>
   <v>       0.00000000       0.00000000       0.00000000 </v>
   <v>       0.00000000       0.00000000       0.00000000 </v>
   <v>       0.00000000       0.00000000       0.00000000 </v>
   <v>       0.00000000       0.00000000       0.00000000 </v>
   <v>       0.00000000       0.00000000       0.00000000 </v>
   <v>       0.00000000       0.00000000       0.00000000 </v>
   <v>       0.00000000       0.00000000       0.00000000 </v>
   <v>       0.00000000       0.00000000       0.00000000 </v>
   <v>       0.00000000       0.00000000       0.00000000 </v>
   <v>       0.00000000       0.00000000       0.00000000 </v>
   <v>       0.00000000       0.00000000       0.00000000 </v>
   <v>       0.00000000       0.00000000       0.00000000 </v>
   <v>       0.00000000       0.00000000       0.00000000 </v>
   <v>       0.00000000       0.00000000       0.00000000 </v>
   <v>       0.00000000       0.00000000       0.00000000 </v>
  </varray>
 </structure>
 <calculation>
  <scstep>
   <time name="dav">   50.23   50.23</time>
   <time name="total">   51.06   51.07</time>
   <energy>
    <i name="alphaZ">    784.57699423 </i>
    <i name="ewald"> 253986.77292746 </i>
    <i name="hartreedc">-301614.04815477 </i>
    <i name="XCdc">   2504.27812166 </i>
    <i name="pawpsdc">  43679.68029659 </i>
    <i name="pawaedc"> -43417.33247688 </i>
    <i name="eentropy">     -0.06825084 </i>
    <i name="bandstr">     79.51778219 </i>
    <i name="atom">  56210.72393729 </i>
    <i name="e_fr_energy">  12214.10117692 </i>
    <i name="e_wo_entrp">  12214.16942776 </i>
    <i name="e_0_energy">  12214.13530234 </i>
   </energy>
  </scstep>
  <scstep>
   <time name="dav">   57.10   57.11</time>
   <time name="total">   57.10   57.11</time>
   <energy>
    <i name="e_fr_energy">   1729.31535903 </i>
    <i name="e_wo_entrp">   1729.36356145 </i>
    <i name="e_0_energy">   1729.33946024 </i>
   </energy>
  </scstep>
  <scstep>
   <time name="dav">   71.03   71.04</time>
   <time name="total">   71.04   71.04</time>
   <energy>
    <i name="e_fr_energy">   -402.72001037 </i>
    <i name="e_wo_entrp">   -402.72000850 </i>
    <i name="e_0_energy">   -402.72000944 </i>
   </energy>
  </scstep>
  <scstep>
   <time name="dav">   64.86   64.87</time>
   <time name="total">   64.86   64.87</time>
   <energy>
    <i name="e_fr_energy">   -641.42386231 </i>
    <i name="e_wo_entrp">   -641.42386231 </i>
    <i name="e_0_energy">   -641.42386231 </i>
   </energy>
  </scstep>
  <scstep>
   <time name="dav">   64.69   64.70</time>
   <time name="total">   68.59   68.60</time>
   <energy>
    <i name="e_fr_energy">   -652.10362688 </i>
    <i name="e_wo_entrp">   -652.10362688 </i>
    <i name="e_0_energy">   -652.10362688 </i>
   </energy>
  </scstep>
  <scstep>
   <time name="dav">   62.74   62.74</time>
   <time name="total">   67.45   67.46</time>
   <energy>
    <i name="e_fr_energy">   -521.79448592 </i>
    <i name="e_wo_entrp">   -521.79448592 </i>
    <i name="e_0_energy">   -521.79448592 </i>
   </energy>
  </scstep>
  <scstep>
   <time name="dav">   63.27   63.27</time>
   <time name="total">   67.97   67.98</time>
   <energy>
    <i name="e_fr_energy">   -526.21103748 </i>
    <i name="e_wo_entrp">   -526.21103748 </i>
    <i name="e_0_energy">   -526.21103748 </i>
   </energy>
  </scstep>
  <scstep>
   <time name="dav">   63.65   63.65</time>
   <time name="total">   68.35   68.36</time>
   <energy>
    <i name="e_fr_energy">   -524.10539099 </i>
    <i name="e_wo_entrp">   -524.10539099 </i>
    <i name="e_0_energy">   -524.10539099 </i>
   </energy>
  </scstep>
  <scstep>
   <time name="dav">   59.24   59.24</time>
   <time name="total">   63.94   63.95</time>
   <energy>
    <i name="e_fr_energy">   -523.64792194 </i>
    <i name="e_wo_entrp">   -523.64792194 </i>
    <i name="e_0_energy">   -523.64792194 </i>
   </energy>
  </scstep>
  <scstep>
   <time name="dav">   62.38   62.38</time>
   <time name="total">   67.08   67.09</time>
   <energy>
    <i name="e_fr_energy">   -523.52449815 </i>
    <i name="e_wo_entrp">   -523.52449815 </i>
    <i name="e_0_energy">   -523.52449815 </i>
   </energy>
  </scstep>
  <scstep>
   <time name="dav">   60.85   60.86</time>
   <time name="total">   65.56   65.57</time>
   <energy>
    <i name="e_fr_energy">   -523.50789489 </i>
    <i name="e_wo_entrp">   -523.50789489 </i>
    <i name="e_0_energy">   -523.50789489 </i>
   </energy>
  </scstep>
  <scstep>
   <time name="dav">   65.87   65.87</time>
   <time name="total">   70.56   70.57</time>
   <energy>
    <i name="e_fr_energy">   -523.49471207 </i>
    <i name="e_wo_entrp">   -523.49471207 </i>
    <i name="e_0_energy">   -523.49471207 </i>
   </energy>
  </scstep>
  <scstep>
   <time name="dav">   57.74   57.74</time>
   <time name="total">   62.44   62.45</time>
   <energy>
    <i name="e_fr_energy">   -523.49152437 </i>
    <i name="e_wo_entrp">   -523.49152437 </i>
    <i name="e_0_energy">   -523.49152437 </i>
   </energy>
  </scstep>
  <scstep>
   <time name="dav">   57.87   57.88</time>
   <time name="total">   62.57   62.59</time>
   <energy>
    <i name="e_fr_energy">   -523.49024337 </i>
    <i name="e_wo_entrp">   -523.49024337 </i>
    <i name="e_0_energy">   -523.49024337 </i>
   </energy>
  </scstep>
  <scstep>
   <time name="dav">   60.13   60.13</time>
   <time name="total">   64.82   64.84</time>
   <energy>
    <i name="e_fr_energy">   -523.49165040 </i>
    <i name="e_wo_entrp">   -523.49165040 </i>
    <i name="e_0_energy">   -523.49165040 </i>
   </energy>
  </scstep>
  <scstep>
   <time name="dav">   62.29   62.30</time>
   <time name="total">   66.99   67.00</time>
   <energy>
    <i name="e_fr_energy">   -523.49366302 </i>
    <i name="e_wo_entrp">   -523.49366302 </i>
    <i name="e_0_energy">   -523.49366302 </i>
   </energy>
  </scstep>
  <scstep>
   <time name="dav">   54.05   54.05</time>
   <time name="total">   58.75   58.76</time>
   <energy>
    <i name="e_fr_energy">   -523.49693547 </i>
    <i name="e_wo_entrp">   -523.49693547 </i>
    <i name="e_0_energy">   -523.49693547 </i>
   </energy>
  </scstep>
  <scstep>
   <time name="dav">   56.50   56.50</time>
   <time name="total">   61.22   61.23</time>
   <energy>
    <i name="e_fr_energy">   -523.49900505 </i>
    <i name="e_wo_entrp">   -523.49900505 </i>
    <i name="e_0_energy">   -523.49900505 </i>
   </energy>
  </scstep>
  <scstep>
   <time name="dav">   52.05   52.05</time>
   <time name="total">   56.76   56.77</time>
   <energy>
    <i name="e_fr_energy">   -523.50029399 </i>
    <i name="e_wo_entrp">   -523.50029399 </i>
    <i name="e_0_energy">   -523.50029399 </i>
   </energy>
  </scstep>
  <scstep>
   <time name="dav">   48.20   48.20</time>
   <time name="total">   52.92   52.93</time>
   <energy>
    <i name="e_fr_energy">   -523.50142824 </i>
    <i name="e_wo_entrp">   -523.50142824 </i>
    <i name="e_0_energy">   -523.50142824 </i>
   </energy>
  </scstep>
  <scstep>
   <time name="dav">   50.05   50.05</time>
   <time name="total">   54.74   54.75</time>
   <energy>
    <i name="e_fr_energy">   -523.50183701 </i>
    <i name="e_wo_entrp">   -523.50183701 </i>
    <i name="e_0_energy">   -523.50183701 </i>
   </energy>
  </scstep>
  <scstep>
   <time name="dav">   45.23   45.23</time>
   <time name="total">   49.94   49.94</time>
   <energy>
    <i name="e_fr_energy">   -523.50217269 </i>
    <i name="e_wo_entrp">   -523.50217269 </i>
    <i name="e_0_energy">   -523.50217269 </i>
   </energy>
  </scstep>
  <scstep>
   <time name="dav">   43.13   43.13</time>
   <time name="total">   47.84   47.85</time>
   <energy>
    <i name="e_fr_energy">   -523.50282425 </i>
    <i name="e_wo_entrp">   -523.50282425 </i>
    <i name="e_0_energy">   -523.50282425 </i>
   </energy>
  </scstep>
  <scstep>
   <time name="dav">   43.44   43.44</time>
   <time name="total">   48.16   48.16</time>
   <energy>
    <i name="e_fr_energy">   -523.50295143 </i>
    <i name="e_wo_entrp">   -523.50295143 </i>
    <i name="e_0_energy">   -523.50295143 </i>
   </energy>
  </scstep>
  <scstep>
   <time name="dav">   38.03   38.04</time>
   <time name="total">   42.74   42.75</time>
   <energy>
    <i name="e_fr_energy">   -523.50302287 </i>
    <i name="e_wo_entrp">   -523.50302287 </i>
    <i name="e_0_energy">   -523.50302287 </i>
   </energy>
  </scstep>
  <scstep>
   <time name="dav">   40.65   40.65</time>
   <time name="total">   45.35   45.36</time>
   <energy>
    <i name="e_fr_energy">   -523.50310577 </i>
    <i name="e_wo_entrp">   -523.50310577 </i>
    <i name="e_0_energy">   -523.50310577 </i>
   </energy>
  </scstep>
  <scstep>
   <time name="dav">   34.71   34.71</time>
   <time name="total">   39.43   39.44</time>
   <energy>
    <i name="e_fr_energy">   -523.50312657 </i>
    <i name="e_wo_entrp">   -523.50312657 </i>
    <i name="e_0_energy">   -523.50312657 </i>
   </energy>
  </scstep>
  <scstep>
   <time name="dav">   35.49   35.49</time>
   <time name="total">   40.20   40.21</time>
   <energy>
    <i name="e_fr_energy">   -523.50314230 </i>
    <i name="e_wo_entrp">   -523.50314230 </i>
    <i name="e_0_energy">   -523.50314230 </i>
   </energy>
  </scstep>
  <scstep>
   <time name="dav">   33.79   33.79</time>
   <time name="total">   38.49   38.51</time>
   <energy>
    <i name="e_fr_energy">   -523.50315137 </i>
    <i name="e_wo_entrp">   -523.50315137 </i>
    <i name="e_0_energy">   -523.50315137 </i>
   </energy>
  </scstep>
  <scstep>
   <time name="dav">   34.01   34.02</time>
   <time name="total">   38.73   38.74</time>
   <energy>
    <i name="e_fr_energy">   -523.50316009 </i>
    <i name="e_wo_entrp">   -523.50316009 </i>
    <i name="e_0_energy">   -523.50316009 </i>
   </energy>
  </scstep>
  <scstep>
   <time name="dav">   34.06   34.06</time>
   <time name="total">   38.79   38.80</time>
   <energy>
    <i name="e_fr_energy">   -523.50316434 </i>
    <i name="e_wo_entrp">   -523.50316434 </i>
    <i name="e_0_energy">   -523.50316434 </i>
   </energy>
  </scstep>
  <scstep>
   <time name="dav">   32.51   32.51</time>
   <time name="total">   33.32   33.33</time>
   <energy>
    <i name="alphaZ">    784.57699423 </i>
    <i name="ewald"> 253986.77292746 </i>
    <i name="hartreedc">-301930.73726934 </i>
    <i name="XCdc">   2491.92393922 </i>
    <i name="pawpsdc">  60108.97802462 </i>
    <i name="pawaedc"> -59942.44755516 </i>
    <i name="eentropy">     -0.00000000 </i>
    <i name="bandstr"> -12233.29416357 </i>
    <i name="atom">  56210.72393729 </i>
    <i name="e_fr_energy">   -523.50316525 </i>
    <i name="e_wo_entrp">   -523.50316525 </i>
    <i name="e_0_energy">   -523.50316525 </i>
   </energy>
  </scstep>
  <structure>
   <crystal>
    <varray name="basis" >
     <v>      13.79398668       0.00000000       0.00000000 </v>
     <v>      -6.89699334      11.94594288       0.00000000 </v>
     <v>       0.00000000       0.00000000      27.81022107 </v>
    </varray>
    <i name="volume">   4582.62876984 </i>
    <varray name="rec_basis" >
     <v>       0.07249536       0.04185521       0.00000000 </v>
     <v>       0.00000000       0.08371043       0.00000000 </v>
     <v>       0.00000000       0.00000000       0.03595800 </v>
    </varray>
   </crystal>
   <varray name="positions" >
    <v>       0.08683498       0.17378488       0.54728979 </v>
    <v>       0.08048335       0.41860396       0.54657145 </v>
    <v>       0.07497659       0.66359254       0.54202437 </v>
    <v>       0.08132221       0.91301934       0.54415809 </v>
    <v>       0.33277273       0.16342243       0.54349058 </v>
    <v>       0.34072770       0.41825648       0.54042452 </v>
    <v>       0.34011640       0.66083745       0.54528330 </v>
    <v>       0.34576870       0.91374959       0.53886952 </v>
    <v>       0.58399205       0.16523708       0.54326829 </v>
    <v>       0.58351728       0.41846362       0.53826988 </v>
    <v>       0.59205315       0.67271433       0.54713788 </v>
    <v>       0.57377994       0.91334186       0.54058308 </v>
    <v>       0.82469477       0.15938569       0.54393348 </v>
    <v>       0.83009545       0.42347121       0.54337063 </v>
    <v>       0.82503111       0.66760359       0.54249687 </v>
    <v>       0.83390783       0.91467956       0.54633576 </v>
    <v>       0.16462941       0.07795701       0.45764715 </v>
    <v>       0.15726994       0.31983390       0.45654554 </v>
    <v>       0.16722511       0.58171793       0.46029460 </v>
    <v>       0.15987266       0.83425704       0.45901051 </v>
    <v>       0.39859999       0.08253263       0.45777149 </v>
    <v>       0.42250134       0.34110469       0.45792528 </v>
    <v>       0.43296597       0.59519109       0.45198268 </v>
    <v>       0.39849347       0.82570565       0.45288194 </v>
    <v>       0.65391744       0.07661763       0.45507959 </v>
    <v>       0.67876682       0.32117356       0.45502428 </v>
    <v>       0.66868274       0.59041366       0.45179287 </v>
    <v>       0.66491033       0.85361842       0.45070759 </v>
    <v>       0.92353962       0.09402005       0.46094467 </v>
    <v>       0.91193220       0.33027097       0.45801422 </v>
    <v>       0.92571372       0.58437000       0.45712541 </v>
    <v>       0.90839057       0.83973741       0.45638459 </v>
    <v>       0.07325996       0.16950607       0.39269354 </v>
    <v>       0.11882886       0.42983624       0.40127961 </v>
    <v>       0.08439402       0.68357637       0.39512570 </v>
    <v>       0.08716969       0.91817530       0.39881603 </v>
    <v>       0.34145804       0.16740492       0.39493904 </v>
    <v>       0.34408376       0.41794621       0.39508252 </v>
    <v>       0.31819029       0.65954222       0.39539985 </v>
    <v>       0.32600538       0.91146552       0.38982191 </v>
    <v>       0.59200882       0.16590948       0.39870448 </v>
    <v>       0.57987497       0.40254035       0.39550384 </v>
    <v>       0.58651549       0.67759688       0.39487209 </v>
    <v>       0.55611248       0.90752034       0.39250893 </v>
    <v>       0.83974193       0.17245348       0.39720367 </v>
    <v>       0.86758894       0.43265628       0.39444465 </v>
    <v>       0.83574768       0.66978380       0.39867243 </v>
    <v>       0.85043736       0.93300346       0.39243202 </v>
    <v>       0.15215631       0.07213790       0.60787662 </v>
    <v>       0.16701919       0.33280831       0.60943374 </v>
    <v>       0.15669844       0.57903347       0.60334235 </v>
    <v>       0.17276735       0.82635096       0.60900464 </v>
    <v>       0.40940208       0.06793494       0.60106542 </v>
    <v>       0.39745740       0.30867390       0.60444784 </v>
    <v>       0.42070126       0.58394899       0.60130021 </v>
    <v>       0.41458134       0.82675856       0.61042385 </v>
    <v>       0.67159818       0.07556797       0.60026420 </v>
    <v>       0.64269219       0.31708452       0.60841942 </v>
    <v>       0.67279856       0.58479824       0.61043953 </v>
    <v>       0.65461252       0.83831930       0.60858067 </v>
    <v>       0.92525232       0.07960329       0.60607271 </v>
    <v>       0.91972705       0.33141391       0.59928062 </v>
    <v>       0.91455817       0.59759152       0.60021847 </v>
    <v>       0.93419901       0.83362501       0.60293387 </v>
    <v>       0.99404360       0.99568800       0.50258550 </v>
    <v>       0.00070958       0.25818711       0.50073642 </v>
    <v>       0.00568023       0.50165968       0.50172198 </v>
    <v>       0.99365914       0.74594978       0.50202603 </v>
    <v>       0.25047229       0.99911380       0.50066965 </v>
    <v>       0.25492826       0.25906341       0.49826171 </v>
    <v>       0.26091476       0.50693585       0.50375532 </v>
    <v>       0.25617357       0.75690922       0.50039511 </v>
    <v>       0.50546324       0.00590181       0.49878968 </v>
    <v>       0.50626457       0.24647086       0.50012622 </v>
    <v>       0.51401650       0.50881711       0.49696772 </v>
    <v>       0.49838269       0.75563242       0.49510168 </v>
    <v>       0.74347534       0.00685369       0.49567376 </v>
    <v>       0.75522149       0.25169499       0.50276954 </v>
    <v>       0.75020646       0.49533404       0.49660059 </v>
    <v>       0.75050991       0.74834265       0.50006848 </v>
   </varray>
  </structure>
  <varray name="forces" >
   <v>       0.29436543      -0.19393246       0.49258530 </v>
   <v>       1.08229988       0.16365202      -0.20186044 </v>
   <v>       0.86585374       0.95445461       1.72724757 </v>
   <v>       0.45270688       0.01349448       0.83140801 </v>
   <v>       0.12273608       0.09584429       0.82664347 </v>
   <v>      -0.94126728       0.30700791       0.96578581 </v>
   <v>      -1.00656738       0.63003184      -0.21346096 </v>
   <v>      -1.45316081      -0.05688762       2.40433866 </v>
   <v>      -0.54686227       0.06988427       0.71423935 </v>
   <v>       1.14334997      -0.42458752       1.40852836 </v>
   <v>      -0.17598470       0.01828917      -0.73583424 </v>
   <v>       0.34459129      -0.04243172       0.58904254 </v>
   <v>       0.41141255       0.74672569       0.22258445 </v>
   <v>       0.14511522      -0.58848008       0.84421057 </v>
   <v>       0.89794952      -0.26634045       0.09058717 </v>
   <v>      -0.22297727       0.08863936       0.15227273 </v>
   <v>      -0.40030417       0.64114041      -0.45316561 </v>
   <v>       0.79829993       1.47387810      -0.03003095 </v>
   <v>       0.50452792       0.18962842      -0.49036844 </v>
   <v>       0.73058154      -0.45793695      -0.76741898 </v>
   <v>       2.40612068       0.20074950      -1.26321125 </v>
   <v>       0.18978011      -0.71430690      -1.68355562 </v>
   <v>      -1.47746096      -0.76362239       0.66813939 </v>
   <v>       0.82704032       0.09504035      -0.51468682 </v>
   <v>       1.03246639       0.41271599      -0.43845735 </v>
   <v>      -1.86215549       1.51712712      -0.16936624 </v>
   <v>       0.58971996      -0.72427094       0.20075796 </v>
   <v>       0.46183834      -0.99342183       0.25252704 </v>
   <v>      -0.62499523      -0.82188327      -1.24307874 </v>
   <v>       0.98473701       0.33231352      -0.24566326 </v>
   <v>      -1.04865028       0.12497557      -0.76705572 </v>
   <v>       0.83806001      -0.36627539      -0.36889065 </v>
   <v>       0.74124710      -0.09970456       0.54966092 </v>
   <v>      -1.45677332      -0.41044244      -0.79940470 </v>
   <v>       0.32204419      -0.59083161       0.30123572 </v>
   <v>      -0.48330836       0.22473092      -0.22058728 </v>
   <v>      -0.72317142       0.01423218       0.11666287 </v>
   <v>      -0.05604811       0.03737051       0.19082807 </v>
   <v>       0.62399566       0.41714513      -0.04003869 </v>
   <v>      -0.18447339       0.39105477       0.80342807 </v>
   <v>      -0.71000358      -0.03929971      -1.13942175 </v>
   <v>       0.33825857       0.60866217       0.11206280 </v>
   <v>       0.45884825       0.16936564      -0.70070027 </v>
   <v>       1.00440746       0.61213855      -0.18205608 </v>
   <v>      -0.18424506      -0.08200633       0.00196314 </v>
   <v>      -0.64061468      -0.59313077      -0.08500746 </v>
   <v>       0.08065221       0.08276443      -0.48895195 </v>
   <v>      -0.63171042      -0.43665765       0.47745341 </v>
   <v>       0.60860058       0.42308785      -0.66793244 </v>
   <v>       0.04937877       0.07502700      -0.67251076 </v>
   <v>       0.34190036       0.33236203       0.20756579 </v>
   <v>      -0.34523721       0.13498929      -1.03622368 </v>
   <v>       0.04870400       0.45274604       0.08765365 </v>
   <v>       0.15262963       1.17076315      -0.05988755 </v>
   <v>       0.41749392      -0.37905900       0.67862058 </v>
   <v>       0.04616351       0.17412115      -1.05997852 </v>
   <v>      -0.65160170       0.16776264       0.75205735 </v>
   <v>       0.60118598       0.65480870      -0.64632007 </v>
   <v>      -0.45552975      -0.05332607      -0.90133829 </v>
   <v>       0.89367121      -0.27227922      -0.74856968 </v>
   <v>      -0.73924981      -0.01988031      -0.19352255 </v>
   <v>      -0.79839044      -0.14452299       0.94139453 </v>
   <v>       0.40592974      -1.02776403       0.60316410 </v>
   <v>      -1.49499051      -0.31560443       0.46648777 </v>
   <v>       0.19894073       0.72182488      -0.26414836 </v>
   <v>       0.71853538      -1.17830159       0.20808888 </v>
   <v>      -0.78668846      -0.02711395      -0.24866714 </v>
   <v>       0.40730573       0.61833463      -0.55842108 </v>
   <v>      -0.92719012       0.10152789      -0.21511684 </v>
   <v>       0.16019981      -1.37766195       0.45913072 </v>
   <v>      -0.31759390      -0.46776583      -0.42744921 </v>
   <v>      -0.70870071      -0.93633681      -0.39778259 </v>
   <v>      -0.68439372      -0.90450440       0.15961676 </v>
   <v>      -1.05226662       0.20791043      -0.09014793 </v>
   <v>      -0.73564535      -0.28671464       0.49131447 </v>
   <v>       0.77232803      -0.13135631       0.55625760 </v>
   <v>       0.97667800      -0.69659850       0.62299218 </v>
   <v>      -0.30626339      -0.06977582      -0.56482887 </v>
   <v>      -0.05103623       0.29271746       0.55143748 </v>
   <v>      -0.60713953       0.79397639       0.26514375 </v>
  </varray>
  <varray name="stress" >
   <v>       5.15264683      -0.24182829      -0.54415458 </v>
   <v>      -0.24182830       5.36500537       1.86380030 </v>
   <v>      -0.54415460       1.86380030       4.89451402 </v>
  </varray>
  <energy>
   <i name="e_fr_energy">   -523.50316525 </i>
   <i name="e_wo_entrp">   -523.50316525 </i>
   <i name="e_0_energy">     -0.00000000 </i>
  </energy>
  <time name="totalsc"> 1855.65 1856.01</time>
  <eigenvalues>
   <array>
    <dimension dim="1">band</dimension>
    <dimension dim="2">kpoint</dimension>
    <dimension dim="3">spin</dimension>
    <field>eigene</field>
    <field>occ</field>
    <set>
     <set comment="spin 1">
      <set comment="kpoint 1">
       <r>  -51.9826    1.0000 </r>
       <r>  -51.9572    1.0000 </r>
       <r>  -51.9401    1.0000 </r>
       <r>  -51.8473    1.0000 </r>
       <r>  -51.8051    1.0000 </r>
       <r>  -51.6313    1.0000 </r>
       <r>  -51.6196    1.0000 </r>
       <r>  -51.6083    1.0000 </r>
       <r>  -51.5760    1.0000 </r>
       <r>  -51.5318    1.0000 </r>
       <r>  -51.5125    1.0000 </r>
       <r>  -51.4875    1.0000 </r>
       <r>  -51.4824    1.0000 </r>
       <r>  -51.4712    1.0000 </r>
       <r>  -51.4345    1.0000 </r>
       <r>  -51.4202    1.0000 </r>
       <r>  -51.4187    1.0000 </r>
       <r>  -51.3892    1.0000 </r>
       <r>  -51.3779    1.0000 </r>
       <r>  -51.3713    1.0000 </r>
       <r>  -51.3675    1.0000 </r>
       <r>  -51.3554    1.0000 </r>
       <r>  -51.3379    1.0000 </r>
       <r>  -51.3341    1.0000 </r>
       <r>  -51.3326    1.0000 </r>
       <r>  -51.3192    1.0000 </r>
       <r>  -51.2651    1.0000 </r>
       <r>  -51.2626    1.0000 </r>
       <r>  -51.2589    1.0000 </r>
       <r>  -51.2537    1.0000 </r>
       <r>  -51.2202    1.0000 </r>
       <r>  -51.0917    1.0000 </r>
       <r>  -30.6797    1.0000 </r>
       <r>  -30.6619    1.0000 </r>
       <r>  -30.6432    1.0000 </r>
       <r>  -30.6267    1.0000 </r>
       <r>  -30.6245    1.0000 </r>
       <r>  -30.6052    1.0000 </r>
       <r>  -30.5952    1.0000 </r>
       <r>  -30.5884    1.0000 </r>
       <r>  -30.5482    1.0000 </r>
       <r>  -30.5463    1.0000 </r>
       <r>  -30.5255    1.0000 </r>
       <r>  -30.5186    1.0000 </r>
       <r>  -30.4758    1.0000 </r>
       <r>  -30.4597    1.0000 </r>
       <r>  -30.4297    1.0000 </r>
       <r>  -30.3745    1.0000 </r>
       <r>  -30.3636    1.0000 </r>
       <r>  -30.3465    1.0000 </r>
       <r>  -30.3440    1.0000 </r>
       <r>  -30.3292    1.0000 </r>
       <r>  -30.3153    1.0000 </r>
       <r>  -30.3052    1.0000 </r>
       <r>  -30.2918    1.0000 </r>
       <r>  -30.2874    1.0000 </r>
       <r>  -30.2748    1.0000 </r>
       <r>  -30.2669    1.0000 </r>
       <r>  -30.2635    1.0000 </r>
       <r>  -30.2573    1.0000 </r>
       <r>  -30.2503    1.0000 </r>
       <r>  -30.2414    1.0000 </r>
       <r>  -30.2353    1.0000 </r>
       <r>  -30.2313    1.0000 </r>
       <r>  -30.2106    1.0000 </r>
       <r>  -30.2039    1.0000 </r>
       <r>  -30.2001    1.0000 </r>
       <r>  -30.1879    1.0000 </r>
       <r>  -30.1870    1.0000 </r>
       <r>  -30.1749    1.0000 </r>
       <r>  -30.1674    1.0000 </r>
       <r>  -30.1629    1.0000 </r>
       <r>  -30.1518    1.0000 </r>
       <r>  -30.1458    1.0000 </r>
       <r>  -30.1392    1.0000 </r>
       <r>  -30.1307    1.0000 </r>
       <r>  -30.1271    1.0000 </r>
       <r>  -30.1172    1.0000 </r>
       <r>  -30.1150    1.0000 </r>
       <r>  -30.1067    1.0000 </r>
       <r>  -30.1027    1.0000 </r>
       <r>  -30.0959    1.0000 </r>
       <r>  -30.0904    1.0000 </r>
       <r>  -30.0773    1.0000 </r>
       <r>  -30.0742    1.0000 </r>
       <r>  -30.0706    1.0000 </r>
       <r>  -30.0566    1.0000 </r>
       <r>  -30.0534    1.0000 </r>
       <r>  -30.0462    1.0000 </r>
       <r>  -30.0429    1.0000 </r>
       <r>  -30.0346    1.0000 </r>
       <r>  -30.0300    1.0000 </r>
       <r>  -30.0261    1.0000 </r>
       <r>  -30.0219    1.0000 </r>
       <r>  -30.0194    1.0000 </r>
       <r>  -30.0176    1.0000 </r>
       <r>  -30.0100    1.0000 </r>
       <r>  -30.0087    1.0000 </r>
       <r>  -30.0012    1.0000 </r>
       <r>  -29.9956    1.0000 </r>
       <r>  -29.9901    1.0000 </r>
       <r>  -29.9875    1.0000 </r>
       <r>  -29.9852    1.0000 </r>
       <r>  -29.9744    1.0000 </r>
       <r>  -29.9717    1.0000 </r>
       <r>  -29.9678    1.0000 </r>
       <r>  -29.9672    1.0000 </r>
       <r>  -29.9638    1.0000 </r>
       <r>  -29.9512    1.0000 </r>
       <r>  -29.9449    1.0000 </r>
       <r>  -29.9412    1.0000 </r>
       <r>  -29.9334    1.0000 </r>
       <r>  -29.9186    1.0000 </r>
       <r>  -29.9157    1.0000 </r>
       <r>  -29.9004    1.0000 </r>
       <r>  -29.8970    1.0000 </r>
       <r>  -29.8919    1.0000 </r>
       <r>  -29.8807    1.0000 </r>
       <r>  -29.8698    1.0000 </r>
       <r>  -29.8628    1.0000 </r>
       <r>  -29.8579    1.0000 </r>
       <r>  -29.8536    1.0000 </r>
       <r>  -29.8449    1.0000 </r>
       <r>  -29.8268    1.0000 </r>
       <r>  -29.8036    1.0000 </r>
       <r>  -29.7661    1.0000 </r>
       <r>  -29.7037    1.0000 </r>
       <r>  -29.6896    1.0000 </r>
       <r>  -18.6660    1.0000 </r>
       <r>  -18.5224    1.0000 </r>
       <r>  -18.4734    1.0000 </r>
       <r>  -18.4306    1.0000 </r>
       <r>  -18.3991    1.0000 </r>
       <r>  -18.3881    1.0000 </r>
       <r>  -18.3124    1.0000 </r>
       <r>  -18.2609    1.0000 </r>
       <r>  -18.2512    1.0000 </r>
       <r>  -18.2209    1.0000 </r>
       <r>  -18.2149    1.0000 </r>
       <r>  -18.1726    1.0000 </r>
       <r>  -18.1018    1.0000 </r>
       <r>  -18.0505    1.0000 </r>
       <r>  -18.0474    1.0000 </r>
       <r>  -18.0222    1.0000 </r>
       <r>  -17.9484    1.0000 </r>
       <r>  -17.9066    1.0000 </r>
       <r>  -17.8890    1.0000 </r>
       <r>  -17.8619    1.0000 </r>
       <r>  -17.8381    1.0000 </r>
       <r>  -17.8323    1.0000 </r>
       <r>  -17.8078    1.0000 </r>
       <r>  -17.7687    1.0000 </r>
       <r>  -17.7431    1.0000 </r>
       <r>  -17.6718    1.0000 </r>
       <r>  -17.6518    1.0000 </r>
       <r>  -17.6285    1.0000 </r>
       <r>  -17.5243    1.0000 </r>
       <r>  -17.4927    1.0000 </r>
       <r>  -17.4578    1.0000 </r>
       <r>  -17.0379    1.0000 </r>
       <r>  -11.9510    1.0000 </r>
       <r>  -11.6314    1.0000 </r>
       <r>  -11.6065    1.0000 </r>
       <r>  -11.5574    1.0000 </r>
       <r>  -11.5334    1.0000 </r>
       <r>  -11.4946    1.0000 </r>
       <r>  -11.3999    1.0000 </r>
       <r>  -11.1912    1.0000 </r>
       <r>  -11.1659    1.0000 </r>
       <r>  -11.1198    1.0000 </r>
       <r>  -11.0747    1.0000 </r>
       <r>  -11.0599    1.0000 </r>
       <r>  -10.9892    1.0000 </r>
       <r>  -10.9357    1.0000 </r>
       <r>  -10.8997    1.0000 </r>
       <r>  -10.7935    1.0000 </r>
       <r>   -8.0603    1.0000 </r>
       <r>   -7.9825    1.0000 </r>
       <r>   -7.9428    1.0000 </r>
       <r>   -7.8552    1.0000 </r>
       <r>   -7.7661    1.0000 </r>
       <r>   -7.7042    1.0000 </r>
       <r>   -7.6018    1.0000 </r>
       <r>   -7.5939    1.0000 </r>
       <r>   -7.5747    1.0000 </r>
       <r>   -7.5612    1.0000 </r>
       <r>   -7.5127    1.0000 </r>
       <r>   -7.5049    1.0000 </r>
       <r>   -7.4726    1.0000 </r>
       <r>   -7.4361    1.0000 </r>
       <r>   -7.3971    1.0000 </r>
       <r>   -7.3123    1.0000 </r>
       <r>   -7.2936    1.0000 </r>
       <r>   -7.2720    1.0000 </r>
       <r>   -7.2290    1.0000 </r>
       <r>   -7.1734    1.0000 </r>
       <r>   -7.1638    1.0000 </r>
       <r>   -7.1358    1.0000 </r>
       <r>   -7.0757    1.0000 </r>
       <r>   -7.0561    1.0000 </r>
       <r>   -7.0307    1.0000 </r>
       <r>   -6.9999    1.0000 </r>
       <r>   -6.9963    1.0000 </r>
       <r>   -6.9802    1.0000 </r>
       <r>   -6.9496    1.0000 </r>
       <r>   -6.9297    1.0000 </r>
       <r>   -6.9163    1.0000 </r>
       <r>   -6.8853    1.0000 </r>
       <r>   -6.8488    1.0000 </r>
       <r>   -6.8347    1.0000 </r>
       <r>   -6.8115    1.0000 </r>
       <r>   -6.7879    1.0000 </r>
       <r>   -6.7644    1.0000 </r>
       <r>   -6.7466    1.0000 </r>
       <r>   -6.7409    1.0000 </r>
       <r>   -6.7250    1.0000 </r>
       <r>   -6.7085    1.0000 </r>
       <r>   -6.6965    1.0000 </r>
       <r>   -6.6627    1.0000 </r>
       <r>   -6.6514    1.0000 </r>
       <r>   -6.6387    1.0000 </r>
       <r>   -6.6235    1.0000 </r>
       <r>   -6.6077    1.0000 </r>
       <r>   -6.5899    1.0000 </r>
       <r>   -6.5697    1.0000 </r>
       <r>   -6.5522    1.0000 </r>
       <r>   -6.5440    1.0000 </r>
       <r>   -6.5286    1.0000 </r>
       <r>   -6.5215    1.0000 </r>
       <r>   -6.5074    1.0000 </r>
       <r>   -6.5064    1.0000 </r>
       <r>   -6.4807    1.0000 </r>
       <r>   -6.4373    1.0000 </r>
       <r>   -6.4262    1.0000 </r>
       <r>   -6.4222    1.0000 </r>
       <r>   -6.3878    1.0000 </r>
       <r>   -6.3823    1.0000 </r>
       <r>   -6.3758    1.0000 </r>
       <r>   -6.3369    1.0000 </r>
       <r>   -6.3163    1.0000 </r>
       <r>   -6.3066    1.0000 </r>
       <r>   -6.2857    1.0000 </r>
       <r>   -6.2666    1.0000 </r>
       <r>   -6.2470    1.0000 </r>
       <r>   -6.2074    1.0000 </r>
       <r>   -6.1739    1.0000 </r>
       <r>   -6.0971    1.0000 </r>
       <r>   -6.0686    1.0000 </r>
       <r>   -5.9465    1.0000 </r>
       <r>   -5.8969    1.0000 </r>
       <r>   -5.8759    1.0000 </r>
       <r>   -5.8634    1.0000 </r>
       <r>   -5.7825    1.0000 </r>
       <r>   -5.7117    1.0000 </r>
       <r>   -5.6915    1.0000 </r>
       <r>   -5.6515    1.0000 </r>
       <r>   -5.6237    1.0000 </r>
       <r>   -5.5567    1.0000 </r>
       <r>   -5.5386    1.0000 </r>
       <r>   -5.4773    1.0000 </r>
       <r>   -5.4533    1.0000 </r>
       <r>   -5.4462    1.0000 </r>
       <r>   -5.4302    1.0000 </r>
       <r>   -5.3683    1.0000 </r>
       <r>   -5.3056    1.0000 </r>
       <r>   -5.2872    1.0000 </r>
       <r>   -5.2435    1.0000 </r>
       <r>   -5.2064    1.0000 </r>
       <r>   -5.1204    1.0000 </r>
       <r>   -5.0464    1.0000 </r>
       <r>   -5.0170    1.0000 </r>
       <r>   -4.9763    1.0000 </r>
       <r>   -4.8987    1.0000 </r>
       <r>   -4.8485    1.0000 </r>
       <r>   -4.7727    1.0000 </r>
       <r>   -4.7610    1.0000 </r>
       <r>   -4.7536    1.0000 </r>
       <r>   -4.7319    1.0000 </r>
       <r>   -4.6860    1.0000 </r>
       <r>   -4.6348    1.0000 </r>
       <r>   -4.5983    1.0000 </r>
       <r>   -4.4079    1.0000 </r>
       <r>   -4.3462    1.0000 </r>
       <r>   -4.3195    1.0000 </r>
       <r>   -4.2930    1.0000 </r>
       <r>   -4.2773    1.0000 </r>
       <r>   -4.2454    1.0000 </r>
       <r>   -4.2131    1.0000 </r>
       <r>   -4.1951    1.0000 </r>
       <r>   -4.1707    1.0000 </r>
       <r>   -4.1503    1.0000 </r>
       <r>   -4.1470    1.0000 </r>
       <r>   -4.1195    1.0000 </r>
       <r>   -4.0998    1.0000 </r>
       <r>   -4.0289    1.0000 </r>
       <r>   -4.0174    1.0000 </r>
       <r>   -3.9885    1.0000 </r>
       <r>   -3.9775    1.0000 </r>
       <r>   -3.9475    1.0000 </r>
       <r>   -3.8781    1.0000 </r>
       <r>   -3.8444    1.0000 </r>
       <r>   -3.8301    1.0000 </r>
       <r>   -3.7790    1.0000 </r>
       <r>   -3.7678    1.0000 </r>
       <r>   -3.6587    1.0000 </r>
       <r>   -3.6411    1.0000 </r>
       <r>   -3.5927    1.0000 </r>
       <r>   -3.5735    1.0000 </r>
       <r>   -3.5508    1.0000 </r>
       <r>   -3.5156    1.0000 </r>
       <r>   -3.5032    1.0000 </r>
       <r>   -3.4909    1.0000 </r>
       <r>   -3.4394    1.0000 </r>
       <r>   -3.4287    1.0000 </r>
       <r>   -3.3927    1.0000 </r>
       <r>   -3.3713    1.0000 </r>
       <r>   -3.3477    1.0000 </r>
       <r>   -3.2793    1.0000 </r>
       <r>   -3.1670    1.0000 </r>
       <r>   -3.1223    1.0000 </r>
       <r>   -2.2315    0.0000 </r>
       <r>   -2.1877    0.0000 </r>
       <r>   -2.1821    0.0000 </r>
       <r>   -1.6700    0.0000 </r>
       <r>   -1.6162    0.0000 </r>
       <r>   -1.5694    0.0000 </r>
       <r>   -1.5401    0.0000 </r>
       <r>   -1.5026    0.0000 </r>
       <r>   -1.4662    0.0000 </r>
       <r>   -0.9281    0.0000 </r>
       <r>   -0.9207    0.0000 </r>
       <r>   -0.8304    0.0000 </r>
       <r>   -0.7776    0.0000 </r>
       <r>   -0.7258    0.0000 </r>
       <r>   -0.6906    0.0000 </r>
       <r>   -0.6424    0.0000 </r>
       <r>   -0.6246    0.0000 </r>
       <r>   -0.6132    0.0000 </r>
       <r>   -0.5892    0.0000 </r>
       <r>   -0.5351    0.0000 </r>
       <r>   -0.5146    0.0000 </r>
       <r>   -0.4828    0.0000 </r>
       <r>   -0.4397    0.0000 </r>
       <r>   -0.3193    0.0000 </r>
       <r>   -0.1128    0.0000 </r>
       <r>   -0.0808    0.0000 </r>
       <r>   -0.0400    0.0000 </r>
       <r>   -0.0313    0.0000 </r>
       <r>    0.0377    0.0000 </r>
       <r>    0.0487    0.0000 </r>
       <r>    0.1108    0.0000 </r>
       <r>    0.1264    0.0000 </r>
       <r>    0.1389    0.0000 </r>
       <r>    0.2077    0.0000 </r>
       <r>    0.2263    0.0000 </r>
       <r>    0.2535    0.0000 </r>
       <r>    0.2803    0.0000 </r>
       <r>    0.3467    0.0000 </r>
       <r>    0.4867    0.0000 </r>
       <r>    0.5162    0.0000 </r>
       <r>    0.5361    0.0000 </r>
       <r>    0.5632    0.0000 </r>
       <r>    0.5839    0.0000 </r>
       <r>    0.6060    0.0000 </r>
       <r>    0.6139    0.0000 </r>
       <r>    0.6342    0.0000 </r>
       <r>    0.6751    0.0000 </r>
       <r>    0.6865    0.0000 </r>
       <r>    0.6999    0.0000 </r>
       <r>    0.7096    0.0000 </r>
       <r>    0.7299    0.0000 </r>
       <r>    0.7568    0.0000 </r>
       <r>    0.7858    0.0000 </r>
       <r>    0.8111    0.0000 </r>
       <r>    0.8220    0.0000 </r>
       <r>    0.8365    0.0000 </r>
       <r>    0.8677    0.0000 </r>
       <r>    0.8823    0.0000 </r>
       <r>    0.9009    0.0000 </r>
       <r>    0.9066    0.0000 </r>
       <r>    0.9487    0.0000 </r>
       <r>    0.9526    0.0000 </r>
       <r>    0.9841    0.0000 </r>
       <r>    1.0095    0.0000 </r>
      </set>
      <set comment="kpoint 2">
       <r>  -51.9826    1.0000 </r>
       <r>  -51.9572    1.0000 </r>
       <r>  -51.9401    1.0000 </r>
       <r>  -51.8473    1.0000 </r>
       <r>  -51.8051    1.0000 </r>
       <r>  -51.6313    1.0000 </r>
       <r>  -51.6196    1.0000 </r>
       <r>  -51.6083    1.0000 </r>
       <r>  -51.5760    1.0000 </r>
       <r>  -51.5318    1.0000 </r>
       <r>  -51.5125    1.0000 </r>
       <r>  -51.4875    1.0000 </r>
       <r>  -51.4824    1.0000 </r>
       <r>  -51.4712    1.0000 </r>
       <r>  -51.4345    1.0000 </r>
       <r>  -51.4202    1.0000 </r>
       <r>  -51.4187    1.0000 </r>
       <r>  -51.3892    1.0000 </r>
       <r>  -51.3779    1.0000 </r>
       <r>  -51.3712    1.0000 </r>
       <r>  -51.3675    1.0000 </r>
       <r>  -51.3554    1.0000 </r>
       <r>  -51.3379    1.0000 </r>
       <r>  -51.3341    1.0000 </r>
       <r>  -51.3326    1.0000 </r>
       <r>  -51.3192    1.0000 </r>
       <r>  -51.2651    1.0000 </r>
       <r>  -51.2626    1.0000 </r>
       <r>  -51.2589    1.0000 </r>
       <r>  -51.2537    1.0000 </r>
       <r>  -51.2202    1.0000 </r>
       <r>  -51.0917    1.0000 </r>
       <r>  -30.6790    1.0000 </r>
       <r>  -30.6614    1.0000 </r>
       <r>  -30.6431    1.0000 </r>
       <r>  -30.6269    1.0000 </r>
       <r>  -30.6243    1.0000 </r>
       <r>  -30.6070    1.0000 </r>
       <r>  -30.5965    1.0000 </r>
       <r>  -30.5889    1.0000 </r>
       <r>  -30.5478    1.0000 </r>
       <r>  -30.5441    1.0000 </r>
       <r>  -30.5252    1.0000 </r>
       <r>  -30.5185    1.0000 </r>
       <r>  -30.4758    1.0000 </r>
       <r>  -30.4598    1.0000 </r>
       <r>  -30.4293    1.0000 </r>
       <r>  -30.3743    1.0000 </r>
       <r>  -30.3636    1.0000 </r>
       <r>  -30.3478    1.0000 </r>
       <r>  -30.3444    1.0000 </r>
       <r>  -30.3296    1.0000 </r>
       <r>  -30.3156    1.0000 </r>
       <r>  -30.3060    1.0000 </r>
       <r>  -30.2931    1.0000 </r>
       <r>  -30.2861    1.0000 </r>
       <r>  -30.2736    1.0000 </r>
       <r>  -30.2656    1.0000 </r>
       <r>  -30.2635    1.0000 </r>
       <r>  -30.2545    1.0000 </r>
       <r>  -30.2503    1.0000 </r>
       <r>  -30.2428    1.0000 </r>
       <r>  -30.2350    1.0000 </r>
       <r>  -30.2331    1.0000 </r>
       <r>  -30.2123    1.0000 </r>
       <r>  -30.2023    1.0000 </r>
       <r>  -30.2013    1.0000 </r>
       <r>  -30.1907    1.0000 </r>
       <r>  -30.1868    1.0000 </r>
       <r>  -30.1740    1.0000 </r>
       <r>  -30.1681    1.0000 </r>
       <r>  -30.1628    1.0000 </r>
       <r>  -30.1541    1.0000 </r>
       <r>  -30.1462    1.0000 </r>
       <r>  -30.1409    1.0000 </r>
       <r>  -30.1294    1.0000 </r>
       <r>  -30.1242    1.0000 </r>
       <r>  -30.1196    1.0000 </r>
       <r>  -30.1140    1.0000 </r>
       <r>  -30.1052    1.0000 </r>
       <r>  -30.1015    1.0000 </r>
       <r>  -30.0943    1.0000 </r>
       <r>  -30.0905    1.0000 </r>
       <r>  -30.0784    1.0000 </r>
       <r>  -30.0769    1.0000 </r>
       <r>  -30.0638    1.0000 </r>
       <r>  -30.0589    1.0000 </r>
       <r>  -30.0557    1.0000 </r>
       <r>  -30.0474    1.0000 </r>
       <r>  -30.0413    1.0000 </r>
       <r>  -30.0341    1.0000 </r>
       <r>  -30.0289    1.0000 </r>
       <r>  -30.0236    1.0000 </r>
       <r>  -30.0216    1.0000 </r>
       <r>  -30.0182    1.0000 </r>
       <r>  -30.0161    1.0000 </r>
       <r>  -30.0119    1.0000 </r>
       <r>  -30.0094    1.0000 </r>
       <r>  -30.0028    1.0000 </r>
       <r>  -29.9948    1.0000 </r>
       <r>  -29.9897    1.0000 </r>
       <r>  -29.9889    1.0000 </r>
       <r>  -29.9842    1.0000 </r>
       <r>  -29.9744    1.0000 </r>
       <r>  -29.9718    1.0000 </r>
       <r>  -29.9708    1.0000 </r>
       <r>  -29.9647    1.0000 </r>
       <r>  -29.9634    1.0000 </r>
       <r>  -29.9503    1.0000 </r>
       <r>  -29.9448    1.0000 </r>
       <r>  -29.9436    1.0000 </r>
       <r>  -29.9341    1.0000 </r>
       <r>  -29.9181    1.0000 </r>
       <r>  -29.9155    1.0000 </r>
       <r>  -29.9006    1.0000 </r>
       <r>  -29.8959    1.0000 </r>
       <r>  -29.8912    1.0000 </r>
       <r>  -29.8817    1.0000 </r>
       <r>  -29.8695    1.0000 </r>
       <r>  -29.8622    1.0000 </r>
       <r>  -29.8586    1.0000 </r>
       <r>  -29.8544    1.0000 </r>
       <r>  -29.8448    1.0000 </r>
       <r>  -29.8268    1.0000 </r>
       <r>  -29.8042    1.0000 </r>
       <r>  -29.7661    1.0000 </r>
       <r>  -29.7037    1.0000 </r>
       <r>  -29.6897    1.0000 </r>
       <r>  -18.6612    1.0000 </r>
       <r>  -18.5067    1.0000 </r>
       <r>  -18.4707    1.0000 </r>
       <r>  -18.4494    1.0000 </r>
       <r>  -18.4178    1.0000 </r>
       <r>  -18.3939    1.0000 </r>
       <r>  -18.3192    1.0000 </r>
       <r>  -18.2550    1.0000 </r>
       <r>  -18.2517    1.0000 </r>
       <r>  -18.2234    1.0000 </r>
       <r>  -18.2050    1.0000 </r>
       <r>  -18.1520    1.0000 </r>
       <r>  -18.1068    1.0000 </r>
       <r>  -18.0494    1.0000 </r>
       <r>  -18.0477    1.0000 </r>
       <r>  -18.0112    1.0000 </r>
       <r>  -17.9513    1.0000 </r>
       <r>  -17.9156    1.0000 </r>
       <r>  -17.8679    1.0000 </r>
       <r>  -17.8625    1.0000 </r>
       <r>  -17.8382    1.0000 </r>
       <r>  -17.8375    1.0000 </r>
       <r>  -17.8234    1.0000 </r>
       <r>  -17.7710    1.0000 </r>
       <r>  -17.7421    1.0000 </r>
       <r>  -17.6743    1.0000 </r>
       <r>  -17.6508    1.0000 </r>
       <r>  -17.6291    1.0000 </r>
       <r>  -17.5227    1.0000 </r>
       <r>  -17.4940    1.0000 </r>
       <r>  -17.4557    1.0000 </r>
       <r>  -17.0379    1.0000 </r>
       <r>  -11.9034    1.0000 </r>
       <r>  -11.7551    1.0000 </r>
       <r>  -11.6648    1.0000 </r>
       <r>  -11.5769    1.0000 </r>
       <r>  -11.4366    1.0000 </r>
[...]
       <r>   -32.4815     0.0000    64.0000 </r>
       <r>   -32.2872     0.0000    64.0000 </r>
       <r>   -32.0929     0.0000    64.0000 </r>
       <r>   -31.8986     0.0000    64.0000 </r>
       <r>   -31.7043     0.0000    64.0000 </r>
       <r>   -31.5099     0.0000    64.0000 </r>
       <r>   -31.3156     0.0000    64.0000 </r>
       <r>   -31.1213     0.0000    64.0000 </r>
       <r>   -30.9270     0.0000    64.0000 </r>
       <r>   -30.7327     0.9815    64.1907 </r>
       <r>   -30.5384    98.8541    83.3985 </r>
       <r>   -30.3441    89.7523   100.8378 </r>
       <r>   -30.1498   234.9042   146.4807 </r>
       <r>   -29.9555   348.3076   214.1583 </r>
       <r>   -29.7612   189.2453   250.9295 </r>
       <r>   -29.5669    26.0923   255.9994 </r>
       <r>   -29.3726     0.0032   256.0000 </r>
       <r>   -29.1783     0.0000   256.0000 </r>
       <r>   -28.9840     0.0000   256.0000 </r>
       <r>   -28.7897     0.0000   256.0000 </r>
       <r>   -28.5954     0.0000   256.0000 </r>
       <r>   -28.4011     0.0000   256.0000 </r>
       <r>   -28.2068     0.0000   256.0000 </r>
       <r>   -28.0125     0.0000   256.0000 </r>
       <r>   -27.8182     0.0000   256.0000 </r>
       <r>   -27.6239     0.0000   256.0000 </r>
       <r>   -27.4296     0.0000   256.0000 </r>
       <r>   -27.2353     0.0000   256.0000 </r>
       <r>   -27.0409     0.0000   256.0000 </r>
       <r>   -26.8466     0.0000   256.0000 </r>
       <r>   -26.6523     0.0000   256.0000 </r>
       <r>   -26.4580     0.0000   256.0000 </r>
       <r>   -26.2637     0.0000   256.0000 </r>
       <r>   -26.0694     0.0000   256.0000 </r>
       <r>   -25.8751     0.0000   256.0000 </r>
       <r>   -25.6808     0.0000   256.0000 </r>
       <r>   -25.4865     0.0000   256.0000 </r>
       <r>   -25.2922     0.0000   256.0000 </r>
       <r>   -25.0979     0.0000   256.0000 </r>
       <r>   -24.9036     0.0000   256.0000 </r>
       <r>   -24.7093     0.0000   256.0000 </r>
       <r>   -24.5150     0.0000   256.0000 </r>
       <r>   -24.3207     0.0000   256.0000 </r>
       <r>   -24.1264     0.0000   256.0000 </r>
       <r>   -23.9321     0.0000   256.0000 </r>
       <r>   -23.7378     0.0000   256.0000 </r>
       <r>   -23.5435     0.0000   256.0000 </r>
       <r>   -23.3492     0.0000   256.0000 </r>
       <r>   -23.1549     0.0000   256.0000 </r>
       <r>   -22.9606     0.0000   256.0000 </r>
       <r>   -22.7663     0.0000   256.0000 </r>
       <r>   -22.5719     0.0000   256.0000 </r>
       <r>   -22.3776     0.0000   256.0000 </r>
       <r>   -22.1833     0.0000   256.0000 </r>
       <r>   -21.9890     0.0000   256.0000 </r>
       <r>   -21.7947     0.0000   256.0000 </r>
       <r>   -21.6004     0.0000   256.0000 </r>
       <r>   -21.4061     0.0000   256.0000 </r>
       <r>   -21.2118     0.0000   256.0000 </r>
       <r>   -21.0175     0.0000   256.0000 </r>
       <r>   -20.8232     0.0000   256.0000 </r>
       <r>   -20.6289     0.0000   256.0000 </r>
       <r>   -20.4346     0.0000   256.0000 </r>
       <r>   -20.2403     0.0000   256.0000 </r>
       <r>   -20.0460     0.0000   256.0000 </r>
       <r>   -19.8517     0.0000   256.0000 </r>
       <r>   -19.6574     0.0000   256.0000 </r>
       <r>   -19.4631     0.0000   256.0000 </r>
       <r>   -19.2688     0.0000   256.0000 </r>
       <r>   -19.0745     0.0000   256.0000 </r>
       <r>   -18.8802     0.0000   256.0000 </r>
       <r>   -18.6859     2.5183   256.4893 </r>
       <r>   -18.4916    18.2365   260.0328 </r>
       <r>   -18.2973    52.6408   270.2611 </r>
       <r>   -18.1029    56.2918   281.1988 </r>
       <r>   -17.9086    54.0952   291.7098 </r>
       <r>   -17.7143    72.6915   305.8340 </r>
       <r>   -17.5200    39.9951   313.6053 </r>
       <r>   -17.3257    22.6164   317.9997 </r>
       <r>   -17.1314     0.0433   318.0082 </r>
       <r>   -16.9371    10.2287   319.9956 </r>
       <r>   -16.7428     0.0225   320.0000 </r>
       <r>   -16.5485     0.0000   320.0000 </r>
       <r>   -16.3542     0.0000   320.0000 </r>
       <r>   -16.1599     0.0000   320.0000 </r>
       <r>   -15.9656     0.0000   320.0000 </r>
       <r>   -15.7713     0.0000   320.0000 </r>
       <r>   -15.5770     0.0000   320.0000 </r>
       <r>   -15.3827     0.0000   320.0000 </r>
       <r>   -15.1884     0.0000   320.0000 </r>
       <r>   -14.9941     0.0000   320.0000 </r>
       <r>   -14.7998     0.0000   320.0000 </r>
       <r>   -14.6055     0.0000   320.0000 </r>
       <r>   -14.4112     0.0000   320.0000 </r>
       <r>   -14.2169     0.0000   320.0000 </r>
       <r>   -14.0226     0.0000   320.0000 </r>
       <r>   -13.8283     0.0000   320.0000 </r>
       <r>   -13.6339     0.0000   320.0000 </r>
       <r>   -13.4396     0.0000   320.0000 </r>
       <r>   -13.2453     0.0000   320.0000 </r>
       <r>   -13.0510     0.0000   320.0000 </r>
       <r>   -12.8567     0.0000   320.0000 </r>
       <r>   -12.6624     0.0000   320.0000 </r>
       <r>   -12.4681     0.0000   320.0000 </r>
       <r>   -12.2738     0.0000   320.0000 </r>
       <r>   -12.0795     0.0002   320.0000 </r>
       <r>   -11.8852     6.2429   321.2131 </r>
       <r>   -11.6909    16.5926   324.4371 </r>
       <r>   -11.4966    18.8898   328.1074 </r>
       <r>   -11.3023    26.1131   333.1813 </r>
       <r>   -11.1080    38.1336   340.5908 </r>
       <r>   -10.9137    37.3076   347.8399 </r>
       <r>   -10.7194    21.0334   351.9268 </r>
       <r>   -10.5251     0.3769   352.0000 </r>
       <r>   -10.3308     0.0000   352.0000 </r>
       <r>   -10.1365     0.0000   352.0000 </r>
       <r>    -9.9422     0.0000   352.0000 </r>
       <r>    -9.7479     0.0000   352.0000 </r>
       <r>    -9.5536     0.0000   352.0000 </r>
       <r>    -9.3593     0.0000   352.0000 </r>
       <r>    -9.1649     0.0000   352.0000 </r>
       <r>    -8.9706     0.0000   352.0000 </r>
       <r>    -8.7763     0.0000   352.0000 </r>
       <r>    -8.5820     0.0000   352.0000 </r>
       <r>    -8.3877     0.0000   352.0000 </r>
       <r>    -8.1934     0.0001   352.0000 </r>
       <r>    -7.9991     2.8376   352.5514 </r>
       <r>    -7.8048    29.4336   358.2705 </r>
       <r>    -7.6105    47.0050   367.4037 </r>
       <r>    -7.4162    65.0391   380.0411 </r>
       <r>    -7.2219    66.4155   392.9459 </r>
       <r>    -7.0276    66.6691   405.9000 </r>
       <r>    -6.8333    87.7311   422.9466 </r>
       <r>    -6.6390    97.2126   441.8354 </r>
       <r>    -6.4447   101.3309   461.5244 </r>
       <r>    -6.2504    89.1032   478.8376 </r>
       <r>    -6.0561    60.0203   490.4998 </r>
       <r>    -5.8618    52.9991   500.7977 </r>
       <r>    -5.6675    53.7734   511.2462 </r>
       <r>    -5.4732    60.2868   522.9601 </r>
       <r>    -5.2789    50.7081   532.8130 </r>
       <r>    -5.0846    31.1442   538.8644 </r>
       <r>    -4.8902    32.3309   545.1465 </r>
       <r>    -4.6959    58.3940   556.4927 </r>
       <r>    -4.5016    38.4398   563.9617 </r>
       <r>    -4.3073    35.7246   570.9031 </r>
       <r>    -4.1130    41.6954   579.0047 </r>
       <r>    -3.9187    79.8625   594.5223 </r>
       <r>    -3.7244    71.8651   608.4860 </r>
       <r>    -3.5301    74.4622   622.9544 </r>
       <r>    -3.3358    60.0621   634.6247 </r>
       <r>    -3.1415    25.3445   639.5492 </r>
       <r>    -2.9472     2.3198   640.0000 </r>
       <r>    -2.7529     0.0000   640.0000 </r>
       <r>    -2.5586     0.0000   640.0000 </r>
       <r>    -2.3643     0.0001   640.0000 </r>
       <r>    -2.1700     3.9738   640.7721 </r>
       <r>    -1.9757    10.2165   642.7573 </r>
       <r>    -1.7814    24.4934   647.5164 </r>
       <r>    -1.5871    13.3449   650.1094 </r>
       <r>    -1.3928    21.5475   654.2962 </r>
       <r>    -1.1985    28.4489   659.8239 </r>
       <r>    -1.0042    25.1978   664.7200 </r>
       <r>    -0.8099    17.6067   668.1410 </r>
       <r>    -0.6156    27.3225   673.4499 </r>
       <r>    -0.4212    38.7623   680.9816 </r>
       <r>    -0.2269    26.1213   686.0571 </r>
       <r>    -0.0326    40.7532   693.9756 </r>
       <r>     0.1617    33.0934   700.4058 </r>
       <r>     0.3560    49.2929   709.9836 </r>
       <r>     0.5503    62.7237   722.1711 </r>
       <r>     0.7446   104.1022   742.3986 </r>
       <r>     0.9389   107.5401   763.2941 </r>
       <r>     1.1332    24.2187   767.9999 </r>
       <r>     1.3275     0.0005   768.0000 </r>
       <r>     1.5218     0.0000   768.0000 </r>
       <r>     1.7161     0.0000   768.0000 </r>
       <r>     1.9104     0.0000   768.0000 </r>
       <r>     2.1047     0.0000   768.0000 </r>
       <r>     2.2990     0.0000   768.0000 </r>
       <r>     2.4933     0.0000   768.0000 </r>
       <r>     2.6876     0.0000   768.0000 </r>
       <r>     2.8819     0.0000   768.0000 </r>
       <r>     3.0762     0.0000   768.0000 </r>
       <r>     3.2705     0.0000   768.0000 </r>
       <r>     3.4648     0.0000   768.0000 </r>
       <r>     3.6591     0.0000   768.0000 </r>
      </set>
     </set>
    </array>
   </total>
  </dos>
 </calculation>
 <structure name="finalpos" >
  <crystal>
   <varray name="basis" >
    <v>      13.79398668       0.00000000       0.00000000 </v>
    <v>      -6.89699334      11.94594288       0.00000000 </v>
    <v>       0.00000000       0.00000000      27.81022107 </v>
   </varray>
   <i name="volume">   4582.62876984 </i>
   <varray name="rec_basis" >
    <v>       0.07249536       0.04185521       0.00000000 </v>
    <v>       0.00000000       0.08371043       0.00000000 </v>
    <v>       0.00000000       0.00000000       0.03595800 </v>
   </varray>
  </crystal>
  <varray name="positions" >
   <v>       0.08683498       0.17378488       0.54728979 </v>
   <v>       0.08048335       0.41860396       0.54657145 </v>
   <v>       0.07497659       0.66359254       0.54202437 </v>
   <v>       0.08132221       0.91301934       0.54415809 </v>
   <v>       0.33277273       0.16342243       0.54349058 </v>
   <v>       0.34072770       0.41825648       0.54042452 </v>
   <v>       0.34011640       0.66083745       0.54528330 </v>
   <v>       0.34576870       0.91374959       0.53886952 </v>
   <v>       0.58399205       0.16523708       0.54326829 </v>
   <v>       0.58351728       0.41846362       0.53826988 </v>
   <v>       0.59205315       0.67271433       0.54713788 </v>
   <v>       0.57377994       0.91334186       0.54058308 </v>
   <v>       0.82469477       0.15938569       0.54393348 </v>
   <v>       0.83009545       0.42347121       0.54337063 </v>
   <v>       0.82503111       0.66760359       0.54249687 </v>
   <v>       0.83390783       0.91467956       0.54633576 </v>
   <v>       0.16462941       0.07795701       0.45764715 </v>
   <v>       0.15726994       0.31983390       0.45654554 </v>
   <v>       0.16722511       0.58171793       0.46029460 </v>
   <v>       0.15987266       0.83425704       0.45901051 </v>
   <v>       0.39859999       0.08253263       0.45777149 </v>
   <v>       0.42250134       0.34110469       0.45792528 </v>
   <v>       0.43296597       0.59519109       0.45198268 </v>
   <v>       0.39849347       0.82570565       0.45288194 </v>
   <v>       0.65391744       0.07661763       0.45507959 </v>
   <v>       0.67876682       0.32117356       0.45502428 </v>
   <v>       0.66868274       0.59041366       0.45179287 </v>
   <v>       0.66491033       0.85361842       0.45070759 </v>
   <v>       0.92353962       0.09402005       0.46094467 </v>
   <v>       0.91193220       0.33027097       0.45801422 </v>
   <v>       0.92571372       0.58437000       0.45712541 </v>
   <v>       0.90839057       0.83973741       0.45638459 </v>
   <v>       0.07325996       0.16950607       0.39269354 </v>
   <v>       0.11882886       0.42983624       0.40127961 </v>
   <v>       0.08439402       0.68357637       0.39512570 </v>
   <v>       0.08716969       0.91817530       0.39881603 </v>
   <v>       0.34145804       0.16740492       0.39493904 </v>
   <v>       0.34408376       0.41794621       0.39508252 </v>
   <v>       0.31819029       0.65954222       0.39539985 </v>
   <v>       0.32600538       0.91146552       0.38982191 </v>
   <v>       0.59200882       0.16590948       0.39870448 </v>
   <v>       0.57987497       0.40254035       0.39550384 </v>
   <v>       0.58651549       0.67759688       0.39487209 </v>
   <v>       0.55611248       0.90752034       0.39250893 </v>
   <v>       0.83974193       0.17245348       0.39720367 </v>
   <v>       0.86758894       0.43265628       0.39444465 </v>
   <v>       0.83574768       0.66978380       0.39867243 </v>
   <v>       0.85043736       0.93300346       0.39243202 </v>
   <v>       0.15215631       0.07213790       0.60787662 </v>
   <v>       0.16701919       0.33280831       0.60943374 </v>
   <v>       0.15669844       0.57903347       0.60334235 </v>
   <v>       0.17276735       0.82635096       0.60900464 </v>
   <v>       0.40940208       0.06793494       0.60106542 </v>
   <v>       0.39745740       0.30867390       0.60444784 </v>
   <v>       0.42070126       0.58394899       0.60130021 </v>
   <v>       0.41458134       0.82675856       0.61042385 </v>
   <v>       0.67159818       0.07556797       0.60026420 </v>
   <v>       0.64269219       0.31708452       0.60841942 </v>
   <v>       0.67279856       0.58479824       0.61043953 </v>
   <v>       0.65461252       0.83831930       0.60858067 </v>
   <v>       0.92525232       0.07960329       0.60607271 </v>
   <v>       0.91972705       0.33141391       0.59928062 </v>
   <v>       0.91455817       0.59759152       0.60021847 </v>
   <v>       0.93419901       0.83362501       0.60293387 </v>
   <v>       0.99404360       0.99568800       0.50258550 </v>
   <v>       0.00070958       0.25818711       0.50073642 </v>
   <v>       0.00568023       0.50165968       0.50172198 </v>
   <v>       0.99365914       0.74594978       0.50202603 </v>
   <v>       0.25047229       0.99911380       0.50066965 </v>
   <v>       0.25492826       0.25906341       0.49826171 </v>
   <v>       0.26091476       0.50693585       0.50375532 </v>
   <v>       0.25617357       0.75690922       0.50039511 </v>
   <v>       0.50546324       0.00590181       0.49878968 </v>
   <v>       0.50626457       0.24647086       0.50012622 </v>
   <v>       0.51401650       0.50881711       0.49696772 </v>
   <v>       0.49838269       0.75563242       0.49510168 </v>
   <v>       0.74347534       0.00685369       0.49567376 </v>
   <v>       0.75522149       0.25169499       0.50276954 </v>
   <v>       0.75020646       0.49533404       0.49660059 </v>
   <v>       0.75050991       0.74834265       0.50006848 </v>
  </varray>
  <varray name="velocities" >
   <v>       0.00000000       0.00000000       0.00000000 </v>
   <v>       0.00000000       0.00000000       0.00000000 </v>
   <v>       0.00000000       0.00000000       0.00000000 </v>
   <v>       0.00000000       0.00000000       0.00000000 </v>
   <v>       0.00000000       0.00000000       0.00000000 </v>
   <v>       0.00000000       0.00000000       0.00000000 </v>
   <v>       0.00000000       0.00000000       0.00000000 </v>
   <v>       0.00000000       0.00000000       0.00000000 </v>
   <v>       0.00000000       0.00000000       0.00000000 </v>
   <v>       0.00000000       0.00000000       0.00000000 </v>
   <v>       0.00000000       0.00000000       0.00000000 </v>
   <v>       0.00000000       0.00000000       0.00000000 </v>
   <v>       0.00000000       0.00000000       0.00000000 </v>
   <v>       0.00000000       0.00000000       0.00000000 </v>
   <v>       0.00000000       0.00000000       0.00000000 </v>
   <v>       0.00000000       0.00000000       0.00000000 </v>
   <v>       0.00000000       0.00000000       0.00000000 </v>
   <v>       0.00000000       0.00000000       0.00000000 </v>
   <v>       0.00000000       0.00000000       0.00000000 </v>
   <v>       0.00000000       0.00000000       0.00000000 </v>
   <v>       0.00000000       0.00000000       0.00000000 </v>
   <v>       0.00000000       0.00000000       0.00000000 </v>
   <v>       0.00000000       0.00000000       0.00000000 </v>
   <v>       0.00000000       0.00000000       0.00000000 </v>
   <v>       0.00000000       0.00000000       0.00000000 </v>
   <v>       0.00000000       0.00000000       0.00000000 </v>
   <v>       0.00000000       0.00000000       0.00000000 </v>
   <v>       0.00000000       0.00000000       0.00000000 </v>
   <v>       0.00000000       0.00000000       0.00000000 </v>
   <v>       0.00000000       0.00000000       0.00000000 </v>
   <v>       0.00000000       0.00000000       0.00000000 </v>
   <v>       0.00000000       0.00000000       0.00000000 </v>
   <v>       0.00000000       0.00000000       0.00000000 </v>
   <v>       0.00000000       0.00000000       0.00000000 </v>
   <v>       0.00000000       0.00000000       0.00000000 </v>
   <v>       0.00000000       0.00000000       0.00000000 </v>
   <v>       0.00000000       0.00000000       0.00000000 </v>
   <v>       0.00000000       0.00000000       0.00000000 </v>
   <v>       0.00000000       0.00000000       0.00000000 </v>
   <v>       0.00000000       0.00000000       0.00000000 </v>
   <v>       0.00000000       0.00000000       0.00000000 </v>
   <v>       0.00000000       0.00000000       0.00000000 </v>
   <v>       0.00000000       0.00000000       0.00000000 </v>
   <v>       0.00000000       0.00000000       0.00000000 </v>
   <v>       0.00000000       0.00000000       0.00000000 </v>
   <v>       0.00000000       0.00000000       0.00000000 </v>
   <v>       0.00000000       0.00000000       0.00000000 </v>
   <v>       0.00000000       0.00000000       0.00000000 </v>
   <v>       0.00000000       0.00000000       0.00000000 </v>
   <v>       0.00000000       0.00000000       0.00000000 </v>
   <v>       0.00000000       0.00000000       0.00000000 </v>
   <v>       0.00000000       0.00000000       0.00000000 </v>
   <v>       0.00000000       0.00000000       0.00000000 </v>
   <v>       0.00000000       0.00000000       0.00000000 </v>
   <v>       0.00000000       0.00000000       0.00000000 </v>
   <v>       0.00000000       0.00000000       0.00000000 </v>
   <v>       0.00000000       0.00000000       0.00000000 </v>
   <v>       0.00000000       0.00000000       0.00000000 </v>
   <v>       0.00000000       0.00000000       0.00000000 </v>
   <v>       0.00000000       0.00000000       0.00000000 </v>
   <v>       0.00000000       0.00000000       0.00000000 </v>
   <v>       0.00000000       0.00000000       0.00000000 </v>
   <v>       0.00000000       0.00000000       0.00000000 </v>
   <v>       0.00000000       0.00000000       0.00000000 </v>
   <v>       0.00000000       0.00000000       0.00000000 </v>
   <v>       0.00000000       0.00000000       0.00000000 </v>
   <v>       0.00000000       0.00000000       0.00000000 </v>
   <v>       0.00000000       0.00000000       0.00000000 </v>
   <v>       0.00000000       0.00000000       0.00000000 </v>
   <v>       0.00000000       0.00000000       0.00000000 </v>
   <v>       0.00000000       0.00000000       0.00000000 </v>
   <v>       0.00000000       0.00000000       0.00000000 </v>
   <v>       0.00000000       0.00000000       0.00000000 </v>
   <v>       0.00000000       0.00000000       0.00000000 </v>
   <v>       0.00000000       0.00000000       0.00000000 </v>
   <v>       0.00000000       0.00000000       0.00000000 </v>
   <v>       0.00000000       0.00000000       0.00000000 </v>
   <v>       0.00000000       0.00000000       0.00000000 </v>
   <v>       0.00000000       0.00000000       0.00000000 </v>
   <v>       0.00000000       0.00000000       0.00000000 </v>
  </varray>
 </structure>
</modeling>
