 vasp.5.4.4.18Apr17-6-g9f103f2a35 (build Oct 31 2019 15:01:46) complex          
  
 executed on             LinuxIFC date 2024.04.30  03:26:22
 running on   52 total cores
 distrk:  each k-point on   52 cores,    1 groups
 distr:  one band on NCORES_PER_BAND=  13 cores,    4 groups


--------------------------------------------------------------------------------------------------------


 INCAR:
 POTCAR:    PAW_PBE Ca_sv 06Sep2000               
 POTCAR:    PAW_PBE Si 05Jan2001                  
 POTCAR:    PAW_PBE O 08Apr2002                   
 POTCAR:    PAW_PBE Ca_sv 06Sep2000               
   SHA256 =  a47365830e737f14e0e6c5cf1ed81b94e081eecf0a33df105380881bc9da05d5 Ca
   COPYR  = (c) Copyright 06Sep2000 Georg Kresse                                
   COPYR  = This file is part of the software VASP. Any use, copying, and all ot
   COPYR  = If you do not have a valid VASP license, you may not use, copy or di
   VRHFIN =Ca: 3s3p4s                                                           
   LEXCH  = PE                                                                  
   EATOM  =  1006.0909 eV,   73.9456 Ry                                         
                                                                                
   TITEL  = PAW_PBE Ca_sv 06Sep2000                                             
   LULTRA =        F    use ultrasoft PP ?                                      
   IUNSCR =        1    unscreen: 0-lin 1-nonlin 2-no                           
   RPACOR =    2.000    partial core radius                                     
   POMASS =   40.078; ZVAL   =   10.000    mass and valenz                      
   RCORE  =    2.300    outmost cutoff radius                                   
   RWIGS  =    2.500; RWIGS  =    1.323    wigner-seitz radius (au A)           
   ENMAX  =  266.622; ENMIN  =  199.967 eV                                      
   RCLOC  =    1.808    cutoff for local pot                                    
   LCOR   =        T    correct aug charges                                     
   LPAW   =        T    paw PP                                                  
   EAUG   =  420.852                                                            
   RMAX   =    2.359    core radius for proj-oper                               
   RAUG   =    1.300    factor for augmentation sphere                          
   RDEP   =    2.392    radius for radial grids                                 
   RDEPT  =    1.987    core radius for aug-charge                              
                                                                                
   Atomic configuration                                                         
    7 entries                                                                   
     n  l   j            E        occ.                                          
     1  0  0.50     -3949.1705   2.0000                                         
     2  0  0.50      -414.3434   2.0000                                         
     2  1  1.50      -334.7047   6.0000                                         
     3  0  0.50       -47.0896   2.0000                                         
     4  0  0.50        -3.7663   2.0000                                         
     3  1  1.50       -28.0061   6.0000                                         
     3  2  1.50        -4.0817   0.0000                                         
   Description                                                                  
     l       E           TYP  RCUT    TYP  RCUT                                 
     0    -47.0896403     23  2.300                                             
     0     -3.7663320     23  2.300                                             
     1    -28.0060855     23  2.300                                             
     1      6.8029130     23  2.300                                             
     2     -4.0817478     23  2.300                                             
     2      0.4464412     23  2.300                                             
  local pseudopotential read in
  partial core-charges read in
  partial kinetic energy density read in
  atomic valenz-charges read in
  non local Contribution for L=           0  read in
    real space projection operators read in
  non local Contribution for L=           0  read in
    real space projection operators read in
  non local Contribution for L=           1  read in
    real space projection operators read in
  non local Contribution for L=           1  read in
    real space projection operators read in
  non local Contribution for L=           2  read in
    real space projection operators read in
  non local Contribution for L=           2  read in
    real space projection operators read in
    PAW grid and wavefunctions read in
 
   number of l-projection  operators is LMAX  =           6
   number of lm-projection operators is LMMAX =          18
 
 POTCAR:    PAW_PBE Si 05Jan2001                  
   SHA256 =  79d9987ad8750f624c4d6acb2a16d13abf6a777132adc04dc6c8399be72b42bb Si
   COPYR  = (c) Copyright 05Jan2001 Georg Kresse                                
   COPYR  = This file is part of the software VASP. Any use, copying, and all ot
   COPYR  = If you do not have a valid VASP license, you may not use, copy or di
   VRHFIN =Si: s2p2                                                             
   LEXCH  = PE                                                                  
   EATOM  =   103.0669 eV,    7.5752 Ry                                         
                                                                                
   TITEL  = PAW_PBE Si 05Jan2001                                                
   LULTRA =        F    use ultrasoft PP ?                                      
   IUNSCR =        1    unscreen: 0-lin 1-nonlin 2-no                           
   RPACOR =    1.500    partial core radius                                     
   POMASS =   28.085; ZVAL   =    4.000    mass and valenz                      
   RCORE  =    1.900    outmost cutoff radius                                   
   RWIGS  =    2.480; RWIGS  =    1.312    wigner-seitz radius (au A)           
   ENMAX  =  245.345; ENMIN  =  184.009 eV                                      
   ICORE  =        2    local potential                                         
   LCOR   =        T    correct aug charges                                     
   LPAW   =        T    paw PP                                                  
   EAUG   =  322.069                                                            
   DEXC   =    0.000                                                            
   RMAX   =    1.950    core radius for proj-oper                               
   RAUG   =    1.300    factor for augmentation sphere                          
   RDEP   =    1.993    radius for radial grids                                 
   RDEPT  =    1.837    core radius for aug-charge                              
                                                                                
   Atomic configuration                                                         
    6 entries                                                                   
     n  l   j            E        occ.                                          
     1  0  0.50     -1785.8828   2.0000                                         
     2  0  0.50      -139.4969   2.0000                                         
     2  1  1.50       -95.5546   6.0000                                         
     3  0  0.50       -10.8127   2.0000                                         
     3  1  0.50        -4.0811   2.0000                                         
     3  2  1.50        -4.0817   0.0000                                         
   Description                                                                  
     l       E           TYP  RCUT    TYP  RCUT                                 
     0    -10.8127223     23  1.900                                             
     0     -7.6451159     23  1.900                                             
     1     -4.0811372     23  1.900                                             
     1      2.4879257     23  1.900                                             
     2     -4.0817478      7  1.900                                             
  local pseudopotential read in
  partial core-charges read in
  partial kinetic energy density read in
  atomic valenz-charges read in
  non local Contribution for L=           0  read in
    real space projection operators read in
  non local Contribution for L=           0  read in
    real space projection operators read in
  non local Contribution for L=           1  read in
    real space projection operators read in
  non local Contribution for L=           1  read in
    real space projection operators read in
    PAW grid and wavefunctions read in
 
   number of l-projection  operators is LMAX  =           4
   number of lm-projection operators is LMMAX =           8
 
 POTCAR:    PAW_PBE O 08Apr2002                   
   SHA256 =  818f92134a0a090dccd8ba1447fa70422a3b330e708bb4f08108d8ae51209ddf O/
   COPYR  = (c) Copyright 08Apr2002 Georg Kresse                                
   COPYR  = This file is part of the software VASP. Any use, copying, and all ot
   COPYR  = If you do not have a valid VASP license, you may not use, copy or di
   VRHFIN =O: s2p4                                                              
   LEXCH  = PE                                                                  
   EATOM  =   432.3788 eV,   31.7789 Ry                                         
                                                                                
   TITEL  = PAW_PBE O 08Apr2002                                                 
   LULTRA =        F    use ultrasoft PP ?                                      
   IUNSCR =        1    unscreen: 0-lin 1-nonlin 2-no                           
   RPACOR =    1.200    partial core radius                                     
   POMASS =   16.000; ZVAL   =    6.000    mass and valenz                      
   RCORE  =    1.520    outmost cutoff radius                                   
   RWIGS  =    1.550; RWIGS  =    0.820    wigner-seitz radius (au A)           
   ENMAX  =  400.000; ENMIN  =  300.000 eV                                      
   ICORE  =        2    local potential                                         
   LCOR   =        T    correct aug charges                                     
   LPAW   =        T    paw PP                                                  
   EAUG   =  605.392                                                            
   DEXC   =    0.000                                                            
   RMAX   =    1.553    core radius for proj-oper                               
   RAUG   =    1.300    factor for augmentation sphere                          
   RDEP   =    1.550    radius for radial grids                                 
   RDEPT  =    1.329    core radius for aug-charge                              
                                                                                
   Atomic configuration                                                         
    4 entries                                                                   
     n  l   j            E        occ.                                          
     1  0  0.50      -514.6923   2.0000                                         
     2  0  0.50       -23.9615   2.0000                                         
     2  1  0.50        -9.0305   4.0000                                         
     3  2  1.50        -9.5241   0.0000                                         
   Description                                                                  
     l       E           TYP  RCUT    TYP  RCUT                                 
     0    -23.9615318     23  1.200                                             
     0     -9.5240782     23  1.200                                             
     1     -9.0304911     23  1.520                                             
     1      8.1634956     23  1.520                                             
     2     -9.5240782      7  1.500                                             
  local pseudopotential read in
  partial core-charges read in
  partial kinetic energy density read in
  kinetic energy density of atom read in
  atomic valenz-charges read in
  non local Contribution for L=           0  read in
    real space projection operators read in
  non local Contribution for L=           0  read in
    real space projection operators read in
  non local Contribution for L=           1  read in
    real space projection operators read in
  non local Contribution for L=           1  read in
    real space projection operators read in
    PAW grid and wavefunctions read in
 
   number of l-projection  operators is LMAX  =           4
   number of lm-projection operators is LMMAX =           8
 
 Optimization of the real space projectors (new method)

 maximal supplied QI-value         = 16.25
 optimisation between [QCUT,QGAM] = [ 12.51, 25.03] = [ 43.85,175.40] Ry 
 Optimized for a Real-space Cutoff    1.47 Angstroem

   l    n(q)    QCUT    max X(q) W(low)/X(q) W(high)/X(q)  e(spline) 
   0     11    12.514    11.817    0.25E-04    0.32E-05    0.87E-07
   0     11    12.514     8.461    0.39E-04    0.59E-05    0.18E-06
   1     11    12.514     3.957    0.97E-05    0.57E-05    0.28E-07
   1     11    12.514     4.314    0.42E-04    0.14E-04    0.23E-06
   2     10    12.514    14.565    0.79E-04    0.50E-03    0.16E-05
   2     10    12.514    14.552    0.75E-04    0.48E-03    0.15E-05
 Optimization of the real space projectors (new method)

 maximal supplied QI-value         = 19.84
 optimisation between [QCUT,QGAM] = [ 12.50, 25.00] = [ 43.76,175.03] Ry 
 Optimized for a Real-space Cutoff    1.16 Angstroem

   l    n(q)    QCUT    max X(q) W(low)/X(q) W(high)/X(q)  e(spline) 
   0      9    12.501   159.560    0.10E-03    0.83E-04    0.71E-07
   0      9    12.501   115.863    0.99E-04    0.81E-04    0.70E-07
   1      8    12.501    88.339    0.20E-03    0.25E-03    0.76E-07
   1      8    12.501    48.592    0.20E-03    0.24E-03    0.75E-07
 Optimization of the real space projectors (new method)

 maximal supplied QI-value         = 24.76
 optimisation between [QCUT,QGAM] = [ 12.38, 25.00] = [ 42.90,175.06] Ry 
 Optimized for a Real-space Cutoff    1.16 Angstroem

   l    n(q)    QCUT    max X(q) W(low)/X(q) W(high)/X(q)  e(spline) 
   0      9    12.378    20.381    0.16E-03    0.67E-05    0.31E-06
   0      9    12.378    15.268    0.17E-03    0.81E-05    0.33E-06
   1      8    12.378     5.964    0.20E-03    0.16E-03    0.30E-06
   1      8    12.378     5.382    0.18E-03    0.14E-03    0.26E-06
  PAW_PBE Ca_sv 06Sep2000               :
 energy of atom  1       EATOM=-1006.0909
 kinetic energy error for atom=    0.0012 (will be added to EATOM!!)
  PAW_PBE Si 05Jan2001                  :
 energy of atom  2       EATOM= -103.0669
 kinetic energy error for atom=    0.0003 (will be added to EATOM!!)
  PAW_PBE O 08Apr2002                   :
 energy of atom  3       EATOM= -432.3788
 kinetic energy error for atom=    0.0168 (will be added to EATOM!!)
 
 
 POSCAR: Ca Si  O                                
  positions in direct lattice
  No initial velocities read in
 exchange correlation table for  LEXCH =        8
   RHO(1)=    0.500       N(1)  =     2000
   RHO(2)=  100.500       N(2)  =     4000
 


--------------------------------------------------------------------------------------------------------


 ion  position               nearest neighbor table
   1  0.747  0.224  0.408-  91 1.96 115 2.04 121 2.06  83 2.46  54 2.48 123 2.49  37 2.75  44 2.86
                            47 3.15
   2  0.440  0.076  0.822-  98 1.96 106 2.10  22 2.24 133 2.26 135 2.50
   3  0.066  0.651  0.200-  92 2.09  78 2.11 108 2.11  93 2.55   4 2.93  24 2.96  28 3.12  26 3.15

   4  0.091  0.777  0.417-  87 2.28  73 2.39  99 2.51   3 2.93  34 3.11
   5  0.797  0.830  0.173- 114 2.16  94 2.24  86 2.35  92 2.51  38 3.08
   6  0.848  0.168  0.122-  85 2.19 115 2.20  89 2.27 113 2.34 102 2.41 121 2.54  54 2.73  41 2.97

   7  0.646  0.534  0.789- 101 2.21 111 2.27  82 2.34  55 2.41  90 2.54  29 2.85  42 3.00  48 3.13

   8  0.494  0.301  0.045-  69 2.00 118 2.25  59 2.26 132 2.41 106 2.44  39 2.74  48 3.08
   9  0.389  0.555  0.552- 125 2.17  82 2.25  96 2.27  72 2.31  77 2.56  30 2.82  10 3.00  15 3.12
                            24 3.14
  10  0.561  0.576  0.361-  60 1.91 125 2.27  58 2.51   9 3.00
  11  0.210  0.124  0.409- 129 2.08  68 2.21  76 2.41  32 2.58  49 3.05  15 3.12
  12  0.981  0.004  0.734-  61 2.11  73 2.56  52 2.67  50 2.99  34 2.99  47 3.03
  13  0.625  0.980  1.000-  85 1.99 133 2.03 104 2.08 106 2.10 119 2.54  50 3.11
  14  0.055  0.318  0.754- 131 2.09  56 2.16 124 2.50  76 2.54  18 2.64  31 2.73  49 2.93  52 3.00
                            42 3.05
  15  0.351  0.290  0.566-  66 2.15 110 2.24 129 2.30  72 2.31  96 2.54  40 3.06  11 3.12   9 3.12

  16  0.161  0.355  0.127- 113 2.23  68 2.26  88 2.28 131 2.47  41 2.88  31 2.96  32 3.01
  17  0.310  0.859  0.144-  87 2.09 119 2.19 117 2.19 134 2.23  53 2.84  38 2.89  22 3.08
  18  0.934  0.380  0.935- 131 2.23 124 2.25  93 2.37  84 2.40  14 2.64  43 3.08  42 3.09
  19  0.150  0.783  0.764-  65 2.01 128 2.24  77 2.27  73 2.42  45 2.87  26 3.17
  20  0.546  0.803  0.660-  95 2.14  97 2.30  82 2.32  79 2.36 116 2.37  27 2.52  36 2.91  50 3.00

  21  0.413  0.578  0.087-  78 2.30  58 2.33  55 2.34  88 2.54  74 2.55  38 2.82  24 2.89
  22  0.378  0.908  0.893- 128 2.00   2 2.24  95 2.40 119 2.47  17 3.08  45 3.09  53 3.11
  23  0.469  0.052  0.261- 134 2.00 103 2.13 104 2.22  54 2.55  53 2.87
  24  0.292  0.597  0.303-  88 1.95 108 1.95  78 2.17  58 2.29  21 2.89   3 2.96  35 3.04   9 3.14
                            46 3.14
  25  0.925  0.599  0.766- 111 1.91 124 1.98 122 2.26  56 2.40  43 2.73
  26  0.145  0.584  0.950-  93 1.82  78 2.28  71 2.56  45 2.83   3 3.15  19 3.17
  27  0.680  0.881  0.507-  63 2.21 120 2.23  97 2.35  20 2.52  94 2.54 103 2.55  34 2.72  44 3.03

  28  0.863  0.561  0.350-  86 1.58 126 1.58  67 1.98 123 2.05  60 2.13  51 2.14  46 3.05   3 3.12

  29  0.688  0.573  0.028-  55 1.43  84 1.59 114 1.83  74 1.87 107 1.95 111 2.25  43 2.33   7 2.85

  30  0.164  0.541  0.641-  56 1.51  99 1.55  72 1.57  77 1.83  46 2.79   9 2.82
  31  0.236  0.273  0.898- 118 1.48 131 1.53  98 1.90 112 1.95 110 2.09  14 2.73  48 2.74  52 2.85
                            16 2.96  53 3.07
  32  0.110  0.115  0.210- 100 1.68  68 1.70 127 1.81 117 1.83  11 2.58  41 2.82  53 2.84  16 3.01

  33  0.982  0.853  0.974- 122 1.65  92 1.67  57 1.87  62 1.94  43 2.87
  34  0.889  0.814  0.588-  73 1.63  63 1.64 105 1.68  61 1.93  27 2.72  50 2.90  12 2.99   4 3.11

  35  0.407  0.809  0.405-  97 1.56 134 1.62  80 1.67  81 1.98  87 2.14  58 2.32  36 2.94  24 3.04

  36  0.337  0.934  0.613-  81 1.56  65 1.66 135 1.86  80 2.30 116 2.31  20 2.91  35 2.94
  37  0.686  0.364  0.227- 121 1.48 123 1.56 107 1.56 132 2.25   1 2.75
  38  0.540  0.768  0.168-  58 1.57 119 1.59  74 1.66  94 2.10 134 2.38  21 2.82  17 2.89   5 3.08

  39  0.648  0.246  0.876- 101 1.61  89 1.66  69 1.68 106 1.72 130 2.18   8 2.74  42 2.81  47 3.12

  40  0.407  0.343  0.314- 132 1.48 129 1.55 125 1.60  88 2.03  59 2.48  15 3.06
  41  0.982  0.305  0.291-  67 1.48 115 1.67 113 1.68  68 1.90 109 2.16  46 2.73  32 2.82  49 2.85
                            16 2.88   6 2.97
  42  0.797  0.340  0.710- 124 1.54 101 1.65  64 1.82 130 1.91  75 1.95  90 2.13  47 2.49  39 2.81
                             7 3.00  14 3.05  18 3.09
  43  0.876  0.632  0.993- 114 1.44 111 1.60  93 1.76 122 1.99  29 2.33  92 2.42  84 2.48  25 2.73
                            33 2.87  18 3.08
  44  0.577  0.117  0.550-  91 1.53 116 1.67  66 1.76 103 2.21 130 2.41  47 2.58   1 2.86  27 3.03

  45  0.347  0.651  0.832-  95 1.61  77 1.66  71 1.69 128 2.05  26 2.83  19 2.87  48 3.09  22 3.09

  46  0.093  0.461  0.426- 109 1.54 108 1.63  67 1.95 126 2.13  72 2.27  99 2.53  41 2.73  30 2.79
                            28 3.05  49 3.08  24 3.14
  47  0.767  0.134  0.663- 130 1.57  75 1.65 120 1.66  91 1.75  70 2.42  64 2.46  42 2.49  44 2.58
                            12 3.03  50 3.11  39 3.12   1 3.15
  48  0.417  0.396  0.809- 110 1.61  96 1.66  69 1.73  71 1.75 118 2.28  31 2.74   8 3.08  45 3.09
                             7 3.13
  49  0.001  0.232  0.524-  70 1.57 109 1.64  76 1.75  64 1.78  41 2.85  14 2.93  11 3.05  46 3.08

  50  0.754  0.894  0.782-  61 1.54  79 1.76 120 1.94 133 2.02  62 2.13  34 2.90  12 2.99  20 3.00
                            47 3.11  13 3.11
  51  0.785  0.534  0.515-  90 1.42  60 1.54 126 1.73 105 1.92  28 2.14
  52  0.045  0.121  0.921- 102 1.62 112 1.64 100 1.90  57 2.15 131 2.39  12 2.67  31 2.85  14 3.00

  53  0.313  0.093  0.075- 117 1.75  59 1.79  98 1.84 104 1.96 100 2.41  17 2.84  32 2.84  23 2.87
                            31 3.07  22 3.11
  54  0.687  0.077  0.266-  83 1.58  85 1.58 103 1.62 121 1.88   1 2.48  23 2.55   6 2.73
  55  0.579  0.598  0.975-  29 1.43  21 2.34   7 2.41
  56  0.103  0.497  0.747-  30 1.51  14 2.16  25 2.40
  57  0.103  0.958  0.987-  33 1.87  52 2.15
  58  0.442  0.707  0.237-  38 1.57  24 2.29  35 2.32  21 2.33  10 2.51
  59  0.347  0.224  0.147-  53 1.79   8 2.26  40 2.48
  60  0.706  0.603  0.434-  51 1.54  10 1.91  28 2.13
  61  0.876  0.856  0.748-  50 1.54  34 1.93  12 2.11
  62  0.830  0.917  0.947-  33 1.94  50 2.13
  63  0.862  0.863  0.458-  34 1.64  27 2.21
  64  0.876  0.297  0.582-  49 1.78  42 1.82  47 2.46
  65  0.206  0.880  0.632-  36 1.66  19 2.01
  66  0.528  0.257  0.523-  44 1.76  15 2.15
  67  0.964  0.425  0.326-  41 1.48  46 1.95  28 1.98
  68  0.132  0.241  0.281-  32 1.70  41 1.90  11 2.21  16 2.26
  69  0.530  0.330  0.879-  39 1.68  48 1.73   8 2.00
  70  0.917  0.127  0.519-  49 1.57  47 2.42
  71  0.327  0.508  0.853-  45 1.69  48 1.75  26 2.56
  72  0.225  0.444  0.569-  30 1.57  46 2.27  15 2.31   9 2.31
  73  0.027  0.833  0.604-  34 1.63   4 2.39  19 2.42  12 2.56
  74  0.611  0.647  0.149-  38 1.66  29 1.87  21 2.55
  75  0.853  0.190  0.761-  47 1.65  42 1.95
  76  0.140  0.217  0.580-  49 1.75  11 2.41  14 2.54
  77  0.265  0.633  0.717-  45 1.66  30 1.83  19 2.27   9 2.56
  78  0.220  0.585  0.131-   3 2.11  24 2.17  26 2.28  21 2.30
  79  0.710  0.750  0.766-  50 1.76  20 2.36
  80  0.319  0.765  0.511-  35 1.67  36 2.30
  81  0.354  0.951  0.482-  36 1.56  35 1.98
  82  0.562  0.608  0.622-   9 2.25  20 2.32   7 2.34
  83  0.794  0.031  0.336-  54 1.58   1 2.46
  84  0.756  0.456  0.006-  29 1.59  18 2.40  43 2.48
  85  0.687  0.071  0.130-  54 1.58  13 1.99   6 2.19
  86  0.848  0.650  0.248-  28 1.58   5 2.35
  87  0.250  0.821  0.309-  17 2.09  35 2.14   4 2.28
  88  0.303  0.449  0.224-  24 1.95  40 2.03  16 2.28  21 2.54
  89  0.726  0.252  0.996-  39 1.66   6 2.27
  90  0.726  0.466  0.598-  51 1.42  42 2.13   7 2.54
  91  0.706  0.112  0.527-  44 1.53  47 1.75   1 1.96
  92  0.990  0.774  0.093-  33 1.67   3 2.09  43 2.42   5 2.51
  93  0.004  0.555  0.013-  43 1.76  26 1.82  18 2.37   3 2.55
  94  0.649  0.834  0.296-  38 2.10   5 2.24  27 2.54
  95  0.451  0.737  0.802-  45 1.61  20 2.14  22 2.40
  96  0.468  0.433  0.682-  48 1.66   9 2.27  15 2.54
  97  0.518  0.766  0.467-  35 1.56  20 2.30  27 2.35
  98  0.346  0.158  0.935-  53 1.84  31 1.90   2 1.96
  99  0.089  0.625  0.570-  30 1.55   4 2.51  46 2.53
 100  0.112  0.145  0.069-  32 1.68  52 1.90  53 2.41
 101  0.709  0.357  0.820-  39 1.61  42 1.65   7 2.21
 102  0.906  0.135  0.926-  52 1.62   6 2.41
 103  0.610  0.043  0.377-  54 1.62  23 2.13  44 2.21  27 2.55
 104  0.474  0.046  0.070-  53 1.96  13 2.08  23 2.22
 105  0.848  0.677  0.565-  34 1.68  51 1.92
 106  0.567  0.137  0.934-  39 1.72  13 2.10   2 2.10   8 2.44
 107  0.683  0.485  0.171-  37 1.56  29 1.95
 108  0.133  0.571  0.348-  46 1.63  24 1.95   3 2.11
 109  0.070  0.333  0.452-  46 1.54  49 1.64  41 2.16
 110  0.348  0.287  0.758-  48 1.61  31 2.09  15 2.24
 111  0.805  0.606  0.878-  43 1.60  25 1.91  29 2.25   7 2.27
 112  0.183  0.113  0.895-  52 1.64  31 1.95
 113  0.974  0.323  0.148-  41 1.68  16 2.23   6 2.34
 114  0.801  0.667  0.085-  43 1.44  29 1.83   5 2.16
 115  0.887  0.199  0.304-  41 1.67   1 2.04   6 2.20
 116  0.523  0.002  0.617-  44 1.67  36 2.31  20 2.37
 117  0.239  0.028  0.189-  53 1.75  32 1.83  17 2.19
 118  0.319  0.338  0.969-  31 1.48   8 2.25  48 2.28
 119  0.477  0.831  0.063-  38 1.59  17 2.19  22 2.47  13 2.54
 120  0.745  0.993  0.648-  47 1.66  50 1.94  27 2.23
 121  0.681  0.237  0.244-  37 1.48  54 1.88   1 2.06   6 2.54
 122  0.974  0.734  0.897-  33 1.65  43 1.99  25 2.26
 123  0.782  0.410  0.308-  37 1.56  28 2.05   1 2.49
 124  0.876  0.436  0.759-  42 1.54  25 1.98  18 2.25  14 2.50
 125  0.428  0.441  0.408-  40 1.60   9 2.17  10 2.27
 126  0.924  0.519  0.464-  28 1.58  51 1.73  46 2.13
 127  0.017  0.009  0.276-  32 1.81
 128  0.265  0.781  0.919-  22 2.00  45 2.05  19 2.24
 129  0.336  0.247  0.373-  40 1.55  11 2.08  15 2.30
 130  0.677  0.230  0.691-  47 1.57  42 1.91  39 2.18  44 2.41
 131  0.113  0.315  0.924-  31 1.53  14 2.09  18 2.23  52 2.39  16 2.47
 132  0.506  0.295  0.252-  40 1.48  37 2.25   8 2.41
 133  0.608  0.977  0.826-  50 2.02  13 2.03   2 2.26
 134  0.429  0.887  0.292-  35 1.62  23 2.00  17 2.23  38 2.38
 135  0.285  0.072  0.673-  36 1.86   2 2.50
 

IMPORTANT INFORMATION: All symmetrisations will be switched off!
NOSYMM: (Re-)initialisation of all symmetry stuff for point group C_1.

 
 

Automatic generation of k-mesh.
 generate k-points for:    2    2    2
Space group operators:
 irot       det(A)        alpha          n_x          n_y          n_z        tau_x        tau_y        tau_z
    1     1.000000     0.000001     1.000000     0.000000     0.000000     0.000000     0.000000     0.000000
 
 Subroutine IBZKPT returns following result:
 ===========================================
 
 Found      8 irreducible k-points:
 
 Following reciprocal coordinates:
            Coordinates               Weight
  0.000000  0.000000  0.000000      1.000000
  0.500000  0.000000  0.000000      1.000000
  0.000000  0.500000  0.000000      1.000000
  0.500000  0.500000  0.000000      1.000000
  0.000000  0.000000  0.500000      1.000000
  0.500000  0.000000  0.500000      1.000000
  0.000000  0.500000  0.500000      1.000000
  0.500000  0.500000  0.500000      1.000000
 
 Following cartesian coordinates:
            Coordinates               Weight
  0.000000  0.000000  0.000000      1.000000
  0.042999  0.000000  0.000000      1.000000
  0.000000  0.042999  0.000000      1.000000
  0.042999  0.042999  0.000000      1.000000
  0.000000  0.000000  0.042999      1.000000
  0.042999  0.000000  0.042999      1.000000
  0.000000  0.042999  0.042999      1.000000
  0.042999  0.042999  0.042999      1.000000
 


--------------------------------------------------------------------------------------------------------




 Dimension of arrays:
   k-points           NKPTS =      8   k-points in BZ     NKDIM =      8   number of bands    NBANDS=    520
   number of dos      NEDOS =    301   number of ions     NIONS =    135
   non local maximal  LDIM  =      6   non local SUM 2l+1 LMDIM =     18
   total plane-waves  NPLWV = 884736
   max r-space proj   IRMAX =   7548   max aug-charges    IRDMAX= 214954
   dimension x,y,z NGX =    96 NGY =   96 NGZ =   96
   dimension x,y,z NGXF=   192 NGYF=  192 NGZF=  192
   support grid    NGXF=   384 NGYF=  384 NGZF=  384
   ions per type =              27  27  81
   NGX,Y,Z   is equivalent  to a cutoff of  13.72, 13.72, 13.72 a.u.
   NGXF,Y,Z  is equivalent  to a cutoff of  27.45, 27.45, 27.45 a.u.

 SYSTEM =  unknown system                          
 POSCAR =  Ca Si  O                                

 Startparameter for this run:
   NWRITE =      2    write-flag & timer
   PREC   = a         normal or accurate (medium, high low for compatibility)
   ISTART =      0    job   : 0-new  1-cont  2-samecut
   ICHARG =      2    charge: 1-file 2-atom 10-const
   ISPIN  =      1    spin polarized calculation?
   LNONCOLLINEAR =      F non collinear calculations
   LSORBIT =      F    spin-orbit coupling
   INIWAV =      1    electr: 0-lowe 1-rand  2-diag
   LASPH  =      F    aspherical Exc in radial PAW
   METAGGA=      F    non-selfconsistent MetaGGA calc.

 Electronic Relaxation 1
   ENCUT  =  600.0 eV  44.10 Ry    6.64 a.u.  23.22 23.22 23.22*2*pi/ulx,y,z
   ENINI  =  600.0     initial cutoff
   ENAUG  =  605.4 eV  augmentation charge cutoff
   NELM   =     60;   NELMIN=  2; NELMDL= -5     # of ELM steps 
   EDIFF  = 0.1E-05   stopping-criterion for ELM
   LREAL  =      T    real-space projection
   NLSPLINE    = F    spline interpolate recip. space projectors
   LCOMPAT=      F    compatible to vasp.4.4
   GGA_COMPAT  = T    GGA compatible to vasp.4.4-vasp.4.6
   LMAXPAW     = -100 max onsite density
   LMAXMIX     =    2 max onsite mixed and CHGCAR
   VOSKOWN=      0    Vosko Wilk Nusair interpolation
   ROPT   =   -0.00025  -0.00025  -0.00025
 Ionic relaxation
   EDIFFG = -.1E-01   stopping-criterion for IOM
   NSW    =      1    number of steps for IOM
   NBLOCK =      1;   KBLOCK =      1    inner block; outer block 
   IBRION =     -1    ionic relax: 0-MD 1-quasi-New 2-CG
   NFREE  =      0    steps in history (QN), initial steepest desc. (CG)
   ISIF   =      2    stress and relaxation
   IWAVPR =     10    prediction:  0-non 1-charg 2-wave 3-comb
   ISYM   =      0    0-nonsym 1-usesym 2-fastsym
   LCORR  =      T    Harris-Foulkes like correction to forces

   POTIM  = 1.0000    time-step for ionic-motion
   TEIN   =    0.0    initial temperature
   TEBEG  =    0.0;   TEEND  =   0.0 temperature during run
   SMASS  =  -3.00    Nose mass-parameter (am)
   estimated Nose-frequenzy (Omega)   =  0.10E-29 period in steps =****** mass=  -0.309E-26a.u.
   SCALEE = 1.0000    scale energy and forces
   NPACO  =    256;   APACO  = 16.0  distance and # of slots for P.C.
   PSTRESS=    0.0 pullay stress

  Mass of Ions in am
   POMASS =  40.08 28.09 16.00
  Ionic Valenz
   ZVAL   =  10.00  4.00  6.00
  Atomic Wigner-Seitz radii
   RWIGS  =  -1.00 -1.00 -1.00
  virtual crystal weights 
   VCA    =   1.00  1.00  1.00
   NELECT =     864.0000    total number of electrons
   NUPDOWN=      -1.0000    fix difference up-down

 DOS related values:
   EMIN   =  10.00;   EMAX   =-10.00  energy-range for DOS
   EFERMI =   0.00
   ISMEAR =     0;   SIGMA  =   0.05  broadening in eV -4-tet -1-fermi 0-gaus

 Electronic relaxation 2 (details)
   IALGO  =     38    algorithm
   LDIAG  =      T    sub-space diagonalisation (order eigenvalues)
   LSUBROT=      F    optimize rotation matrix (better conditioning)
   TURBO    =      0    0=normal 1=particle mesh
   IRESTART =      0    0=no restart 2=restart with 2 vectors
   NREBOOT  =      0    no. of reboots
   NMIN     =      0    reboot dimension
   EREF     =   0.00    reference energy to select bands
   IMIX   =      4    mixing-type and parameters
     AMIX     =   0.40;   BMIX     =  1.00
     AMIX_MAG =   1.60;   BMIX_MAG =  1.00
     AMIN     =   0.10
     WC   =   100.;   INIMIX=   1;  MIXPRE=   1;  MAXMIX= -45

 Intra band minimization:
   WEIMIN = 0.0000     energy-eigenvalue tresh-hold
   EBREAK =  0.48E-09  absolut break condition
   DEPER  =   0.30     relativ break condition  

   TIME   =   0.40     timestep for ELM

  volume/ion in A,a.u.               =      11.65        78.60
  Fermi-wavevector in a.u.,A,eV,Ry     =   1.340915  2.533962 24.463997  1.798053
  Thomas-Fermi vector in A             =   2.469190
 
 Write flags
   LWAVE        =      F    write WAVECAR
   LDOWNSAMPLE  =      F    k-point downsampling of WAVECAR
   LCHARG       =      F    write CHGCAR
   LVTOT        =      F    write LOCPOT, total local potential
   LVHAR        =      F    write LOCPOT, Hartree potential only
   LELF         =      F    write electronic localiz. function (ELF)
   LORBIT       =      0    0 simple, 1 ext, 2 COOP (PROOUT), +10 PAW based schemes


 Dipole corrections
   LMONO  =      F    monopole corrections only (constant potential shift)
   LDIPOL =      F    correct potential (dipole corrections)
   IDIPOL =      0    1-x, 2-y, 3-z, 4-all directions 
   EPSILON=  1.0000000 bulk dielectric constant

 Exchange correlation treatment:
   GGA     =    --    GGA type
   LEXCH   =     8    internal setting for exchange type
   VOSKOWN=      0    Vosko Wilk Nusair interpolation
   LHFCALC =     F    Hartree Fock is set to
   LHFONE  =     F    Hartree Fock one center treatment
   AEXX    =    0.0000 exact exchange contribution

 Linear response parameters
   LEPSILON=     F    determine dielectric tensor
   LRPA    =     F    only Hartree local field effects (RPA)
   LNABLA  =     F    use nabla operator in PAW spheres
   LVEL    =     F    velocity operator in full k-point grid
   LINTERFAST=   F  fast interpolation
   KINTER  =     0    interpolate to denser k-point grid
   CSHIFT  =0.1000    complex shift for real part using Kramers Kronig
   OMEGAMAX=  -1.0    maximum frequency
   DEG_THRESHOLD= 0.2000000E-02 threshold for treating states as degnerate
   RTIME   =   -0.100 relaxation time in fs
  (WPLASMAI=    0.000 imaginary part of plasma frequency in eV, 0.658/RTIME)
   DFIELD  = 0.0000000 0.0000000 0.0000000 field for delta impulse in time
 
 Orbital magnetization related:
   ORBITALMAG=     F  switch on orbital magnetization
   LCHIMAG   =     F  perturbation theory with respect to B field
   DQ        =  0.001000  dq finite difference perturbation B field
   LLRAUG    =     F  two centre corrections for induced B field



--------------------------------------------------------------------------------------------------------


 Static calculation
 charge density and potential will be updated during run
 non-spin polarized calculation
 Variant of blocked Davidson
 Davidson routine will perform the subspace rotation
 perform sub-space diagonalisation
    after iterative eigenvector-optimisation
 modified Broyden-mixing scheme, WC =      100.0
 initial mixing is a Kerker type mixing with AMIX =  0.4000 and BMIX =      1.0000
 Hartree-type preconditioning will be used
 using additional bands           88
 real space projection scheme for non local part
 use partial core corrections
 calculate Harris-corrections to forces 
   (improved forces if not selfconsistent)
 use gradient corrections 
 use of overlap-Matrix (Vanderbilt PP)
 Gauss-broadening in eV      SIGMA  =   0.05


--------------------------------------------------------------------------------------------------------


  energy-cutoff  :      600.00
  volume of cell :     1572.30
      direct lattice vectors                 reciprocal lattice vectors
    11.628173330  0.000000000  0.000000000     0.085998030  0.000000000  0.000000000
     0.000000000 11.628173330  0.000000000     0.000000000  0.085998030  0.000000000
     0.000000000  0.000000000 11.628173330     0.000000000  0.000000000  0.085998030

  length of vectors
    11.628173330 11.628173330 11.628173330     0.085998030  0.085998030  0.085998030


 
 k-points in units of 2pi/SCALE and weight: read from INCAR                         
   0.00000000  0.00000000  0.00000000       0.125
   0.04299902  0.00000000  0.00000000       0.125
   0.00000000  0.04299902  0.00000000       0.125
   0.04299902  0.04299902  0.00000000       0.125
   0.00000000  0.00000000  0.04299902       0.125
   0.04299902  0.00000000  0.04299902       0.125
   0.00000000  0.04299902  0.04299902       0.125
   0.04299902  0.04299902  0.04299902       0.125
 
 k-points in reciprocal lattice and weights: read from INCAR                         
   0.00000000  0.00000000  0.00000000       0.125
   0.50000000  0.00000000  0.00000000       0.125
   0.00000000  0.50000000  0.00000000       0.125
   0.50000000  0.50000000  0.00000000       0.125
   0.00000000  0.00000000  0.50000000       0.125
   0.50000000  0.00000000  0.50000000       0.125
   0.00000000  0.50000000  0.50000000       0.125
   0.50000000  0.50000000  0.50000000       0.125
 
 position of ions in fractional coordinates (direct lattice) 
   0.74714540  0.22408621  0.40829687
   0.43982469  0.07558517  0.82165862
   0.06602119  0.65113797  0.19980405
   0.09127113  0.77740287  0.41659786
   0.79729921  0.83033098  0.17304982
   0.84836217  0.16779003  0.12212194
   0.64637554  0.53424988  0.78897118
   0.49362816  0.30066240  0.04464064
   0.38901410  0.55511051  0.55173839
   0.56126983  0.57616087  0.36140202
   0.21015106  0.12370882  0.40857830
   0.98111850  0.00424711  0.73442654
   0.62468617  0.97981864  0.99994572
   0.05511861  0.31760018  0.75414684
   0.35104364  0.28954019  0.56566217
   0.16142772  0.35510878  0.12677501
   0.30968944  0.85896148  0.14377419
   0.93393523  0.37995483  0.93525419
   0.15004172  0.78297046  0.76391297
   0.54617518  0.80322125  0.65952053
   0.41277733  0.57806640  0.08679700
   0.37752041  0.90803014  0.89259131
   0.46897134  0.05195234  0.26118462
   0.29238871  0.59666480  0.30314007
   0.92465622  0.59940607  0.76590888
   0.14450369  0.58375486  0.94976365
   0.67960236  0.88091952  0.50733309
   0.86262084  0.56079532  0.35004245
   0.68755769  0.57261331  0.02794622
   0.16379945  0.54056136  0.64080842
   0.23567349  0.27310460  0.89796140
   0.11041821  0.11518889  0.21029285
   0.98183424  0.85330970  0.97352312
   0.88911417  0.81426336  0.58822833
   0.40652138  0.80866005  0.40474229
   0.33713909  0.93360772  0.61339126
   0.68556034  0.36354369  0.22732706
   0.53985172  0.76831272  0.16768008
   0.64835184  0.24631386  0.87578180
   0.40708137  0.34283038  0.31440258
   0.98225127  0.30510408  0.29063414
   0.79747690  0.34044669  0.71046273
   0.87560441  0.63164439  0.99340580
   0.57725205  0.11665304  0.54976710
   0.34690170  0.65089274  0.83244713
   0.09342613  0.46105077  0.42609451
   0.76678708  0.13362401  0.66305888
   0.41679113  0.39576170  0.80924701
   0.00133834  0.23233397  0.52359227
   0.75399676  0.89441081  0.78192313
   0.78492134  0.53365774  0.51480456
   0.04501921  0.12109366  0.92147103
   0.31269175  0.09278850  0.07461398
   0.68662840  0.07739962  0.26623595
   0.57922791  0.59784333  0.97480387
   0.10263504  0.49731586  0.74652418
   0.10255893  0.95810608  0.98680805
   0.44218037  0.70687476  0.23721872
   0.34744573  0.22426264  0.14738972
   0.70564341  0.60266180  0.43416931
   0.87645964  0.85618136  0.74831997
   0.83003242  0.91693890  0.94687333
   0.86249762  0.86301791  0.45830235
   0.87551978  0.29661110  0.58214631
   0.20636747  0.87983230  0.63228874
   0.52813869  0.25722197  0.52319132
   0.96352941  0.42548075  0.32648426
   0.13224796  0.24088917  0.28113081
   0.53029194  0.32951592  0.87891426
   0.91690527  0.12728091  0.51853615
   0.32686941  0.50835632  0.85288755
   0.22517100  0.44351734  0.56897955
   0.02698223  0.83341777  0.60366632
   0.61136205  0.64663802  0.14863254
   0.85285089  0.19049700  0.76097035
   0.14020746  0.21710694  0.57995271
   0.26545381  0.63315062  0.71667262
   0.22043741  0.58494282  0.13089809
   0.71024515  0.75023394  0.76588844
   0.31942866  0.76527194  0.51095581
   0.35411170  0.95147615  0.48194901
   0.56176433  0.60799010  0.62192779
   0.79396152  0.03127349  0.33553640
   0.75550265  0.45624526  0.00559711
   0.68713444  0.07054066  0.13047958
   0.84830564  0.64973276  0.24839808
   0.24962238  0.82091362  0.30908728
   0.30269588  0.44942412  0.22441084
   0.72622763  0.25195562  0.99561243
   0.72649746  0.46637848  0.59788316
   0.70640562  0.11158942  0.52682329
   0.98951044  0.77414883  0.09286890
   0.00435270  0.55500849  0.01290092
   0.64904534  0.83444958  0.29600011
   0.45054415  0.73718263  0.80190031
   0.46818700  0.43314165  0.68159892
   0.51774268  0.76628298  0.46734786
   0.34626246  0.15843096  0.93465999
   0.08910933  0.62481017  0.56986156
   0.11198257  0.14452430  0.06910399
   0.70886592  0.35748964  0.81959042
   0.90643733  0.13474010  0.92562439
   0.61001388  0.04319663  0.37734545
   0.47435289  0.04572993  0.07018519
   0.84826506  0.67722840  0.56498330
   0.56683184  0.13747504  0.93441225
   0.68313357  0.48545269  0.17073362
   0.13330727  0.57065656  0.34821292
   0.06951449  0.33297741  0.45198498
   0.34814472  0.28688570  0.75825459
   0.80479895  0.60628944  0.87794550
   0.18320919  0.11342597  0.89475726
   0.97381889  0.32320901  0.14774963
   0.80051335  0.66684017  0.08484096
   0.88673719  0.19909429  0.30449217
   0.52349086  0.00153731  0.61710464
   0.23947237  0.02751029  0.18919010
   0.31917490  0.33813118  0.96920499
   0.47740447  0.83125772  0.06342898
   0.74516516  0.99314300  0.64803323
   0.68128332  0.23745205  0.24444123
   0.97386295  0.73396917  0.89724693
   0.78212488  0.40953176  0.30773224
   0.87569322  0.43607954  0.75921983
   0.42756643  0.44147720  0.40845269
   0.92385146  0.51890799  0.46415642
   0.01718444  0.00905519  0.27562516
   0.26474944  0.78118459  0.91883818
   0.33561065  0.24664176  0.37322965
   0.67702115  0.23036448  0.69136212
   0.11347610  0.31461363  0.92389569
   0.50645375  0.29499787  0.25161182
   0.60753395  0.97684290  0.82609906
   0.42857014  0.88724361  0.29200428
   0.28466394  0.07213437  0.67337068
 
 position of ions in cartesian coordinates  (Angst):
   8.68793617  2.60571329  4.74774674
   5.11435777  0.87891749  9.55438887
   0.76770589  7.57154517  2.32335611
   1.06131655  9.03977528  4.84427212
   9.27113342  9.65523253  2.01225328
   9.86490234  1.95109160  1.42005504
   7.51616680  6.21235016  9.17429361
   5.73999378  3.49615445  0.51908905
   4.52352335  6.45492117  6.41570966
   6.52654292  6.69969844  4.20244531
   2.44367292  1.43850761  4.75101934
  11.40861598  0.04938612  8.54003910
   7.26395902 11.39350101 11.62754217
   0.64092880  3.69310991  8.76935020
   4.08199634  3.36682350  6.57761777
   1.87710953  4.12926644  1.47416181
   3.60112249  9.98815303  1.67183122
  10.85996078  4.41818061 10.87529786
   1.74471114  9.10451625  8.88291238
   6.35101966  9.33999592  7.66901899
   4.79984639  6.72185625  1.00929056
   4.38987275 10.55873185 10.37920652
   5.45327998  0.60411083  3.03710004
   3.39994661  6.93812170  3.52496524
  10.75206279  6.96999764  8.90612124
   1.68031391  6.78800275 11.04401637
   7.90253406 10.24348491  5.89935711
  10.03070467  6.52102517  4.07035433
   7.99504003  6.65844680  0.32496347
   1.90468838  6.28574122  7.45143133
   2.74045220  3.17570760 10.44165081
   1.28396212  1.33943643  2.44532166
  11.41693873  9.92243310 11.32029553
  10.33877365  9.46839553  6.84002097
   4.72710107  9.40323926  4.70641346
   3.92031182 10.85615244  7.13261985
   7.97181443  4.22734899  2.64339849
   6.27748934  8.93407350  1.94981298
   7.53914755  2.86418020 10.18374253
   4.73361273  3.98649108  3.65592766
  11.42178804  3.54780315  3.37954418
   9.27319963  3.95877307  8.26138381
  10.18167981  7.34487047 11.55149479
   6.71238685  1.35646180  6.39278711
   4.03383315  7.56869356  9.67983948
   1.08637527  5.36117827  4.95470087
   8.91633304  1.55380318  7.71016360
   4.84651945  4.60198566  9.41006454
   0.01556241  2.70161968  6.08842172
   8.76760504 10.40036388  9.09233766
   9.12720138  6.20546467  5.98623665
   0.52349122  1.40809808 10.71502486
   3.63603386  1.07896080  0.86762426
   7.98423408  0.90001625  3.09583781
   6.73536250  6.95182588 11.33518841
   1.19345798  5.78287498  8.68071256
   1.19257298 11.14102358 11.47477505
   5.14175001  8.21966222  2.75842045
   4.04015920  2.60776488  1.71387320
   8.20534385  7.00785590  5.04859600
  10.19162458  9.95582524  8.70159434
   9.65176083 10.66232452 11.01040719
  10.02927187 10.03532185  5.32921914
  10.18069579  3.44904526  6.76929815
   2.39967675 10.23084250  7.35236306
   6.14128820  2.99102167  6.08375932
  11.20408704  4.94756387  3.79641561
   1.53780225  2.80110107  3.26903781
   6.16632665  3.83166819 10.22016741
  10.66193341  1.48004451  6.02962828
   3.80089419  5.91125545  9.91752429
   2.61832739  5.15729646  6.61619288
   0.31375401  9.69112633  7.01953660
   7.10902388  7.51921898  1.72832492
   9.91709801  2.21513208  8.84869518
   1.63035666  2.52455708  6.74379058
   3.08674292  7.36238514  8.33359344
   2.56328447  6.80181654  1.52210569
   8.25885368  8.72385035  8.90588351
   3.71437188  8.89871471  5.94148277
   4.11767227 11.06392959  5.60418667
   6.53229297  7.06981428  7.23188415
   9.23232218  0.36365359  3.90167547
   8.78511575  5.30529899  0.06508413
   7.99011837  0.82025906  1.51723917
   9.86424501  7.55520519  2.88841596
   2.90265230  9.54572582  3.59412042
   3.51980021  5.22598153  2.60948812
   8.44470072  2.92978358 11.57715389
   8.44783843  5.42312978  6.95228907
   8.21420701  1.29758114  6.12599255
  11.50619894  9.00193673  1.07989569
   0.05061391  6.45373496  0.15001412
   7.54721170  9.70312440  3.44194058
   5.23900546  8.57208734  9.32463579
   5.44415953  5.03664616  7.92575043
   6.02040160  8.91047127  5.43440196
   4.02639988  1.84226265 10.86838834
   1.03617877  7.26540093  6.62644902
   1.30215279  1.68055356  0.80355322
   8.24281582  4.15695146  9.53033945
  10.54021038  1.56678125 10.76332082
   7.09334712  0.50229785  4.38783832
   5.51585762  0.53175555  0.81612555
   9.86377313  7.87492921  6.56972377
   6.59121887  1.59858358 10.86550765
   7.94359554  5.64492807  1.98532015
   1.55012009  6.63569340  4.04908022
   0.80832658  3.87191908  5.25575970
   4.04828718  3.33595661  8.81711578
   9.35834165  7.05003872 10.20890242
   2.13038826  1.31893682 10.40439245
  11.32373485  3.75833036  1.71805835
   9.30850796  7.75413308  0.98654537
  10.31113376  2.31510288  3.54068778
   6.08724242  0.01787609  7.17579966
   2.78462624  0.31989444  2.19993522
   3.71142106  3.93184801 11.27008360
   5.55134191  9.66600889  0.73756314
   8.66490959 11.54843896  7.53544269
   7.92208050  2.76113354  2.84240497
  11.32424722  8.53472071 10.43334281
   9.09468362  4.76210628  3.57836387
  10.18271249  5.07080851  8.82833974
   4.97181655  5.13357345  4.74955864
  10.74270494  6.03395204  5.39729132
   0.19982368  0.10529528  3.20501717
   3.07855242  9.08374980 10.68440957
   3.90253885  2.86799319  4.33997910
   7.87251923  2.67871807  8.03927852
   1.31951977  3.65838183 10.74321917
   5.88913200  3.43028641  2.92578587
   7.06451007 11.35889852  9.60602301
   4.98348790 10.31702249  3.39547637
   3.31012165  0.83879097  7.83007100
 


--------------------------------------------------------------------------------------------------------


 k-point  1 :   0.0000 0.0000 0.0000  plane waves:   52515
 k-point  2 :   0.5000 0.0000 0.0000  plane waves:   52518
 k-point  3 :   0.0000 0.5000 0.0000  plane waves:   52518
 k-point  4 :   0.5000 0.5000 0.0000  plane waves:   52456
 k-point  5 :   0.0000 0.0000 0.5000  plane waves:   52518
 k-point  6 :   0.5000 0.0000 0.5000  plane waves:   52456
 k-point  7 :   0.0000 0.5000 0.5000  plane waves:   52456
 k-point  8 :   0.5000 0.5000 0.5000  plane waves:   52568

 maximum and minimum number of plane-waves per node :      4066     3984

 maximum number of plane-waves:     52568
 maximum index in each direction: 
   IXMAX=   23   IYMAX=   23   IZMAX=   23
   IXMIN=  -23   IYMIN=  -23   IZMIN=  -23


 real space projection operators:
  total allocation   :      51773.84 KBytes
  max/ min on nodes  :       4302.23       3782.59


 parallel 3D FFT for wavefunctions:
    minimum data exchange during FFTs selected (reduces bandwidth)
 parallel 3D FFT for charge:
    minimum data exchange during FFTs selected (reduces bandwidth)


 total amount of memory used by VASP MPI-rank0   158127. kBytes
=======================================================================

   base      :      30000. kBytes
   nonlr-proj:      22576. kBytes
   fftplans  :      23353. kBytes
   grid      :      12472. kBytes
   one-center:        171. kBytes
   wavefun   :      69555. kBytes
 
     INWAV:  cpu time    0.0000: real time    0.0000
 Broyden mixing: mesh for mixing (old mesh)
   NGX = 47   NGY = 47   NGZ = 47
  (NGX  =192   NGY  =192   NGZ  =192)
  gives a total of 103823 points

 initial charge density was supplied:
 charge density of overlapping atoms calculated
 number of electron     864.0000000 magnetization 
 keeping initial charge density in first step


--------------------------------------------------------------------------------------------------------


 Maximum index for non-local projection operator          869
 Maximum index for augmentation-charges         7829 (set IRDMAX)


--------------------------------------------------------------------------------------------------------


 First call to EWALD:  gamma=   0.152
 Maximum number of real-space cells 3x 3x 3
 Maximum number of reciprocal cells 3x 3x 3

    FEWALD:  cpu time    0.0056: real time    0.0056


--------------------------------------- Iteration      1(   1)  ---------------------------------------


    POTLOK:  cpu time    0.1356: real time    0.1412
    SETDIJ:  cpu time    0.3507: real time    0.3510
     EDDAV:  cpu time   34.4455: real time   34.4487
       DOS:  cpu time    0.0026: real time    0.0026
    --------------------------------------------
      LOOP:  cpu time   34.9344: real time   34.9436

 eigenvalue-minimisations  :  8320
 total energy-change (2. order) : 0.9769563E+04  (-0.4840638E+05)
 number of electron     864.0000000 magnetization 
 augmentation part      864.0000000 magnetization 

 Free energy of the ion-electron system (eV)
  ---------------------------------------------------
  alpha Z        PSCENC =      3039.22321400
  Ewald energy   TEWEN  =    -47887.70558927
  -Hartree energ DENC   =    -16800.63542016
  -exchange      EXHF   =         0.00000000
  -V(xc)+E(xc)   XCENC  =      3193.98276378
  PAW double counting   =     50594.51003143   -49994.65612350
  entropy T*S    EENTRO =        -0.03113724
  eigenvalues    EBANDS =      2656.33515014
  atomic energy  EATOM  =     64968.54023382
  Solvation  Ediel_sol  =         0.00000000
  ---------------------------------------------------
  free energy    TOTEN  =      9769.56312300 eV

  energy without entropy =     9769.59426024  energy(sigma->0) =     9769.57869162


--------------------------------------------------------------------------------------------------------




--------------------------------------- Iteration      1(   2)  ---------------------------------------


     EDDAV:  cpu time   38.5756: real time   38.5773
       DOS:  cpu time    0.0025: real time    0.0025
    --------------------------------------------
      LOOP:  cpu time   38.5781: real time   38.5798

 eigenvalue-minimisations  :  9712
 total energy-change (2. order) :-0.9606547E+04  (-0.9240385E+04)
 number of electron     864.0000000 magnetization 
 augmentation part      864.0000000 magnetization 

 Free energy of the ion-electron system (eV)
  ---------------------------------------------------
  alpha Z        PSCENC =      3039.22321400
  Ewald energy   TEWEN  =    -47887.70558927
  -Hartree energ DENC   =    -16800.63542016
  -exchange      EXHF   =         0.00000000
  -V(xc)+E(xc)   XCENC  =      3193.98276378
  PAW double counting   =     50594.51003143   -49994.65612350
  entropy T*S    EENTRO =        -0.00569699
  eigenvalues    EBANDS =     -6950.23736051
  atomic energy  EATOM  =     64968.54023382
  Solvation  Ediel_sol  =         0.00000000
  ---------------------------------------------------
  free energy    TOTEN  =       163.01605260 eV

  energy without entropy =      163.02174959  energy(sigma->0) =      163.01890109


--------------------------------------------------------------------------------------------------------




--------------------------------------- Iteration      1(   3)  ---------------------------------------


     EDDAV:  cpu time   40.7204: real time   40.7342
       DOS:  cpu time    0.0010: real time    0.0010
    --------------------------------------------
      LOOP:  cpu time   40.7213: real time   40.7352

 eigenvalue-minimisations  : 10336
 total energy-change (2. order) :-0.1108074E+04  (-0.1096001E+04)
 number of electron     864.0000000 magnetization 
 augmentation part      864.0000000 magnetization 

 Free energy of the ion-electron system (eV)
  ---------------------------------------------------
  alpha Z        PSCENC =      3039.22321400
  Ewald energy   TEWEN  =    -47887.70558927
  -Hartree energ DENC   =    -16800.63542016
  -exchange      EXHF   =         0.00000000
  -V(xc)+E(xc)   XCENC  =      3193.98276378
  PAW double counting   =     50594.51003143   -49994.65612350
  entropy T*S    EENTRO =        -0.00000000
  eigenvalues    EBANDS =     -8058.31715345
  atomic energy  EATOM  =     64968.54023382
  Solvation  Ediel_sol  =         0.00000000
  ---------------------------------------------------
  free energy    TOTEN  =      -945.05804335 eV

  energy without entropy =     -945.05804335  energy(sigma->0) =     -945.05804335


--------------------------------------------------------------------------------------------------------




--------------------------------------- Iteration      1(   4)  ---------------------------------------


     EDDAV:  cpu time   43.6783: real time   43.6813
       DOS:  cpu time    0.0011: real time    0.0011
    --------------------------------------------
      LOOP:  cpu time   43.6793: real time   43.6824

 eigenvalue-minimisations  : 11320
 total energy-change (2. order) :-0.5392391E+02  (-0.5369047E+02)
 number of electron     864.0000000 magnetization 
 augmentation part      864.0000000 magnetization 

 Free energy of the ion-electron system (eV)
  ---------------------------------------------------
  alpha Z        PSCENC =      3039.22321400
  Ewald energy   TEWEN  =    -47887.70558927
  -Hartree energ DENC   =    -16800.63542016
  -exchange      EXHF   =         0.00000000
  -V(xc)+E(xc)   XCENC  =      3193.98276378
  PAW double counting   =     50594.51003143   -49994.65612350
  entropy T*S    EENTRO =        -0.00000000
  eigenvalues    EBANDS =     -8112.24105933
  atomic energy  EATOM  =     64968.54023382
  Solvation  Ediel_sol  =         0.00000000
  ---------------------------------------------------
  free energy    TOTEN  =      -998.98194923 eV

  energy without entropy =     -998.98194923  energy(sigma->0) =     -998.98194923


--------------------------------------------------------------------------------------------------------




--------------------------------------- Iteration      1(   5)  ---------------------------------------


     EDDAV:  cpu time   53.3402: real time   53.3563
       DOS:  cpu time    0.0011: real time    0.0011
    CHARGE:  cpu time    1.3446: real time    1.3445
    MIXING:  cpu time    0.0080: real time    0.0083
    --------------------------------------------
      LOOP:  cpu time   54.6938: real time   54.7101

 eigenvalue-minimisations  : 14456
 total energy-change (2. order) :-0.5539281E+01  (-0.5535911E+01)
 number of electron     864.0000006 magnetization 
 augmentation part      133.2586243 magnetization 

 Broyden mixing:
  rms(total) = 0.86546E+01    rms(broyden)= 0.86540E+01
  rms(prec ) = 0.10408E+02
  weight for this iteration     100.00

 Free energy of the ion-electron system (eV)
  ---------------------------------------------------
  alpha Z        PSCENC =      3039.22321400
  Ewald energy   TEWEN  =    -47887.70558927
  -Hartree energ DENC   =    -16800.63542016
  -exchange      EXHF   =         0.00000000
  -V(xc)+E(xc)   XCENC  =      3193.98276378
  PAW double counting   =     50594.51003143   -49994.65612350
  entropy T*S    EENTRO =        -0.00000000
  eigenvalues    EBANDS =     -8117.78034003
  atomic energy  EATOM  =     64968.54023382
  Solvation  Ediel_sol  =         0.00000000
  ---------------------------------------------------
  free energy    TOTEN  =     -1004.52122992 eV

  energy without entropy =    -1004.52122992  energy(sigma->0) =    -1004.52122992


--------------------------------------------------------------------------------------------------------




--------------------------------------- Iteration      1(   6)  ---------------------------------------


    POTLOK:  cpu time    0.1011: real time    0.1069
    SETDIJ:  cpu time    0.3427: real time    0.3427
     EDDAV:  cpu time   38.7539: real time   38.7548
       DOS:  cpu time    0.0024: real time    0.0024
    CHARGE:  cpu time    1.3085: real time    1.3085
    MIXING:  cpu time    0.0116: real time    0.0116
    --------------------------------------------
      LOOP:  cpu time   40.5201: real time   40.5269

 eigenvalue-minimisations  :  9768
 total energy-change (2. order) : 0.1514855E+03  (-0.6798868E+02)
 number of electron     864.0000006 magnetization 
 augmentation part      118.7930650 magnetization 

 Broyden mixing:
  rms(total) = 0.40053E+01    rms(broyden)= 0.40041E+01
  rms(prec ) = 0.44592E+01
  weight for this iteration     100.00

 eigenvalues of (default mixing * dielectric matrix)
  average eigenvalue GAMMA=   0.9573
  0.9573

 Free energy of the ion-electron system (eV)
  ---------------------------------------------------
  alpha Z        PSCENC =      3039.22321400
  Ewald energy   TEWEN  =    -47887.70558927
  -Hartree energ DENC   =    -18155.09631144
  -exchange      EXHF   =         0.00000000
  -V(xc)+E(xc)   XCENC  =      3283.50550733
  PAW double counting   =     65810.34371260   -65349.06071187
  entropy T*S    EENTRO =        -0.03064399
  eigenvalues    EBANDS =     -6562.75512745
  atomic energy  EATOM  =     64968.54023382
  Solvation  Ediel_sol  =         0.00000000
  ---------------------------------------------------
  free energy    TOTEN  =      -853.03571627 eV

  energy without entropy =     -853.00507228  energy(sigma->0) =     -853.02039427


--------------------------------------------------------------------------------------------------------




--------------------------------------- Iteration      1(   7)  ---------------------------------------


    POTLOK:  cpu time    0.1277: real time    0.1429
    SETDIJ:  cpu time    0.3604: real time    0.3603
     EDDAV:  cpu time   40.1366: real time   40.1393
       DOS:  cpu time    0.0026: real time    0.0026
    CHARGE:  cpu time    1.3465: real time    1.3464
    MIXING:  cpu time    0.0064: real time    0.0064
    --------------------------------------------
      LOOP:  cpu time   41.9801: real time   41.9980

 eigenvalue-minimisations  : 10208
 total energy-change (2. order) :-0.5544936E+01  (-0.1246092E+02)
 number of electron     864.0000006 magnetization 
 augmentation part      118.6443194 magnetization 

 Broyden mixing:
  rms(total) = 0.23223E+01    rms(broyden)= 0.23220E+01
  rms(prec ) = 0.27821E+01
  weight for this iteration     100.00

 eigenvalues of (default mixing * dielectric matrix)
  average eigenvalue GAMMA=   0.9419
  1.0168  0.8670

 Free energy of the ion-electron system (eV)
  ---------------------------------------------------
  alpha Z        PSCENC =      3039.22321400
  Ewald energy   TEWEN  =    -47887.70558927
  -Hartree energ DENC   =    -18165.07386870
  -exchange      EXHF   =         0.00000000
  -V(xc)+E(xc)   XCENC  =      3282.81421105
  PAW double counting   =     77910.47570748   -77496.29481886
  entropy T*S    EENTRO =        -0.03494314
  eigenvalues    EBANDS =     -6510.52479861
  atomic energy  EATOM  =     64968.54023382
  Solvation  Ediel_sol  =         0.00000000
  ---------------------------------------------------
  free energy    TOTEN  =      -858.58065223 eV

  energy without entropy =     -858.54570909  energy(sigma->0) =     -858.56318066


--------------------------------------------------------------------------------------------------------




--------------------------------------- Iteration      1(   8)  ---------------------------------------


    POTLOK:  cpu time    0.1016: real time    0.1051
    SETDIJ:  cpu time    0.3417: real time    0.3433
     EDDAV:  cpu time   45.4634: real time   45.4640
       DOS:  cpu time    0.0026: real time    0.0026
    CHARGE:  cpu time    1.3073: real time    1.3072
    MIXING:  cpu time    0.0070: real time    0.0070
    --------------------------------------------
      LOOP:  cpu time   47.2235: real time   47.2292

 eigenvalue-minimisations  : 12000
 total energy-change (2. order) : 0.6901272E+01  (-0.2455563E+01)
 number of electron     864.0000006 magnetization 
 augmentation part      118.1155661 magnetization 

 Broyden mixing:
  rms(total) = 0.16125E+01    rms(broyden)= 0.16123E+01
  rms(prec ) = 0.20475E+01
  weight for this iteration     100.00

 eigenvalues of (default mixing * dielectric matrix)
  average eigenvalue GAMMA=   0.9437
  1.2365  0.9506  0.6438

 Free energy of the ion-electron system (eV)
  ---------------------------------------------------
  alpha Z        PSCENC =      3039.22321400
  Ewald energy   TEWEN  =    -47887.70558927
  -Hartree energ DENC   =    -18176.21371472
  -exchange      EXHF   =         0.00000000
  -V(xc)+E(xc)   XCENC  =      3283.00860291
  PAW double counting   =     83433.15117305   -83044.59430117
  entropy T*S    EENTRO =        -0.02089267
  eigenvalues    EBANDS =     -6467.06810601
  atomic energy  EATOM  =     64968.54023382
  Solvation  Ediel_sol  =         0.00000000
  ---------------------------------------------------
  free energy    TOTEN  =      -851.67938006 eV

  energy without entropy =     -851.65848739  energy(sigma->0) =     -851.66893372


--------------------------------------------------------------------------------------------------------




--------------------------------------- Iteration      1(   9)  ---------------------------------------


    POTLOK:  cpu time    0.1351: real time    0.1486
    SETDIJ:  cpu time    0.3635: real time    0.3634
     EDDAV:  cpu time   40.9366: real time   40.9371
       DOS:  cpu time    0.0026: real time    0.0026
    CHARGE:  cpu time    1.3507: real time    1.3507
    MIXING:  cpu time    0.0058: real time    0.0058
    --------------------------------------------
      LOOP:  cpu time   42.7941: real time   42.8082

 eigenvalue-minimisations  : 10496
 total energy-change (2. order) :-0.3379020E+01  (-0.2385433E+01)
 number of electron     864.0000006 magnetization 
 augmentation part      117.6979487 magnetization 

 Broyden mixing:
  rms(total) = 0.23806E+01    rms(broyden)= 0.23802E+01
  rms(prec ) = 0.34231E+01
  weight for this iteration     100.00

 eigenvalues of (default mixing * dielectric matrix)
  average eigenvalue GAMMA=   0.8619
  1.5684  1.0575  0.4108  0.4108

 Free energy of the ion-electron system (eV)
  ---------------------------------------------------
  alpha Z        PSCENC =      3039.22321400
  Ewald energy   TEWEN  =    -47887.70558927
  -Hartree energ DENC   =    -18192.98933476
  -exchange      EXHF   =         0.00000000
  -V(xc)+E(xc)   XCENC  =      3284.01719120
  PAW double counting   =     87243.54360623   -86868.80718744
  entropy T*S    EENTRO =        -0.03469245
  eigenvalues    EBANDS =     -6440.84584188
  atomic energy  EATOM  =     64968.54023382
  Solvation  Ediel_sol  =         0.00000000
  ---------------------------------------------------
  free energy    TOTEN  =      -855.05840055 eV

  energy without entropy =     -855.02370810  energy(sigma->0) =     -855.04105432


--------------------------------------------------------------------------------------------------------




--------------------------------------- Iteration      1(  10)  ---------------------------------------


    POTLOK:  cpu time    0.1129: real time    0.1168
    SETDIJ:  cpu time    0.3469: real time    0.3469
     EDDAV:  cpu time   41.5533: real time   41.5531
       DOS:  cpu time    0.0026: real time    0.0026
    CHARGE:  cpu time    1.3527: real time    1.3527
    MIXING:  cpu time    0.0072: real time    0.0072
    --------------------------------------------
      LOOP:  cpu time   43.3756: real time   43.3793

 eigenvalue-minimisations  : 10712
 total energy-change (2. order) : 0.1847849E+01  (-0.1729382E+01)
 number of electron     864.0000006 magnetization 
 augmentation part      118.2186495 magnetization 

 Broyden mixing:
  rms(total) = 0.90149E+00    rms(broyden)= 0.90094E+00
  rms(prec ) = 0.12684E+01
  weight for this iteration     100.00

 eigenvalues of (default mixing * dielectric matrix)
  average eigenvalue GAMMA=   0.8771
  1.9538  0.8628  0.8628  0.3530  0.3530

 Free energy of the ion-electron system (eV)
  ---------------------------------------------------
  alpha Z        PSCENC =      3039.22321400
  Ewald energy   TEWEN  =    -47887.70558927
  -Hartree energ DENC   =    -18205.08773255
  -exchange      EXHF   =         0.00000000
  -V(xc)+E(xc)   XCENC  =      3284.62083365
  PAW double counting   =     90508.41058566   -90146.13449503
  entropy T*S    EENTRO =        -0.01181005
  eigenvalues    EBANDS =     -6415.06579184
  atomic energy  EATOM  =     64968.54023382
  Solvation  Ediel_sol  =         0.00000000
  ---------------------------------------------------
  free energy    TOTEN  =      -853.21055160 eV

  energy without entropy =     -853.19874156  energy(sigma->0) =     -853.20464658


--------------------------------------------------------------------------------------------------------




--------------------------------------- Iteration      1(  11)  ---------------------------------------


    POTLOK:  cpu time    0.1354: real time    0.1494
    SETDIJ:  cpu time    0.3704: real time    0.3707
     EDDAV:  cpu time   41.5870: real time   41.5873
       DOS:  cpu time    0.0027: real time    0.0027
    CHARGE:  cpu time    1.3447: real time    1.3447
    MIXING:  cpu time    0.0070: real time    0.0070
    --------------------------------------------
      LOOP:  cpu time   43.4472: real time   43.4618

 eigenvalue-minimisations  : 10656
 total energy-change (2. order) : 0.1776441E+01  (-0.3237257E+00)
 number of electron     864.0000006 magnetization 
 augmentation part      117.9091151 magnetization 

 Broyden mixing:
  rms(total) = 0.53094E+00    rms(broyden)= 0.53088E+00
  rms(prec ) = 0.79202E+00
  weight for this iteration     100.00

 eigenvalues of (default mixing * dielectric matrix)
  average eigenvalue GAMMA=   0.9228
  2.1698  1.0282  0.7852  0.7852  0.3842  0.3842

 Free energy of the ion-electron system (eV)
  ---------------------------------------------------
  alpha Z        PSCENC =      3039.22321400
  Ewald energy   TEWEN  =    -47887.70558927
  -Hartree energ DENC   =    -18233.59293671
  -exchange      EXHF   =         0.00000000
  -V(xc)+E(xc)   XCENC  =      3286.35133692
  PAW double counting   =     92912.88553578   -92558.59509126
  entropy T*S    EENTRO =        -0.01918976
  eigenvalues    EBANDS =     -6378.52162431
  atomic energy  EATOM  =     64968.54023382
  Solvation  Ediel_sol  =         0.00000000
  ---------------------------------------------------
  free energy    TOTEN  =      -851.43411079 eV

  energy without entropy =     -851.41492103  energy(sigma->0) =     -851.42451591


--------------------------------------------------------------------------------------------------------




--------------------------------------- Iteration      1(  12)  ---------------------------------------


    POTLOK:  cpu time    0.1288: real time    0.1326
    SETDIJ:  cpu time    0.3522: real time    0.3521
     EDDAV:  cpu time   40.4926: real time   40.4931
       DOS:  cpu time    0.0023: real time    0.0023
    CHARGE:  cpu time    1.3359: real time    1.3359
    MIXING:  cpu time    0.0080: real time    0.0079
    --------------------------------------------
      LOOP:  cpu time   42.3198: real time   42.3240

 eigenvalue-minimisations  : 10368
 total energy-change (2. order) :-0.1621605E+00  (-0.4007911E+00)
 number of electron     864.0000006 magnetization 
 augmentation part      117.6519009 magnetization 

 Broyden mixing:
  rms(total) = 0.11515E+01    rms(broyden)= 0.11511E+01
  rms(prec ) = 0.15980E+01
  weight for this iteration     100.00

 eigenvalues of (default mixing * dielectric matrix)
  average eigenvalue GAMMA=   0.8129
  2.1675  1.0341  0.7692  0.7692  0.3758  0.3758  0.1987

 Free energy of the ion-electron system (eV)
  ---------------------------------------------------
  alpha Z        PSCENC =      3039.22321400
  Ewald energy   TEWEN  =    -47887.70558927
  -Hartree energ DENC   =    -18249.52902320
  -exchange      EXHF   =         0.00000000
  -V(xc)+E(xc)   XCENC  =      3287.23191354
  PAW double counting   =     94093.56573756   -93742.43909330
  entropy T*S    EENTRO =        -0.00227311
  eigenvalues    EBANDS =     -6360.48139135
  atomic energy  EATOM  =     64968.54023382
  Solvation  Ediel_sol  =         0.00000000
  ---------------------------------------------------
  free energy    TOTEN  =      -851.59627131 eV

  energy without entropy =     -851.59399820  energy(sigma->0) =     -851.59513476


--------------------------------------------------------------------------------------------------------




--------------------------------------- Iteration      1(  13)  ---------------------------------------


    POTLOK:  cpu time    0.1256: real time    0.1400
    SETDIJ:  cpu time    0.3498: real time    0.3498
     EDDAV:  cpu time   38.6733: real time   38.6724
       DOS:  cpu time    0.0026: real time    0.0026
    CHARGE:  cpu time    1.3425: real time    1.3425
    MIXING:  cpu time    0.0063: real time    0.0063
    --------------------------------------------
      LOOP:  cpu time   40.5001: real time   40.5137

 eigenvalue-minimisations  :  9760
 total energy-change (2. order) : 0.6131398E+00  (-0.4755800E-01)
 number of electron     864.0000006 magnetization 
 augmentation part      117.6591869 magnetization 

 Broyden mixing:
  rms(total) = 0.78786E+00    rms(broyden)= 0.78786E+00
  rms(prec ) = 0.10648E+01
  weight for this iteration     100.00

 eigenvalues of (default mixing * dielectric matrix)
  average eigenvalue GAMMA=   0.8202
  2.1562  1.0854  0.8066  0.8066  0.4678  0.4678  0.3856  0.3856

 Free energy of the ion-electron system (eV)
  ---------------------------------------------------
  alpha Z        PSCENC =      3039.22321400
  Ewald energy   TEWEN  =    -47887.70558927
  -Hartree energ DENC   =    -18251.15778398
  -exchange      EXHF   =         0.00000000
  -V(xc)+E(xc)   XCENC  =      3287.31292709
  PAW double counting   =     94146.96762635   -93796.12397317
  entropy T*S    EENTRO =        -0.02421376
  eigenvalues    EBANDS =     -6358.01557259
  atomic energy  EATOM  =     64968.54023382
  Solvation  Ediel_sol  =         0.00000000
  ---------------------------------------------------
  free energy    TOTEN  =      -850.98313151 eV

  energy without entropy =     -850.95891775  energy(sigma->0) =     -850.97102463


--------------------------------------------------------------------------------------------------------




--------------------------------------- Iteration      1(  14)  ---------------------------------------


    POTLOK:  cpu time    0.1013: real time    0.1051
    SETDIJ:  cpu time    0.3420: real time    0.3420
     EDDAV:  cpu time   42.4967: real time   42.4957
       DOS:  cpu time    0.0025: real time    0.0025
    CHARGE:  cpu time    1.3466: real time    1.3466
    MIXING:  cpu time    0.0063: real time    0.0063
    --------------------------------------------
      LOOP:  cpu time   44.2956: real time   44.2984

 eigenvalue-minimisations  : 11016
 total energy-change (2. order) : 0.1879805E+00  (-0.2382479E-01)
 number of electron     864.0000006 magnetization 
 augmentation part      117.7259011 magnetization 

 Broyden mixing:
  rms(total) = 0.21063E+00    rms(broyden)= 0.20979E+00
  rms(prec ) = 0.29621E+00
  weight for this iteration     100.00

 eigenvalues of (default mixing * dielectric matrix)
  average eigenvalue GAMMA=   0.8290
  2.1999  1.1838  0.9431  0.8147  0.8147  0.3874  0.3874  0.3650  0.3650

 Free energy of the ion-electron system (eV)
  ---------------------------------------------------
  alpha Z        PSCENC =      3039.22321400
  Ewald energy   TEWEN  =    -47887.70558927
  -Hartree energ DENC   =    -18252.37175865
  -exchange      EXHF   =         0.00000000
  -V(xc)+E(xc)   XCENC  =      3287.35663880
  PAW double counting   =     94093.01237149   -93742.00018697
  entropy T*S    EENTRO =        -0.03545129
  eigenvalues    EBANDS =     -6356.81462296
  atomic energy  EATOM  =     64968.54023382
  Solvation  Ediel_sol  =         0.00000000
  ---------------------------------------------------
  free energy    TOTEN  =      -850.79515102 eV

  energy without entropy =     -850.75969973  energy(sigma->0) =     -850.77742537


--------------------------------------------------------------------------------------------------------




--------------------------------------- Iteration      1(  15)  ---------------------------------------


    POTLOK:  cpu time    0.1300: real time    0.1443
    SETDIJ:  cpu time    0.3577: real time    0.3595
     EDDAV:  cpu time   40.2767: real time   40.2774
       DOS:  cpu time    0.0027: real time    0.0027
    CHARGE:  cpu time    1.3440: real time    1.3440
    MIXING:  cpu time    0.0081: real time    0.0081
    --------------------------------------------
      LOOP:  cpu time   42.1192: real time   42.1360

 eigenvalue-minimisations  : 10248
 total energy-change (2. order) : 0.1304277E-01  (-0.3866733E-01)
 number of electron     864.0000006 magnetization 
 augmentation part      117.6187709 magnetization 

 Broyden mixing:
  rms(total) = 0.43853E+00    rms(broyden)= 0.43842E+00
  rms(prec ) = 0.60949E+00
  weight for this iteration     100.00

 eigenvalues of (default mixing * dielectric matrix)
  average eigenvalue GAMMA=   0.8581
  2.2979  1.3309  1.0894  0.9400  0.9400  0.5699  0.3803  0.3803  0.3261  0.3261

 Free energy of the ion-electron system (eV)
  ---------------------------------------------------
  alpha Z        PSCENC =      3039.22321400
  Ewald energy   TEWEN  =    -47887.70558927
  -Hartree energ DENC   =    -18258.98134823
  -exchange      EXHF   =         0.00000000
  -V(xc)+E(xc)   XCENC  =      3287.70306371
  PAW double counting   =     94179.27209458   -93828.28056915
  entropy T*S    EENTRO =        -0.04144913
  eigenvalues    EBANDS =     -6350.51175858
  atomic energy  EATOM  =     64968.54023382
  Solvation  Ediel_sol  =         0.00000000
  ---------------------------------------------------
  free energy    TOTEN  =      -850.78210825 eV

  energy without entropy =     -850.74065912  energy(sigma->0) =     -850.76138368


--------------------------------------------------------------------------------------------------------




--------------------------------------- Iteration      1(  16)  ---------------------------------------


    POTLOK:  cpu time    0.1283: real time    0.1315
    SETDIJ:  cpu time    0.3497: real time    0.3497
     EDDAV:  cpu time   41.5683: real time   41.5704
       DOS:  cpu time    0.0026: real time    0.0026
    CHARGE:  cpu time    1.3606: real time    1.3606
    MIXING:  cpu time    0.0066: real time    0.0066
    --------------------------------------------
      LOOP:  cpu time   43.4161: real time   43.4214

 eigenvalue-minimisations  : 10728
 total energy-change (2. order) :-0.7438048E-01  (-0.9266272E-01)
 number of electron     864.0000006 magnetization 
 augmentation part      117.6372999 magnetization 

 Broyden mixing:
  rms(total) = 0.48055E+00    rms(broyden)= 0.48014E+00
  rms(prec ) = 0.69282E+00
  weight for this iteration     100.00

 eigenvalues of (default mixing * dielectric matrix)
  average eigenvalue GAMMA=   0.8042
  2.3028  1.5228  1.0293  0.9348  0.9348  0.5759  0.3806  0.3806  0.3305  0.3305
  0.1238

 Free energy of the ion-electron system (eV)
  ---------------------------------------------------
  alpha Z        PSCENC =      3039.22321400
  Ewald energy   TEWEN  =    -47887.70558927
  -Hartree energ DENC   =    -18262.82792365
  -exchange      EXHF   =         0.00000000
  -V(xc)+E(xc)   XCENC  =      3287.88412961
  PAW double counting   =     94255.32495419   -93904.52731834
  entropy T*S    EENTRO =        -0.04080253
  eigenvalues    EBANDS =     -6346.72738656
  atomic energy  EATOM  =     64968.54023382
  Solvation  Ediel_sol  =         0.00000000
  ---------------------------------------------------
  free energy    TOTEN  =      -850.85648873 eV

  energy without entropy =     -850.81568619  energy(sigma->0) =     -850.83608746


--------------------------------------------------------------------------------------------------------




--------------------------------------- Iteration      1(  17)  ---------------------------------------


    POTLOK:  cpu time    0.1358: real time    0.1501
    SETDIJ:  cpu time    0.3722: real time    0.3722
     EDDAV:  cpu time   41.4265: real time   41.4263
       DOS:  cpu time    0.0026: real time    0.0026
    CHARGE:  cpu time    1.3049: real time    1.3049
    MIXING:  cpu time    0.0075: real time    0.0075
    --------------------------------------------
      LOOP:  cpu time   43.2495: real time   43.2636

 eigenvalue-minimisations  : 10632
 total energy-change (2. order) :-0.2308006E-01  (-0.1862413E-01)
 number of electron     864.0000006 magnetization 
 augmentation part      117.6975574 magnetization 

 Broyden mixing:
  rms(total) = 0.38313E+00    rms(broyden)= 0.38296E+00
  rms(prec ) = 0.53747E+00
  weight for this iteration     100.00

 eigenvalues of (default mixing * dielectric matrix)
  average eigenvalue GAMMA=   0.7967
  2.3697  1.4922  0.9864  0.9864  0.9806  0.5941  0.5941  0.3888  0.3888  0.3393
  0.3393  0.1009

 Free energy of the ion-electron system (eV)
  ---------------------------------------------------
  alpha Z        PSCENC =      3039.22321400
  Ewald energy   TEWEN  =    -47887.70558927
  -Hartree energ DENC   =    -18262.61968617
  -exchange      EXHF   =         0.00000000
  -V(xc)+E(xc)   XCENC  =      3287.88265235
  PAW double counting   =     94232.64088360   -93881.73961306
  entropy T*S    EENTRO =        -0.03148675
  eigenvalues    EBANDS =     -6347.07017731
  atomic energy  EATOM  =     64968.54023382
  Solvation  Ediel_sol  =         0.00000000
  ---------------------------------------------------
  free energy    TOTEN  =      -850.87956878 eV

  energy without entropy =     -850.84808204  energy(sigma->0) =     -850.86382541


--------------------------------------------------------------------------------------------------------




--------------------------------------- Iteration      1(  18)  ---------------------------------------


    POTLOK:  cpu time    0.1329: real time    0.1362
    SETDIJ:  cpu time    0.3630: real time    0.3629
     EDDAV:  cpu time   41.8972: real time   41.8992
       DOS:  cpu time    0.0025: real time    0.0025
    CHARGE:  cpu time    1.2973: real time    1.2973
    MIXING:  cpu time    0.0077: real time    0.0077
    --------------------------------------------
      LOOP:  cpu time   43.7005: real time   43.7057

 eigenvalue-minimisations  : 10768
 total energy-change (2. order) :-0.9598117E-04  (-0.1560007E-01)
 number of electron     864.0000006 magnetization 
 augmentation part      117.7460202 magnetization 

 Broyden mixing:
  rms(total) = 0.34535E+00    rms(broyden)= 0.34531E+00
  rms(prec ) = 0.49720E+00
  weight for this iteration     100.00

 eigenvalues of (default mixing * dielectric matrix)
[...]
   -.376E+02 0.109E+03 -.285E+01   0.310E+02 -.109E+03 -.501E+01   0.104E+02 -.685E+01 0.842E+01   -.915E-03 -.930E-03 -.399E-02
   -.594E+02 0.170E+02 -.463E+02   0.709E+02 -.148E+02 0.638E+02   -.110E+02 -.236E+01 -.176E+02   0.284E-02 0.112E-01 0.336E-02
   0.860E+02 0.509E+02 0.460E+02   -.116E+03 -.688E+02 -.224E+02   0.273E+02 0.101E+02 -.157E+02   0.243E-01 -.180E-01 -.184E-02
   -.234E+02 0.361E+02 -.184E+02   0.489E+02 -.481E+02 -.173E+01   -.224E+02 0.122E+02 0.218E+02   0.189E-02 -.855E-03 -.231E-02
   -.612E+02 -.195E+03 -.966E+02   0.645E+02 0.186E+03 0.114E+03   -.412E+01 0.116E+02 -.178E+02   -.136E-02 -.441E-03 -.141E-03
   0.467E+02 0.240E+02 -.120E+03   -.392E+02 -.331E+02 0.129E+03   -.147E+02 0.762E+01 -.704E+01   -.785E-02 -.243E-02 0.110E-02
   -.820E+02 0.163E+02 -.112E+02   0.834E+02 -.133E+02 0.231E+02   -.230E+01 -.384E+01 -.162E+02   0.281E-02 0.421E-02 -.944E-02
   -.455E+02 0.664E+01 -.435E+02   0.688E+02 0.673E+01 0.399E+02   -.244E+02 -.140E+02 0.499E+01   -.115E-01 0.150E-01 0.187E-01
   -.651E+02 0.676E+01 0.444E+02   0.801E+02 -.372E+01 -.672E+02   -.157E+02 -.255E+01 0.249E+02   -.155E-01 -.320E-01 0.989E-02
   -.463E+02 0.270E+02 -.113E+02   0.685E+02 -.382E+02 0.222E+02   -.191E+02 0.103E+02 -.106E+02   -.574E-02 0.236E-01 -.244E-01
   0.788E+02 0.508E+02 0.247E+02   -.699E+02 -.462E+02 -.295E+02   -.101E+02 -.604E+01 0.842E+01   0.115E-02 -.416E-02 0.342E-02
   0.482E+02 -.835E+02 0.599E+02   -.688E+02 0.107E+03 -.756E+02   0.199E+02 -.238E+02 0.140E+02   -.172E-02 0.182E-02 -.585E-03
   0.880E+02 0.112E+03 -.218E+02   -.817E+02 -.109E+03 0.834E+01   -.770E+01 -.154E+01 0.150E+02   -.133E-02 -.847E-03 0.116E-02
   0.325E+02 -.157E+02 0.191E+01   -.351E+02 0.375E+02 0.110E+02   0.473E+01 -.197E+02 -.138E+02   0.104E-01 -.333E-02 0.219E-01
   0.605E+01 0.130E+03 -.181E+02   -.384E+02 -.129E+03 0.143E+02   0.359E+02 -.142E+01 0.550E+01   -.427E-02 0.327E-02 0.447E-02
   0.936E+02 0.487E+02 -.631E+02   -.997E+02 -.629E+02 0.825E+02   0.202E+01 0.158E+02 -.189E+02   0.218E-02 0.744E-03 -.554E-02
   0.553E+02 0.455E+02 -.484E+02   -.447E+02 -.430E+02 0.457E+02   -.170E+02 -.293E+01 0.376E+01   0.966E-03 0.423E-03 -.173E-03
   -.942E+01 -.423E+02 0.231E+02   0.867E+01 0.339E+02 -.287E+02   0.491E+00 0.799E+01 0.828E+01   0.144E-01 0.352E-02 -.203E-02
   -.806E+02 -.101E+02 0.415E+02   0.724E+02 -.836E+00 -.294E+02   0.979E+01 0.147E+02 -.147E+02   0.442E-02 0.154E-02 0.506E-02
   0.330E+02 -.273E+01 -.398E+02   -.281E+02 0.271E+02 0.360E+02   -.875E+01 -.254E+02 0.301E+01   0.807E-02 -.657E-02 -.188E-01
   0.799E+02 -.298E+02 -.896E+02   -.767E+02 0.459E+02 0.796E+02   -.656E+01 -.181E+02 0.133E+02   -.263E-02 0.471E-03 -.399E-02
   -.497E+02 0.387E+02 -.524E+02   0.618E+02 -.529E+02 0.528E+02   -.126E+02 0.130E+02 -.926E+00   -.145E-02 -.215E-02 -.252E-02
   0.745E+02 0.794E+02 0.988E+02   -.799E+02 -.101E+03 -.114E+03   0.986E+00 0.210E+02 0.174E+02   -.582E-02 -.116E-01 0.629E-02
   0.104E+03 -.121E+03 -.975E+01   -.122E+03 0.120E+03 -.952E+01   0.162E+02 0.163E+01 0.219E+02   0.360E-02 -.112E-01 0.184E-01
   0.541E+02 0.156E+03 0.159E+03   -.313E+02 -.172E+03 -.165E+03   -.246E+02 0.181E+02 0.153E+01   0.245E-03 -.272E-02 0.219E-02
   0.450E+02 -.399E+02 0.576E+02   -.505E+02 0.456E+02 -.770E+02   0.575E+01 -.574E+01 0.183E+02   -.643E-02 0.150E-02 -.341E-02
   0.192E+02 -.102E+03 -.287E+02   -.354E+02 0.117E+03 0.677E+02   0.971E+01 -.131E+02 -.372E+02   -.225E-02 -.973E-02 -.255E-02
   -.146E+03 0.119E+03 -.270E+02   0.135E+03 -.144E+03 0.308E+02   0.155E+02 0.276E+02 -.327E+01   -.112E-02 -.607E-03 -.439E-02
   0.112E+03 -.331E+02 -.969E+01   -.119E+03 0.173E+02 0.220E+02   0.712E+01 0.175E+02 -.133E+02   -.459E-02 0.444E-02 0.230E-02
   0.130E+03 0.757E+02 -.862E+02   -.130E+03 -.939E+02 0.995E+02   0.777E-01 0.201E+02 -.133E+02   -.133E-03 -.844E-03 -.187E-02
   0.962E+01 -.146E+03 -.312E+02   0.114E+02 0.161E+03 0.545E+02   -.184E+02 -.795E+01 -.200E+02   -.312E-03 -.188E-02 0.520E-02
   -.627E+02 0.547E+02 0.127E+03   0.535E+02 -.431E+02 -.148E+03   0.103E+02 -.121E+02 0.190E+02   0.158E-03 0.185E-02 0.145E-02
   -.814E+02 0.586E+02 -.635E+02   0.751E+02 -.714E+02 0.499E+02   0.897E+01 0.104E+02 0.198E+02   0.244E-02 0.468E-02 0.142E-02
   0.689E+02 -.108E+02 0.455E+02   -.768E+02 -.108E+02 -.481E+02   0.912E+01 0.146E+02 0.165E+01   0.287E-02 0.196E-02 -.808E-02
   -.555E+02 -.140E+03 0.175E+02   0.552E+02 0.129E+03 -.336E+02   0.175E+01 0.112E+02 0.151E+02   -.170E-02 -.162E-02 0.392E-02
   0.101E+02 -.694E+02 -.624E+02   0.106E+02 0.717E+02 0.745E+02   -.191E+02 -.116E+01 -.646E+01   -.190E-03 -.124E-02 -.142E-01
   -.407E+02 0.180E+01 0.100E+03   0.507E+02 0.180E+02 -.931E+02   -.568E+01 -.206E+02 -.647E+01   0.159E-02 -.254E-02 0.124E-01
   -.545E+02 0.298E+02 -.343E+02   0.585E+02 -.187E+02 0.512E+02   -.349E+01 -.908E+01 -.160E+02   -.479E-02 -.746E-02 -.150E-01
   -.557E+02 -.518E+02 -.957E+02   0.814E+02 0.437E+02 0.116E+03   -.269E+02 0.931E+01 -.152E+02   0.440E-02 -.197E-02 -.496E-02
   0.124E+02 0.173E+03 -.470E+02   -.296E+02 -.188E+03 0.579E+02   0.211E+02 0.181E+02 -.129E+02   -.842E-03 0.279E-03 -.173E-02
   0.811E+02 -.130E+01 -.828E+02   -.891E+02 0.672E+01 0.931E+02   0.738E+01 -.101E+02 -.104E+02   -.114E-02 0.316E-02 0.348E-02
   0.486E+01 0.724E+02 -.460E+02   -.170E+02 -.910E+02 0.529E+02   0.107E+02 0.165E+02 -.492E+01   -.172E-02 -.372E-02 -.433E-02
   0.155E+03 -.101E+01 0.451E+02   -.185E+03 0.191E+02 -.447E+02   0.264E+02 -.182E+02 -.380E+00   0.487E-02 -.577E-02 0.604E-02
   0.949E+01 0.530E+01 -.931E+01   -.321E+02 0.401E+01 0.221E+02   0.189E+02 -.705E+01 -.121E+02   -.430E-02 0.643E-06 0.356E-02
   -.458E+02 -.274E+02 -.500E+02   0.705E+02 0.643E+01 0.342E+02   -.190E+02 0.216E+02 0.123E+02   0.387E-02 -.926E-03 -.678E-02
   -.737E+02 0.946E+02 0.908E+02   0.680E+02 -.859E+02 -.952E+02   0.839E+01 -.122E+02 0.144E+01   -.674E-03 0.483E-02 0.546E-02
   -.533E+01 -.422E+02 -.583E+02   0.871E+01 0.518E+02 0.445E+02   -.168E+01 -.799E+01 0.130E+02   -.146E-02 0.349E-02 -.603E-02
   0.112E+03 -.243E+01 0.457E+02   -.124E+03 0.157E+02 -.404E+02   0.155E+02 -.155E+02 -.543E+01   -.950E-03 -.442E-02 0.858E-03
 -----------------------------------------------------------------------------------------------
   -.254E+02 -.645E+02 0.546E+02   -.682E-12 0.171E-12 -.931E-12   0.254E+02 0.645E+02 -.546E+02   -.246E-01 -.102E-01 0.213E-01
 
 
 POSITION                                       TOTAL-FORCE (eV/Angst)
 -----------------------------------------------------------------------------------
      8.68794      2.60571      4.74775         1.984791      3.154798      2.788509
      5.11436      0.87892      9.55439         2.695783      3.808727     -5.621106
      0.76771      7.57155      2.32336        -1.261420      0.214818     -1.828294
      1.06132      9.03978      4.84427         0.820734      1.766830      2.340670
      9.27113      9.65523      2.01225         0.364853      1.144687      2.388874
      9.86490      1.95109      1.42006         0.652474      0.004838     -1.603751
      7.51617      6.21235      9.17429        -1.341637      1.580366     -1.655020
      5.73999      3.49615      0.51909        -0.700031     -2.417707      3.692565
      4.52352      6.45492      6.41571         2.192185      2.052063      1.831804
      6.52654      6.69970      4.20245        -1.994670      0.925603     -2.409454
      2.44367      1.43851      4.75102         1.059387     -2.466154      2.743853
     11.40862      0.04939      8.54004         1.273159      0.732918     -2.670909
      7.26396     11.39350     11.62754         0.855981     -2.526415     -0.071765
      0.64093      3.69311      8.76935        -0.348085     -0.850197     -4.808947
      4.08200      3.36682      6.57762         0.107291     -0.581530      0.574303
      1.87711      4.12927      1.47416         2.516872      0.515133     -0.284565
      3.60112      9.98815      1.67183        -1.639617     -1.443573      0.896420
     10.85996      4.41818     10.87530        -4.409385     -0.106518      3.852961
      1.74471      9.10452      8.88291        -1.551309      0.442114     -1.499074
      6.35102      9.34000      7.66902        -0.671900     -2.770893      1.609757
      4.79985      6.72186      1.00929         0.339839     -0.486774     -0.198746
      4.38987     10.55873     10.37921         0.435520     -3.290839      1.463430
      5.45328      0.60411      3.03710        -2.493999      1.933974      0.197619
      3.39995      6.93812      3.52497         3.487171      3.143641      1.032252
     10.75206      6.97000      8.90612         2.384352      3.277927     -5.310714
      1.68031      6.78800     11.04402         5.528501      1.365196     -1.686761
      7.90253     10.24348      5.89936         0.334637      0.622718     -5.340917
     10.03070      6.52103      4.07035        -2.777440     -1.884216     -7.284629
      7.99504      6.65845      0.32496         5.129874     -2.019842      9.001719
      1.90469      6.28574      7.45143         2.427521      3.530734      0.052497
      2.74045      3.17571     10.44165         5.527528     -9.026547     -3.626888
      1.28396      1.33944      2.44532        -2.800094     -5.731256     -1.742950
     11.41694      9.92243     11.32030        -0.215863      1.856386      2.430081
     10.33877      9.46840      6.84002         2.266396     -2.161379     -1.753379
      4.72710      9.40324      4.70641        -4.658648      4.016727      0.033318
      3.92031     10.85615      7.13262        -4.900761      3.694387      1.053174
      7.97181      4.22735      2.64340        -1.857868      5.318217     -1.892688
      6.27749      8.93407      1.94981         4.386067      1.353973      3.849371
      7.53915      2.86418     10.18374         0.179929     -1.350743      3.221499
      4.73361      3.98649      3.65593        -6.740783      3.858150     -0.047975
     11.42179      3.54780      3.37954        -1.342134     -7.976103     -5.681384
      9.27320      3.95877      8.26138        -2.438459     -2.213300     -3.391443
     10.18168      7.34487     11.55149         9.483805     -2.075132     -6.812992
      6.71239      1.35646      6.39279        -6.904716      2.724924     -1.339868
      4.03383      7.56869      9.67984         0.787060      2.091003     -2.102438
      1.08638      5.36118      4.95470        -1.892697      4.568239      0.051241
      8.91633      1.55380      7.71016         2.110472     -2.492477     -3.179041
      4.84652      4.60199      9.41006         1.873878     -0.528899     -1.462967
      0.01556      2.70162      6.08842        -0.011900     -1.256991      3.656683
      8.76761     10.40036      9.09234        -7.443721     -1.597356      2.789616
      9.12720      6.20546      5.98624         4.581542      7.308878      1.799163
      0.52349      1.40810     10.71502         1.379071     -2.291667      6.464329
      3.63603      1.07896      0.86762         4.320291      5.860299      0.489912
      7.98423      0.90002      3.09584         2.513590     -2.108890      0.512524
      6.73536      6.95183     11.33519        -8.995544      0.123099     -8.001535
      1.19346      5.78287      8.68071        -2.707025     -1.970925      5.159606
      1.19257     11.14102     11.47478        -4.962531     -3.035850     -2.683962
      5.14175      8.21966      2.75842        -3.549330     -4.459968      2.069555
      4.04016      2.60776      1.71387        -2.391762     -3.445903     -1.255128
      8.20534      7.00786      5.04860         4.170162      0.407448     -2.075431
     10.19162      9.95583      8.70159         4.761844     -0.459534     -3.383623
      9.65176     10.66232     11.01041         1.810606     -1.171324      0.140409
     10.02927     10.03532      5.32922        -0.383841     -0.182790      1.898997
     10.18070      3.44905      6.76930         0.393219      3.438395      1.023239
      2.39968     10.23084      7.35236         1.658724      0.467109      1.652395
      6.14129      2.99102      6.08376         1.509361     -4.993173      0.241818
     11.20409      4.94756      3.79642         3.533740      7.701136     -0.944481
      1.53780      2.80110      3.26904        -2.097420     -0.770147     -0.590654
      6.16633      3.83167     10.22017        -3.298581      3.377049     -2.386190
     10.66193      1.48004      6.02963         1.660710     -3.532742      0.096254
      3.80089      5.91126      9.91752         2.412781      0.864888      2.185079
      2.61833      5.15730      6.61619        -0.146283     -0.441173     -2.317550
      0.31375      9.69113      7.01954        -1.457746      0.286183      0.723019
      7.10902      7.51922      1.72832        -0.635450      3.340686      1.036643
      9.91710      2.21513      8.84870         1.380620      0.060094     -2.120786
      1.63036      2.52456      6.74379        -3.011939     -1.211098      1.444602
      3.08674      7.36239      8.33359        -1.141667      0.527079     -1.547002
      2.56328      6.80182      1.52211        -0.997998      2.152215     -3.454806
      8.25885      8.72385      8.90588        -1.412567      3.878741     -0.814973
      3.71437      8.89871      5.94148        -0.211904     -4.221333     -0.585893
      4.11767     11.06393      5.60419         1.398511      2.168228     -3.789923
      6.53229      7.06981      7.23188        -0.734288      0.896704     -0.261124
      9.23232      0.36365      3.90168         1.345486     -0.157000     -2.033047
      8.78512      5.30530      0.06508         3.035654      0.049424     -1.887669
      7.99012      0.82026      1.51724         0.299269     -0.859567      2.216310
      9.86425      7.55521      2.88842         3.506422     -0.799034      4.179242
      2.90265      9.54573      3.59412        -2.799926     -2.932299      0.765136
      3.51980      5.22598      2.60949         3.755386     -6.093203      0.564874
      8.44470      2.92978     11.57715         0.404938     -0.143101     -0.071806
      8.44784      5.42313      6.95229        -3.030473     -7.802566      7.822915
      8.21421      1.29758      6.12599         3.079244      0.196547      1.682095
     11.50620      9.00194      1.07990        -0.782486      2.494288     -0.256744
      0.05061      6.45373      0.15001        -7.188403     -1.461020      1.922469
      7.54721      9.70312      3.44194        -0.912305     -0.905143     -4.277370
      5.23901      8.57209      9.32464        -1.117066     -0.639738      1.368913
      5.44416      5.03665      7.92575        -0.645015      0.450749      2.021183
      6.02040      8.91047      5.43440         3.137962     -0.932095      0.350148
      4.02640      1.84226     10.86839        -1.280040     -1.478784      3.683111
      1.03618      7.26540      6.62645        -0.677792      0.100681     -1.762960
      1.30215      1.68055      0.80355        -1.395517      1.452506      1.526104
      8.24282      4.15695      9.53034         2.102116      2.110499     -0.947273
     10.54021      1.56678     10.76332         3.517890     -0.269787      1.799375
      7.09335      0.50230      4.38784        -4.046428      1.686883      0.475761
      5.51586      0.53176      0.81613        -6.447624     -0.467771      1.130980
      9.86377      7.87493      6.56972        -0.245976     -0.355950      2.638059
      6.59122      1.59858     10.86551         1.586783      3.730512     -2.587948
      7.94360      5.64493      1.98532        -3.879364     -1.081014     -0.801555
      1.55012      6.63569      4.04908        -3.348929     -2.010022      3.332842
      0.80833      3.87192      5.25576        -0.488511     -1.210759     -0.557173
      4.04829      3.33596      8.81712        -4.463108     -1.190393      1.872194
      9.35834      7.05004     10.20890        -1.881066      0.399859      2.623561
      2.13039      1.31894     10.40439        -1.799912      2.316220     -4.936167
     11.32373      3.75833      1.71806         0.217645     -0.050925     -0.998862
      9.30851      7.75413      0.98655        -6.504570      2.083369      1.831750
     10.31113      2.31510      3.54069         4.871135      3.168278      0.522872
      6.08724      0.01788      7.17580         0.590877      1.770309     -1.058518
      2.78463      0.31989      2.19994        -0.237469      1.929505      0.008350
      3.71142      3.93185     11.27008         2.561736      6.816499      3.347035
      5.55134      9.66601      0.73756         1.024498     -0.450267     -1.945851
      8.66491     11.54844      7.53544         2.661138     -2.378416      6.265750
      7.92208      2.76113      2.84240         1.212060     -7.018407     -0.929808
     11.32425      8.53472     10.43334         1.415892     -0.217331     -0.945342
      9.09468      4.76211      3.57836         1.590129      1.178255      5.598498
     10.18271      5.07081      8.82834         4.311808     -0.766814      0.618028
      4.97182      5.13357      4.74956         0.517787      1.980181      0.894861
     10.74270      6.03395      5.39729        -1.208455      1.196184      4.787384
      0.19982      0.10530      3.20502         3.851783      3.633445     -1.908196
      3.07855      9.08375     10.68441        -0.624852     -4.671029     -0.199632
      3.90254      2.86799      4.33998        -1.448839     -2.093281      1.970131
      7.87252      2.67872      8.03928        -3.772857     -0.139223     -0.010734
      1.31952      3.65838     10.74322        -3.742917      2.259904      0.763246
      5.88913      3.43029      2.92579         5.732617      0.647621     -3.473373
      7.06451     11.35890      9.60602         2.610413     -3.501589     -3.015097
      4.98349     10.31702      3.39548         1.693157      1.610539     -0.823939
      3.31012      0.83879      7.83007         3.178254     -2.191689     -0.122146
 -----------------------------------------------------------------------------------
    total drift:                               -0.001781      0.007690      0.002196


--------------------------------------------------------------------------------------------------------



  FREE ENERGIE OF THE ION-ELECTRON SYSTEM (eV)
  ---------------------------------------------------
  free  energy   TOTEN  =      -850.73212127 eV

  energy  without entropy=     -850.69452472  energy(sigma->0) =     -850.71332299
 


--------------------------------------------------------------------------------------------------------


    POTLOK:  cpu time    0.4432: real time    0.4451


--------------------------------------------------------------------------------------------------------


     LOOP+:  cpu time 1373.8546: real time 1374.1961
    4ORBIT:  cpu time    0.0000: real time    0.0000

 total amount of memory used by VASP MPI-rank0   158127. kBytes
=======================================================================

   base      :      30000. kBytes
   nonlr-proj:      22576. kBytes
   fftplans  :      23353. kBytes
   grid      :      12472. kBytes
   one-center:        171. kBytes
   wavefun   :      69555. kBytes
 
  
  
 General timing and accounting informations for this job:
 ========================================================
  
                  Total CPU time used (sec):     1397.130
                            User time (sec):     1391.010
                          System time (sec):        6.120
                         Elapsed time (sec):     1397.648
  
                   Maximum memory used (kb):      302328.
                   Average memory used (kb):           0.
  
                          Minor page faults:       160049
                          Major page faults:            0
                 Voluntary context switches:         2366
