<?xml version="1.0" encoding="ISO-8859-1"?>
<modeling>
 <generator>
  <i name="program" type="string">vasp </i>
  <i name="version" type="string">5.4.4.18Apr17-6-g9f103f2a35  </i>
  <i name="subversion" type="string">(build Oct 31 2019 15:01:46) complex            parallel </i>
  <i name="platform" type="string">LinuxIFC </i>
  <i name="date" type="string">2024 04 30 </i>
  <i name="time" type="string">03:26:22 </i>
 </generator>
 <incar>
  <i type="int" name="ISTART">     0</i>
  <i type="string" name="PREC">a</i>
  <i type="logical" name="ADDGRID"> T  </i>
  <i type="int" name="IBRION">    -1</i>
  <i name="EDIFF">      0.00000100</i>
  <i name="EDIFFG">     -0.01000000</i>
  <i type="int" name="NSW">     1</i>
  <i type="int" name="ISIF">     2</i>
  <i type="int" name="ISYM">     0</i>
  <i name="ENCUT">    600.00000000</i>
  <i name="POTIM">      1.00000000</i>
  <i type="string" name="LREAL">  Auto</i>
  <i type="int" name="ISMEAR">     0</i>
  <i name="SIGMA">      0.05000000</i>
  <i name="KSPACING">      0.30000000</i>
  <i type="logical" name="KGAMMA"> T  </i>
  <i type="logical" name="LWAVE"> F  </i>
  <i type="logical" name="LCHARG"> F  </i>
  <i type="logical" name="LSCALAPACK"> F  </i>
  <v type="int" name="KPOINT_BSE">    -1     0     0     0</v>
 </incar>
 <structure name="primitive_cell" >
  <crystal>
   <varray name="basis" >
    <v>      11.62817333       0.00000000       0.00000000 </v>
    <v>       0.00000000      11.62817333       0.00000000 </v>
    <v>       0.00000000       0.00000000      11.62817333 </v>
   </varray>
   <i name="volume">   1572.29665425 </i>
   <varray name="rec_basis" >
    <v>       0.08599803       0.00000000       0.00000000 </v>
    <v>       0.00000000       0.08599803       0.00000000 </v>
    <v>       0.00000000       0.00000000       0.08599803 </v>
   </varray>
  </crystal>
  <varray name="positions" >
   <v>      -0.25285460       0.22408621       0.40829687 </v>
   <v>      -0.29359438       0.11158942      -0.47317671 </v>
   <v>      -0.11326281       0.19909429       0.30449217 </v>
   <v>      -0.31871668       0.23745205       0.24444123 </v>
   <v>      -0.20603848       0.03127349       0.33553640 </v>
   <v>      -0.31337160       0.07739962       0.26623595 </v>
   <v>      -0.21787512       0.40953176       0.30773224 </v>
   <v>      -0.08309473       0.12728091      -0.48146385 </v>
   <v>      -0.12448022       0.29661110      -0.41785369 </v>
   <v>      -0.38998612       0.04319663       0.37734545 </v>
   <v>      -0.31443966       0.36354369       0.22732706 </v>
   <v>      -0.42274795       0.11665304      -0.45023290 </v>
   <v>      -0.47186131       0.25722197      -0.47680868 </v>
   <v>      -0.23321292       0.13362401      -0.33694112 </v>
   <v>      -0.01774873       0.30510408       0.29063414 </v>
   <v>       0.00133834       0.23233397      -0.47640773 </v>
   <v>      -0.32297885       0.23036448      -0.30863788 </v>
   <v>      -0.49354625       0.29499787       0.25161182 </v>
   <v>      -0.03647059       0.42548075       0.32648426 </v>
   <v>      -0.27350254       0.46637848      -0.40211684 </v>
   <v>      -0.15163783       0.16779003       0.12212194 </v>
   <v>      -0.31286556       0.07054066       0.13047958 </v>
   <v>      -0.20252310       0.34044669      -0.28953727 </v>
   <v>      -0.21507866      -0.46634226      -0.48519544 </v>
   <v>      -0.25483484      -0.00685700      -0.35196677 </v>
   <v>       0.06951449       0.33297741       0.45198498 </v>
   <v>      -0.07614854      -0.48109201       0.46415642 </v>
   <v>       0.46897134       0.05195234       0.26118462 </v>
   <v>      -0.31686643       0.48545269       0.17073362 </v>
   <v>      -0.02618111       0.32320901       0.14774963 </v>
   <v>      -0.13737916      -0.43920468       0.35004245 </v>
   <v>      -0.32039764      -0.11908048      -0.49266691 </v>
   <v>      -0.14714911       0.19049700      -0.23902965 </v>
   <v>       0.01718444       0.00905519       0.27562516 </v>
   <v>       0.40708137       0.34283038       0.31440258 </v>
   <v>      -0.47650914       0.00153731      -0.38289536 </v>
   <v>      -0.29435659      -0.39733820       0.43416931 </v>
   <v>      -0.13750238      -0.13698209       0.45830235 </v>
   <v>       0.42756643       0.44147720       0.40845269 </v>
   <v>      -0.43873017      -0.42383913       0.36140202 </v>
   <v>       0.13224796       0.24088917       0.28113081 </v>
   <v>       0.33561065       0.24664176       0.37322965 </v>
   <v>      -0.27377237       0.25195562      -0.00438757 </v>
   <v>      -0.35095466      -0.16555042       0.29600011 </v>
   <v>       0.09342613       0.46105077       0.42609451 </v>
   <v>       0.11041821       0.11518889       0.21029285 </v>
   <v>       0.14020746       0.21710694      -0.42004729 </v>
   <v>      -0.12430678       0.43607954      -0.24078017 </v>
   <v>       0.35104364       0.28954019      -0.43433783 </v>
   <v>      -0.29113408       0.35748964      -0.18040958 </v>
   <v>       0.46818700       0.43314165      -0.31840108 </v>
   <v>       0.49362816       0.30066240       0.04464064 </v>
   <v>      -0.01888150       0.00424711      -0.26557346 </v>
   <v>      -0.20270079      -0.16966902       0.17304982 </v>
   <v>      -0.24449735       0.45624526       0.00559711 </v>
   <v>      -0.15169436      -0.35026724       0.24839808 </v>
   <v>      -0.11088583      -0.18573664      -0.41177167 </v>
   <v>       0.47435289       0.04572993       0.07018519 </v>
   <v>       0.05511861       0.31760018      -0.24585316 </v>
   <v>       0.21015106       0.12370882       0.40857830 </v>
   <v>      -0.43823567      -0.39200990      -0.37807221 </v>
   <v>       0.34744573       0.22426264       0.14738972 </v>
   <v>       0.42857014      -0.11275639       0.29200428 </v>
   <v>      -0.35164816       0.24631386      -0.12421820 </v>
   <v>       0.35411170      -0.04852385       0.48194901 </v>
   <v>      -0.15173494      -0.32277160      -0.43501670 </v>
   <v>      -0.37531383      -0.02018136      -0.00005428 </v>
   <v>      -0.24600324      -0.10558919      -0.21807687 </v>
   <v>      -0.35362446      -0.46575012      -0.21102882 </v>
   <v>       0.11198257       0.14452430       0.06910399 </v>
   <v>      -0.39246605      -0.02315710      -0.17390094 </v>
   <v>       0.38901410      -0.44488949      -0.44826161 </v>
   <v>      -0.38863795      -0.35336198       0.14863254 </v>
   <v>      -0.43316816       0.13747504      -0.06558775 </v>
   <v>      -0.48225732      -0.23371702       0.46734786 </v>
   <v>      -0.09356267       0.13474010      -0.07437561 </v>
   <v>      -0.12354036      -0.14381864      -0.25168003 </v>
   <v>       0.16142772       0.35510878       0.12677501 </v>
   <v>       0.02698223      -0.16658223      -0.39633368 </v>
   <v>      -0.31244231      -0.42738669       0.02794622 </v>
   <v>       0.13330727      -0.42934344       0.34821292 </v>
   <v>      -0.46970806       0.32951592      -0.12108574 </v>
   <v>      -0.45382482      -0.19677875      -0.34047947 </v>
   <v>       0.30269588       0.44942412       0.22441084 </v>
   <v>      -0.06606477       0.37995483      -0.06474581 </v>
   <v>       0.34814472       0.28688570      -0.24174541 </v>
   <v>       0.43982469       0.07558517      -0.17834138 </v>
   <v>       0.40652138      -0.19133995       0.40474229 </v>
   <v>       0.33713909      -0.06639228      -0.38660874 </v>
   <v>       0.41679113       0.39576170      -0.19075299 </v>
   <v>      -0.07534378      -0.40059393      -0.23409112 </v>
   <v>       0.22517100       0.44351734      -0.43102045 </v>
   <v>      -0.19948665      -0.33315983       0.08484096 </v>
   <v>       0.08910933      -0.37518983      -0.43013844 </v>
   <v>       0.28466394       0.07213437      -0.32662932 </v>
   <v>      -0.46014828      -0.23168728       0.16768008 </v>
   <v>      -0.16996758      -0.08306110      -0.05312667 </v>
   <v>       0.10263504       0.49731586      -0.25347582 </v>
   <v>       0.31269175       0.09278850       0.07461398 </v>
   <v>       0.09127113      -0.22259713       0.41659786 </v>
   <v>       0.06602119      -0.34886203       0.19980405 </v>
   <v>       0.16379945      -0.45943864      -0.35919158 </v>
   <v>       0.23947237       0.02751029       0.18919010 </v>
   <v>       0.00435270      -0.44499151       0.01290092 </v>
   <v>       0.04501921       0.12109366      -0.07852897 </v>
   <v>       0.41277733      -0.42193360       0.08679700 </v>
   <v>       0.47740447      -0.16874228       0.06342898 </v>
   <v>      -0.28975485      -0.24976606      -0.23411156 </v>
   <v>      -0.12439559      -0.36835561      -0.00659420 </v>
   <v>       0.44218037      -0.29312524       0.23721872 </v>
   <v>      -0.42077209      -0.40215667      -0.02519613 </v>
   <v>       0.29238871      -0.40333520       0.30314007 </v>
   <v>      -0.01048956      -0.22585117       0.09286890 </v>
   <v>      -0.19520105      -0.39371056      -0.12205450 </v>
   <v>       0.10255893      -0.04189392      -0.01319195 </v>
   <v>       0.11347610       0.31461363      -0.07610431 </v>
   <v>       0.20636747      -0.12016770      -0.36771126 </v>
   <v>      -0.01816576      -0.14669030      -0.02647688 </v>
   <v>       0.31917490       0.33813118      -0.03079501 </v>
   <v>       0.34626246       0.15843096      -0.06534001 </v>
   <v>       0.30968944      -0.14103852       0.14377419 </v>
   <v>       0.31942866      -0.23472806      -0.48904419 </v>
   <v>       0.24962238      -0.17908638       0.30908728 </v>
   <v>       0.22043741      -0.41505718       0.13089809 </v>
   <v>       0.18320919       0.11342597      -0.10524274 </v>
   <v>       0.32686941      -0.49164368      -0.14711245 </v>
   <v>       0.37752041      -0.09196986      -0.10740869 </v>
   <v>       0.45054415      -0.26281737      -0.19809969 </v>
   <v>       0.23567349       0.27310460      -0.10203860 </v>
   <v>       0.15004172      -0.21702954      -0.23608703 </v>
   <v>       0.26545381      -0.36684938      -0.28332738 </v>
   <v>       0.14450369      -0.41624514      -0.05023635 </v>
   <v>       0.34690170      -0.34910726      -0.16755287 </v>
   <v>      -0.02613705      -0.26603083      -0.10275307 </v>
   <v>       0.26474944      -0.21881541      -0.08116182 </v>
  </varray>
 </structure>
 <varray name="primitive_index" >
  <v type="int" >        1 </v>
  <v type="int" >       91 </v>
  <v type="int" >      115 </v>
  <v type="int" >      121 </v>
  <v type="int" >       83 </v>
  <v type="int" >       54 </v>
  <v type="int" >      123 </v>
  <v type="int" >       70 </v>
  <v type="int" >       64 </v>
  <v type="int" >      103 </v>
  <v type="int" >       37 </v>
  <v type="int" >       44 </v>
  <v type="int" >       66 </v>
  <v type="int" >       47 </v>
  <v type="int" >       41 </v>
  <v type="int" >       49 </v>
  <v type="int" >      130 </v>
  <v type="int" >      132 </v>
  <v type="int" >       67 </v>
  <v type="int" >       90 </v>
  <v type="int" >        6 </v>
  <v type="int" >       85 </v>
  <v type="int" >       42 </v>
  <v type="int" >       51 </v>
  <v type="int" >      120 </v>
  <v type="int" >      109 </v>
  <v type="int" >      126 </v>
  <v type="int" >       23 </v>
  <v type="int" >      107 </v>
  <v type="int" >      113 </v>
  <v type="int" >       28 </v>
  <v type="int" >       27 </v>
  <v type="int" >       75 </v>
  <v type="int" >      127 </v>
  <v type="int" >       40 </v>
  <v type="int" >      116 </v>
  <v type="int" >       60 </v>
  <v type="int" >       63 </v>
  <v type="int" >      125 </v>
  <v type="int" >       10 </v>
  <v type="int" >       68 </v>
  <v type="int" >      129 </v>
  <v type="int" >       89 </v>
  <v type="int" >       94 </v>
  <v type="int" >       46 </v>
  <v type="int" >       32 </v>
  <v type="int" >       76 </v>
  <v type="int" >      124 </v>
  <v type="int" >       15 </v>
  <v type="int" >      101 </v>
  <v type="int" >       96 </v>
  <v type="int" >        8 </v>
  <v type="int" >       12 </v>
  <v type="int" >        5 </v>
  <v type="int" >       84 </v>
  <v type="int" >       86 </v>
  <v type="int" >       34 </v>
  <v type="int" >      104 </v>
  <v type="int" >       14 </v>
  <v type="int" >       11 </v>
  <v type="int" >       82 </v>
  <v type="int" >       59 </v>
  <v type="int" >      134 </v>
  <v type="int" >       39 </v>
  <v type="int" >       81 </v>
  <v type="int" >      105 </v>
  <v type="int" >       13 </v>
  <v type="int" >       50 </v>
  <v type="int" >        7 </v>
  <v type="int" >      100 </v>
  <v type="int" >      133 </v>
  <v type="int" >        9 </v>
  <v type="int" >       74 </v>
  <v type="int" >      106 </v>
  <v type="int" >       97 </v>
  <v type="int" >      102 </v>
  <v type="int" >       61 </v>
  <v type="int" >       16 </v>
  <v type="int" >       73 </v>
  <v type="int" >       29 </v>
  <v type="int" >      108 </v>
  <v type="int" >       69 </v>
  <v type="int" >       20 </v>
  <v type="int" >       88 </v>
  <v type="int" >       18 </v>
  <v type="int" >      110 </v>
  <v type="int" >        2 </v>
  <v type="int" >       35 </v>
  <v type="int" >       36 </v>
  <v type="int" >       48 </v>
  <v type="int" >       25 </v>
  <v type="int" >       72 </v>
  <v type="int" >      114 </v>
  <v type="int" >       99 </v>
  <v type="int" >      135 </v>
  <v type="int" >       38 </v>
  <v type="int" >       62 </v>
  <v type="int" >       56 </v>
  <v type="int" >       53 </v>
  <v type="int" >        4 </v>
  <v type="int" >        3 </v>
  <v type="int" >       30 </v>
  <v type="int" >      117 </v>
  <v type="int" >       93 </v>
  <v type="int" >       52 </v>
  <v type="int" >       21 </v>
  <v type="int" >      119 </v>
  <v type="int" >       79 </v>
  <v type="int" >       43 </v>
  <v type="int" >       58 </v>
  <v type="int" >       55 </v>
  <v type="int" >       24 </v>
  <v type="int" >       92 </v>
  <v type="int" >      111 </v>
  <v type="int" >       57 </v>
  <v type="int" >      131 </v>
  <v type="int" >       65 </v>
  <v type="int" >       33 </v>
  <v type="int" >      118 </v>
  <v type="int" >       98 </v>
  <v type="int" >       17 </v>
  <v type="int" >       80 </v>
  <v type="int" >       87 </v>
  <v type="int" >       78 </v>
  <v type="int" >      112 </v>
  <v type="int" >       71 </v>
  <v type="int" >       22 </v>
  <v type="int" >       95 </v>
  <v type="int" >       31 </v>
  <v type="int" >       19 </v>
  <v type="int" >       77 </v>
  <v type="int" >       26 </v>
  <v type="int" >       45 </v>
  <v type="int" >      122 </v>
  <v type="int" >      128 </v>
 </varray>
 <kpoints>
  <generation param="Gamma">
   <v type="int" name="divisions">       2        2        2 </v>
   <v name="usershift">      0.00000000       0.00000000       0.00000000 </v>
   <v name="genvec1">      0.50000000       0.00000000       0.00000000 </v>
   <v name="genvec2">      0.00000000       0.50000000       0.00000000 </v>
   <v name="genvec3">      0.00000000       0.00000000       0.50000000 </v>
   <v name="shift">      0.00000000       0.00000000       0.00000000 </v>
  </generation>
  <varray name="kpointlist" >
   <v>       0.00000000       0.00000000       0.00000000 </v>
   <v>       0.50000000       0.00000000       0.00000000 </v>
   <v>       0.00000000       0.50000000       0.00000000 </v>
   <v>       0.50000000       0.50000000       0.00000000 </v>
   <v>       0.00000000       0.00000000       0.50000000 </v>
   <v>       0.50000000       0.00000000       0.50000000 </v>
   <v>       0.00000000       0.50000000       0.50000000 </v>
   <v>       0.50000000       0.50000000       0.50000000 </v>
  </varray>
  <varray name="weights" >
   <v>       0.12500000 </v>
   <v>       0.12500000 </v>
   <v>       0.12500000 </v>
   <v>       0.12500000 </v>
   <v>       0.12500000 </v>
   <v>       0.12500000 </v>
   <v>       0.12500000 </v>
   <v>       0.12500000 </v>
  </varray>
 </kpoints>
 <parameters>
  <separator name="general" >
   <i type="string" name="SYSTEM">unknown system</i>
   <i type="logical" name="LCOMPAT"> F  </i>
  </separator>
  <separator name="electronic" >
   <i type="string" name="PREC">a</i>
   <i name="ENMAX">    600.00000000</i>
   <i name="ENAUG">    605.39200000</i>
   <i name="EDIFF">      0.00000100</i>
   <i type="int" name="IALGO">    38</i>
   <i type="int" name="IWAVPR">    10</i>
   <i type="int" name="NBANDS">   520</i>
   <i name="NELECT">    864.00000000</i>
   <i type="int" name="TURBO">     0</i>
   <i type="int" name="IRESTART">     0</i>
   <i type="int" name="NREBOOT">     0</i>
   <i type="int" name="NMIN">     0</i>
   <i name="EREF">      0.00000000</i>
   <separator name="electronic smearing" >
    <i type="int" name="ISMEAR">     0</i>
    <i name="SIGMA">      0.05000000</i>
    <i name="KSPACING">      0.30000000</i>
    <i type="logical" name="KGAMMA"> T  </i>
   </separator>
   <separator name="electronic projectors" >
    <i type="logical" name="LREAL"> T  </i>
    <v name="ROPT">     -0.00025000     -0.00025000     -0.00025000</v>
    <i type="int" name="LMAXPAW">  -100</i>
    <i type="int" name="LMAXMIX">     2</i>
    <i type="logical" name="NLSPLINE"> F  </i>
   </separator>
   <separator name="electronic startup" >
    <i type="int" name="ISTART">     0</i>
    <i type="int" name="ICHARG">     2</i>
    <i type="int" name="INIWAV">     1</i>
   </separator>
   <separator name="electronic spin" >
    <i type="int" name="ISPIN">     1</i>
    <i type="logical" name="LNONCOLLINEAR"> F  </i>
    <v name="MAGMOM">      1.00000000      1.00000000      1.00000000      1.00000000      1.00000000      1.00000000      1.00000000      1.00000000      1.00000000      1.00000000      1.00000000      1.00000000      1.00000000      1.00000000      1.00000000      1.00000000      1.00000000      1.00000000      1.00000000      1.00000000
      1.00000000      1.00000000      1.00000000      1.00000000      1.00000000      1.00000000      1.00000000      1.00000000      1.00000000      1.00000000      1.00000000      1.00000000      1.00000000      1.00000000      1.00000000      1.00000000      1.00000000      1.00000000      1.00000000      1.00000000
      1.00000000      1.00000000      1.00000000      1.00000000      1.00000000      1.00000000      1.00000000      1.00000000      1.00000000      1.00000000      1.00000000      1.00000000      1.00000000      1.00000000      1.00000000      1.00000000      1.00000000      1.00000000      1.00000000      1.00000000
      1.00000000      1.00000000      1.00000000      1.00000000      1.00000000      1.00000000      1.00000000      1.00000000      1.00000000      1.00000000      1.00000000      1.00000000      1.00000000      1.00000000      1.00000000      1.00000000      1.00000000      1.00000000      1.00000000      1.00000000
      1.00000000      1.00000000      1.00000000      1.00000000      1.00000000      1.00000000      1.00000000      1.00000000      1.00000000      1.00000000      1.00000000      1.00000000      1.00000000      1.00000000      1.00000000      1.00000000      1.00000000      1.00000000      1.00000000      1.00000000
      1.00000000      1.00000000      1.00000000      1.00000000      1.00000000      1.00000000      1.00000000      1.00000000      1.00000000      1.00000000      1.00000000      1.00000000      1.00000000      1.00000000      1.00000000      1.00000000      1.00000000      1.00000000      1.00000000      1.00000000
      1.00000000      1.00000000      1.00000000      1.00000000      1.00000000      1.00000000      1.00000000      1.00000000      1.00000000      1.00000000      1.00000000      1.00000000      1.00000000      1.00000000      1.00000000</v>
    <i name="NUPDOWN">     -1.00000000</i>
    <i type="logical" name="LSORBIT"> F  </i>
    <v name="SAXIS">      0.00000000      0.00000000      1.00000000</v>
    <i type="logical" name="LSPIRAL"> F  </i>
    <v name="QSPIRAL">      0.00000000      0.00000000      0.00000000</v>
    <i type="logical" name="LZEROZ"> F  </i>
   </separator>
   <separator name="electronic exchange-correlation" >
    <i type="logical" name="LASPH"> F  </i>
    <i type="logical" name="LMETAGGA"> F  </i>
   </separator>
   <separator name="electronic convergence" >
    <i type="int" name="NELM">    60</i>
    <i type="int" name="NELMDL">    -5</i>
    <i type="int" name="NELMIN">     2</i>
    <i name="ENINI">    600.00000000</i>
    <separator name="electronic convergence detail" >
     <i type="logical" name="LDIAG"> T  </i>
     <i type="logical" name="LSUBROT"> F  </i>
     <i name="WEIMIN">      0.00000000</i>
     <i name="EBREAK">      0.00000000</i>
     <i name="DEPER">      0.30000000</i>
     <i type="int" name="NRMM">     4</i>
     <i name="TIME">      0.40000000</i>
    </separator>
   </separator>
   <separator name="electronic mixer" >
    <i name="AMIX">      0.40000000</i>
    <i name="BMIX">      1.00000000</i>
    <i name="AMIN">      0.10000000</i>
    <i name="AMIX_MAG">      1.60000000</i>
    <i name="BMIX_MAG">      1.00000000</i>
    <separator name="electronic mixer details" >
     <i type="int" name="IMIX">     4</i>
     <i type="logical" name="MIXFIRST"> F  </i>
     <i type="int" name="MAXMIX">   -45</i>
     <i name="WC">    100.00000000</i>
     <i type="int" name="INIMIX">     1</i>
     <i type="int" name="MIXPRE">     1</i>
     <i type="int" name="MREMOVE">     5</i>
    </separator>
   </separator>
   <separator name="electronic dipolcorrection" >
    <i type="logical" name="LDIPOL"> F  </i>
    <i type="logical" name="LMONO"> F  </i>
    <i type="int" name="IDIPOL">     0</i>
    <i name="EPSILON">      1.00000000</i>
    <v name="DIPOL">   -100.00000000   -100.00000000   -100.00000000</v>
    <i name="EFIELD">      0.00000000</i>
   </separator>
  </separator>
  <separator name="grids" >
   <i type="int" name="NGX">    96</i>
   <i type="int" name="NGY">    96</i>
   <i type="int" name="NGZ">    96</i>
   <i type="int" name="NGXF">   192</i>
   <i type="int" name="NGYF">   192</i>
   <i type="int" name="NGZF">   192</i>
   <i type="logical" name="ADDGRID"> T  </i>
  </separator>
  <separator name="ionic" >
   <i type="int" name="NSW">     1</i>
   <i type="int" name="IBRION">    -1</i>
   <i type="int" name="MDALGO">     0</i>
   <i type="int" name="ISIF">     2</i>
   <i name="PSTRESS">      0.00000000</i>
   <i name="EDIFFG">     -0.01000000</i>
   <i type="int" name="NFREE">     0</i>
   <i name="POTIM">      1.00000000</i>
   <i name="SMASS">     -3.00000000</i>
   <i name="SCALEE">      1.00000000</i>
  </separator>
  <separator name="ionic md" >
   <i name="TEBEG">      0.00010000</i>
   <i name="TEEND">      0.00010000</i>
   <i type="int" name="NBLOCK">     1</i>
   <i type="int" name="KBLOCK">     1</i>
   <i type="int" name="NPACO">   256</i>
   <i name="APACO">     16.00000000</i>
  </separator>
  <separator name="symmetry" >
   <i type="int" name="ISYM">     0</i>
   <i name="SYMPREC">      0.00001000</i>
  </separator>
  <separator name="dos" >
   <i type="int" name="LORBIT">     0</i>
   <v name="RWIGS">     -1.00000000     -1.00000000     -1.00000000</v>
   <i type="int" name="NEDOS">   301</i>
   <i name="EMIN">     10.00000000</i>
   <i name="EMAX">    -10.00000000</i>
   <i name="EFERMI">      0.00000000</i>
  </separator>
  <separator name="writing" >
   <i type="int" name="NWRITE">     2</i>
   <i type="logical" name="LWAVE"> F  </i>
   <i type="logical" name="LDOWNSAMPLE"> F  </i>
   <i type="logical" name="LCHARG"> F  </i>
   <i type="logical" name="LPARD"> F  </i>
   <i type="logical" name="LVTOT"> F  </i>
   <i type="logical" name="LVHAR"> F  </i>
   <i type="logical" name="LELF"> F  </i>
   <i type="logical" name="LOPTICS"> F  </i>
   <v name="STM">      0.00000000      0.00000000      0.00000000      0.00000000      0.00000000      0.00000000      0.00000000</v>
  </separator>
  <separator name="performance" >
   <i type="int" name="NPAR">     4</i>
   <i type="int" name="NSIM">     4</i>
   <i type="int" name="NBLK">    -1</i>
   <i type="logical" name="LPLANE"> T  </i>
   <i type="logical" name="LSCALAPACK"> F  </i>
   <i type="logical" name="LSCAAWARE"> F  </i>
   <i type="logical" name="LSCALU"> F  </i>
   <i type="logical" name="LASYNC"> F  </i>
   <i type="logical" name="LORBITALREAL"> F  </i>
  </separator>
  <separator name="miscellaneous" >
   <i type="int" name="IDIOT">     3</i>
   <i type="int" name="ISPECIAL">     0</i>
   <i type="logical" name="LMUSIC"> F  </i>
   <v name="POMASS">     40.07800000     28.08500000     16.00000000</v>
   <v name="DARWINR">      0.00000000      0.00000000      0.00000000</v>
   <v name="DARWINV">      1.00000000      1.00000000      1.00000000</v>
   <i type="logical" name="LCORR"> T  </i>
  </separator>
  <i type="logical" name="GGA_COMPAT"> T  </i>
  <i type="logical" name="LBERRY"> F  </i>
  <i type="int" name="ICORELEVEL">     0</i>
  <i type="logical" name="LDAU"> F  </i>
  <i type="int" name="I_CONSTRAINED_M">     0</i>
  <separator name="electronic exchange-correlation" >
   <i type="string" name="GGA">--</i>
   <i type="int" name="VOSKOWN">     0</i>
   <i type="logical" name="LHFCALC"> F  </i>
   <i type="string" name="PRECFOCK"></i>
   <i type="logical" name="LSYMGRAD"> F  </i>
   <i type="logical" name="LHFONE"> F  </i>
   <i type="logical" name="LRHFCALC"> F  </i>
   <i type="logical" name="LTHOMAS"> F  </i>
   <i type="logical" name="LMODELHF"> F  </i>
   <i name="ENCUT4O">     -1.00000000</i>
   <i type="int" name="EXXOEP">     0</i>
   <i type="int" name="FOURORBIT">     0</i>
   <i name="AEXX">      0.00000000</i>
   <i name="HFALPHA">      0.00000000</i>
   <i name="MCALPHA">      0.00000000</i>
   <i name="ALDAX">      1.00000000</i>
   <i name="AGGAX">      1.00000000</i>
   <i name="ALDAC">      1.00000000</i>
   <i name="AGGAC">      1.00000000</i>
   <i type="int" name="NKREDX">     1</i>
   <i type="int" name="NKREDY">     1</i>
   <i type="int" name="NKREDZ">     1</i>
   <i type="logical" name="SHIFTRED"> F  </i>
   <i type="logical" name="ODDONLY"> F  </i>
   <i type="logical" name="EVENONLY"> F  </i>
   <i type="int" name="LMAXFOCK">     0</i>
   <i type="int" name="NMAXFOCKAE">     0</i>
   <i type="logical" name="LFOCKAEDFT"> F  </i>
   <i name="HFSCREEN">      0.00000000</i>
   <i name="HFSCREENC">      0.00000000</i>
   <i type="int" name="NBANDSGWLOW">     0</i>
  </separator>
  <separator name="vdW DFT" >
   <i type="logical" name="LUSE_VDW"> F  </i>
   <i name="Zab_VDW">     -0.84910000</i>
   <i name="PARAM1">      0.12340000</i>
   <i name="PARAM2">      1.00000000</i>
   <i name="PARAM3">      0.00000000</i>
  </separator>
  <separator name="model GW" >
   <i type="int" name="MODEL_GW">     0</i>
   <i name="MODEL_EPS0">      6.98798513</i>
   <i name="MODEL_ALPHA">      1.00000000</i>
  </separator>
  <separator name="linear response parameters" >
   <i type="logical" name="LEPSILON"> F  </i>
   <i type="logical" name="LRPA"> F  </i>
   <i type="logical" name="LNABLA"> F  </i>
   <i type="logical" name="LVEL"> F  </i>
   <i type="int" name="KINTER">     0</i>
   <i name="CSHIFT">      0.10000000</i>
   <i name="OMEGAMAX">     -1.00000000</i>
   <i name="DEG_THRESHOLD">      0.00200000</i>
   <i name="RTIME">     -0.10000000</i>
   <i name="WPLASMAI">      0.00000000</i>
   <v name="DFIELD">      0.00000000      0.00000000      0.00000000</v>
   <v name="WPLASMA">      0.00000000      0.00000000      0.00000000      0.00000000      0.00000000      0.00000000      0.00000000      0.00000000      0.00000000</v>
  </separator>
  <separator name="orbital magnetization" >
   <i type="logical" name="NUCIND"> F  </i>
   <v name="MAGPOS">      0.00000000      0.00000000      0.00000000</v>
   <i type="logical" name="LNICSALL"> T  </i>
   <i type="logical" name="ORBITALMAG"> F  </i>
   <i type="logical" name="LMAGBLOCH"> F  </i>
   <i type="logical" name="LCHIMAG"> F  </i>
   <i type="logical" name="LGAUGE"> T  </i>
   <i type="int" name="MAGATOM">     0</i>
   <v name="MAGDIPOL">      0.00000000      0.00000000      0.00000000</v>
   <v name="AVECCONST">      0.00000000      0.00000000      0.00000000</v>
  </separator>
  <separator name="response functions" >
   <i type="logical" name="LADDER"> F  </i>
   <i type="logical" name="LRPAFORCE"> F  </i>
   <i type="logical" name="LFXC"> F  </i>
   <i type="logical" name="LHARTREE"> T  </i>
   <i type="int" name="IBSE">     0</i>
   <v type="int" name="KPOINT">    -1     0     0     0</v>
   <i type="logical" name="LTCTE"> F  </i>
   <i type="logical" name="LTETE"> F  </i>
   <i type="logical" name="LTRIPLET"> F  </i>
   <i type="logical" name="LFXCEPS"> F  </i>
   <i type="logical" name="LFXHEG"> F  </i>
   <i type="int" name="NATURALO">     2</i>
   <i type="logical" name="L2ORDER"> F  </i>
   <i type="logical" name="LMP2LT"> F  </i>
   <i type="logical" name="LUSEW"> F  </i>
   <i name="ENCUTGW">     -2.00000000</i>
   <i name="ENCUTGWSOFT">     -2.00000000</i>
   <i name="ENCUTLF">     -1.00000000</i>
   <i type="int" name="LMAXMP2">    -1</i>
   <i name="SCISSOR">      0.00000000</i>
   <i type="int" name="NOMEGA">     0</i>
   <i type="int" name="NOMEGAR">     0</i>
   <i type="int" name="NBANDSGW">    -1</i>
   <i type="int" name="NBANDSO">    -1</i>
   <i type="int" name="NBANDSV">    -1</i>
   <i type="int" name="NELM">     1</i>
   <i type="int" name="NELMHF">     1</i>
   <i type="int" name="DIM">     3</i>
   <i type="int" name="ANTIRES">     0</i>
   <i name="OMEGAMAX">    -30.00000000</i>
   <i name="OMEGAMIN">    -30.00000000</i>
   <i name="OMEGATL">   -200.00000000</i>
   <i type="int" name="OMEGAGRID">   140</i>
   <i name="CSHIFT">     -0.10000000</i>
   <i type="logical" name="SELFENERGY"> F  </i>
   <i type="logical" name="LSPECTRAL"> F  </i>
   <i type="logical" name="LSPECTRALGW"> F  </i>
   <i type="logical" name="LSINGLES"> F  </i>
   <i type="logical" name="LFERMIGW"> F  </i>
   <i type="logical" name="ODDONLYGW"> F  </i>
   <i type="logical" name="EVENONLYGW"> F  </i>
   <i type="int" name="NKREDLFX">     1</i>
   <i type="int" name="NKREDLFY">     1</i>
   <i type="int" name="NKREDLFZ">     1</i>
   <i type="int" name="MAXMEM">  2800</i>
   <i type="int" name="TELESCOPE">     0</i>
   <i type="int" name="TAUPAR">     1</i>
   <i type="int" name="OMEGAPAR">    -1</i>
   <i name="LAMBDA">      1.00000000</i>
  </separator>
  <separator name="External order field" >
   <i name="OFIELD_KAPPA">      0.00000000</i>
   <v name="OFIELD_K">      0.00000000      0.00000000      0.00000000</v>
   <i name="OFIELD_Q6_NEAR">      0.00000000</i>
   <i name="OFIELD_Q6_FAR">      0.00000000</i>
   <i name="OFIELD_A">      0.00000000</i>
  </separator>
 </parameters>
 <atominfo>
  <atoms>     135 </atoms>
  <types>       3 </types>
  <array name="atoms" >
   <dimension dim="1">ion</dimension>
   <field type="string">element</field>
   <field type="int">atomtype</field>
   <set>
    <rc><c>Ca</c><c>   1</c></rc>
    <rc><c>Ca</c><c>   1</c></rc>
    <rc><c>Ca</c><c>   1</c></rc>
    <rc><c>Ca</c><c>   1</c></rc>
    <rc><c>Ca</c><c>   1</c></rc>
    <rc><c>Ca</c><c>   1</c></rc>
    <rc><c>Ca</c><c>   1</c></rc>
    <rc><c>Ca</c><c>   1</c></rc>
    <rc><c>Ca</c><c>   1</c></rc>
    <rc><c>Ca</c><c>   1</c></rc>
    <rc><c>Ca</c><c>   1</c></rc>
    <rc><c>Ca</c><c>   1</c></rc>
    <rc><c>Ca</c><c>   1</c></rc>
    <rc><c>Ca</c><c>   1</c></rc>
    <rc><c>Ca</c><c>   1</c></rc>
    <rc><c>Ca</c><c>   1</c></rc>
    <rc><c>Ca</c><c>   1</c></rc>
    <rc><c>Ca</c><c>   1</c></rc>
    <rc><c>Ca</c><c>   1</c></rc>
    <rc><c>Ca</c><c>   1</c></rc>
    <rc><c>Ca</c><c>   1</c></rc>
    <rc><c>Ca</c><c>   1</c></rc>
    <rc><c>Ca</c><c>   1</c></rc>
    <rc><c>Ca</c><c>   1</c></rc>
    <rc><c>Ca</c><c>   1</c></rc>
    <rc><c>Ca</c><c>   1</c></rc>
    <rc><c>Ca</c><c>   1</c></rc>
    <rc><c>Si</c><c>   2</c></rc>
    <rc><c>Si</c><c>   2</c></rc>
    <rc><c>Si</c><c>   2</c></rc>
    <rc><c>Si</c><c>   2</c></rc>
    <rc><c>Si</c><c>   2</c></rc>
    <rc><c>Si</c><c>   2</c></rc>
    <rc><c>Si</c><c>   2</c></rc>
    <rc><c>Si</c><c>   2</c></rc>
    <rc><c>Si</c><c>   2</c></rc>
    <rc><c>Si</c><c>   2</c></rc>
    <rc><c>Si</c><c>   2</c></rc>
    <rc><c>Si</c><c>   2</c></rc>
    <rc><c>Si</c><c>   2</c></rc>
    <rc><c>Si</c><c>   2</c></rc>
    <rc><c>Si</c><c>   2</c></rc>
    <rc><c>Si</c><c>   2</c></rc>
    <rc><c>Si</c><c>   2</c></rc>
    <rc><c>Si</c><c>   2</c></rc>
    <rc><c>Si</c><c>   2</c></rc>
    <rc><c>Si</c><c>   2</c></rc>
    <rc><c>Si</c><c>   2</c></rc>
    <rc><c>Si</c><c>   2</c></rc>
    <rc><c>Si</c><c>   2</c></rc>
    <rc><c>Si</c><c>   2</c></rc>
    <rc><c>Si</c><c>   2</c></rc>
    <rc><c>Si</c><c>   2</c></rc>
    <rc><c>Si</c><c>   2</c></rc>
    <rc><c>O </c><c>   3</c></rc>
    <rc><c>O </c><c>   3</c></rc>
    <rc><c>O </c><c>   3</c></rc>
    <rc><c>O </c><c>   3</c></rc>
    <rc><c>O </c><c>   3</c></rc>
    <rc><c>O </c><c>   3</c></rc>
    <rc><c>O </c><c>   3</c></rc>
    <rc><c>O </c><c>   3</c></rc>
    <rc><c>O </c><c>   3</c></rc>
    <rc><c>O </c><c>   3</c></rc>
    <rc><c>O </c><c>   3</c></rc>
    <rc><c>O </c><c>   3</c></rc>
    <rc><c>O </c><c>   3</c></rc>
    <rc><c>O </c><c>   3</c></rc>
    <rc><c>O </c><c>   3</c></rc>
    <rc><c>O </c><c>   3</c></rc>
    <rc><c>O </c><c>   3</c></rc>
    <rc><c>O </c><c>   3</c></rc>
    <rc><c>O </c><c>   3</c></rc>
    <rc><c>O </c><c>   3</c></rc>
    <rc><c>O </c><c>   3</c></rc>
    <rc><c>O </c><c>   3</c></rc>
    <rc><c>O </c><c>   3</c></rc>
    <rc><c>O </c><c>   3</c></rc>
    <rc><c>O </c><c>   3</c></rc>
    <rc><c>O </c><c>   3</c></rc>
    <rc><c>O </c><c>   3</c></rc>
    <rc><c>O </c><c>   3</c></rc>
    <rc><c>O </c><c>   3</c></rc>
    <rc><c>O </c><c>   3</c></rc>
    <rc><c>O </c><c>   3</c></rc>
    <rc><c>O </c><c>   3</c></rc>
    <rc><c>O </c><c>   3</c></rc>
    <rc><c>O </c><c>   3</c></rc>
    <rc><c>O </c><c>   3</c></rc>
    <rc><c>O </c><c>   3</c></rc>
    <rc><c>O </c><c>   3</c></rc>
    <rc><c>O </c><c>   3</c></rc>
    <rc><c>O </c><c>   3</c></rc>
    <rc><c>O </c><c>   3</c></rc>
    <rc><c>O </c><c>   3</c></rc>
    <rc><c>O </c><c>   3</c></rc>
    <rc><c>O </c><c>   3</c></rc>
    <rc><c>O </c><c>   3</c></rc>
    <rc><c>O </c><c>   3</c></rc>
    <rc><c>O </c><c>   3</c></rc>
    <rc><c>O </c><c>   3</c></rc>
    <rc><c>O </c><c>   3</c></rc>
    <rc><c>O </c><c>   3</c></rc>
    <rc><c>O </c><c>   3</c></rc>
    <rc><c>O </c><c>   3</c></rc>
    <rc><c>O </c><c>   3</c></rc>
    <rc><c>O </c><c>   3</c></rc>
    <rc><c>O </c><c>   3</c></rc>
    <rc><c>O </c><c>   3</c></rc>
    <rc><c>O </c><c>   3</c></rc>
    <rc><c>O </c><c>   3</c></rc>
    <rc><c>O </c><c>   3</c></rc>
    <rc><c>O </c><c>   3</c></rc>
    <rc><c>O </c><c>   3</c></rc>
    <rc><c>O </c><c>   3</c></rc>
    <rc><c>O </c><c>   3</c></rc>
    <rc><c>O </c><c>   3</c></rc>
    <rc><c>O </c><c>   3</c></rc>
    <rc><c>O </c><c>   3</c></rc>
    <rc><c>O </c><c>   3</c></rc>
    <rc><c>O </c><c>   3</c></rc>
    <rc><c>O </c><c>   3</c></rc>
    <rc><c>O </c><c>   3</c></rc>
    <rc><c>O </c><c>   3</c></rc>
    <rc><c>O </c><c>   3</c></rc>
    <rc><c>O </c><c>   3</c></rc>
    <rc><c>O </c><c>   3</c></rc>
    <rc><c>O </c><c>   3</c></rc>
    <rc><c>O </c><c>   3</c></rc>
    <rc><c>O </c><c>   3</c></rc>
    <rc><c>O </c><c>   3</c></rc>
    <rc><c>O </c><c>   3</c></rc>
    <rc><c>O </c><c>   3</c></rc>
    <rc><c>O </c><c>   3</c></rc>
    <rc><c>O </c><c>   3</c></rc>
   </set>
  </array>
  <array name="atomtypes" >
   <dimension dim="1">type</dimension>
   <field type="int">atomspertype</field>
   <field type="string">element</field>
   <field>mass</field>
   <field>valence</field>
   <field type="string">pseudopotential</field>
   <set>
    <rc><c>  27</c><c>Ca</c><c>     40.07800000</c><c>     10.00000000</c><c>  PAW_PBE Ca_sv 06Sep2000               </c></rc>
    <rc><c>  27</c><c>Si</c><c>     28.08500000</c><c>      4.00000000</c><c>  PAW_PBE Si 05Jan2001                  </c></rc>
    <rc><c>  81</c><c>O </c><c>     16.00000000</c><c>      6.00000000</c><c>  PAW_PBE O 08Apr2002                   </c></rc>
   </set>
  </array>
 </atominfo>
 <structure name="initialpos" >
  <crystal>
   <varray name="basis" >
    <v>      11.62817333       0.00000000       0.00000000 </v>
    <v>       0.00000000      11.62817333       0.00000000 </v>
    <v>       0.00000000       0.00000000      11.62817333 </v>
   </varray>
   <i name="volume">   1572.29665425 </i>
   <varray name="rec_basis" >
    <v>       0.08599803       0.00000000       0.00000000 </v>
    <v>       0.00000000       0.08599803       0.00000000 </v>
    <v>       0.00000000       0.00000000       0.08599803 </v>
   </varray>
  </crystal>
  <varray name="positions" >
   <v>       0.74714540       0.22408621       0.40829687 </v>
   <v>       0.43982469       0.07558517       0.82165862 </v>
   <v>       0.06602119       0.65113797       0.19980405 </v>
   <v>       0.09127113       0.77740287       0.41659786 </v>
   <v>       0.79729921       0.83033098       0.17304982 </v>
   <v>       0.84836217       0.16779003       0.12212194 </v>
   <v>       0.64637554       0.53424988       0.78897118 </v>
   <v>       0.49362816       0.30066240       0.04464064 </v>
   <v>       0.38901410       0.55511051       0.55173839 </v>
   <v>       0.56126983       0.57616087       0.36140202 </v>
   <v>       0.21015106       0.12370882       0.40857830 </v>
   <v>       0.98111850       0.00424711       0.73442654 </v>
   <v>       0.62468617       0.97981864       0.99994572 </v>
   <v>       0.05511861       0.31760018       0.75414684 </v>
   <v>       0.35104364       0.28954019       0.56566217 </v>
   <v>       0.16142772       0.35510878       0.12677501 </v>
   <v>       0.30968944       0.85896148       0.14377419 </v>
   <v>       0.93393523       0.37995483       0.93525419 </v>
   <v>       0.15004172       0.78297046       0.76391297 </v>
   <v>       0.54617518       0.80322125       0.65952053 </v>
   <v>       0.41277733       0.57806640       0.08679700 </v>
   <v>       0.37752041       0.90803014       0.89259131 </v>
   <v>       0.46897134       0.05195234       0.26118462 </v>
   <v>       0.29238871       0.59666480       0.30314007 </v>
   <v>       0.92465622       0.59940607       0.76590888 </v>
   <v>       0.14450369       0.58375486       0.94976365 </v>
   <v>       0.67960236       0.88091952       0.50733309 </v>
   <v>       0.86262084       0.56079532       0.35004245 </v>
   <v>       0.68755769       0.57261331       0.02794622 </v>
   <v>       0.16379945       0.54056136       0.64080842 </v>
   <v>       0.23567349       0.27310460       0.89796140 </v>
   <v>       0.11041821       0.11518889       0.21029285 </v>
   <v>       0.98183424       0.85330970       0.97352312 </v>
   <v>       0.88911417       0.81426336       0.58822833 </v>
   <v>       0.40652138       0.80866005       0.40474229 </v>
   <v>       0.33713909       0.93360772       0.61339126 </v>
   <v>       0.68556034       0.36354369       0.22732706 </v>
   <v>       0.53985172       0.76831272       0.16768008 </v>
   <v>       0.64835184       0.24631386       0.87578180 </v>
   <v>       0.40708137       0.34283038       0.31440258 </v>
   <v>       0.98225127       0.30510408       0.29063414 </v>
   <v>       0.79747690       0.34044669       0.71046273 </v>
   <v>       0.87560441       0.63164439       0.99340580 </v>
   <v>       0.57725205       0.11665304       0.54976710 </v>
   <v>       0.34690170       0.65089274       0.83244713 </v>
   <v>       0.09342613       0.46105077       0.42609451 </v>
   <v>       0.76678708       0.13362401       0.66305888 </v>
   <v>       0.41679113       0.39576170       0.80924701 </v>
   <v>       0.00133834       0.23233397       0.52359227 </v>
   <v>       0.75399676       0.89441081       0.78192313 </v>
   <v>       0.78492134       0.53365774       0.51480456 </v>
   <v>       0.04501921       0.12109366       0.92147103 </v>
   <v>       0.31269175       0.09278850       0.07461398 </v>
   <v>       0.68662840       0.07739962       0.26623595 </v>
   <v>       0.57922791       0.59784333       0.97480387 </v>
   <v>       0.10263504       0.49731586       0.74652418 </v>
   <v>       0.10255893       0.95810608       0.98680805 </v>
   <v>       0.44218037       0.70687476       0.23721872 </v>
   <v>       0.34744573       0.22426264       0.14738972 </v>
   <v>       0.70564341       0.60266180       0.43416931 </v>
   <v>       0.87645964       0.85618136       0.74831997 </v>
   <v>       0.83003242       0.91693890       0.94687333 </v>
   <v>       0.86249762       0.86301791       0.45830235 </v>
   <v>       0.87551978       0.29661110       0.58214631 </v>
   <v>       0.20636747       0.87983230       0.63228874 </v>
   <v>       0.52813869       0.25722197       0.52319132 </v>
   <v>       0.96352941       0.42548075       0.32648426 </v>
   <v>       0.13224796       0.24088917       0.28113081 </v>
   <v>       0.53029194       0.32951592       0.87891426 </v>
   <v>       0.91690527       0.12728091       0.51853615 </v>
   <v>       0.32686941       0.50835632       0.85288755 </v>
   <v>       0.22517100       0.44351734       0.56897955 </v>
   <v>       0.02698223       0.83341777       0.60366632 </v>
   <v>       0.61136205       0.64663802       0.14863254 </v>
   <v>       0.85285089       0.19049700       0.76097035 </v>
   <v>       0.14020746       0.21710694       0.57995271 </v>
   <v>       0.26545381       0.63315062       0.71667262 </v>
   <v>       0.22043741       0.58494282       0.13089809 </v>
   <v>       0.71024515       0.75023394       0.76588844 </v>
   <v>       0.31942866       0.76527194       0.51095581 </v>
   <v>       0.35411170       0.95147615       0.48194901 </v>
   <v>       0.56176433       0.60799010       0.62192779 </v>
   <v>       0.79396152       0.03127349       0.33553640 </v>
   <v>       0.75550265       0.45624526       0.00559711 </v>
   <v>       0.68713444       0.07054066       0.13047958 </v>
   <v>       0.84830564       0.64973276       0.24839808 </v>
   <v>       0.24962238       0.82091362       0.30908728 </v>
   <v>       0.30269588       0.44942412       0.22441084 </v>
   <v>       0.72622763       0.25195562       0.99561243 </v>
   <v>       0.72649746       0.46637848       0.59788316 </v>
   <v>       0.70640562       0.11158942       0.52682329 </v>
   <v>       0.98951044       0.77414883       0.09286890 </v>
   <v>       0.00435270       0.55500849       0.01290092 </v>
   <v>       0.64904534       0.83444958       0.29600011 </v>
   <v>       0.45054415       0.73718263       0.80190031 </v>
   <v>       0.46818700       0.43314165       0.68159892 </v>
   <v>       0.51774268       0.76628298       0.46734786 </v>
   <v>       0.34626246       0.15843096       0.93465999 </v>
   <v>       0.08910933       0.62481017       0.56986156 </v>
   <v>       0.11198257       0.14452430       0.06910399 </v>
   <v>       0.70886592       0.35748964       0.81959042 </v>
   <v>       0.90643733       0.13474010       0.92562439 </v>
   <v>       0.61001388       0.04319663       0.37734545 </v>
   <v>       0.47435289       0.04572993       0.07018519 </v>
   <v>       0.84826506       0.67722840       0.56498330 </v>
   <v>       0.56683184       0.13747504       0.93441225 </v>
   <v>       0.68313357       0.48545269       0.17073362 </v>
   <v>       0.13330727       0.57065656       0.34821292 </v>
   <v>       0.06951449       0.33297741       0.45198498 </v>
   <v>       0.34814472       0.28688570       0.75825459 </v>
   <v>       0.80479895       0.60628944       0.87794550 </v>
   <v>       0.18320919       0.11342597       0.89475726 </v>
   <v>       0.97381889       0.32320901       0.14774963 </v>
   <v>       0.80051335       0.66684017       0.08484096 </v>
   <v>       0.88673719       0.19909429       0.30449217 </v>
   <v>       0.52349086       0.00153731       0.61710464 </v>
   <v>       0.23947237       0.02751029       0.18919010 </v>
   <v>       0.31917490       0.33813118       0.96920499 </v>
   <v>       0.47740447       0.83125772       0.06342898 </v>
   <v>       0.74516516       0.99314300       0.64803323 </v>
   <v>       0.68128332       0.23745205       0.24444123 </v>
   <v>       0.97386295       0.73396917       0.89724693 </v>
   <v>       0.78212488       0.40953176       0.30773224 </v>
   <v>       0.87569322       0.43607954       0.75921983 </v>
   <v>       0.42756643       0.44147720       0.40845269 </v>
   <v>       0.92385146       0.51890799       0.46415642 </v>
   <v>       0.01718444       0.00905519       0.27562516 </v>
   <v>       0.26474944       0.78118459       0.91883818 </v>
   <v>       0.33561065       0.24664176       0.37322965 </v>
   <v>       0.67702115       0.23036448       0.69136212 </v>
   <v>       0.11347610       0.31461363       0.92389569 </v>
   <v>       0.50645375       0.29499787       0.25161182 </v>
   <v>       0.60753395       0.97684290       0.82609906 </v>
   <v>       0.42857014       0.88724361       0.29200428 </v>
   <v>       0.28466394       0.07213437       0.67337068 </v>
  </varray>
  <varray name="velocities" >
   <v>       0.00000000       0.00000000       0.00000000 </v>
   <v>       0.00000000       0.00000000       0.00000000 </v>
   <v>       0.00000000       0.00000000       0.00000000 </v>
   <v>       0.00000000       0.00000000       0.00000000 </v>
   <v>       0.00000000       0.00000000       0.00000000 </v>
   <v>       0.00000000       0.00000000       0.00000000 </v>
   <v>       0.00000000       0.00000000       0.00000000 </v>
   <v>       0.00000000       0.00000000       0.00000000 </v>
   <v>       0.00000000       0.00000000       0.00000000 </v>
   <v>       0.00000000       0.00000000       0.00000000 </v>
   <v>       0.00000000       0.00000000       0.00000000 </v>
   <v>       0.00000000       0.00000000       0.00000000 </v>
   <v>       0.00000000       0.00000000       0.00000000 </v>
   <v>       0.00000000       0.00000000       0.00000000 </v>
   <v>       0.00000000       0.00000000       0.00000000 </v>
   <v>       0.00000000       0.00000000       0.00000000 </v>
   <v>       0.00000000       0.00000000       0.00000000 </v>
   <v>       0.00000000       0.00000000       0.00000000 </v>
   <v>       0.00000000       0.00000000       0.00000000 </v>
   <v>       0.00000000       0.00000000       0.00000000 </v>
   <v>       0.00000000       0.00000000       0.00000000 </v>
   <v>       0.00000000       0.00000000       0.00000000 </v>
   <v>       0.00000000       0.00000000       0.00000000 </v>
   <v>       0.00000000       0.00000000       0.00000000 </v>
   <v>       0.00000000       0.00000000       0.00000000 </v>
   <v>       0.00000000       0.00000000       0.00000000 </v>
   <v>       0.00000000       0.00000000       0.00000000 </v>
   <v>       0.00000000       0.00000000       0.00000000 </v>
   <v>       0.00000000       0.00000000       0.00000000 </v>
   <v>       0.00000000       0.00000000       0.00000000 </v>
   <v>       0.00000000       0.00000000       0.00000000 </v>
   <v>       0.00000000       0.00000000       0.00000000 </v>
   <v>       0.00000000       0.00000000       0.00000000 </v>
   <v>       0.00000000       0.00000000       0.00000000 </v>
   <v>       0.00000000       0.00000000       0.00000000 </v>
   <v>       0.00000000       0.00000000       0.00000000 </v>
   <v>       0.00000000       0.00000000       0.00000000 </v>
   <v>       0.00000000       0.00000000       0.00000000 </v>
   <v>       0.00000000       0.00000000       0.00000000 </v>
   <v>       0.00000000       0.00000000       0.00000000 </v>
   <v>       0.00000000       0.00000000       0.00000000 </v>
   <v>       0.00000000       0.00000000       0.00000000 </v>
   <v>       0.00000000       0.00000000       0.00000000 </v>
   <v>       0.00000000       0.00000000       0.00000000 </v>
   <v>       0.00000000       0.00000000       0.00000000 </v>
   <v>       0.00000000       0.00000000       0.00000000 </v>
   <v>       0.00000000       0.00000000       0.00000000 </v>
   <v>       0.00000000       0.00000000       0.00000000 </v>
   <v>       0.00000000       0.00000000       0.00000000 </v>
   <v>       0.00000000       0.00000000       0.00000000 </v>
   <v>       0.00000000       0.00000000       0.00000000 </v>
   <v>       0.00000000       0.00000000       0.00000000 </v>
   <v>       0.00000000       0.00000000       0.00000000 </v>
   <v>       0.00000000       0.00000000       0.00000000 </v>
   <v>       0.00000000       0.00000000       0.00000000 </v>
   <v>       0.00000000       0.00000000       0.00000000 </v>
   <v>       0.00000000       0.00000000       0.00000000 </v>
   <v>       0.00000000       0.00000000       0.00000000 </v>
   <v>       0.00000000       0.00000000       0.00000000 </v>
   <v>       0.00000000       0.00000000       0.00000000 </v>
   <v>       0.00000000       0.00000000       0.00000000 </v>
   <v>       0.00000000       0.00000000       0.00000000 </v>
   <v>       0.00000000       0.00000000       0.00000000 </v>
   <v>       0.00000000       0.00000000       0.00000000 </v>
   <v>       0.00000000       0.00000000       0.00000000 </v>
   <v>       0.00000000       0.00000000       0.00000000 </v>
   <v>       0.00000000       0.00000000       0.00000000 </v>
   <v>       0.00000000       0.00000000       0.00000000 </v>
   <v>       0.00000000       0.00000000       0.00000000 </v>
   <v>       0.00000000       0.00000000       0.00000000 </v>
   <v>       0.00000000       0.00000000       0.00000000 </v>
   <v>       0.00000000       0.00000000       0.00000000 </v>
   <v>       0.00000000       0.00000000       0.00000000 </v>
   <v>       0.00000000       0.00000000       0.00000000 </v>
   <v>       0.00000000       0.00000000       0.00000000 </v>
   <v>       0.00000000       0.00000000       0.00000000 </v>
   <v>       0.00000000       0.00000000       0.00000000 </v>
   <v>       0.00000000       0.00000000       0.00000000 </v>
   <v>       0.00000000       0.00000000       0.00000000 </v>
   <v>       0.00000000       0.00000000       0.00000000 </v>
   <v>       0.00000000       0.00000000       0.00000000 </v>
   <v>       0.00000000       0.00000000       0.00000000 </v>
   <v>       0.00000000       0.00000000       0.00000000 </v>
   <v>       0.00000000       0.00000000       0.00000000 </v>
   <v>       0.00000000       0.00000000       0.00000000 </v>
   <v>       0.00000000       0.00000000       0.00000000 </v>
   <v>       0.00000000       0.00000000       0.00000000 </v>
   <v>       0.00000000       0.00000000       0.00000000 </v>
   <v>       0.00000000       0.00000000       0.00000000 </v>
   <v>       0.00000000       0.00000000       0.00000000 </v>
   <v>       0.00000000       0.00000000       0.00000000 </v>
   <v>       0.00000000       0.00000000       0.00000000 </v>
   <v>       0.00000000       0.00000000       0.00000000 </v>
   <v>       0.00000000       0.00000000       0.00000000 </v>
   <v>       0.00000000       0.00000000       0.00000000 </v>
   <v>       0.00000000       0.00000000       0.00000000 </v>
   <v>       0.00000000       0.00000000       0.00000000 </v>
   <v>       0.00000000       0.00000000       0.00000000 </v>
   <v>       0.00000000       0.00000000       0.00000000 </v>
   <v>       0.00000000       0.00000000       0.00000000 </v>
   <v>       0.00000000       0.00000000       0.00000000 </v>
   <v>       0.00000000       0.00000000       0.00000000 </v>
   <v>       0.00000000       0.00000000       0.00000000 </v>
   <v>       0.00000000       0.00000000       0.00000000 </v>
   <v>       0.00000000       0.00000000       0.00000000 </v>
   <v>       0.00000000       0.00000000       0.00000000 </v>
   <v>       0.00000000       0.00000000       0.00000000 </v>
   <v>       0.00000000       0.00000000       0.00000000 </v>
   <v>       0.00000000       0.00000000       0.00000000 </v>
   <v>       0.00000000       0.00000000       0.00000000 </v>
   <v>       0.00000000       0.00000000       0.00000000 </v>
   <v>       0.00000000       0.00000000       0.00000000 </v>
   <v>       0.00000000       0.00000000       0.00000000 </v>
   <v>       0.00000000       0.00000000       0.00000000 </v>
   <v>       0.00000000       0.00000000       0.00000000 </v>
   <v>       0.00000000       0.00000000       0.00000000 </v>
   <v>       0.00000000       0.00000000       0.00000000 </v>
   <v>       0.00000000       0.00000000       0.00000000 </v>
   <v>       0.00000000       0.00000000       0.00000000 </v>
   <v>       0.00000000       0.00000000       0.00000000 </v>
   <v>       0.00000000       0.00000000       0.00000000 </v>
   <v>       0.00000000       0.00000000       0.00000000 </v>
   <v>       0.00000000       0.00000000       0.00000000 </v>
   <v>       0.00000000       0.00000000       0.00000000 </v>
   <v>       0.00000000       0.00000000       0.00000000 </v>
   <v>       0.00000000       0.00000000       0.00000000 </v>
   <v>       0.00000000       0.00000000       0.00000000 </v>
   <v>       0.00000000       0.00000000       0.00000000 </v>
   <v>       0.00000000       0.00000000       0.00000000 </v>
   <v>       0.00000000       0.00000000       0.00000000 </v>
   <v>       0.00000000       0.00000000       0.00000000 </v>
   <v>       0.00000000       0.00000000       0.00000000 </v>
   <v>       0.00000000       0.00000000       0.00000000 </v>
   <v>       0.00000000       0.00000000       0.00000000 </v>
   <v>       0.00000000       0.00000000       0.00000000 </v>
  </varray>
 </structure>
 <calculation>
  <scstep>
   <time name="dav">   34.45   34.45</time>
   <time name="total">   34.93   34.94</time>
   <energy>
    <i name="alphaZ">   3039.22321400 </i>
    <i name="ewald"> -47887.70558927 </i>
    <i name="hartreedc"> -16800.63542016 </i>
    <i name="XCdc">   3193.98276378 </i>
    <i name="pawpsdc">  50594.51003143 </i>
    <i name="pawaedc"> -49994.65612350 </i>
    <i name="eentropy">     -0.03113724 </i>
    <i name="bandstr">   2656.33515014 </i>
    <i name="atom">  64968.54023382 </i>
    <i name="e_fr_energy">   9769.56312300 </i>
    <i name="e_wo_entrp">   9769.59426024 </i>
    <i name="e_0_energy">   9769.57869162 </i>
   </energy>
  </scstep>
  <scstep>
   <time name="dav">   38.58   38.58</time>
   <time name="total">   38.58   38.58</time>
   <energy>
    <i name="e_fr_energy">    163.01605260 </i>
    <i name="e_wo_entrp">    163.02174959 </i>
    <i name="e_0_energy">    163.01890109 </i>
   </energy>
  </scstep>
  <scstep>
   <time name="dav">   40.72   40.73</time>
   <time name="total">   40.72   40.74</time>
   <energy>
    <i name="e_fr_energy">   -945.05804335 </i>
    <i name="e_wo_entrp">   -945.05804335 </i>
    <i name="e_0_energy">   -945.05804335 </i>
   </energy>
  </scstep>
  <scstep>
   <time name="dav">   43.68   43.68</time>
   <time name="total">   43.68   43.68</time>
   <energy>
    <i name="e_fr_energy">   -998.98194923 </i>
    <i name="e_wo_entrp">   -998.98194923 </i>
    <i name="e_0_energy">   -998.98194923 </i>
   </energy>
  </scstep>
  <scstep>
   <time name="dav">   53.34   53.36</time>
   <time name="total">   54.69   54.71</time>
   <energy>
    <i name="e_fr_energy">  -1004.52122992 </i>
    <i name="e_wo_entrp">  -1004.52122992 </i>
    <i name="e_0_energy">  -1004.52122992 </i>
   </energy>
  </scstep>
  <scstep>
   <time name="dav">   38.75   38.75</time>
   <time name="total">   40.52   40.53</time>
   <energy>
    <i name="e_fr_energy">   -853.03571627 </i>
    <i name="e_wo_entrp">   -853.00507228 </i>
    <i name="e_0_energy">   -853.02039427 </i>
   </energy>
  </scstep>
  <scstep>
   <time name="dav">   40.14   40.14</time>
   <time name="total">   41.98   42.00</time>
   <energy>
    <i name="e_fr_energy">   -858.58065223 </i>
    <i name="e_wo_entrp">   -858.54570909 </i>
    <i name="e_0_energy">   -858.56318066 </i>
   </energy>
  </scstep>
  <scstep>
   <time name="dav">   45.46   45.46</time>
   <time name="total">   47.22   47.23</time>
   <energy>
    <i name="e_fr_energy">   -851.67938006 </i>
    <i name="e_wo_entrp">   -851.65848739 </i>
    <i name="e_0_energy">   -851.66893372 </i>
   </energy>
  </scstep>
  <scstep>
   <time name="dav">   40.94   40.94</time>
   <time name="total">   42.79   42.81</time>
   <energy>
    <i name="e_fr_energy">   -855.05840055 </i>
    <i name="e_wo_entrp">   -855.02370810 </i>
    <i name="e_0_energy">   -855.04105432 </i>
   </energy>
  </scstep>
  <scstep>
   <time name="dav">   41.55   41.55</time>
   <time name="total">   43.38   43.38</time>
   <energy>
    <i name="e_fr_energy">   -853.21055160 </i>
    <i name="e_wo_entrp">   -853.19874156 </i>
    <i name="e_0_energy">   -853.20464658 </i>
   </energy>
  </scstep>
  <scstep>
   <time name="dav">   41.59   41.59</time>
   <time name="total">   43.45   43.46</time>
   <energy>
    <i name="e_fr_energy">   -851.43411079 </i>
    <i name="e_wo_entrp">   -851.41492103 </i>
    <i name="e_0_energy">   -851.42451591 </i>
   </energy>
  </scstep>
  <scstep>
   <time name="dav">   40.49   40.49</time>
   <time name="total">   42.32   42.32</time>
   <energy>
    <i name="e_fr_energy">   -851.59627131 </i>
    <i name="e_wo_entrp">   -851.59399820 </i>
    <i name="e_0_energy">   -851.59513476 </i>
   </energy>
  </scstep>
  <scstep>
   <time name="dav">   38.67   38.67</time>
   <time name="total">   40.50   40.51</time>
   <energy>
    <i name="e_fr_energy">   -850.98313151 </i>
    <i name="e_wo_entrp">   -850.95891775 </i>
    <i name="e_0_energy">   -850.97102463 </i>
   </energy>
  </scstep>
  <scstep>
   <time name="dav">   42.50   42.50</time>
   <time name="total">   44.30   44.30</time>
   <energy>
    <i name="e_fr_energy">   -850.79515102 </i>
    <i name="e_wo_entrp">   -850.75969973 </i>
    <i name="e_0_energy">   -850.77742537 </i>
   </energy>
  </scstep>
  <scstep>
   <time name="dav">   40.28   40.28</time>
   <time name="total">   42.12   42.14</time>
   <energy>
    <i name="e_fr_energy">   -850.78210825 </i>
    <i name="e_wo_entrp">   -850.74065912 </i>
    <i name="e_0_energy">   -850.76138368 </i>
   </energy>
  </scstep>
  <scstep>
   <time name="dav">   41.57   41.57</time>
   <time name="total">   43.42   43.42</time>
   <energy>
    <i name="e_fr_energy">   -850.85648873 </i>
    <i name="e_wo_entrp">   -850.81568619 </i>
    <i name="e_0_energy">   -850.83608746 </i>
   </energy>
  </scstep>
  <scstep>
   <time name="dav">   41.43   41.43</time>
   <time name="total">   43.25   43.26</time>
   <energy>
    <i name="e_fr_energy">   -850.87956878 </i>
    <i name="e_wo_entrp">   -850.84808204 </i>
    <i name="e_0_energy">   -850.86382541 </i>
   </energy>
  </scstep>
  <scstep>
   <time name="dav">   41.90   41.90</time>
   <time name="total">   43.70   43.71</time>
   <energy>
    <i name="e_fr_energy">   -850.87966476 </i>
    <i name="e_wo_entrp">   -850.85899249 </i>
    <i name="e_0_energy">   -850.86932863 </i>
   </energy>
  </scstep>
  <scstep>
   <time name="dav">   40.90   40.91</time>
   <time name="total">   42.71   42.73</time>
   <energy>
    <i name="e_fr_energy">   -850.81183708 </i>
    <i name="e_wo_entrp">   -850.78709607 </i>
    <i name="e_0_energy">   -850.79946658 </i>
   </energy>
  </scstep>
  <scstep>
   <time name="dav">   41.09   41.09</time>
   <time name="total">   42.88   42.88</time>
   <energy>
    <i name="e_fr_energy">   -850.76768336 </i>
    <i name="e_wo_entrp">   -850.74305710 </i>
    <i name="e_0_energy">   -850.75537023 </i>
   </energy>
  </scstep>
  <scstep>
   <time name="dav">   40.74   40.74</time>
   <time name="total">   42.58   42.59</time>
   <energy>
    <i name="e_fr_energy">   -850.74680826 </i>
    <i name="e_wo_entrp">   -850.72046445 </i>
    <i name="e_0_energy">   -850.73363636 </i>
   </energy>
  </scstep>
  <scstep>
   <time name="dav">   41.09   41.09</time>
   <time name="total">   42.88   42.88</time>
   <energy>
    <i name="e_fr_energy">   -850.73819614 </i>
    <i name="e_wo_entrp">   -850.70806369 </i>
    <i name="e_0_energy">   -850.72312992 </i>
   </energy>
  </scstep>
  <scstep>
   <time name="dav">   43.15   43.15</time>
   <time name="total">   44.99   45.01</time>
   <energy>
    <i name="e_fr_energy">   -850.73582708 </i>
    <i name="e_wo_entrp">   -850.70150528 </i>
    <i name="e_0_energy">   -850.71866618 </i>
   </energy>
  </scstep>
  <scstep>
   <time name="dav">   38.87   38.87</time>
   <time name="total">   40.63   40.64</time>
   <energy>
    <i name="e_fr_energy">   -850.73526704 </i>
    <i name="e_wo_entrp">   -850.69916492 </i>
    <i name="e_0_energy">   -850.71721598 </i>
   </energy>
  </scstep>
  <scstep>
   <time name="dav">   40.52   40.53</time>
   <time name="total">   42.35   42.38</time>
   <energy>
    <i name="e_fr_energy">   -850.73247313 </i>
    <i name="e_wo_entrp">   -850.69511641 </i>
    <i name="e_0_energy">   -850.71379477 </i>
   </energy>
  </scstep>
  <scstep>
   <time name="dav">   38.78   38.79</time>
   <time name="total">   40.59   40.60</time>
   <energy>
    <i name="e_fr_energy">   -850.73233528 </i>
    <i name="e_wo_entrp">   -850.69556724 </i>
    <i name="e_0_energy">   -850.71395126 </i>
   </energy>
  </scstep>
  <scstep>
   <time name="dav">   39.21   39.21</time>
   <time name="total">   41.08   41.09</time>
   <energy>
    <i name="e_fr_energy">   -850.73218989 </i>
    <i name="e_wo_entrp">   -850.69510314 </i>
    <i name="e_0_energy">   -850.71364652 </i>
   </energy>
  </scstep>
  <scstep>
   <time name="dav">   38.55   38.55</time>
   <time name="total">   40.35   40.35</time>
   <energy>
    <i name="e_fr_energy">   -850.73211928 </i>
    <i name="e_wo_entrp">   -850.69464063 </i>
    <i name="e_0_energy">   -850.71337996 </i>
   </energy>
  </scstep>
  <scstep>
   <time name="dav">   40.74   40.74</time>
   <time name="total">   42.53   42.55</time>
   <energy>
    <i name="e_fr_energy">   -850.73212185 </i>
    <i name="e_wo_entrp">   -850.69438744 </i>
    <i name="e_0_energy">   -850.71325464 </i>
   </energy>
  </scstep>
  <scstep>
   <time name="dav">   38.16   38.17</time>
   <time name="total">   40.00   40.01</time>
   <energy>
    <i name="e_fr_energy">   -850.73212244 </i>
    <i name="e_wo_entrp">   -850.69448027 </i>
    <i name="e_0_energy">   -850.71330136 </i>
   </energy>
  </scstep>
  <scstep>
   <time name="dav">   27.37   27.38</time>
   <time name="total">   29.21   29.22</time>
   <energy>
    <i name="e_fr_energy">   -850.73212055 </i>
    <i name="e_wo_entrp">   -850.69450447 </i>
    <i name="e_0_energy">   -850.71331251 </i>
   </energy>
  </scstep>
  <scstep>
   <time name="dav">   25.53   25.53</time>
   <time name="total">   25.97   25.98</time>
   <energy>
    <i name="alphaZ">   3039.22321400 </i>
    <i name="ewald"> -47887.70558927 </i>
    <i name="hartreedc"> -18267.07419266 </i>
    <i name="XCdc">   3288.09611319 </i>
    <i name="pawpsdc">  94232.73434220 </i>
    <i name="pawaedc"> -93881.32175655 </i>
    <i name="eentropy">     -0.03759655 </i>
    <i name="bandstr">  -6343.18688944 </i>
    <i name="atom">  64968.54023382 </i>
    <i name="e_fr_energy">   -850.73212127 </i>
    <i name="e_wo_entrp">   -850.69452472 </i>
    <i name="e_0_energy">   -850.71332299 </i>
   </energy>
  </scstep>
  <structure>
   <crystal>
    <varray name="basis" >
     <v>      11.62817333       0.00000000       0.00000000 </v>
     <v>       0.00000000      11.62817333       0.00000000 </v>
     <v>       0.00000000       0.00000000      11.62817333 </v>
    </varray>
    <i name="volume">   1572.29665425 </i>
    <varray name="rec_basis" >
     <v>       0.08599803       0.00000000       0.00000000 </v>
     <v>       0.00000000       0.08599803       0.00000000 </v>
     <v>       0.00000000       0.00000000       0.08599803 </v>
    </varray>
   </crystal>
   <varray name="positions" >
    <v>       0.74714540       0.22408621       0.40829687 </v>
    <v>       0.43982469       0.07558517       0.82165862 </v>
    <v>       0.06602119       0.65113797       0.19980405 </v>
    <v>       0.09127113       0.77740287       0.41659786 </v>
    <v>       0.79729921       0.83033098       0.17304982 </v>
    <v>       0.84836217       0.16779003       0.12212194 </v>
    <v>       0.64637554       0.53424988       0.78897118 </v>
    <v>       0.49362816       0.30066240       0.04464064 </v>
    <v>       0.38901410       0.55511051       0.55173839 </v>
    <v>       0.56126983       0.57616087       0.36140202 </v>
    <v>       0.21015106       0.12370882       0.40857830 </v>
    <v>       0.98111850       0.00424711       0.73442654 </v>
    <v>       0.62468617       0.97981864       0.99994572 </v>
    <v>       0.05511861       0.31760018       0.75414684 </v>
    <v>       0.35104364       0.28954019       0.56566217 </v>
    <v>       0.16142772       0.35510878       0.12677501 </v>
    <v>       0.30968944       0.85896148       0.14377419 </v>
    <v>       0.93393523       0.37995483       0.93525419 </v>
    <v>       0.15004172       0.78297046       0.76391297 </v>
    <v>       0.54617518       0.80322125       0.65952053 </v>
    <v>       0.41277733       0.57806640       0.08679700 </v>
    <v>       0.37752041       0.90803014       0.89259131 </v>
    <v>       0.46897134       0.05195234       0.26118462 </v>
    <v>       0.29238871       0.59666480       0.30314007 </v>
    <v>       0.92465622       0.59940607       0.76590888 </v>
    <v>       0.14450369       0.58375486       0.94976365 </v>
    <v>       0.67960236       0.88091952       0.50733309 </v>
    <v>       0.86262084       0.56079532       0.35004245 </v>
    <v>       0.68755769       0.57261331       0.02794622 </v>
    <v>       0.16379945       0.54056136       0.64080842 </v>
    <v>       0.23567349       0.27310460       0.89796140 </v>
    <v>       0.11041821       0.11518889       0.21029285 </v>
    <v>       0.98183424       0.85330970       0.97352312 </v>
    <v>       0.88911417       0.81426336       0.58822833 </v>
    <v>       0.40652138       0.80866005       0.40474229 </v>
    <v>       0.33713909       0.93360772       0.61339126 </v>
    <v>       0.68556034       0.36354369       0.22732706 </v>
    <v>       0.53985172       0.76831272       0.16768008 </v>
    <v>       0.64835184       0.24631386       0.87578180 </v>
    <v>       0.40708137       0.34283038       0.31440258 </v>
    <v>       0.98225127       0.30510408       0.29063414 </v>
    <v>       0.79747690       0.34044669       0.71046273 </v>
    <v>       0.87560441       0.63164439       0.99340580 </v>
    <v>       0.57725205       0.11665304       0.54976710 </v>
    <v>       0.34690170       0.65089274       0.83244713 </v>
    <v>       0.09342613       0.46105077       0.42609451 </v>
    <v>       0.76678708       0.13362401       0.66305888 </v>
    <v>       0.41679113       0.39576170       0.80924701 </v>
    <v>       0.00133834       0.23233397       0.52359227 </v>
    <v>       0.75399676       0.89441081       0.78192313 </v>
    <v>       0.78492134       0.53365774       0.51480456 </v>
    <v>       0.04501921       0.12109366       0.92147103 </v>
    <v>       0.31269175       0.09278850       0.07461398 </v>
    <v>       0.68662840       0.07739962       0.26623595 </v>
    <v>       0.57922791       0.59784333       0.97480387 </v>
    <v>       0.10263504       0.49731586       0.74652418 </v>
    <v>       0.10255893       0.95810608       0.98680805 </v>
    <v>       0.44218037       0.70687476       0.23721872 </v>
    <v>       0.34744573       0.22426264       0.14738972 </v>
    <v>       0.70564341       0.60266180       0.43416931 </v>
    <v>       0.87645964       0.85618136       0.74831997 </v>
    <v>       0.83003242       0.91693890       0.94687333 </v>
    <v>       0.86249762       0.86301791       0.45830235 </v>
    <v>       0.87551978       0.29661110       0.58214631 </v>
    <v>       0.20636747       0.87983230       0.63228874 </v>
    <v>       0.52813869       0.25722197       0.52319132 </v>
    <v>       0.96352941       0.42548075       0.32648426 </v>
    <v>       0.13224796       0.24088917       0.28113081 </v>
    <v>       0.53029194       0.32951592       0.87891426 </v>
    <v>       0.91690527       0.12728091       0.51853615 </v>
    <v>       0.32686941       0.50835632       0.85288755 </v>
    <v>       0.22517100       0.44351734       0.56897955 </v>
    <v>       0.02698223       0.83341777       0.60366632 </v>
    <v>       0.61136205       0.64663802       0.14863254 </v>
    <v>       0.85285089       0.19049700       0.76097035 </v>
    <v>       0.14020746       0.21710694       0.57995271 </v>
    <v>       0.26545381       0.63315062       0.71667262 </v>
    <v>       0.22043741       0.58494282       0.13089809 </v>
    <v>       0.71024515       0.75023394       0.76588844 </v>
    <v>       0.31942866       0.76527194       0.51095581 </v>
    <v>       0.35411170       0.95147615       0.48194901 </v>
    <v>       0.56176433       0.60799010       0.62192779 </v>
    <v>       0.79396152       0.03127349       0.33553640 </v>
    <v>       0.75550265       0.45624526       0.00559711 </v>
    <v>       0.68713444       0.07054066       0.13047958 </v>
    <v>       0.84830564       0.64973276       0.24839808 </v>
    <v>       0.24962238       0.82091362       0.30908728 </v>
    <v>       0.30269588       0.44942412       0.22441084 </v>
    <v>       0.72622763       0.25195562       0.99561243 </v>
    <v>       0.72649746       0.46637848       0.59788316 </v>
    <v>       0.70640562       0.11158942       0.52682329 </v>
    <v>       0.98951044       0.77414883       0.09286890 </v>
    <v>       0.00435270       0.55500849       0.01290092 </v>
    <v>       0.64904534       0.83444958       0.29600011 </v>
    <v>       0.45054415       0.73718263       0.80190031 </v>
    <v>       0.46818700       0.43314165       0.68159892 </v>
    <v>       0.51774268       0.76628298       0.46734786 </v>
    <v>       0.34626246       0.15843096       0.93465999 </v>
    <v>       0.08910933       0.62481017       0.56986156 </v>
    <v>       0.11198257       0.14452430       0.06910399 </v>
    <v>       0.70886592       0.35748964       0.81959042 </v>
    <v>       0.90643733       0.13474010       0.92562439 </v>
    <v>       0.61001388       0.04319663       0.37734545 </v>
    <v>       0.47435289       0.04572993       0.07018519 </v>
    <v>       0.84826506       0.67722840       0.56498330 </v>
    <v>       0.56683184       0.13747504       0.93441225 </v>
    <v>       0.68313357       0.48545269       0.17073362 </v>
    <v>       0.13330727       0.57065656       0.34821292 </v>
    <v>       0.06951449       0.33297741       0.45198498 </v>
    <v>       0.34814472       0.28688570       0.75825459 </v>
    <v>       0.80479895       0.60628944       0.87794550 </v>
    <v>       0.18320919       0.11342597       0.89475726 </v>
    <v>       0.97381889       0.32320901       0.14774963 </v>
    <v>       0.80051335       0.66684017       0.08484096 </v>
    <v>       0.88673719       0.19909429       0.30449217 </v>
    <v>       0.52349086       0.00153731       0.61710464 </v>
    <v>       0.23947237       0.02751029       0.18919010 </v>
    <v>       0.31917490       0.33813118       0.96920499 </v>
    <v>       0.47740447       0.83125772       0.06342898 </v>
    <v>       0.74516516       0.99314300       0.64803323 </v>
    <v>       0.68128332       0.23745205       0.24444123 </v>
    <v>       0.97386295       0.73396917       0.89724693 </v>
    <v>       0.78212488       0.40953176       0.30773224 </v>
    <v>       0.87569322       0.43607954       0.75921983 </v>
    <v>       0.42756643       0.44147720       0.40845269 </v>
    <v>       0.92385146       0.51890799       0.46415642 </v>
    <v>       0.01718444       0.00905519       0.27562516 </v>
    <v>       0.26474944       0.78118459       0.91883818 </v>
    <v>       0.33561065       0.24664176       0.37322965 </v>
    <v>       0.67702115       0.23036448       0.69136212 </v>
    <v>       0.11347610       0.31461363       0.92389569 </v>
    <v>       0.50645375       0.29499787       0.25161182 </v>
    <v>       0.60753395       0.97684290       0.82609906 </v>
    <v>       0.42857014       0.88724361       0.29200428 </v>
    <v>       0.28466394       0.07213437       0.67337068 </v>
   </varray>
  </structure>
  <varray name="forces" >
   <v>       1.98479117       3.15479848       2.78850911 </v>
   <v>       2.69578301       3.80872745      -5.62110607 </v>
   <v>      -1.26141986       0.21481792      -1.82829371 </v>
   <v>       0.82073377       1.76682993       2.34067036 </v>
   <v>       0.36485305       1.14468744       2.38887431 </v>
   <v>       0.65247439       0.00483761      -1.60375134 </v>
   <v>      -1.34163671       1.58036600      -1.65501953 </v>
   <v>      -0.70003050      -2.41770719       3.69256487 </v>
   <v>       2.19218515       2.05206313       1.83180421 </v>
   <v>      -1.99466959       0.92560264      -2.40945415 </v>
   <v>       1.05938731      -2.46615380       2.74385255 </v>
   <v>       1.27315891       0.73291797      -2.67090938 </v>
   <v>       0.85598064      -2.52641497      -0.07176496 </v>
   <v>      -0.34808513      -0.85019658      -4.80894701 </v>
   <v>       0.10729060      -0.58152980       0.57430321 </v>
   <v>       2.51687215       0.51513336      -0.28456539 </v>
   <v>      -1.63961681      -1.44357340       0.89641973 </v>
   <v>      -4.40938469      -0.10651797       3.85296130 </v>
   <v>      -1.55130941       0.44211393      -1.49907441 </v>
   <v>      -0.67189974      -2.77089281       1.60975654 </v>
   <v>       0.33983895      -0.48677402      -0.19874558 </v>
   <v>       0.43551987      -3.29083855       1.46343009 </v>
   <v>      -2.49399926       1.93397377       0.19761935 </v>
   <v>       3.48717053       3.14364135       1.03225217 </v>
   <v>       2.38435150       3.27792668      -5.31071420 </v>
   <v>       5.52850078       1.36519589      -1.68676130 </v>
   <v>       0.33463748       0.62271807      -5.34091741 </v>
   <v>      -2.77744046      -1.88421622      -7.28462879 </v>
   <v>       5.12987429      -2.01984215       9.00171875 </v>
   <v>       2.42752109       3.53073354       0.05249744 </v>
   <v>       5.52752846      -9.02654745      -3.62688833 </v>
   <v>      -2.80009368      -5.73125591      -1.74295048 </v>
   <v>      -0.21586290       1.85638561       2.43008144 </v>
   <v>       2.26639649      -2.16137850      -1.75337883 </v>
   <v>      -4.65864761       4.01672725       0.03331823 </v>
   <v>      -4.90076129       3.69438699       1.05317354 </v>
   <v>      -1.85786819       5.31821690      -1.89268797 </v>
   <v>       4.38606701       1.35397295       3.84937098 </v>
   <v>       0.17992944      -1.35074317       3.22149886 </v>
   <v>      -6.74078253       3.85814959      -0.04797538 </v>
   <v>      -1.34213393      -7.97610330      -5.68138357 </v>
   <v>      -2.43845906      -2.21329960      -3.39144263 </v>
   <v>       9.48380521      -2.07513191      -6.81299164 </v>
   <v>      -6.90471574       2.72492350      -1.33986828 </v>
   <v>       0.78705983       2.09100261      -2.10243824 </v>
   <v>      -1.89269662       4.56823898       0.05124080 </v>
   <v>       2.11047225      -2.49247667      -3.17904121 </v>
   <v>       1.87387768      -0.52889946      -1.46296733 </v>
   <v>      -0.01190040      -1.25699070       3.65668265 </v>
   <v>      -7.44372072      -1.59735636       2.78961597 </v>
   <v>       4.58154223       7.30887785       1.79916340 </v>
   <v>       1.37907075      -2.29166666       6.46432934 </v>
   <v>       4.32029079       5.86029882       0.48991203 </v>
   <v>       2.51358970      -2.10889026       0.51252437 </v>
   <v>      -8.99554368       0.12309921      -8.00153535 </v>
   <v>      -2.70702480      -1.97092520       5.15960642 </v>
   <v>      -4.96253126      -3.03584964      -2.68396162 </v>
   <v>      -3.54932964      -4.45996845       2.06955491 </v>
   <v>      -2.39176156      -3.44590291      -1.25512835 </v>
   <v>       4.17016208       0.40744826      -2.07543061 </v>
   <v>       4.76184354      -0.45953360      -3.38362335 </v>
   <v>       1.81060567      -1.17132429       0.14040933 </v>
   <v>      -0.38384103      -0.18279045       1.89899732 </v>
   <v>       0.39321903       3.43839513       1.02323896 </v>
   <v>       1.65872444       0.46710908       1.65239522 </v>
   <v>       1.50936150      -4.99317304       0.24181753 </v>
   <v>       3.53373990       7.70113617      -0.94448050 </v>
   <v>      -2.09742029      -0.77014730      -0.59065449 </v>
   <v>      -3.29858089       3.37704892      -2.38619041 </v>
   <v>       1.66071002      -3.53274220       0.09625420 </v>
   <v>       2.41278075       0.86488838       2.18507938 </v>
   <v>      -0.14628346      -0.44117284      -2.31755007 </v>
   <v>      -1.45774560       0.28618257       0.72301943 </v>
   <v>      -0.63545014       3.34068616       1.03664265 </v>
   <v>       1.38062032       0.06009378      -2.12078642 </v>
   <v>      -3.01193879      -1.21109755       1.44460190 </v>
   <v>      -1.14166746       0.52707879      -1.54700188 </v>
   <v>      -0.99799792       2.15221477      -3.45480623 </v>
   <v>      -1.41256681       3.87874100      -0.81497346 </v>
   <v>      -0.21190439      -4.22133313      -0.58589302 </v>
   <v>       1.39851063       2.16822794      -3.78992279 </v>
   <v>      -0.73428800       0.89670390      -0.26112432 </v>
   <v>       1.34548554      -0.15699974      -2.03304729 </v>
   <v>       3.03565447       0.04942354      -1.88766881 </v>
   <v>       0.29926949      -0.85956730       2.21631023 </v>
   <v>       3.50642162      -0.79903413       4.17924180 </v>
   <v>      -2.79992643      -2.93229907       0.76513601 </v>
   <v>       3.75538613      -6.09320287       0.56487368 </v>
   <v>       0.40493755      -0.14310123      -0.07180581 </v>
   <v>      -3.03047262      -7.80256577       7.82291505 </v>
   <v>       3.07924408       0.19654661       1.68209467 </v>
   <v>      -0.78248611       2.49428772      -0.25674392 </v>
   <v>      -7.18840266      -1.46102006       1.92246934 </v>
   <v>      -0.91230457      -0.90514269      -4.27736997 </v>
   <v>      -1.11706646      -0.63973820       1.36891302 </v>
   <v>      -0.64501484       0.45074903       2.02118274 </v>
   <v>       3.13796208      -0.93209496       0.35014822 </v>
   <v>      -1.28004043      -1.47878399       3.68311105 </v>
   <v>      -0.67779238       0.10068069      -1.76296043 </v>
   <v>      -1.39551731       1.45250649       1.52610438 </v>
   <v>       2.10211640       2.11049917      -0.94727314 </v>
   <v>       3.51789020      -0.26978734       1.79937488 </v>
   <v>      -4.04642815       1.68688271       0.47576136 </v>
   <v>      -6.44762402      -0.46777118       1.13097995 </v>
   <v>      -0.24597576      -0.35594957       2.63805894 </v>
   <v>       1.58678323       3.73051228      -2.58794780 </v>
   <v>      -3.87936449      -1.08101419      -0.80155543 </v>
   <v>      -3.34892905      -2.01002167       3.33284222 </v>
[...]
       <r>     5.3739    40.4027   865.1473 </r>
       <r>     5.5467    14.1258   867.5876 </r>
       <r>     5.7194     7.3692   868.8606 </r>
       <r>     5.8922    13.2813   871.1550 </r>
       <r>     6.0649    16.4332   873.9938 </r>
       <r>     6.2377     0.0357   874.0000 </r>
       <r>     6.4104     0.0178   874.0031 </r>
       <r>     6.5832    19.8493   877.4321 </r>
       <r>     6.7559     3.2879   878.0001 </r>
       <r>     6.9287     8.7334   879.5088 </r>
       <r>     7.1014    12.4126   881.6531 </r>
       <r>     7.2742    13.5584   883.9953 </r>
       <r>     7.4469     7.3438   885.2639 </r>
       <r>     7.6197    33.3843   891.0311 </r>
       <r>     7.7924    38.0216   897.5994 </r>
       <r>     7.9652    35.6722   903.7618 </r>
       <r>     8.1379    38.0384   910.3330 </r>
       <r>     8.3107    43.3462   917.8212 </r>
       <r>     8.4834    45.7600   925.7263 </r>
       <r>     8.6562    38.6970   932.4112 </r>
       <r>     8.8289    40.7975   939.4591 </r>
       <r>     9.0017    46.5770   947.5053 </r>
       <r>     9.1744    34.7926   953.5158 </r>
       <r>     9.3472    54.4574   962.9234 </r>
       <r>     9.5199    52.4802   971.9894 </r>
       <r>     9.6927    60.2633   982.4000 </r>
       <r>     9.8654    58.5639   992.5170 </r>
       <r>    10.0382    63.2152  1003.4375 </r>
       <r>    10.2109    63.9251  1014.4807 </r>
       <r>    10.3837    64.2798  1025.5851 </r>
       <r>    10.5565    64.4870  1036.7253 </r>
       <r>    10.7292    18.9537  1039.9996 </r>
       <r>    10.9020     0.0024  1040.0000 </r>
       <r>    11.0747     0.0000  1040.0000 </r>
       <r>    11.2475     0.0000  1040.0000 </r>
       <r>    11.4202     0.0000  1040.0000 </r>
       <r>    11.5930     0.0000  1040.0000 </r>
       <r>    11.7657     0.0000  1040.0000 </r>
       <r>    11.9385     0.0000  1040.0000 </r>
       <r>    12.1112     0.0000  1040.0000 </r>
       <r>    12.2840     0.0000  1040.0000 </r>
       <r>    12.4567     0.0000  1040.0000 </r>
       <r>    12.6295     0.0000  1040.0000 </r>
       <r>    12.8022     0.0000  1040.0000 </r>
       <r>    12.9750     0.0000  1040.0000 </r>
      </set>
     </set>
    </array>
   </total>
  </dos>
 </calculation>
 <structure name="finalpos" >
  <crystal>
   <varray name="basis" >
    <v>      11.62817333       0.00000000       0.00000000 </v>
    <v>       0.00000000      11.62817333       0.00000000 </v>
    <v>       0.00000000       0.00000000      11.62817333 </v>
   </varray>
   <i name="volume">   1572.29665425 </i>
   <varray name="rec_basis" >
    <v>       0.08599803       0.00000000       0.00000000 </v>
    <v>       0.00000000       0.08599803       0.00000000 </v>
    <v>       0.00000000       0.00000000       0.08599803 </v>
   </varray>
  </crystal>
  <varray name="positions" >
   <v>       0.74714540       0.22408621       0.40829687 </v>
   <v>       0.43982469       0.07558517       0.82165862 </v>
   <v>       0.06602119       0.65113797       0.19980405 </v>
   <v>       0.09127113       0.77740287       0.41659786 </v>
   <v>       0.79729921       0.83033098       0.17304982 </v>
   <v>       0.84836217       0.16779003       0.12212194 </v>
   <v>       0.64637554       0.53424988       0.78897118 </v>
   <v>       0.49362816       0.30066240       0.04464064 </v>
   <v>       0.38901410       0.55511051       0.55173839 </v>
   <v>       0.56126983       0.57616087       0.36140202 </v>
   <v>       0.21015106       0.12370882       0.40857830 </v>
   <v>       0.98111850       0.00424711       0.73442654 </v>
   <v>       0.62468617       0.97981864       0.99994572 </v>
   <v>       0.05511861       0.31760018       0.75414684 </v>
   <v>       0.35104364       0.28954019       0.56566217 </v>
   <v>       0.16142772       0.35510878       0.12677501 </v>
   <v>       0.30968944       0.85896148       0.14377419 </v>
   <v>       0.93393523       0.37995483       0.93525419 </v>
   <v>       0.15004172       0.78297046       0.76391297 </v>
   <v>       0.54617518       0.80322125       0.65952053 </v>
   <v>       0.41277733       0.57806640       0.08679700 </v>
   <v>       0.37752041       0.90803014       0.89259131 </v>
   <v>       0.46897134       0.05195234       0.26118462 </v>
   <v>       0.29238871       0.59666480       0.30314007 </v>
   <v>       0.92465622       0.59940607       0.76590888 </v>
   <v>       0.14450369       0.58375486       0.94976365 </v>
   <v>       0.67960236       0.88091952       0.50733309 </v>
   <v>       0.86262084       0.56079532       0.35004245 </v>
   <v>       0.68755769       0.57261331       0.02794622 </v>
   <v>       0.16379945       0.54056136       0.64080842 </v>
   <v>       0.23567349       0.27310460       0.89796140 </v>
   <v>       0.11041821       0.11518889       0.21029285 </v>
   <v>       0.98183424       0.85330970       0.97352312 </v>
   <v>       0.88911417       0.81426336       0.58822833 </v>
   <v>       0.40652138       0.80866005       0.40474229 </v>
   <v>       0.33713909       0.93360772       0.61339126 </v>
   <v>       0.68556034       0.36354369       0.22732706 </v>
   <v>       0.53985172       0.76831272       0.16768008 </v>
   <v>       0.64835184       0.24631386       0.87578180 </v>
   <v>       0.40708137       0.34283038       0.31440258 </v>
   <v>       0.98225127       0.30510408       0.29063414 </v>
   <v>       0.79747690       0.34044669       0.71046273 </v>
   <v>       0.87560441       0.63164439       0.99340580 </v>
   <v>       0.57725205       0.11665304       0.54976710 </v>
   <v>       0.34690170       0.65089274       0.83244713 </v>
   <v>       0.09342613       0.46105077       0.42609451 </v>
   <v>       0.76678708       0.13362401       0.66305888 </v>
   <v>       0.41679113       0.39576170       0.80924701 </v>
   <v>       0.00133834       0.23233397       0.52359227 </v>
   <v>       0.75399676       0.89441081       0.78192313 </v>
   <v>       0.78492134       0.53365774       0.51480456 </v>
   <v>       0.04501921       0.12109366       0.92147103 </v>
   <v>       0.31269175       0.09278850       0.07461398 </v>
   <v>       0.68662840       0.07739962       0.26623595 </v>
   <v>       0.57922791       0.59784333       0.97480387 </v>
   <v>       0.10263504       0.49731586       0.74652418 </v>
   <v>       0.10255893       0.95810608       0.98680805 </v>
   <v>       0.44218037       0.70687476       0.23721872 </v>
   <v>       0.34744573       0.22426264       0.14738972 </v>
   <v>       0.70564341       0.60266180       0.43416931 </v>
   <v>       0.87645964       0.85618136       0.74831997 </v>
   <v>       0.83003242       0.91693890       0.94687333 </v>
   <v>       0.86249762       0.86301791       0.45830235 </v>
   <v>       0.87551978       0.29661110       0.58214631 </v>
   <v>       0.20636747       0.87983230       0.63228874 </v>
   <v>       0.52813869       0.25722197       0.52319132 </v>
   <v>       0.96352941       0.42548075       0.32648426 </v>
   <v>       0.13224796       0.24088917       0.28113081 </v>
   <v>       0.53029194       0.32951592       0.87891426 </v>
   <v>       0.91690527       0.12728091       0.51853615 </v>
   <v>       0.32686941       0.50835632       0.85288755 </v>
   <v>       0.22517100       0.44351734       0.56897955 </v>
   <v>       0.02698223       0.83341777       0.60366632 </v>
   <v>       0.61136205       0.64663802       0.14863254 </v>
   <v>       0.85285089       0.19049700       0.76097035 </v>
   <v>       0.14020746       0.21710694       0.57995271 </v>
   <v>       0.26545381       0.63315062       0.71667262 </v>
   <v>       0.22043741       0.58494282       0.13089809 </v>
   <v>       0.71024515       0.75023394       0.76588844 </v>
   <v>       0.31942866       0.76527194       0.51095581 </v>
   <v>       0.35411170       0.95147615       0.48194901 </v>
   <v>       0.56176433       0.60799010       0.62192779 </v>
   <v>       0.79396152       0.03127349       0.33553640 </v>
   <v>       0.75550265       0.45624526       0.00559711 </v>
   <v>       0.68713444       0.07054066       0.13047958 </v>
   <v>       0.84830564       0.64973276       0.24839808 </v>
   <v>       0.24962238       0.82091362       0.30908728 </v>
   <v>       0.30269588       0.44942412       0.22441084 </v>
   <v>       0.72622763       0.25195562       0.99561243 </v>
   <v>       0.72649746       0.46637848       0.59788316 </v>
   <v>       0.70640562       0.11158942       0.52682329 </v>
   <v>       0.98951044       0.77414883       0.09286890 </v>
   <v>       0.00435270       0.55500849       0.01290092 </v>
   <v>       0.64904534       0.83444958       0.29600011 </v>
   <v>       0.45054415       0.73718263       0.80190031 </v>
   <v>       0.46818700       0.43314165       0.68159892 </v>
   <v>       0.51774268       0.76628298       0.46734786 </v>
   <v>       0.34626246       0.15843096       0.93465999 </v>
   <v>       0.08910933       0.62481017       0.56986156 </v>
   <v>       0.11198257       0.14452430       0.06910399 </v>
   <v>       0.70886592       0.35748964       0.81959042 </v>
   <v>       0.90643733       0.13474010       0.92562439 </v>
   <v>       0.61001388       0.04319663       0.37734545 </v>
   <v>       0.47435289       0.04572993       0.07018519 </v>
   <v>       0.84826506       0.67722840       0.56498330 </v>
   <v>       0.56683184       0.13747504       0.93441225 </v>
   <v>       0.68313357       0.48545269       0.17073362 </v>
   <v>       0.13330727       0.57065656       0.34821292 </v>
   <v>       0.06951449       0.33297741       0.45198498 </v>
   <v>       0.34814472       0.28688570       0.75825459 </v>
   <v>       0.80479895       0.60628944       0.87794550 </v>
   <v>       0.18320919       0.11342597       0.89475726 </v>
   <v>       0.97381889       0.32320901       0.14774963 </v>
   <v>       0.80051335       0.66684017       0.08484096 </v>
   <v>       0.88673719       0.19909429       0.30449217 </v>
   <v>       0.52349086       0.00153731       0.61710464 </v>
   <v>       0.23947237       0.02751029       0.18919010 </v>
   <v>       0.31917490       0.33813118       0.96920499 </v>
   <v>       0.47740447       0.83125772       0.06342898 </v>
   <v>       0.74516516       0.99314300       0.64803323 </v>
   <v>       0.68128332       0.23745205       0.24444123 </v>
   <v>       0.97386295       0.73396917       0.89724693 </v>
   <v>       0.78212488       0.40953176       0.30773224 </v>
   <v>       0.87569322       0.43607954       0.75921983 </v>
   <v>       0.42756643       0.44147720       0.40845269 </v>
   <v>       0.92385146       0.51890799       0.46415642 </v>
   <v>       0.01718444       0.00905519       0.27562516 </v>
   <v>       0.26474944       0.78118459       0.91883818 </v>
   <v>       0.33561065       0.24664176       0.37322965 </v>
   <v>       0.67702115       0.23036448       0.69136212 </v>
   <v>       0.11347610       0.31461363       0.92389569 </v>
   <v>       0.50645375       0.29499787       0.25161182 </v>
   <v>       0.60753395       0.97684290       0.82609906 </v>
   <v>       0.42857014       0.88724361       0.29200428 </v>
   <v>       0.28466394       0.07213437       0.67337068 </v>
  </varray>
  <varray name="velocities" >
   <v>       0.00000000       0.00000000       0.00000000 </v>
   <v>       0.00000000       0.00000000       0.00000000 </v>
   <v>       0.00000000       0.00000000       0.00000000 </v>
   <v>       0.00000000       0.00000000       0.00000000 </v>
   <v>       0.00000000       0.00000000       0.00000000 </v>
   <v>       0.00000000       0.00000000       0.00000000 </v>
   <v>       0.00000000       0.00000000       0.00000000 </v>
   <v>       0.00000000       0.00000000       0.00000000 </v>
   <v>       0.00000000       0.00000000       0.00000000 </v>
   <v>       0.00000000       0.00000000       0.00000000 </v>
   <v>       0.00000000       0.00000000       0.00000000 </v>
   <v>       0.00000000       0.00000000       0.00000000 </v>
   <v>       0.00000000       0.00000000       0.00000000 </v>
   <v>       0.00000000       0.00000000       0.00000000 </v>
   <v>       0.00000000       0.00000000       0.00000000 </v>
   <v>       0.00000000       0.00000000       0.00000000 </v>
   <v>       0.00000000       0.00000000       0.00000000 </v>
   <v>       0.00000000       0.00000000       0.00000000 </v>
   <v>       0.00000000       0.00000000       0.00000000 </v>
   <v>       0.00000000       0.00000000       0.00000000 </v>
   <v>       0.00000000       0.00000000       0.00000000 </v>
   <v>       0.00000000       0.00000000       0.00000000 </v>
   <v>       0.00000000       0.00000000       0.00000000 </v>
   <v>       0.00000000       0.00000000       0.00000000 </v>
   <v>       0.00000000       0.00000000       0.00000000 </v>
   <v>       0.00000000       0.00000000       0.00000000 </v>
   <v>       0.00000000       0.00000000       0.00000000 </v>
   <v>       0.00000000       0.00000000       0.00000000 </v>
   <v>       0.00000000       0.00000000       0.00000000 </v>
   <v>       0.00000000       0.00000000       0.00000000 </v>
   <v>       0.00000000       0.00000000       0.00000000 </v>
   <v>       0.00000000       0.00000000       0.00000000 </v>
   <v>       0.00000000       0.00000000       0.00000000 </v>
   <v>       0.00000000       0.00000000       0.00000000 </v>
   <v>       0.00000000       0.00000000       0.00000000 </v>
   <v>       0.00000000       0.00000000       0.00000000 </v>
   <v>       0.00000000       0.00000000       0.00000000 </v>
   <v>       0.00000000       0.00000000       0.00000000 </v>
   <v>       0.00000000       0.00000000       0.00000000 </v>
   <v>       0.00000000       0.00000000       0.00000000 </v>
   <v>       0.00000000       0.00000000       0.00000000 </v>
   <v>       0.00000000       0.00000000       0.00000000 </v>
   <v>       0.00000000       0.00000000       0.00000000 </v>
   <v>       0.00000000       0.00000000       0.00000000 </v>
   <v>       0.00000000       0.00000000       0.00000000 </v>
   <v>       0.00000000       0.00000000       0.00000000 </v>
   <v>       0.00000000       0.00000000       0.00000000 </v>
   <v>       0.00000000       0.00000000       0.00000000 </v>
   <v>       0.00000000       0.00000000       0.00000000 </v>
   <v>       0.00000000       0.00000000       0.00000000 </v>
   <v>       0.00000000       0.00000000       0.00000000 </v>
   <v>       0.00000000       0.00000000       0.00000000 </v>
   <v>       0.00000000       0.00000000       0.00000000 </v>
   <v>       0.00000000       0.00000000       0.00000000 </v>
   <v>       0.00000000       0.00000000       0.00000000 </v>
   <v>       0.00000000       0.00000000       0.00000000 </v>
   <v>       0.00000000       0.00000000       0.00000000 </v>
   <v>       0.00000000       0.00000000       0.00000000 </v>
   <v>       0.00000000       0.00000000       0.00000000 </v>
   <v>       0.00000000       0.00000000       0.00000000 </v>
   <v>       0.00000000       0.00000000       0.00000000 </v>
   <v>       0.00000000       0.00000000       0.00000000 </v>
   <v>       0.00000000       0.00000000       0.00000000 </v>
   <v>       0.00000000       0.00000000       0.00000000 </v>
   <v>       0.00000000       0.00000000       0.00000000 </v>
   <v>       0.00000000       0.00000000       0.00000000 </v>
   <v>       0.00000000       0.00000000       0.00000000 </v>
   <v>       0.00000000       0.00000000       0.00000000 </v>
   <v>       0.00000000       0.00000000       0.00000000 </v>
   <v>       0.00000000       0.00000000       0.00000000 </v>
   <v>       0.00000000       0.00000000       0.00000000 </v>
   <v>       0.00000000       0.00000000       0.00000000 </v>
   <v>       0.00000000       0.00000000       0.00000000 </v>
   <v>       0.00000000       0.00000000       0.00000000 </v>
   <v>       0.00000000       0.00000000       0.00000000 </v>
   <v>       0.00000000       0.00000000       0.00000000 </v>
   <v>       0.00000000       0.00000000       0.00000000 </v>
   <v>       0.00000000       0.00000000       0.00000000 </v>
   <v>       0.00000000       0.00000000       0.00000000 </v>
   <v>       0.00000000       0.00000000       0.00000000 </v>
   <v>       0.00000000       0.00000000       0.00000000 </v>
   <v>       0.00000000       0.00000000       0.00000000 </v>
   <v>       0.00000000       0.00000000       0.00000000 </v>
   <v>       0.00000000       0.00000000       0.00000000 </v>
   <v>       0.00000000       0.00000000       0.00000000 </v>
   <v>       0.00000000       0.00000000       0.00000000 </v>
   <v>       0.00000000       0.00000000       0.00000000 </v>
   <v>       0.00000000       0.00000000       0.00000000 </v>
   <v>       0.00000000       0.00000000       0.00000000 </v>
   <v>       0.00000000       0.00000000       0.00000000 </v>
   <v>       0.00000000       0.00000000       0.00000000 </v>
   <v>       0.00000000       0.00000000       0.00000000 </v>
   <v>       0.00000000       0.00000000       0.00000000 </v>
   <v>       0.00000000       0.00000000       0.00000000 </v>
   <v>       0.00000000       0.00000000       0.00000000 </v>
   <v>       0.00000000       0.00000000       0.00000000 </v>
   <v>       0.00000000       0.00000000       0.00000000 </v>
   <v>       0.00000000       0.00000000       0.00000000 </v>
   <v>       0.00000000       0.00000000       0.00000000 </v>
   <v>       0.00000000       0.00000000       0.00000000 </v>
   <v>       0.00000000       0.00000000       0.00000000 </v>
   <v>       0.00000000       0.00000000       0.00000000 </v>
   <v>       0.00000000       0.00000000       0.00000000 </v>
   <v>       0.00000000       0.00000000       0.00000000 </v>
   <v>       0.00000000       0.00000000       0.00000000 </v>
   <v>       0.00000000       0.00000000       0.00000000 </v>
   <v>       0.00000000       0.00000000       0.00000000 </v>
   <v>       0.00000000       0.00000000       0.00000000 </v>
   <v>       0.00000000       0.00000000       0.00000000 </v>
   <v>       0.00000000       0.00000000       0.00000000 </v>
   <v>       0.00000000       0.00000000       0.00000000 </v>
   <v>       0.00000000       0.00000000       0.00000000 </v>
   <v>       0.00000000       0.00000000       0.00000000 </v>
   <v>       0.00000000       0.00000000       0.00000000 </v>
   <v>       0.00000000       0.00000000       0.00000000 </v>
   <v>       0.00000000       0.00000000       0.00000000 </v>
   <v>       0.00000000       0.00000000       0.00000000 </v>
   <v>       0.00000000       0.00000000       0.00000000 </v>
   <v>       0.00000000       0.00000000       0.00000000 </v>
   <v>       0.00000000       0.00000000       0.00000000 </v>
   <v>       0.00000000       0.00000000       0.00000000 </v>
   <v>       0.00000000       0.00000000       0.00000000 </v>
   <v>       0.00000000       0.00000000       0.00000000 </v>
   <v>       0.00000000       0.00000000       0.00000000 </v>
   <v>       0.00000000       0.00000000       0.00000000 </v>
   <v>       0.00000000       0.00000000       0.00000000 </v>
   <v>       0.00000000       0.00000000       0.00000000 </v>
   <v>       0.00000000       0.00000000       0.00000000 </v>
   <v>       0.00000000       0.00000000       0.00000000 </v>
   <v>       0.00000000       0.00000000       0.00000000 </v>
   <v>       0.00000000       0.00000000       0.00000000 </v>
   <v>       0.00000000       0.00000000       0.00000000 </v>
   <v>       0.00000000       0.00000000       0.00000000 </v>
   <v>       0.00000000       0.00000000       0.00000000 </v>
   <v>       0.00000000       0.00000000       0.00000000 </v>
  </varray>
 </structure>
</modeling>
