<?xml version="1.0" encoding="ISO-8859-1"?>
<modeling>
 <generator>
  <i name="program" type="string">vasp </i>
  <i name="version" type="string">5.4.4.18Apr17-6-g9f103f2a35  </i>
  <i name="subversion" type="string">(build Oct 31 2019 15:01:46) complex            parallel </i>
  <i name="platform" type="string">LinuxIFC </i>
  <i name="date" type="string">2024 04 18 </i>
  <i name="time" type="string">21:09:59 </i>
 </generator>
 <incar>
  <i type="int" name="ISTART">     0</i>
  <i type="string" name="PREC">anormal</i>
  <i type="logical" name="ADDGRID"> T  </i>
  <i type="int" name="IBRION">    -1</i>
  <i name="EDIFF">      0.00000100</i>
  <i name="EDIFFG">     -0.01000000</i>
  <i type="int" name="NSW">     1</i>
  <i type="int" name="ISIF">     2</i>
  <i type="int" name="ISYM">     2</i>
  <i name="ENCUT">    600.00000000</i>
  <i name="POTIM">      1.00000000</i>
  <i type="string" name="LREAL"> Auto.</i>
  <i type="int" name="ISMEAR">     0</i>
  <i name="SIGMA">      0.05000000</i>
  <i name="KSPACING">      0.25000000</i>
  <i type="logical" name="LWAVE"> F  </i>
  <i type="logical" name="LCHARG"> F  </i>
  <i type="logical" name="LSCALAPACK"> F  </i>
  <v type="int" name="KPOINT_BSE">    -1     0     0     0</v>
 </incar>
 <structure name="primitive_cell" >
  <crystal>
   <varray name="basis" >
    <v>      13.12862340       0.00000000       0.00000000 </v>
    <v>      -6.56431170      11.36972138       0.00000000 </v>
    <v>       0.00000000       0.00000000      26.82809424 </v>
   </varray>
   <i name="volume">   4004.59716953 </i>
   <varray name="rec_basis" >
    <v>       0.07616945       0.04397645       0.00000000 </v>
    <v>       0.00000000       0.08795290       0.00000000 </v>
    <v>       0.00000000       0.00000000       0.03727436 </v>
   </varray>
  </crystal>
  <varray name="positions" >
   <v>       0.08909364       0.17427945       0.45438092 </v>
   <v>       0.16761821       0.09366381       0.40853771 </v>
   <v>       0.00773753       0.25568385      -0.49985514 </v>
   <v>       0.18014022       0.34017280       0.41046389 </v>
   <v>       0.25106458       0.25028225      -0.49627959 </v>
   <v>      -0.00211675      -0.00088756       0.49670914 </v>
   <v>      -0.08736647       0.09147828       0.40993022 </v>
   <v>       0.16793725       0.08357946      -0.45690863 </v>
   <v>      -0.07980272       0.07800109      -0.45564824 </v>
   <v>       0.08758361       0.41225698       0.45331343 </v>
   <v>       0.16339174       0.33358274      -0.44865167 </v>
   <v>       0.33669994       0.41689791       0.45713908 </v>
   <v>       0.33568233       0.16613740       0.45231795 </v>
   <v>       0.09064289      -0.07634024       0.45117521 </v>
   <v>      -0.16431584      -0.08213673       0.44904454 </v>
   <v>      -0.17194843       0.16749921       0.45749702 </v>
   <v>       0.08140742       0.16255755      -0.40968791 </v>
   <v>       0.41753661       0.32188672       0.41153557 </v>
   <v>       0.24481044      -0.00050396       0.49801892 </v>
   <v>      -0.24481668       0.00499758       0.49874842 </v>
   <v>      -0.09685415       0.32204613       0.40947199 </v>
   <v>       0.25508927      -0.49204863      -0.49837132 </v>
   <v>      -0.10485424      -0.17145134       0.40739407 </v>
   <v>       0.41071988       0.32742191      -0.45159258 </v>
   <v>      -0.08496920       0.33033728      -0.45097914 </v>
   <v>      -0.08645615      -0.17678005      -0.45413315 </v>
   <v>       0.31330010       0.14480432      -0.40847453 </v>
   <v>       0.32788764       0.42001713      -0.40901274 </v>
   <v>      -0.15603922      -0.09288197      -0.41329134 </v>
   <v>      -0.15316921       0.18009945      -0.40587751 </v>
   <v>       0.07388281      -0.09648601      -0.41295206 </v>
   <v>      -0.00205885       0.48897290       0.49546296 </v>
   <v>       0.41707857      -0.42671967       0.40896689 </v>
   <v>      -0.49895032       0.49905541       0.49979595 </v>
   <v>       0.41408006       0.08213143       0.41224963 </v>
   <v>       0.09133313       0.43676018      -0.40342610 </v>
   <v>      -0.49951080       0.24634207      -0.49694069 </v>
   <v>      -0.24732998       0.25083866      -0.49642553 </v>
   <v>       0.18008066      -0.15630122       0.41003961 </v>
   <v>       0.00285679      -0.24758872       0.49508149 </v>
   <v>      -0.25291174      -0.24774306       0.49818938 </v>
   <v>       0.18061703      -0.39994354       0.40933655 </v>
   <v>      -0.34184120      -0.16493087       0.41077634 </v>
   <v>      -0.35348622       0.08497040       0.40868417 </v>
   <v>       0.40942092       0.07651567      -0.45456568 </v>
   <v>       0.41594179      -0.41465633      -0.45162720 </v>
   <v>       0.16639749      -0.41419757      -0.45331959 </v>
   <v>       0.15783513      -0.16855257      -0.45402085 </v>
   <v>      -0.32970373      -0.16279312      -0.45601230 </v>
   <v>      -0.41818433       0.41414931       0.45255983 </v>
   <v>      -0.16255328       0.41615240       0.45227915 </v>
   <v>      -0.33082194       0.07819593      -0.44930479 </v>
   <v>       0.33765358      -0.33005515       0.45039088 </v>
   <v>      -0.41036326      -0.08138808       0.45241153 </v>
   <v>       0.33864508      -0.08075486       0.45395142 </v>
   <v>      -0.17033356      -0.33659923       0.44990905 </v>
   <v>      -0.42460626      -0.33733595       0.44864345 </v>
   <v>       0.09289590      -0.32279129       0.44910342 </v>
   <v>      -0.41464872       0.16669533       0.45624961 </v>
   <v>      -0.15981150       0.41655794      -0.41149242 </v>
   <v>      -0.42472731       0.41562545      -0.40538707 </v>
   <v>      -0.41001615      -0.08920895      -0.41074234 </v>
   <v>      -0.34539524      -0.41282245       0.40800631 </v>
   <v>       0.32892192      -0.08443171      -0.40659682 </v>
   <v>       0.33288054      -0.31840394      -0.41060653 </v>
   <v>      -0.32818482       0.33416679       0.41354006 </v>
   <v>      -0.49502516      -0.25000887       0.49987080 </v>
   <v>      -0.16374525      -0.33810050      -0.40989674 </v>
   <v>      -0.08730261      -0.41229192       0.41431737 </v>
   <v>       0.25479385      -0.24269467       0.49838987 </v>
   <v>      -0.49472661       0.00681097      -0.49832538 </v>
   <v>      -0.33833833      -0.41516694      -0.45513702 </v>
   <v>      -0.08299308      -0.42008333      -0.45276866 </v>
   <v>      -0.33700061       0.33358389      -0.45000946 </v>
   <v>       0.07234282      -0.34893579      -0.40598629 </v>
   <v>      -0.41699827      -0.33492654      -0.41152730 </v>
   <v>      -0.41054243       0.17037202      -0.41032840 </v>
   <v>      -0.25965428       0.49618356      -0.49882394 </v>
   <v>       0.42215457      -0.16462473       0.41070604 </v>
   <v>       0.41786652      -0.16243058      -0.45230776 </v>
  </varray>
 </structure>
 <varray name="primitive_index" >
  <v type="int" >        1 </v>
  <v type="int" >       49 </v>
  <v type="int" >       66 </v>
  <v type="int" >       50 </v>
  <v type="int" >       70 </v>
  <v type="int" >       65 </v>
  <v type="int" >       61 </v>
  <v type="int" >       17 </v>
  <v type="int" >       29 </v>
  <v type="int" >        2 </v>
  <v type="int" >       18 </v>
  <v type="int" >        6 </v>
  <v type="int" >        5 </v>
  <v type="int" >        4 </v>
  <v type="int" >       16 </v>
  <v type="int" >       13 </v>
  <v type="int" >       33 </v>
  <v type="int" >       54 </v>
  <v type="int" >       69 </v>
  <v type="int" >       77 </v>
  <v type="int" >       62 </v>
  <v type="int" >       71 </v>
  <v type="int" >       64 </v>
  <v type="int" >       22 </v>
  <v type="int" >       30 </v>
  <v type="int" >       32 </v>
  <v type="int" >       37 </v>
  <v type="int" >       38 </v>
  <v type="int" >       48 </v>
  <v type="int" >       45 </v>
  <v type="int" >       36 </v>
  <v type="int" >       67 </v>
  <v type="int" >       55 </v>
  <v type="int" >       75 </v>
  <v type="int" >       53 </v>
  <v type="int" >       34 </v>
  <v type="int" >       74 </v>
  <v type="int" >       78 </v>
  <v type="int" >       52 </v>
  <v type="int" >       68 </v>
  <v type="int" >       80 </v>
  <v type="int" >       51 </v>
  <v type="int" >       60 </v>
  <v type="int" >       57 </v>
  <v type="int" >       21 </v>
  <v type="int" >       23 </v>
  <v type="int" >       19 </v>
  <v type="int" >       20 </v>
  <v type="int" >       28 </v>
  <v type="int" >       10 </v>
  <v type="int" >       14 </v>
  <v type="int" >       25 </v>
  <v type="int" >        7 </v>
  <v type="int" >       12 </v>
  <v type="int" >        8 </v>
  <v type="int" >       15 </v>
  <v type="int" >       11 </v>
  <v type="int" >        3 </v>
  <v type="int" >        9 </v>
  <v type="int" >       46 </v>
  <v type="int" >       42 </v>
  <v type="int" >       44 </v>
  <v type="int" >       59 </v>
  <v type="int" >       40 </v>
  <v type="int" >       39 </v>
  <v type="int" >       58 </v>
  <v type="int" >       76 </v>
  <v type="int" >       47 </v>
  <v type="int" >       63 </v>
  <v type="int" >       72 </v>
  <v type="int" >       73 </v>
  <v type="int" >       27 </v>
  <v type="int" >       31 </v>
  <v type="int" >       26 </v>
  <v type="int" >       35 </v>
  <v type="int" >       43 </v>
  <v type="int" >       41 </v>
  <v type="int" >       79 </v>
  <v type="int" >       56 </v>
  <v type="int" >       24 </v>
 </varray>
 <kpoints>
  <generation param="Gamma">
   <v type="int" name="divisions">       3        3        1 </v>
   <v name="usershift">      0.00000000       0.00000000       0.00000000 </v>
   <v name="genvec1">      0.33333333       0.00000000       0.00000000 </v>
   <v name="genvec2">      0.00000000       0.33333333       0.00000000 </v>
   <v name="genvec3">      0.00000000       0.00000000       1.00000000 </v>
   <v name="shift">      0.00000000       0.00000000       0.00000000 </v>
  </generation>
  <varray name="kpointlist" >
   <v>       0.00000000       0.00000000       0.00000000 </v>
   <v>       0.33333333      -0.00000000       0.00000000 </v>
   <v>       0.00000000       0.33333333       0.00000000 </v>
   <v>       0.33333333       0.33333333       0.00000000 </v>
   <v>      -0.33333333       0.33333333       0.00000000 </v>
  </varray>
  <varray name="weights" >
   <v>       0.11111111 </v>
   <v>       0.22222222 </v>
   <v>       0.22222222 </v>
   <v>       0.22222222 </v>
   <v>       0.22222222 </v>
  </varray>
 </kpoints>
 <parameters>
  <separator name="general" >
   <i type="string" name="SYSTEM">unknown system</i>
   <i type="logical" name="LCOMPAT"> F  </i>
  </separator>
  <separator name="electronic" >
   <i type="string" name="PREC">anorma</i>
   <i name="ENMAX">    600.00000000</i>
   <i name="ENAUG">    644.87300000</i>
   <i name="EDIFF">      0.00000100</i>
   <i type="int" name="IALGO">    38</i>
   <i type="int" name="IWAVPR">    10</i>
   <i type="int" name="NBANDS">   384</i>
   <i name="NELECT">    640.00000000</i>
   <i type="int" name="TURBO">     0</i>
   <i type="int" name="IRESTART">     0</i>
   <i type="int" name="NREBOOT">     0</i>
   <i type="int" name="NMIN">     0</i>
   <i name="EREF">      0.00000000</i>
   <separator name="electronic smearing" >
    <i type="int" name="ISMEAR">     0</i>
    <i name="SIGMA">      0.05000000</i>
    <i name="KSPACING">      0.25000000</i>
    <i type="logical" name="KGAMMA"> T  </i>
   </separator>
   <separator name="electronic projectors" >
    <i type="logical" name="LREAL"> T  </i>
    <v name="ROPT">     -0.00025000     -0.00025000     -0.00025000</v>
    <i type="int" name="LMAXPAW">  -100</i>
    <i type="int" name="LMAXMIX">     2</i>
    <i type="logical" name="NLSPLINE"> F  </i>
   </separator>
   <separator name="electronic startup" >
    <i type="int" name="ISTART">     0</i>
    <i type="int" name="ICHARG">     2</i>
    <i type="int" name="INIWAV">     1</i>
   </separator>
   <separator name="electronic spin" >
    <i type="int" name="ISPIN">     1</i>
    <i type="logical" name="LNONCOLLINEAR"> F  </i>
    <v name="MAGMOM">      1.00000000      1.00000000      1.00000000      1.00000000      1.00000000      1.00000000      1.00000000      1.00000000      1.00000000      1.00000000      1.00000000      1.00000000      1.00000000      1.00000000      1.00000000      1.00000000      1.00000000      1.00000000      1.00000000      1.00000000
      1.00000000      1.00000000      1.00000000      1.00000000      1.00000000      1.00000000      1.00000000      1.00000000      1.00000000      1.00000000      1.00000000      1.00000000      1.00000000      1.00000000      1.00000000      1.00000000      1.00000000      1.00000000      1.00000000      1.00000000
      1.00000000      1.00000000      1.00000000      1.00000000      1.00000000      1.00000000      1.00000000      1.00000000      1.00000000      1.00000000      1.00000000      1.00000000      1.00000000      1.00000000      1.00000000      1.00000000      1.00000000      1.00000000      1.00000000      1.00000000
      1.00000000      1.00000000      1.00000000      1.00000000      1.00000000      1.00000000      1.00000000      1.00000000      1.00000000      1.00000000      1.00000000      1.00000000      1.00000000      1.00000000      1.00000000      1.00000000      1.00000000      1.00000000      1.00000000      1.00000000
</v>
    <i name="NUPDOWN">     -1.00000000</i>
    <i type="logical" name="LSORBIT"> F  </i>
    <v name="SAXIS">      0.00000000      0.00000000      1.00000000</v>
    <i type="logical" name="LSPIRAL"> F  </i>
    <v name="QSPIRAL">      0.00000000      0.00000000      0.00000000</v>
    <i type="logical" name="LZEROZ"> F  </i>
   </separator>
   <separator name="electronic exchange-correlation" >
    <i type="logical" name="LASPH"> F  </i>
    <i type="logical" name="LMETAGGA"> F  </i>
   </separator>
   <separator name="electronic convergence" >
    <i type="int" name="NELM">    60</i>
    <i type="int" name="NELMDL">    -5</i>
    <i type="int" name="NELMIN">     2</i>
    <i name="ENINI">    600.00000000</i>
    <separator name="electronic convergence detail" >
     <i type="logical" name="LDIAG"> T  </i>
     <i type="logical" name="LSUBROT"> F  </i>
     <i name="WEIMIN">      0.00000000</i>
     <i name="EBREAK">      0.00000000</i>
     <i name="DEPER">      0.30000000</i>
     <i type="int" name="NRMM">     4</i>
     <i name="TIME">      0.40000000</i>
    </separator>
   </separator>
   <separator name="electronic mixer" >
    <i name="AMIX">      0.40000000</i>
    <i name="BMIX">      1.00000000</i>
    <i name="AMIN">      0.10000000</i>
    <i name="AMIX_MAG">      1.60000000</i>
    <i name="BMIX_MAG">      1.00000000</i>
    <separator name="electronic mixer details" >
     <i type="int" name="IMIX">     4</i>
     <i type="logical" name="MIXFIRST"> F  </i>
     <i type="int" name="MAXMIX">   -45</i>
     <i name="WC">    100.00000000</i>
     <i type="int" name="INIMIX">     1</i>
     <i type="int" name="MIXPRE">     1</i>
     <i type="int" name="MREMOVE">     5</i>
    </separator>
   </separator>
   <separator name="electronic dipolcorrection" >
    <i type="logical" name="LDIPOL"> F  </i>
    <i type="logical" name="LMONO"> F  </i>
    <i type="int" name="IDIPOL">     0</i>
    <i name="EPSILON">      1.00000000</i>
    <v name="DIPOL">   -100.00000000   -100.00000000   -100.00000000</v>
    <i name="EFIELD">      0.00000000</i>
   </separator>
  </separator>
  <separator name="grids" >
   <i type="int" name="NGX">   108</i>
   <i type="int" name="NGY">   108</i>
   <i type="int" name="NGZ">   216</i>
   <i type="int" name="NGXF">   216</i>
   <i type="int" name="NGYF">   216</i>
   <i type="int" name="NGZF">   432</i>
   <i type="logical" name="ADDGRID"> T  </i>
  </separator>
  <separator name="ionic" >
   <i type="int" name="NSW">     1</i>
   <i type="int" name="IBRION">    -1</i>
   <i type="int" name="MDALGO">     0</i>
   <i type="int" name="ISIF">     2</i>
   <i name="PSTRESS">      0.00000000</i>
   <i name="EDIFFG">     -0.01000000</i>
   <i type="int" name="NFREE">     0</i>
   <i name="POTIM">      1.00000000</i>
   <i name="SMASS">     -3.00000000</i>
   <i name="SCALEE">      1.00000000</i>
  </separator>
  <separator name="ionic md" >
   <i name="TEBEG">      0.00010000</i>
   <i name="TEEND">      0.00010000</i>
   <i type="int" name="NBLOCK">     1</i>
   <i type="int" name="KBLOCK">     1</i>
   <i type="int" name="NPACO">   256</i>
   <i name="APACO">     16.00000000</i>
  </separator>
  <separator name="symmetry" >
   <i type="int" name="ISYM">     2</i>
   <i name="SYMPREC">      0.00001000</i>
  </separator>
  <separator name="dos" >
   <i type="int" name="LORBIT">     0</i>
   <v name="RWIGS">     -1.00000000     -1.00000000     -1.00000000</v>
   <i type="int" name="NEDOS">   301</i>
   <i name="EMIN">     10.00000000</i>
   <i name="EMAX">    -10.00000000</i>
   <i name="EFERMI">      0.00000000</i>
  </separator>
  <separator name="writing" >
   <i type="int" name="NWRITE">     2</i>
   <i type="logical" name="LWAVE"> F  </i>
   <i type="logical" name="LDOWNSAMPLE"> F  </i>
   <i type="logical" name="LCHARG"> F  </i>
   <i type="logical" name="LPARD"> F  </i>
   <i type="logical" name="LVTOT"> F  </i>
   <i type="logical" name="LVHAR"> F  </i>
   <i type="logical" name="LELF"> F  </i>
   <i type="logical" name="LOPTICS"> F  </i>
   <v name="STM">      0.00000000      0.00000000      0.00000000      0.00000000      0.00000000      0.00000000      0.00000000</v>
  </separator>
  <separator name="performance" >
   <i type="int" name="NPAR">     4</i>
   <i type="int" name="NSIM">     4</i>
   <i type="int" name="NBLK">    -1</i>
   <i type="logical" name="LPLANE"> T  </i>
   <i type="logical" name="LSCALAPACK"> F  </i>
   <i type="logical" name="LSCAAWARE"> F  </i>
   <i type="logical" name="LSCALU"> F  </i>
   <i type="logical" name="LASYNC"> F  </i>
   <i type="logical" name="LORBITALREAL"> F  </i>
  </separator>
  <separator name="miscellaneous" >
   <i type="int" name="IDIOT">     3</i>
   <i type="int" name="ISPECIAL">     0</i>
   <i type="logical" name="LMUSIC"> F  </i>
   <v name="POMASS">     44.95600000     18.99800000     12.01100000</v>
   <v name="DARWINR">      0.00000000      0.00000000      0.00000000</v>
   <v name="DARWINV">      1.00000000      1.00000000      1.00000000</v>
   <i type="logical" name="LCORR"> T  </i>
  </separator>
  <i type="logical" name="GGA_COMPAT"> T  </i>
  <i type="logical" name="LBERRY"> F  </i>
  <i type="int" name="ICORELEVEL">     0</i>
  <i type="logical" name="LDAU"> F  </i>
  <i type="int" name="I_CONSTRAINED_M">     0</i>
  <separator name="electronic exchange-correlation" >
   <i type="string" name="GGA">--</i>
   <i type="int" name="VOSKOWN">     0</i>
   <i type="logical" name="LHFCALC"> F  </i>
   <i type="string" name="PRECFOCK"></i>
   <i type="logical" name="LSYMGRAD"> F  </i>
   <i type="logical" name="LHFONE"> F  </i>
   <i type="logical" name="LRHFCALC"> F  </i>
   <i type="logical" name="LTHOMAS"> F  </i>
   <i type="logical" name="LMODELHF"> F  </i>
   <i name="ENCUT4O">     -1.00000000</i>
   <i type="int" name="EXXOEP">     0</i>
   <i type="int" name="FOURORBIT">     0</i>
   <i name="AEXX">      0.00000000</i>
   <i name="HFALPHA">      0.00000000</i>
   <i name="MCALPHA">      0.00000000</i>
   <i name="ALDAX">      1.00000000</i>
   <i name="AGGAX">      1.00000000</i>
   <i name="ALDAC">      1.00000000</i>
   <i name="AGGAC">      1.00000000</i>
   <i type="int" name="NKREDX">     1</i>
   <i type="int" name="NKREDY">     1</i>
   <i type="int" name="NKREDZ">     1</i>
   <i type="logical" name="SHIFTRED"> F  </i>
   <i type="logical" name="ODDONLY"> F  </i>
   <i type="logical" name="EVENONLY"> F  </i>
   <i type="int" name="LMAXFOCK">     0</i>
   <i type="int" name="NMAXFOCKAE">     0</i>
   <i type="logical" name="LFOCKAEDFT"> F  </i>
   <i name="HFSCREEN">      0.00000000</i>
   <i name="HFSCREENC">      0.00000000</i>
   <i type="int" name="NBANDSGWLOW">     0</i>
  </separator>
  <separator name="vdW DFT" >
   <i type="logical" name="LUSE_VDW"> F  </i>
   <i name="Zab_VDW">     -0.84910000</i>
   <i name="PARAM1">      0.12340000</i>
   <i name="PARAM2">      1.00000000</i>
   <i name="PARAM3">      0.00000000</i>
  </separator>
  <separator name="model GW" >
   <i type="int" name="MODEL_GW">     0</i>
   <i name="MODEL_EPS0">     30.03447877</i>
   <i name="MODEL_ALPHA">      1.00000000</i>
  </separator>
  <separator name="linear response parameters" >
   <i type="logical" name="LEPSILON"> F  </i>
   <i type="logical" name="LRPA"> F  </i>
   <i type="logical" name="LNABLA"> F  </i>
   <i type="logical" name="LVEL"> F  </i>
   <i type="int" name="KINTER">     0</i>
   <i name="CSHIFT">      0.10000000</i>
   <i name="OMEGAMAX">     -1.00000000</i>
   <i name="DEG_THRESHOLD">      0.00200000</i>
   <i name="RTIME">     -0.10000000</i>
   <i name="WPLASMAI">      0.00000000</i>
   <v name="DFIELD">      0.00000000      0.00000000      0.00000000</v>
   <v name="WPLASMA">      0.00000000      0.00000000      0.00000000      0.00000000      0.00000000      0.00000000      0.00000000      0.00000000      0.00000000</v>
  </separator>
  <separator name="orbital magnetization" >
   <i type="logical" name="NUCIND"> F  </i>
   <v name="MAGPOS">      0.00000000      0.00000000      0.00000000</v>
   <i type="logical" name="LNICSALL"> T  </i>
   <i type="logical" name="ORBITALMAG"> F  </i>
   <i type="logical" name="LMAGBLOCH"> F  </i>
   <i type="logical" name="LCHIMAG"> F  </i>
   <i type="logical" name="LGAUGE"> T  </i>
   <i type="int" name="MAGATOM">     0</i>
   <v name="MAGDIPOL">      0.00000000      0.00000000      0.00000000</v>
   <v name="AVECCONST">      0.00000000      0.00000000      0.00000000</v>
  </separator>
  <separator name="response functions" >
   <i type="logical" name="LADDER"> F  </i>
   <i type="logical" name="LRPAFORCE"> F  </i>
   <i type="logical" name="LFXC"> F  </i>
   <i type="logical" name="LHARTREE"> T  </i>
   <i type="int" name="IBSE">     0</i>
   <v type="int" name="KPOINT">    -1     0     0     0</v>
   <i type="logical" name="LTCTE"> F  </i>
   <i type="logical" name="LTETE"> F  </i>
   <i type="logical" name="LTRIPLET"> F  </i>
   <i type="logical" name="LFXCEPS"> F  </i>
   <i type="logical" name="LFXHEG"> F  </i>
   <i type="int" name="NATURALO">     2</i>
   <i type="logical" name="L2ORDER"> F  </i>
   <i type="logical" name="LMP2LT"> F  </i>
   <i type="logical" name="LUSEW"> F  </i>
   <i name="ENCUTGW">     -2.00000000</i>
   <i name="ENCUTGWSOFT">     -2.00000000</i>
   <i name="ENCUTLF">     -1.00000000</i>
   <i type="int" name="LMAXMP2">    -1</i>
   <i name="SCISSOR">      0.00000000</i>
   <i type="int" name="NOMEGA">     0</i>
   <i type="int" name="NOMEGAR">     0</i>
   <i type="int" name="NBANDSGW">    -1</i>
   <i type="int" name="NBANDSO">    -1</i>
   <i type="int" name="NBANDSV">    -1</i>
   <i type="int" name="NELM">     1</i>
   <i type="int" name="NELMHF">     1</i>
   <i type="int" name="DIM">     3</i>
   <i type="int" name="ANTIRES">     0</i>
   <i name="OMEGAMAX">    -30.00000000</i>
   <i name="OMEGAMIN">    -30.00000000</i>
   <i name="OMEGATL">   -200.00000000</i>
   <i type="int" name="OMEGAGRID">   140</i>
   <i name="CSHIFT">     -0.10000000</i>
   <i type="logical" name="SELFENERGY"> F  </i>
   <i type="logical" name="LSPECTRAL"> F  </i>
   <i type="logical" name="LSPECTRALGW"> F  </i>
   <i type="logical" name="LSINGLES"> F  </i>
   <i type="logical" name="LFERMIGW"> F  </i>
   <i type="logical" name="ODDONLYGW"> F  </i>
   <i type="logical" name="EVENONLYGW"> F  </i>
   <i type="int" name="NKREDLFX">     1</i>
   <i type="int" name="NKREDLFY">     1</i>
   <i type="int" name="NKREDLFZ">     1</i>
   <i type="int" name="MAXMEM">  2800</i>
   <i type="int" name="TELESCOPE">     0</i>
   <i type="int" name="TAUPAR">     1</i>
   <i type="int" name="OMEGAPAR">    -1</i>
   <i name="LAMBDA">      1.00000000</i>
  </separator>
  <separator name="External order field" >
   <i name="OFIELD_KAPPA">      0.00000000</i>
   <v name="OFIELD_K">      0.00000000      0.00000000      0.00000000</v>
   <i name="OFIELD_Q6_NEAR">      0.00000000</i>
   <i name="OFIELD_Q6_FAR">      0.00000000</i>
   <i name="OFIELD_A">      0.00000000</i>
  </separator>
 </parameters>
 <atominfo>
  <atoms>      80 </atoms>
  <types>       3 </types>
  <array name="atoms" >
   <dimension dim="1">ion</dimension>
   <field type="string">element</field>
   <field type="int">atomtype</field>
   <set>
    <rc><c>Sc</c><c>   1</c></rc>
    <rc><c>Sc</c><c>   1</c></rc>
    <rc><c>Sc</c><c>   1</c></rc>
    <rc><c>Sc</c><c>   1</c></rc>
    <rc><c>Sc</c><c>   1</c></rc>
    <rc><c>Sc</c><c>   1</c></rc>
    <rc><c>Sc</c><c>   1</c></rc>
    <rc><c>Sc</c><c>   1</c></rc>
    <rc><c>Sc</c><c>   1</c></rc>
    <rc><c>Sc</c><c>   1</c></rc>
    <rc><c>Sc</c><c>   1</c></rc>
    <rc><c>Sc</c><c>   1</c></rc>
    <rc><c>Sc</c><c>   1</c></rc>
    <rc><c>Sc</c><c>   1</c></rc>
    <rc><c>Sc</c><c>   1</c></rc>
    <rc><c>Sc</c><c>   1</c></rc>
    <rc><c>Sc</c><c>   1</c></rc>
    <rc><c>Sc</c><c>   1</c></rc>
    <rc><c>Sc</c><c>   1</c></rc>
    <rc><c>Sc</c><c>   1</c></rc>
    <rc><c>Sc</c><c>   1</c></rc>
    <rc><c>Sc</c><c>   1</c></rc>
    <rc><c>Sc</c><c>   1</c></rc>
    <rc><c>Sc</c><c>   1</c></rc>
    <rc><c>Sc</c><c>   1</c></rc>
    <rc><c>Sc</c><c>   1</c></rc>
    <rc><c>Sc</c><c>   1</c></rc>
    <rc><c>Sc</c><c>   1</c></rc>
    <rc><c>Sc</c><c>   1</c></rc>
    <rc><c>Sc</c><c>   1</c></rc>
    <rc><c>Sc</c><c>   1</c></rc>
    <rc><c>Sc</c><c>   1</c></rc>
    <rc><c>F </c><c>   2</c></rc>
    <rc><c>F </c><c>   2</c></rc>
    <rc><c>F </c><c>   2</c></rc>
    <rc><c>F </c><c>   2</c></rc>
    <rc><c>F </c><c>   2</c></rc>
    <rc><c>F </c><c>   2</c></rc>
    <rc><c>F </c><c>   2</c></rc>
    <rc><c>F </c><c>   2</c></rc>
    <rc><c>F </c><c>   2</c></rc>
    <rc><c>F </c><c>   2</c></rc>
    <rc><c>F </c><c>   2</c></rc>
    <rc><c>F </c><c>   2</c></rc>
    <rc><c>F </c><c>   2</c></rc>
    <rc><c>F </c><c>   2</c></rc>
    <rc><c>F </c><c>   2</c></rc>
    <rc><c>F </c><c>   2</c></rc>
    <rc><c>F </c><c>   2</c></rc>
    <rc><c>F </c><c>   2</c></rc>
    <rc><c>F </c><c>   2</c></rc>
    <rc><c>F </c><c>   2</c></rc>
    <rc><c>F </c><c>   2</c></rc>
    <rc><c>F </c><c>   2</c></rc>
    <rc><c>F </c><c>   2</c></rc>
    <rc><c>F </c><c>   2</c></rc>
    <rc><c>F </c><c>   2</c></rc>
    <rc><c>F </c><c>   2</c></rc>
    <rc><c>F </c><c>   2</c></rc>
    <rc><c>F </c><c>   2</c></rc>
    <rc><c>F </c><c>   2</c></rc>
    <rc><c>F </c><c>   2</c></rc>
    <rc><c>F </c><c>   2</c></rc>
    <rc><c>F </c><c>   2</c></rc>
    <rc><c>C </c><c>   3</c></rc>
    <rc><c>C </c><c>   3</c></rc>
    <rc><c>C </c><c>   3</c></rc>
    <rc><c>C </c><c>   3</c></rc>
    <rc><c>C </c><c>   3</c></rc>
    <rc><c>C </c><c>   3</c></rc>
    <rc><c>C </c><c>   3</c></rc>
    <rc><c>C </c><c>   3</c></rc>
    <rc><c>C </c><c>   3</c></rc>
    <rc><c>C </c><c>   3</c></rc>
    <rc><c>C </c><c>   3</c></rc>
    <rc><c>C </c><c>   3</c></rc>
    <rc><c>C </c><c>   3</c></rc>
    <rc><c>C </c><c>   3</c></rc>
    <rc><c>C </c><c>   3</c></rc>
    <rc><c>C </c><c>   3</c></rc>
   </set>
  </array>
  <array name="atomtypes" >
   <dimension dim="1">type</dimension>
   <field type="int">atomspertype</field>
   <field type="string">element</field>
   <field>mass</field>
   <field>valence</field>
   <field type="string">pseudopotential</field>
   <set>
    <rc><c>  32</c><c>Sc</c><c>     44.95600000</c><c>     11.00000000</c><c>  PAW_PBE Sc_sv 07Sep2000               </c></rc>
    <rc><c>  32</c><c>F </c><c>     18.99800000</c><c>      7.00000000</c><c>  PAW_PBE F 08Apr2002                   </c></rc>
    <rc><c>  16</c><c>C </c><c>     12.01100000</c><c>      4.00000000</c><c>  PAW_PBE C 08Apr2002                   </c></rc>
   </set>
  </array>
 </atominfo>
 <structure name="initialpos" >
  <crystal>
   <varray name="basis" >
    <v>      13.12862340       0.00000000       0.00000000 </v>
    <v>      -6.56431170      11.36972138       0.00000000 </v>
    <v>       0.00000000       0.00000000      26.82809424 </v>
   </varray>
   <i name="volume">   4004.59716953 </i>
   <varray name="rec_basis" >
    <v>       0.07616945       0.04397645       0.00000000 </v>
    <v>       0.00000000       0.08795290       0.00000000 </v>
    <v>       0.00000000       0.00000000       0.03727436 </v>
   </varray>
  </crystal>
  <varray name="positions" >
   <v>       0.08909364       0.17427945       0.45438092 </v>
   <v>       0.08758361       0.41225698       0.45331343 </v>
   <v>       0.09289590       0.67720871       0.44910342 </v>
   <v>       0.09064289       0.92365976       0.45117521 </v>
   <v>       0.33568233       0.16613740       0.45231795 </v>
   <v>       0.33669994       0.41689791       0.45713908 </v>
   <v>       0.33765358       0.66994485       0.45039088 </v>
   <v>       0.33864508       0.91924514       0.45395142 </v>
   <v>       0.58535128       0.16669533       0.45624961 </v>
   <v>       0.58181567       0.41414931       0.45255983 </v>
   <v>       0.57539374       0.66266405       0.44864345 </v>
   <v>       0.58963674       0.91861192       0.45241153 </v>
   <v>       0.82805157       0.16749921       0.45749702 </v>
   <v>       0.83744672       0.41615240       0.45227915 </v>
   <v>       0.82966644       0.66340077       0.44990905 </v>
   <v>       0.83568416       0.91786327       0.44904454 </v>
   <v>       0.16793725       0.08357946       0.54309137 </v>
   <v>       0.16339174       0.33358274       0.55134833 </v>
   <v>       0.16639749       0.58580243       0.54668041 </v>
   <v>       0.15783513       0.83144743       0.54597915 </v>
   <v>       0.40942092       0.07651567       0.54543432 </v>
   <v>       0.41071988       0.32742191       0.54840742 </v>
   <v>       0.41594179       0.58534367       0.54837280 </v>
   <v>       0.41786652       0.83756942       0.54769224 </v>
   <v>       0.66917806       0.07819593       0.55069521 </v>
   <v>       0.66299939       0.33358389       0.54999054 </v>
   <v>       0.66166167       0.58483306       0.54486298 </v>
   <v>       0.67029627       0.83720688       0.54398770 </v>
   <v>       0.92019728       0.07800109       0.54435176 </v>
   <v>       0.91503080       0.33033728       0.54902086 </v>
   <v>       0.91700692       0.57991667       0.54723134 </v>
   <v>       0.91354385       0.82321995       0.54586685 </v>
   <v>       0.08140742       0.16255755       0.59031209 </v>
   <v>       0.09133313       0.43676018       0.59657390 </v>
   <v>       0.07234282       0.65106421       0.59401371 </v>
   <v>       0.07388281       0.90351399       0.58704794 </v>
   <v>       0.31330010       0.14480432       0.59152547 </v>
   <v>       0.32788764       0.42001713       0.59098726 </v>
   <v>       0.33288054       0.68159606       0.58939347 </v>
   <v>       0.32892192       0.91556829       0.59340318 </v>
   <v>       0.58945757       0.17037202       0.58967160 </v>
   <v>       0.57527269       0.41562545       0.59461293 </v>
   <v>       0.58300173       0.66507346       0.58847270 </v>
   <v>       0.58998385       0.91079105       0.58925766 </v>
   <v>       0.84683079       0.18009945       0.59412249 </v>
   <v>       0.84018850       0.41655794       0.58850758 </v>
   <v>       0.83625475       0.66189950       0.59010326 </v>
   <v>       0.84396078       0.90711803       0.58670866 </v>
   <v>       0.16761821       0.09366381       0.40853771 </v>
   <v>       0.18014022       0.34017280       0.41046389 </v>
   <v>       0.18061703       0.60005646       0.40933655 </v>
   <v>       0.18008066       0.84369878       0.41003961 </v>
   <v>       0.41408006       0.08213143       0.41224963 </v>
   <v>       0.41753661       0.32188672       0.41153557 </v>
   <v>       0.41707857       0.57328033       0.40896689 </v>
   <v>       0.42215457       0.83537527       0.41070604 </v>
   <v>       0.64651378       0.08497040       0.40868417 </v>
   <v>       0.67181518       0.33416679       0.41354006 </v>
   <v>       0.65460476       0.58717755       0.40800631 </v>
   <v>       0.65815880       0.83506913       0.41077634 </v>
   <v>       0.91263353       0.09147828       0.40993022 </v>
   <v>       0.90314585       0.32204613       0.40947199 </v>
   <v>       0.91269739       0.58770808       0.41431737 </v>
   <v>       0.89514576       0.82854866       0.40739407 </v>
   <v>       0.99788325       0.99911244       0.49670914 </v>
   <v>       0.00773753       0.25568385       0.50014486 </v>
   <v>       0.99794115       0.48897290       0.49546296 </v>
   <v>       0.00285679       0.75241128       0.49508149 </v>
   <v>       0.24481044       0.99949604       0.49801892 </v>
   <v>       0.25106458       0.25028225       0.50372041 </v>
   <v>       0.25508927       0.50795137       0.50162868 </v>
   <v>       0.25479385       0.75730533       0.49838987 </v>
   <v>       0.50527339       0.00681097       0.50167462 </v>
   <v>       0.50048920       0.24634207       0.50305931 </v>
   <v>       0.50104968       0.49905541       0.49979595 </v>
   <v>       0.50497484       0.74999113       0.49987080 </v>
   <v>       0.75518332       0.00499758       0.49874842 </v>
   <v>       0.75267002       0.25083866       0.50357447 </v>
   <v>       0.74034572       0.49618356       0.50117606 </v>
   <v>       0.74708826       0.75225694       0.49818938 </v>
  </varray>
  <varray name="velocities" >
   <v>       0.00000000       0.00000000       0.00000000 </v>
   <v>       0.00000000       0.00000000       0.00000000 </v>
   <v>       0.00000000       0.00000000       0.00000000 </v>
   <v>       0.00000000       0.00000000       0.00000000 </v>
   <v>       0.00000000       0.00000000       0.00000000 </v>
   <v>       0.00000000       0.00000000       0.00000000 </v>
   <v>       0.00000000       0.00000000       0.00000000 </v>
   <v>       0.00000000       0.00000000       0.00000000 </v>
   <v>       0.00000000       0.00000000       0.00000000 </v>
   <v>       0.00000000       0.00000000       0.00000000 </v>
   <v>       0.00000000       0.00000000       0.00000000 </v>
   <v>       0.00000000       0.00000000       0.00000000 </v>
   <v>       0.00000000       0.00000000       0.00000000 </v>
   <v>       0.00000000       0.00000000       0.00000000 </v>
   <v>       0.00000000       0.00000000       0.00000000 </v>
   <v>       0.00000000       0.00000000       0.00000000 </v>
   <v>       0.00000000       0.00000000       0.00000000 </v>
   <v>       0.00000000       0.00000000       0.00000000 </v>
   <v>       0.00000000       0.00000000       0.00000000 </v>
   <v>       0.00000000       0.00000000       0.00000000 </v>
   <v>       0.00000000       0.00000000       0.00000000 </v>
   <v>       0.00000000       0.00000000       0.00000000 </v>
   <v>       0.00000000       0.00000000       0.00000000 </v>
   <v>       0.00000000       0.00000000       0.00000000 </v>
   <v>       0.00000000       0.00000000       0.00000000 </v>
   <v>       0.00000000       0.00000000       0.00000000 </v>
   <v>       0.00000000       0.00000000       0.00000000 </v>
   <v>       0.00000000       0.00000000       0.00000000 </v>
   <v>       0.00000000       0.00000000       0.00000000 </v>
   <v>       0.00000000       0.00000000       0.00000000 </v>
   <v>       0.00000000       0.00000000       0.00000000 </v>
   <v>       0.00000000       0.00000000       0.00000000 </v>
   <v>       0.00000000       0.00000000       0.00000000 </v>
   <v>       0.00000000       0.00000000       0.00000000 </v>
   <v>       0.00000000       0.00000000       0.00000000 </v>
   <v>       0.00000000       0.00000000       0.00000000 </v>
   <v>       0.00000000       0.00000000       0.00000000 </v>
   <v>       0.00000000       0.00000000       0.00000000 </v>
   <v>       0.00000000       0.00000000       0.00000000 </v>
   <v>       0.00000000       0.00000000       0.00000000 </v>
   <v>       0.00000000       0.00000000       0.00000000 </v>
   <v>       0.00000000       0.00000000       0.00000000 </v>
   <v>       0.00000000       0.00000000       0.00000000 </v>
   <v>       0.00000000       0.00000000       0.00000000 </v>
   <v>       0.00000000       0.00000000       0.00000000 </v>
   <v>       0.00000000       0.00000000       0.00000000 </v>
   <v>       0.00000000       0.00000000       0.00000000 </v>
   <v>       0.00000000       0.00000000       0.00000000 </v>
   <v>       0.00000000       0.00000000       0.00000000 </v>
   <v>       0.00000000       0.00000000       0.00000000 </v>
   <v>       0.00000000       0.00000000       0.00000000 </v>
   <v>       0.00000000       0.00000000       0.00000000 </v>
   <v>       0.00000000       0.00000000       0.00000000 </v>
   <v>       0.00000000       0.00000000       0.00000000 </v>
   <v>       0.00000000       0.00000000       0.00000000 </v>
   <v>       0.00000000       0.00000000       0.00000000 </v>
   <v>       0.00000000       0.00000000       0.00000000 </v>
   <v>       0.00000000       0.00000000       0.00000000 </v>
   <v>       0.00000000       0.00000000       0.00000000 </v>
   <v>       0.00000000       0.00000000       0.00000000 </v>
   <v>       0.00000000       0.00000000       0.00000000 </v>
   <v>       0.00000000       0.00000000       0.00000000 </v>
   <v>       0.00000000       0.00000000       0.00000000 </v>
   <v>       0.00000000       0.00000000       0.00000000 </v>
   <v>       0.00000000       0.00000000       0.00000000 </v>
   <v>       0.00000000       0.00000000       0.00000000 </v>
   <v>       0.00000000       0.00000000       0.00000000 </v>
   <v>       0.00000000       0.00000000       0.00000000 </v>
   <v>       0.00000000       0.00000000       0.00000000 </v>
   <v>       0.00000000       0.00000000       0.00000000 </v>
   <v>       0.00000000       0.00000000       0.00000000 </v>
   <v>       0.00000000       0.00000000       0.00000000 </v>
   <v>       0.00000000       0.00000000       0.00000000 </v>
   <v>       0.00000000       0.00000000       0.00000000 </v>
   <v>       0.00000000       0.00000000       0.00000000 </v>
   <v>       0.00000000       0.00000000       0.00000000 </v>
   <v>       0.00000000       0.00000000       0.00000000 </v>
   <v>       0.00000000       0.00000000       0.00000000 </v>
   <v>       0.00000000       0.00000000       0.00000000 </v>
   <v>       0.00000000       0.00000000       0.00000000 </v>
  </varray>
 </structure>
 <calculation>
  <scstep>
   <time name="dav">   45.61   45.61</time>
   <time name="total">   46.43   46.44</time>
   <energy>
    <i name="alphaZ">    871.83850952 </i>
    <i name="ewald"> 287622.39706915 </i>
    <i name="hartreedc">-341960.72451604 </i>
    <i name="XCdc">   3043.68961443 </i>
    <i name="pawpsdc">  50525.51240023 </i>
    <i name="pawaedc"> -50422.77561733 </i>
    <i name="eentropy">     -0.08429171 </i>
    <i name="bandstr">   -221.14306067 </i>
    <i name="atom">  64207.43592568 </i>
    <i name="e_fr_energy">  13666.14603326 </i>
    <i name="e_wo_entrp">  13666.23032497 </i>
    <i name="e_0_energy">  13666.18817911 </i>
   </energy>
  </scstep>
  <scstep>
   <time name="dav">   49.35   49.37</time>
   <time name="total">   49.35   49.37</time>
   <energy>
    <i name="e_fr_energy">   2494.80908005 </i>
    <i name="e_wo_entrp">   2494.86192485 </i>
    <i name="e_0_energy">   2494.83550245 </i>
   </energy>
  </scstep>
  <scstep>
   <time name="dav">   66.55   66.55</time>
   <time name="total">   66.55   66.55</time>
   <energy>
    <i name="e_fr_energy">   -382.09716109 </i>
    <i name="e_wo_entrp">   -382.09716109 </i>
    <i name="e_0_energy">   -382.09716109 </i>
   </energy>
  </scstep>
  <scstep>
   <time name="dav">   60.57   60.59</time>
   <time name="total">   60.58   60.59</time>
   <energy>
    <i name="e_fr_energy">   -741.08668275 </i>
    <i name="e_wo_entrp">   -741.08668275 </i>
    <i name="e_0_energy">   -741.08668275 </i>
   </energy>
  </scstep>
  <scstep>
   <time name="dav">   60.82   60.84</time>
   <time name="total">   64.35   64.37</time>
   <energy>
    <i name="e_fr_energy">   -755.47020666 </i>
    <i name="e_wo_entrp">   -755.47020666 </i>
    <i name="e_0_energy">   -755.47020666 </i>
   </energy>
  </scstep>
  <scstep>
   <time name="dav">   57.34   57.34</time>
   <time name="total">   61.83   61.84</time>
   <energy>
    <i name="e_fr_energy">   -599.81096467 </i>
    <i name="e_wo_entrp">   -599.81096467 </i>
    <i name="e_0_energy">   -599.81096467 </i>
   </energy>
  </scstep>
  <scstep>
   <time name="dav">   59.53   59.53</time>
   <time name="total">   63.82   63.84</time>
   <energy>
    <i name="e_fr_energy">   -599.87605374 </i>
    <i name="e_wo_entrp">   -599.87605374 </i>
    <i name="e_0_energy">   -599.87605374 </i>
   </energy>
  </scstep>
  <scstep>
   <time name="dav">   56.72   56.72</time>
   <time name="total">   61.18   61.19</time>
   <energy>
    <i name="e_fr_energy">   -598.29345790 </i>
    <i name="e_wo_entrp">   -598.29345790 </i>
    <i name="e_0_energy">   -598.29345790 </i>
   </energy>
  </scstep>
  <scstep>
   <time name="dav">   57.29   57.29</time>
   <time name="total">   61.68   61.70</time>
   <energy>
    <i name="e_fr_energy">   -597.76059294 </i>
    <i name="e_wo_entrp">   -597.76059294 </i>
    <i name="e_0_energy">   -597.76059294 </i>
   </energy>
  </scstep>
  <scstep>
   <time name="dav">   59.78   59.79</time>
   <time name="total">   64.33   64.35</time>
   <energy>
    <i name="e_fr_energy">   -597.72248088 </i>
    <i name="e_wo_entrp">   -597.72248088 </i>
    <i name="e_0_energy">   -597.72248088 </i>
   </energy>
  </scstep>
  <scstep>
   <time name="dav">   57.20   57.20</time>
   <time name="total">   61.65   61.66</time>
   <energy>
    <i name="e_fr_energy">   -597.59249151 </i>
    <i name="e_wo_entrp">   -597.59249151 </i>
    <i name="e_0_energy">   -597.59249151 </i>
   </energy>
  </scstep>
  <scstep>
   <time name="dav">   60.77   60.77</time>
   <time name="total">   65.20   65.21</time>
   <energy>
    <i name="e_fr_energy">   -597.56798971 </i>
    <i name="e_wo_entrp">   -597.56798971 </i>
    <i name="e_0_energy">   -597.56798971 </i>
   </energy>
  </scstep>
  <scstep>
   <time name="dav">   59.99   60.00</time>
   <time name="total">   64.49   64.51</time>
   <energy>
    <i name="e_fr_energy">   -597.55879096 </i>
    <i name="e_wo_entrp">   -597.55879096 </i>
    <i name="e_0_energy">   -597.55879096 </i>
   </energy>
  </scstep>
  <scstep>
   <time name="dav">   57.46   57.46</time>
   <time name="total">   61.93   61.94</time>
   <energy>
    <i name="e_fr_energy">   -597.55602832 </i>
    <i name="e_wo_entrp">   -597.55602832 </i>
    <i name="e_0_energy">   -597.55602832 </i>
   </energy>
  </scstep>
  <scstep>
   <time name="dav">   59.06   59.06</time>
   <time name="total">   63.54   63.56</time>
   <energy>
    <i name="e_fr_energy">   -597.56208111 </i>
    <i name="e_wo_entrp">   -597.56208111 </i>
    <i name="e_0_energy">   -597.56208111 </i>
   </energy>
  </scstep>
  <scstep>
   <time name="dav">   55.87   55.88</time>
   <time name="total">   60.33   60.34</time>
   <energy>
    <i name="e_fr_energy">   -597.56544956 </i>
    <i name="e_wo_entrp">   -597.56544956 </i>
    <i name="e_0_energy">   -597.56544956 </i>
   </energy>
  </scstep>
  <scstep>
   <time name="dav">   60.86   60.86</time>
   <time name="total">   65.30   65.32</time>
   <energy>
    <i name="e_fr_energy">   -597.57163868 </i>
    <i name="e_wo_entrp">   -597.57163868 </i>
    <i name="e_0_energy">   -597.57163868 </i>
   </energy>
  </scstep>
  <scstep>
   <time name="dav">   56.44   56.44</time>
   <time name="total">   60.88   60.89</time>
   <energy>
    <i name="e_fr_energy">   -597.57434764 </i>
    <i name="e_wo_entrp">   -597.57434764 </i>
    <i name="e_0_energy">   -597.57434764 </i>
   </energy>
  </scstep>
  <scstep>
   <time name="dav">   62.35   62.35</time>
   <time name="total">   66.83   66.84</time>
   <energy>
    <i name="e_fr_energy">   -597.57602158 </i>
    <i name="e_wo_entrp">   -597.57602158 </i>
    <i name="e_0_energy">   -597.57602158 </i>
   </energy>
  </scstep>
  <scstep>
   <time name="dav">   55.24   55.24</time>
   <time name="total">   59.63   59.65</time>
   <energy>
    <i name="e_fr_energy">   -597.57883315 </i>
    <i name="e_wo_entrp">   -597.57883315 </i>
    <i name="e_0_energy">   -597.57883315 </i>
   </energy>
  </scstep>
  <scstep>
   <time name="dav">   44.68   44.68</time>
   <time name="total">   49.11   49.11</time>
   <energy>
    <i name="e_fr_energy">   -597.58139007 </i>
    <i name="e_wo_entrp">   -597.58139007 </i>
    <i name="e_0_energy">   -597.58139007 </i>
   </energy>
  </scstep>
  <scstep>
   <time name="dav">   50.96   50.96</time>
   <time name="total">   55.42   55.43</time>
   <energy>
    <i name="e_fr_energy">   -597.58248233 </i>
    <i name="e_wo_entrp">   -597.58248233 </i>
    <i name="e_0_energy">   -597.58248233 </i>
   </energy>
  </scstep>
  <scstep>
   <time name="dav">   53.58   53.58</time>
   <time name="total">   58.05   58.05</time>
   <energy>
    <i name="e_fr_energy">   -597.58286135 </i>
    <i name="e_wo_entrp">   -597.58286135 </i>
    <i name="e_0_energy">   -597.58286135 </i>
   </energy>
  </scstep>
  <scstep>
   <time name="dav">   47.89   47.89</time>
   <time name="total">   52.37   52.38</time>
   <energy>
    <i name="e_fr_energy">   -597.58312975 </i>
    <i name="e_wo_entrp">   -597.58312975 </i>
    <i name="e_0_energy">   -597.58312975 </i>
   </energy>
  </scstep>
  <scstep>
   <time name="dav">   43.98   43.98</time>
   <time name="total">   48.43   48.44</time>
   <energy>
    <i name="e_fr_energy">   -597.58335111 </i>
    <i name="e_wo_entrp">   -597.58335111 </i>
    <i name="e_0_energy">   -597.58335111 </i>
   </energy>
  </scstep>
  <scstep>
   <time name="dav">   36.98   36.98</time>
   <time name="total">   41.45   41.46</time>
   <energy>
    <i name="e_fr_energy">   -597.58341456 </i>
    <i name="e_wo_entrp">   -597.58341456 </i>
    <i name="e_0_energy">   -597.58341456 </i>
   </energy>
  </scstep>
  <scstep>
   <time name="dav">   33.36   33.36</time>
   <time name="total">   37.77   37.77</time>
   <energy>
    <i name="e_fr_energy">   -597.58344376 </i>
    <i name="e_wo_entrp">   -597.58344376 </i>
    <i name="e_0_energy">   -597.58344376 </i>
   </energy>
  </scstep>
  <scstep>
   <time name="dav">   34.72   34.73</time>
   <time name="total">   39.23   39.24</time>
   <energy>
    <i name="e_fr_energy">   -597.58346300 </i>
    <i name="e_wo_entrp">   -597.58346300 </i>
    <i name="e_0_energy">   -597.58346300 </i>
   </energy>
  </scstep>
  <scstep>
   <time name="dav">   33.21   33.21</time>
   <time name="total">   37.67   37.68</time>
   <energy>
    <i name="e_fr_energy">   -597.58347129 </i>
    <i name="e_wo_entrp">   -597.58347129 </i>
    <i name="e_0_energy">   -597.58347129 </i>
   </energy>
  </scstep>
  <scstep>
   <time name="dav">   32.71   32.71</time>
   <time name="total">   37.15   37.16</time>
   <energy>
    <i name="e_fr_energy">   -597.58347591 </i>
    <i name="e_wo_entrp">   -597.58347591 </i>
    <i name="e_0_energy">   -597.58347591 </i>
   </energy>
  </scstep>
  <scstep>
   <time name="dav">   32.23   32.23</time>
   <time name="total">   33.02   33.02</time>
   <energy>
    <i name="alphaZ">    871.83850952 </i>
    <i name="ewald"> 287622.39706915 </i>
    <i name="hartreedc">-343194.41091207 </i>
    <i name="XCdc">   3055.02637493 </i>
    <i name="pawpsdc">  66383.58257788 </i>
    <i name="pawaedc"> -66377.25381327 </i>
    <i name="eentropy">     -0.00000000 </i>
    <i name="bandstr"> -13166.19920863 </i>
    <i name="atom">  64207.43592568 </i>
    <i name="e_fr_energy">   -597.58347681 </i>
    <i name="e_wo_entrp">   -597.58347681 </i>
    <i name="e_0_energy">   -597.58347681 </i>
   </energy>
  </scstep>
  <structure>
   <crystal>
    <varray name="basis" >
     <v>      13.12862340       0.00000000       0.00000000 </v>
     <v>      -6.56431170      11.36972138       0.00000000 </v>
     <v>       0.00000000       0.00000000      26.82809424 </v>
    </varray>
    <i name="volume">   4004.59716953 </i>
    <varray name="rec_basis" >
     <v>       0.07616945       0.04397645       0.00000000 </v>
     <v>       0.00000000       0.08795290       0.00000000 </v>
     <v>       0.00000000       0.00000000       0.03727436 </v>
    </varray>
   </crystal>
   <varray name="positions" >
    <v>       0.08909364       0.17427945       0.45438092 </v>
    <v>       0.08758361       0.41225698       0.45331343 </v>
    <v>       0.09289590       0.67720871       0.44910342 </v>
    <v>       0.09064289       0.92365976       0.45117521 </v>
    <v>       0.33568233       0.16613740       0.45231795 </v>
    <v>       0.33669994       0.41689791       0.45713908 </v>
    <v>       0.33765358       0.66994485       0.45039088 </v>
    <v>       0.33864508       0.91924514       0.45395142 </v>
    <v>       0.58535128       0.16669533       0.45624961 </v>
    <v>       0.58181567       0.41414931       0.45255983 </v>
    <v>       0.57539374       0.66266405       0.44864345 </v>
    <v>       0.58963674       0.91861192       0.45241153 </v>
    <v>       0.82805157       0.16749921       0.45749702 </v>
    <v>       0.83744672       0.41615240       0.45227915 </v>
    <v>       0.82966644       0.66340077       0.44990905 </v>
    <v>       0.83568416       0.91786327       0.44904454 </v>
    <v>       0.16793725       0.08357946       0.54309137 </v>
    <v>       0.16339174       0.33358274       0.55134833 </v>
    <v>       0.16639749       0.58580243       0.54668041 </v>
    <v>       0.15783513       0.83144743       0.54597915 </v>
    <v>       0.40942092       0.07651567       0.54543432 </v>
    <v>       0.41071988       0.32742191       0.54840742 </v>
    <v>       0.41594179       0.58534367       0.54837280 </v>
    <v>       0.41786652       0.83756942       0.54769224 </v>
    <v>       0.66917806       0.07819593       0.55069521 </v>
    <v>       0.66299939       0.33358389       0.54999054 </v>
    <v>       0.66166167       0.58483306       0.54486298 </v>
    <v>       0.67029627       0.83720688       0.54398770 </v>
    <v>       0.92019728       0.07800109       0.54435176 </v>
    <v>       0.91503080       0.33033728       0.54902086 </v>
    <v>       0.91700692       0.57991667       0.54723134 </v>
    <v>       0.91354385       0.82321995       0.54586685 </v>
    <v>       0.08140742       0.16255755       0.59031209 </v>
    <v>       0.09133313       0.43676018       0.59657390 </v>
    <v>       0.07234282       0.65106421       0.59401371 </v>
    <v>       0.07388281       0.90351399       0.58704794 </v>
    <v>       0.31330010       0.14480432       0.59152547 </v>
    <v>       0.32788764       0.42001713       0.59098726 </v>
    <v>       0.33288054       0.68159606       0.58939347 </v>
    <v>       0.32892192       0.91556829       0.59340318 </v>
    <v>       0.58945757       0.17037202       0.58967160 </v>
    <v>       0.57527269       0.41562545       0.59461293 </v>
    <v>       0.58300173       0.66507346       0.58847270 </v>
    <v>       0.58998385       0.91079105       0.58925766 </v>
    <v>       0.84683079       0.18009945       0.59412249 </v>
    <v>       0.84018850       0.41655794       0.58850758 </v>
    <v>       0.83625475       0.66189950       0.59010326 </v>
    <v>       0.84396078       0.90711803       0.58670866 </v>
    <v>       0.16761821       0.09366381       0.40853771 </v>
    <v>       0.18014022       0.34017280       0.41046389 </v>
    <v>       0.18061703       0.60005646       0.40933655 </v>
    <v>       0.18008066       0.84369878       0.41003961 </v>
    <v>       0.41408006       0.08213143       0.41224963 </v>
    <v>       0.41753661       0.32188672       0.41153557 </v>
    <v>       0.41707857       0.57328033       0.40896689 </v>
    <v>       0.42215457       0.83537527       0.41070604 </v>
    <v>       0.64651378       0.08497040       0.40868417 </v>
    <v>       0.67181518       0.33416679       0.41354006 </v>
    <v>       0.65460476       0.58717755       0.40800631 </v>
    <v>       0.65815880       0.83506913       0.41077634 </v>
    <v>       0.91263353       0.09147828       0.40993022 </v>
    <v>       0.90314585       0.32204613       0.40947199 </v>
    <v>       0.91269739       0.58770808       0.41431737 </v>
    <v>       0.89514576       0.82854866       0.40739407 </v>
    <v>       0.99788325       0.99911244       0.49670914 </v>
    <v>       0.00773753       0.25568385       0.50014486 </v>
    <v>       0.99794115       0.48897290       0.49546296 </v>
    <v>       0.00285679       0.75241128       0.49508149 </v>
    <v>       0.24481044       0.99949604       0.49801892 </v>
    <v>       0.25106458       0.25028225       0.50372041 </v>
    <v>       0.25508927       0.50795137       0.50162868 </v>
    <v>       0.25479385       0.75730533       0.49838987 </v>
    <v>       0.50527339       0.00681097       0.50167462 </v>
    <v>       0.50048920       0.24634207       0.50305931 </v>
    <v>       0.50104968       0.49905541       0.49979595 </v>
    <v>       0.50497484       0.74999113       0.49987080 </v>
    <v>       0.75518332       0.00499758       0.49874842 </v>
    <v>       0.75267002       0.25083866       0.50357447 </v>
    <v>       0.74034572       0.49618356       0.50117606 </v>
    <v>       0.74708826       0.75225694       0.49818938 </v>
   </varray>
  </structure>
  <varray name="forces" >
   <v>      -0.42603431      -0.60654559      -0.75528276 </v>
   <v>      -0.65419833       0.65335119      -0.07255586 </v>
   <v>      -0.13944108      -0.84965567       0.64632795 </v>
   <v>      -0.83388759      -0.42055408      -0.41878082 </v>
   <v>      -0.03278137       0.04312944       0.16787860 </v>
   <v>      -0.29231924       0.05041602      -0.49064001 </v>
   <v>      -0.02722772      -0.06060982       0.91467068 </v>
   <v>       0.14664276      -0.02331879      -0.39150831 </v>
   <v>      -0.13685307       0.39495284      -0.15725131 </v>
   <v>       0.18505207       0.06351907       0.50427536 </v>
   <v>       0.58146141       0.63715287       1.20577841 </v>
   <v>      -1.01786764       0.18104178       0.20926167 </v>
   <v>       0.69830934       0.47984577      -1.37094990 </v>
   <v>      -0.26135946      -0.32865791       0.41137276 </v>
   <v>      -0.78864852       0.51426598       0.80990868 </v>
   <v>      -0.27570254       0.23470179       0.41118793 </v>
   <v>      -0.62634622      -0.45876945       1.35372035 </v>
   <v>       0.13534718       0.21189956      -0.05456577 </v>
   <v>       0.06990902      -0.13558886      -0.01226752 </v>
   <v>       1.00567023      -0.03589700       0.01817776 </v>
   <v>       0.41084028       0.61704284       1.26414257 </v>
   <v>       0.64376314       0.53704438       0.63658598 </v>
   <v>       0.12340097       0.30792920      -0.09491589 </v>
   <v>       0.06084276      -0.22390682      -0.16146592 </v>
   <v>      -0.55148704       1.07386067      -0.18180774 </v>
   <v>       0.17048594       0.03979903       0.02388295 </v>
   <v>       0.49845986      -0.14383898       0.48117746 </v>
   <v>       0.54004467      -1.09025596       0.30071091 </v>
   <v>       0.06718154       0.35032241       0.78195110 </v>
   <v>       0.20355252       0.56594762      -0.11864615 </v>
   <v>      -0.21981207      -0.30299320      -0.55482226 </v>
   <v>      -0.38263596       0.34143541      -0.76990967 </v>
   <v>      -0.07010689       0.05789537      -0.21643090 </v>
   <v>       0.21378687      -0.60175235      -0.82830979 </v>
   <v>      -0.08250963       0.50566998      -0.88833209 </v>
   <v>       0.03372206       0.35646061       0.29448838 </v>
   <v>       0.39337363       0.54901178      -0.22432020 </v>
   <v>       0.31611978      -0.05469372       0.10357031 </v>
   <v>       0.27008959      -0.54755752       0.11076311 </v>
   <v>       0.02924120       0.00143034      -0.71390069 </v>
   <v>      -0.13270344      -0.37887039       0.31641751 </v>
   <v>       0.11260965      -0.05912263      -0.58579378 </v>
   <v>      -0.11413978       0.19678669       0.15381568 </v>
   <v>      -0.37775736       0.32689424       0.29526600 </v>
   <v>      -0.04589582      -0.77773436      -0.30509890 </v>
   <v>      -0.42876062       0.24772114       0.28619556 </v>
   <v>      -0.04568301       0.14175672      -0.31269334 </v>
   <v>      -0.82311834       0.61623393       0.36171209 </v>
   <v>       0.32251685      -0.19261889       0.15129043 </v>
   <v>      -0.21240626      -0.22425530       0.08433777 </v>
   <v>      -0.13128865      -0.45458862      -0.39936878 </v>
   <v>      -0.28447816      -0.20022225      -0.46622364 </v>
   <v>       0.13325803       0.19897737      -0.21524369 </v>
   <v>      -0.28151359       0.50221812      -0.24725090 </v>
   <v>      -0.48304841       0.15907074      -0.11038297 </v>
   <v>      -0.05425229       0.12316550      -0.11738653 </v>
   <v>       0.95462993      -0.27423120       0.18226661 </v>
   <v>      -0.37593120      -0.10597039      -0.40705434 </v>
   <v>       0.86308588      -0.49470963      -0.23382654 </v>
   <v>       0.48635849      -0.10571614      -0.63715335 </v>
   <v>       0.25315805      -0.12761037       0.14223489 </v>
   <v>       0.27703268       0.28792460       0.01975260 </v>
   <v>       0.60687091      -0.40554823      -1.07756800 </v>
   <v>       0.86759118      -0.22661890      -0.42694706 </v>
   <v>       0.39155556       0.20188588      -0.02346686 </v>
   <v>      -0.16452109      -0.55381190       0.47908698 </v>
   <v>      -0.02947549       1.59972877       0.96459899 </v>
   <v>      -0.00125763      -0.35759644       0.64023738 </v>
   <v>       0.62360828      -0.09108235       0.20491326 </v>
   <v>      -0.19482837       0.17940166      -0.69085035 </v>
   <v>      -0.09150654      -0.66800482      -0.29041565 </v>
   <v>      -0.23880372      -0.46307553       0.35303108 </v>
   <v>      -0.01629741      -1.02386929       0.37138461 </v>
   <v>      -0.86884232       0.21135363      -0.32321159 </v>
   <v>      -0.56981890      -0.30054812       0.10600623 </v>
   <v>      -0.83721053       0.32470808      -0.33006815 </v>
   <v>      -0.39827636      -0.52221889       0.65235903 </v>
   <v>      -0.20073464      -0.26849378      -0.17862892 </v>
   <v>       0.92695006       0.53232202      -0.37751026 </v>
   <v>       0.60524623      -0.45716090      -0.18193248 </v>
  </varray>
  <varray name="stress" >
   <v>       3.34574349      -0.80439450      -0.83080305 </v>
   <v>      -0.80439448       2.85466684       2.39446493 </v>
   <v>      -0.83080305       2.39446489       0.55754737 </v>
  </varray>
  <energy>
   <i name="e_fr_energy">   -597.58347681 </i>
   <i name="e_wo_entrp">   -597.58347681 </i>
   <i name="e_0_energy">     -0.00000000 </i>
  </energy>
  <time name="totalsc"> 1784.94 1785.30</time>
  <eigenvalues>
   <array>
    <dimension dim="1">band</dimension>
    <dimension dim="2">kpoint</dimension>
    <dimension dim="3">spin</dimension>
    <field>eigene</field>
    <field>occ</field>
    <set>
     <set comment="spin 1">
      <set comment="kpoint 1">
       <r>  -51.8107    1.0000 </r>
       <r>  -51.7130    1.0000 </r>
       <r>  -51.6755    1.0000 </r>
       <r>  -51.6230    1.0000 </r>
       <r>  -51.6211    1.0000 </r>
       <r>  -51.6199    1.0000 </r>
       <r>  -51.6082    1.0000 </r>
       <r>  -51.5683    1.0000 </r>
       <r>  -51.5517    1.0000 </r>
       <r>  -51.5157    1.0000 </r>
       <r>  -51.4886    1.0000 </r>
       <r>  -51.4786    1.0000 </r>
       <r>  -51.4717    1.0000 </r>
       <r>  -51.4511    1.0000 </r>
       <r>  -51.4384    1.0000 </r>
       <r>  -51.4364    1.0000 </r>
       <r>  -51.4354    1.0000 </r>
       <r>  -51.4076    1.0000 </r>
       <r>  -51.3920    1.0000 </r>
       <r>  -51.3844    1.0000 </r>
       <r>  -51.3822    1.0000 </r>
       <r>  -51.3717    1.0000 </r>
       <r>  -51.3468    1.0000 </r>
       <r>  -51.3155    1.0000 </r>
       <r>  -51.2921    1.0000 </r>
       <r>  -51.2839    1.0000 </r>
       <r>  -51.2570    1.0000 </r>
       <r>  -51.1543    1.0000 </r>
       <r>  -51.1529    1.0000 </r>
       <r>  -51.1465    1.0000 </r>
       <r>  -51.1274    1.0000 </r>
       <r>  -51.0883    1.0000 </r>
       <r>  -30.7225    1.0000 </r>
       <r>  -30.6934    1.0000 </r>
       <r>  -30.6571    1.0000 </r>
       <r>  -30.6401    1.0000 </r>
       <r>  -30.6195    1.0000 </r>
       <r>  -30.6154    1.0000 </r>
       <r>  -30.5937    1.0000 </r>
       <r>  -30.5788    1.0000 </r>
       <r>  -30.5646    1.0000 </r>
       <r>  -30.5588    1.0000 </r>
       <r>  -30.5548    1.0000 </r>
       <r>  -30.5378    1.0000 </r>
       <r>  -30.5204    1.0000 </r>
       <r>  -30.5053    1.0000 </r>
       <r>  -30.4989    1.0000 </r>
       <r>  -30.4959    1.0000 </r>
       <r>  -30.4831    1.0000 </r>
       <r>  -30.4655    1.0000 </r>
       <r>  -30.4409    1.0000 </r>
       <r>  -30.4248    1.0000 </r>
       <r>  -30.4178    1.0000 </r>
       <r>  -30.4043    1.0000 </r>
       <r>  -30.3949    1.0000 </r>
       <r>  -30.3840    1.0000 </r>
       <r>  -30.3665    1.0000 </r>
       <r>  -30.3616    1.0000 </r>
       <r>  -30.3426    1.0000 </r>
       <r>  -30.3267    1.0000 </r>
       <r>  -30.3172    1.0000 </r>
       <r>  -30.3082    1.0000 </r>
       <r>  -30.2942    1.0000 </r>
       <r>  -30.2742    1.0000 </r>
       <r>  -30.2676    1.0000 </r>
       <r>  -30.2552    1.0000 </r>
       <r>  -30.2408    1.0000 </r>
       <r>  -30.2361    1.0000 </r>
       <r>  -30.2337    1.0000 </r>
       <r>  -30.2262    1.0000 </r>
       <r>  -30.2230    1.0000 </r>
       <r>  -30.2159    1.0000 </r>
       <r>  -30.2131    1.0000 </r>
       <r>  -30.1966    1.0000 </r>
       <r>  -30.1943    1.0000 </r>
       <r>  -30.1841    1.0000 </r>
       <r>  -30.1826    1.0000 </r>
       <r>  -30.1752    1.0000 </r>
       <r>  -30.1704    1.0000 </r>
       <r>  -30.1639    1.0000 </r>
       <r>  -30.1546    1.0000 </r>
       <r>  -30.1504    1.0000 </r>
       <r>  -30.1452    1.0000 </r>
       <r>  -30.1433    1.0000 </r>
       <r>  -30.1372    1.0000 </r>
       <r>  -30.1259    1.0000 </r>
       <r>  -30.1252    1.0000 </r>
       <r>  -30.1096    1.0000 </r>
       <r>  -30.1058    1.0000 </r>
       <r>  -30.1018    1.0000 </r>
       <r>  -30.0900    1.0000 </r>
       <r>  -30.0866    1.0000 </r>
       <r>  -30.0840    1.0000 </r>
       <r>  -30.0725    1.0000 </r>
       <r>  -30.0625    1.0000 </r>
       <r>  -30.0618    1.0000 </r>
       <r>  -30.0464    1.0000 </r>
       <r>  -30.0412    1.0000 </r>
       <r>  -30.0386    1.0000 </r>
       <r>  -30.0145    1.0000 </r>
       <r>  -30.0093    1.0000 </r>
       <r>  -29.9999    1.0000 </r>
       <r>  -29.9954    1.0000 </r>
       <r>  -29.9876    1.0000 </r>
       <r>  -29.9741    1.0000 </r>
       <r>  -29.9695    1.0000 </r>
       <r>  -29.9655    1.0000 </r>
       <r>  -29.9454    1.0000 </r>
       <r>  -29.9359    1.0000 </r>
       <r>  -29.9357    1.0000 </r>
       <r>  -29.9255    1.0000 </r>
       <r>  -29.9187    1.0000 </r>
       <r>  -29.8969    1.0000 </r>
       <r>  -29.8900    1.0000 </r>
       <r>  -29.8745    1.0000 </r>
       <r>  -29.8609    1.0000 </r>
       <r>  -29.8471    1.0000 </r>
       <r>  -29.8436    1.0000 </r>
       <r>  -29.8391    1.0000 </r>
       <r>  -29.8185    1.0000 </r>
       <r>  -29.8165    1.0000 </r>
       <r>  -29.8101    1.0000 </r>
       <r>  -29.8016    1.0000 </r>
       <r>  -29.7885    1.0000 </r>
       <r>  -29.7805    1.0000 </r>
       <r>  -29.7599    1.0000 </r>
       <r>  -29.7437    1.0000 </r>
       <r>  -29.7185    1.0000 </r>
       <r>  -26.9994    1.0000 </r>
       <r>  -26.9142    1.0000 </r>
       <r>  -26.8901    1.0000 </r>
       <r>  -26.8481    1.0000 </r>
       <r>  -26.8131    1.0000 </r>
       <r>  -26.7739    1.0000 </r>
       <r>  -26.7388    1.0000 </r>
       <r>  -26.7063    1.0000 </r>
       <r>  -26.6900    1.0000 </r>
       <r>  -26.6790    1.0000 </r>
       <r>  -26.6629    1.0000 </r>
       <r>  -26.6583    1.0000 </r>
       <r>  -26.6354    1.0000 </r>
       <r>  -26.6265    1.0000 </r>
       <r>  -26.6163    1.0000 </r>
       <r>  -26.6039    1.0000 </r>
       <r>  -26.5856    1.0000 </r>
       <r>  -26.5681    1.0000 </r>
       <r>  -26.5596    1.0000 </r>
       <r>  -26.5138    1.0000 </r>
       <r>  -26.4900    1.0000 </r>
       <r>  -26.4395    1.0000 </r>
       <r>  -26.4049    1.0000 </r>
       <r>  -26.3703    1.0000 </r>
       <r>  -26.3463    1.0000 </r>
       <r>  -26.3230    1.0000 </r>
       <r>  -26.3044    1.0000 </r>
       <r>  -26.2932    1.0000 </r>
       <r>  -26.2573    1.0000 </r>
       <r>  -26.1661    1.0000 </r>
       <r>  -26.1263    1.0000 </r>
       <r>  -26.1038    1.0000 </r>
       <r>  -12.0549    1.0000 </r>
       <r>  -11.6937    1.0000 </r>
       <r>  -11.6470    1.0000 </r>
       <r>  -11.6033    1.0000 </r>
       <r>  -11.5948    1.0000 </r>
       <r>  -11.5590    1.0000 </r>
       <r>  -11.5280    1.0000 </r>
       <r>  -11.1356    1.0000 </r>
       <r>  -11.0711    1.0000 </r>
       <r>  -11.0326    1.0000 </r>
       <r>  -11.0142    1.0000 </r>
       <r>  -10.9902    1.0000 </r>
       <r>  -10.9670    1.0000 </r>
       <r>  -10.9205    1.0000 </r>
       <r>  -10.8722    1.0000 </r>
       <r>  -10.8564    1.0000 </r>
       <r>   -9.3479    1.0000 </r>
       <r>   -9.3305    1.0000 </r>
       <r>   -9.2828    1.0000 </r>
       <r>   -9.2365    1.0000 </r>
       <r>   -9.1900    1.0000 </r>
       <r>   -9.1646    1.0000 </r>
       <r>   -9.1292    1.0000 </r>
       <r>   -9.1226    1.0000 </r>
       <r>   -9.0933    1.0000 </r>
       <r>   -9.0667    1.0000 </r>
       <r>   -9.0451    1.0000 </r>
       <r>   -9.0187    1.0000 </r>
       <r>   -8.9943    1.0000 </r>
       <r>   -8.9635    1.0000 </r>
       <r>   -8.9600    1.0000 </r>
       <r>   -8.9507    1.0000 </r>
       <r>   -8.9445    1.0000 </r>
       <r>   -8.9343    1.0000 </r>
       <r>   -8.8974    1.0000 </r>
       <r>   -8.8871    1.0000 </r>
       <r>   -8.8601    1.0000 </r>
       <r>   -8.8428    1.0000 </r>
       <r>   -8.8170    1.0000 </r>
       <r>   -8.8025    1.0000 </r>
       <r>   -8.7864    1.0000 </r>
       <r>   -8.7656    1.0000 </r>
       <r>   -8.7574    1.0000 </r>
       <r>   -8.7398    1.0000 </r>
       <r>   -8.7343    1.0000 </r>
       <r>   -8.7082    1.0000 </r>
       <r>   -8.6993    1.0000 </r>
       <r>   -8.6908    1.0000 </r>
       <r>   -8.6778    1.0000 </r>
       <r>   -8.6712    1.0000 </r>
       <r>   -8.6348    1.0000 </r>
       <r>   -8.6254    1.0000 </r>
       <r>   -8.6225    1.0000 </r>
       <r>   -8.6009    1.0000 </r>
       <r>   -8.5962    1.0000 </r>
       <r>   -8.5893    1.0000 </r>
       <r>   -8.5622    1.0000 </r>
       <r>   -8.5556    1.0000 </r>
       <r>   -8.5516    1.0000 </r>
       <r>   -8.5404    1.0000 </r>
       <r>   -8.5297    1.0000 </r>
       <r>   -8.5138    1.0000 </r>
       <r>   -8.5028    1.0000 </r>
       <r>   -8.4985    1.0000 </r>
       <r>   -8.4813    1.0000 </r>
       <r>   -8.4769    1.0000 </r>
       <r>   -8.4672    1.0000 </r>
       <r>   -8.4478    1.0000 </r>
       <r>   -8.4364    1.0000 </r>
       <r>   -8.4278    1.0000 </r>
       <r>   -8.4163    1.0000 </r>
       <r>   -8.4081    1.0000 </r>
       <r>   -8.4013    1.0000 </r>
       <r>   -8.3909    1.0000 </r>
       <r>   -8.3826    1.0000 </r>
       <r>   -8.3666    1.0000 </r>
       <r>   -8.3646    1.0000 </r>
       <r>   -8.3589    1.0000 </r>
       <r>   -8.3524    1.0000 </r>
       <r>   -8.3293    1.0000 </r>
       <r>   -8.3193    1.0000 </r>
       <r>   -8.3107    1.0000 </r>
       <r>   -8.3027    1.0000 </r>
       <r>   -8.2858    1.0000 </r>
       <r>   -8.2814    1.0000 </r>
       <r>   -8.2668    1.0000 </r>
       <r>   -8.2491    1.0000 </r>
       <r>   -8.2345    1.0000 </r>
       <r>   -8.2228    1.0000 </r>
       <r>   -8.2053    1.0000 </r>
       <r>   -8.1988    1.0000 </r>
       <r>   -8.1664    1.0000 </r>
       <r>   -8.1521    1.0000 </r>
       <r>   -8.1503    1.0000 </r>
       <r>   -8.1293    1.0000 </r>
       <r>   -8.1115    1.0000 </r>
       <r>   -8.0912    1.0000 </r>
       <r>   -8.0793    1.0000 </r>
       <r>   -8.0531    1.0000 </r>
       <r>   -8.0324    1.0000 </r>
       <r>   -8.0214    1.0000 </r>
       <r>   -8.0069    1.0000 </r>
       <r>   -7.9908    1.0000 </r>
       <r>   -7.9712    1.0000 </r>
       <r>   -7.9637    1.0000 </r>
       <r>   -7.9415    1.0000 </r>
       <r>   -7.9160    1.0000 </r>
       <r>   -7.8799    1.0000 </r>
       <r>   -7.8625    1.0000 </r>
       <r>   -7.8326    1.0000 </r>
       <r>   -7.8115    1.0000 </r>
       <r>   -7.7931    1.0000 </r>
       <r>   -5.1661    1.0000 </r>
       <r>   -5.1027    1.0000 </r>
       <r>   -5.0840    1.0000 </r>
       <r>   -4.8648    1.0000 </r>
       <r>   -4.8250    1.0000 </r>
       <r>   -4.8159    1.0000 </r>
       <r>   -4.7968    1.0000 </r>
       <r>   -4.7619    1.0000 </r>
       <r>   -4.7245    1.0000 </r>
       <r>   -4.4724    1.0000 </r>
       <r>   -4.4037    1.0000 </r>
       <r>   -4.3246    1.0000 </r>
       <r>   -4.2951    1.0000 </r>
       <r>   -4.2788    1.0000 </r>
       <r>   -4.2458    1.0000 </r>
       <r>   -4.2354    1.0000 </r>
       <r>   -4.2103    1.0000 </r>
       <r>   -4.1828    1.0000 </r>
       <r>   -4.1635    1.0000 </r>
       <r>   -4.1328    1.0000 </r>
       <r>   -4.1184    1.0000 </r>
       <r>   -4.1162    1.0000 </r>
       <r>   -4.0936    1.0000 </r>
       <r>   -4.0593    1.0000 </r>
       <r>   -4.0342    1.0000 </r>
       <r>   -4.0280    1.0000 </r>
       <r>   -4.0005    1.0000 </r>
       <r>   -3.9845    1.0000 </r>
       <r>   -3.9395    1.0000 </r>
       <r>   -3.8938    1.0000 </r>
       <r>   -3.8793    1.0000 </r>
       <r>   -3.8572    1.0000 </r>
       <r>   -3.8297    1.0000 </r>
       <r>   -3.8040    1.0000 </r>
       <r>   -3.7831    1.0000 </r>
       <r>   -3.7209    1.0000 </r>
       <r>   -3.6838    1.0000 </r>
       <r>   -3.3592    1.0000 </r>
       <r>   -3.3032    1.0000 </r>
       <r>   -3.2480    1.0000 </r>
       <r>   -3.2240    1.0000 </r>
       <r>   -3.2008    1.0000 </r>
       <r>   -3.1460    1.0000 </r>
       <r>   -3.0894    1.0000 </r>
       <r>   -3.0589    1.0000 </r>
       <r>   -3.0244    1.0000 </r>
       <r>   -2.8560    1.0000 </r>
       <r>   -2.8008    1.0000 </r>
       <r>   -1.8737    0.0000 </r>
       <r>   -1.8299    0.0000 </r>
       <r>   -1.7826    0.0000 </r>
       <r>   -1.2990    0.0000 </r>
       <r>   -1.1888    0.0000 </r>
       <r>   -1.1629    0.0000 </r>
       <r>   -1.1307    0.0000 </r>
       <r>   -1.1096    0.0000 </r>
       <r>   -1.0705    0.0000 </r>
       <r>   -0.5084    0.0000 </r>
       <r>   -0.4453    0.0000 </r>
       <r>   -0.4003    0.0000 </r>
       <r>   -0.3760    0.0000 </r>
       <r>   -0.3556    0.0000 </r>
       <r>   -0.2848    0.0000 </r>
       <r>   -0.2720    0.0000 </r>
       <r>   -0.2550    0.0000 </r>
       <r>   -0.2044    0.0000 </r>
       <r>   -0.1470    0.0000 </r>
       <r>   -0.1327    0.0000 </r>
       <r>   -0.0711    0.0000 </r>
       <r>   -0.0503    0.0000 </r>
       <r>   -0.0295    0.0000 </r>
       <r>    0.0994    0.0000 </r>
       <r>    0.3306    0.0000 </r>
       <r>    0.3739    0.0000 </r>
       <r>    0.3820    0.0000 </r>
       <r>    0.4121    0.0000 </r>
       <r>    0.4378    0.0000 </r>
       <r>    0.4561    0.0000 </r>
       <r>    0.4738    0.0000 </r>
       <r>    0.5019    0.0000 </r>
       <r>    0.5257    0.0000 </r>
       <r>    0.5917    0.0000 </r>
       <r>    0.6153    0.0000 </r>
       <r>    0.6315    0.0000 </r>
       <r>    0.6808    0.0000 </r>
       <r>    0.7030    0.0000 </r>
       <r>    0.7150    0.0000 </r>
       <r>    0.7398    0.0000 </r>
       <r>    0.7778    0.0000 </r>
       <r>    0.7848    0.0000 </r>
       <r>    0.8072    0.0000 </r>
       <r>    0.8389    0.0000 </r>
       <r>    0.8503    0.0000 </r>
       <r>    0.8781    0.0000 </r>
       <r>    0.8971    0.0000 </r>
       <r>    0.9383    0.0000 </r>
       <r>    0.9820    0.0000 </r>
       <r>    0.9945    0.0000 </r>
       <r>    1.0217    0.0000 </r>
       <r>    1.0320    0.0000 </r>
       <r>    1.0391    0.0000 </r>
       <r>    1.0692    0.0000 </r>
       <r>    1.0874    0.0000 </r>
       <r>    1.0977    0.0000 </r>
       <r>    1.1036    0.0000 </r>
       <r>    1.1208    0.0000 </r>
       <r>    1.1501    0.0000 </r>
       <r>    1.1704    0.0000 </r>
       <r>    1.2100    0.0000 </r>
       <r>    1.2216    0.0000 </r>
       <r>    1.2506    0.0000 </r>
       <r>    1.2724    0.0000 </r>
      </set>
      <set comment="kpoint 2">
       <r>  -51.8107    1.0000 </r>
       <r>  -51.7130    1.0000 </r>
       <r>  -51.6755    1.0000 </r>
       <r>  -51.6231    1.0000 </r>
       <r>  -51.6211    1.0000 </r>
       <r>  -51.6199    1.0000 </r>
       <r>  -51.6082    1.0000 </r>
       <r>  -51.5683    1.0000 </r>
       <r>  -51.5517    1.0000 </r>
       <r>  -51.5157    1.0000 </r>
       <r>  -51.4886    1.0000 </r>
       <r>  -51.4786    1.0000 </r>
       <r>  -51.4717    1.0000 </r>
       <r>  -51.4511    1.0000 </r>
       <r>  -51.4384    1.0000 </r>
       <r>  -51.4364    1.0000 </r>
       <r>  -51.4354    1.0000 </r>
       <r>  -51.4076    1.0000 </r>
       <r>  -51.3920    1.0000 </r>
       <r>  -51.3844    1.0000 </r>
       <r>  -51.3822    1.0000 </r>
       <r>  -51.3717    1.0000 </r>
       <r>  -51.3468    1.0000 </r>
       <r>  -51.3155    1.0000 </r>
       <r>  -51.2921    1.0000 </r>
       <r>  -51.2839    1.0000 </r>
       <r>  -51.2570    1.0000 </r>
       <r>  -51.1542    1.0000 </r>
       <r>  -51.1530    1.0000 </r>
       <r>  -51.1465    1.0000 </r>
       <r>  -51.1274    1.0000 </r>
       <r>  -51.0883    1.0000 </r>
       <r>  -30.7139    1.0000 </r>
       <r>  -30.6905    1.0000 </r>
       <r>  -30.6455    1.0000 </r>
       <r>  -30.6357    1.0000 </r>
       <r>  -30.6263    1.0000 </r>
       <r>  -30.6220    1.0000 </r>
       <r>  -30.5911    1.0000 </r>
       <r>  -30.5821    1.0000 </r>
       <r>  -30.5676    1.0000 </r>
       <r>  -30.5608    1.0000 </r>
       <r>  -30.5490    1.0000 </r>
       <r>  -30.5386    1.0000 </r>
       <r>  -30.5334    1.0000 </r>
       <r>  -30.5200    1.0000 </r>
       <r>  -30.5021    1.0000 </r>
       <r>  -30.4915    1.0000 </r>
       <r>  -30.4735    1.0000 </r>
       <r>  -30.4641    1.0000 </r>
       <r>  -30.4515    1.0000 </r>
       <r>  -30.4339    1.0000 </r>
       <r>  -30.4152    1.0000 </r>
       <r>  -30.3949    1.0000 </r>
       <r>  -30.3879    1.0000 </r>
       <r>  -30.3800    1.0000 </r>
       <r>  -30.3702    1.0000 </r>
       <r>  -30.3617    1.0000 </r>
       <r>  -30.3432    1.0000 </r>
       <r>  -30.3326    1.0000 </r>
       <r>  -30.3240    1.0000 </r>
       <r>  -30.3068    1.0000 </r>
       <r>  -30.2952    1.0000 </r>
       <r>  -30.2821    1.0000 </r>
       <r>  -30.2684    1.0000 </r>
       <r>  -30.2557    1.0000 </r>
       <r>  -30.2528    1.0000 </r>
       <r>  -30.2439    1.0000 </r>
       <r>  -30.2382    1.0000 </r>
       <r>  -30.2309    1.0000 </r>
       <r>  -30.2240    1.0000 </r>
       <r>  -30.2202    1.0000 </r>
       <r>  -30.2037    1.0000 </r>
       <r>  -30.1988    1.0000 </r>
       <r>  -30.1956    1.0000 </r>
       <r>  -30.1842    1.0000 </r>
       <r>  -30.1808    1.0000 </r>
       <r>  -30.1710    1.0000 </r>
       <r>  -30.1579    1.0000 </r>
       <r>  -30.1547    1.0000 </r>
       <r>  -30.1520    1.0000 </r>
       <r>  -30.1492    1.0000 </r>
       <r>  -30.1428    1.0000 </r>
       <r>  -30.1390    1.0000 </r>
       <r>  -30.1275    1.0000 </r>
       <r>  -30.1224    1.0000 </r>
       <r>  -30.1159    1.0000 </r>
       <r>  -30.1127    1.0000 </r>
       <r>  -30.1073    1.0000 </r>
       <r>  -30.0993    1.0000 </r>
       <r>  -30.0935    1.0000 </r>
       <r>  -30.0823    1.0000 </r>
       <r>  -30.0771    1.0000 </r>
       <r>  -30.0687    1.0000 </r>
       <r>  -30.0621    1.0000 </r>
       <r>  -30.0553    1.0000 </r>
       <r>  -30.0488    1.0000 </r>
       <r>  -30.0398    1.0000 </r>
       <r>  -30.0352    1.0000 </r>
       <r>  -30.0141    1.0000 </r>
       <r>  -30.0094    1.0000 </r>
       <r>  -30.0038    1.0000 </r>
       <r>  -29.9980    1.0000 </r>
       <r>  -29.9911    1.0000 </r>
       <r>  -29.9753    1.0000 </r>
       <r>  -29.9664    1.0000 </r>
       <r>  -29.9621    1.0000 </r>
       <r>  -29.9445    1.0000 </r>
       <r>  -29.9368    1.0000 </r>
       <r>  -29.9329    1.0000 </r>
       <r>  -29.9284    1.0000 </r>
       <r>  -29.9218    1.0000 </r>
       <r>  -29.8960    1.0000 </r>
       <r>  -29.8876    1.0000 </r>
       <r>  -29.8776    1.0000 </r>
       <r>  -29.8643    1.0000 </r>
       <r>  -29.8532    1.0000 </r>
       <r>  -29.8460    1.0000 </r>
       <r>  -29.8379    1.0000 </r>
       <r>  -29.8180    1.0000 </r>
       <r>  -29.8148    1.0000 </r>
       <r>  -29.8120    1.0000 </r>
       <r>  -29.8002    1.0000 </r>
       <r>  -29.7912    1.0000 </r>
       <r>  -29.7794    1.0000 </r>
       <r>  -29.7636    1.0000 </r>
       <r>  -29.7477    1.0000 </r>
       <r>  -29.7199    1.0000 </r>
       <r>  -26.9978    1.0000 </r>
       <r>  -26.9156    1.0000 </r>
       <r>  -26.8898    1.0000 </r>
       <r>  -26.8477    1.0000 </r>
       <r>  -26.8135    1.0000 </r>
       <r>  -26.7735    1.0000 </r>
       <r>  -26.7387    1.0000 </r>
       <r>  -26.7061    1.0000 </r>
       <r>  -26.6902    1.0000 </r>
       <r>  -26.6792    1.0000 </r>
       <r>  -26.6628    1.0000 </r>
       <r>  -26.6588    1.0000 </r>
       <r>  -26.6349    1.0000 </r>
       <r>  -26.6258    1.0000 </r>
       <r>  -26.6162    1.0000 </r>
       <r>  -26.6048    1.0000 </r>
       <r>  -26.5861    1.0000 </r>
       <r>  -26.5680    1.0000 </r>
       <r>  -26.5592    1.0000 </r>
       <r>  -26.5139    1.0000 </r>
       <r>  -26.4900    1.0000 </r>
       <r>  -26.4394    1.0000 </r>
       <r>  -26.4049    1.0000 </r>
       <r>  -26.3705    1.0000 </r>
       <r>  -26.3463    1.0000 </r>
       <r>  -26.3230    1.0000 </r>
       <r>  -26.3044    1.0000 </r>
       <r>  -26.2931    1.0000 </r>
       <r>  -26.2573    1.0000 </r>
       <r>  -26.1661    1.0000 </r>
       <r>  -26.1262    1.0000 </r>
       <r>  -26.1038    1.0000 </r>
       <r>  -12.0058    1.0000 </r>
       <r>  -11.8430    1.0000 </r>
       <r>  -11.7164    1.0000 </r>
       <r>  -11.6637    1.0000 </r>
       <r>  -11.4694    1.0000 </r>
       <r>  -11.4315    1.0000 </r>
       <r>  -11.3301    1.0000 </r>
       <r>  -11.2516    1.0000 </r>
       <r>  -11.1989    1.0000 </r>
       <r>  -11.0932    1.0000 </r>
       <r>  -11.0634    1.0000 </r>
       <r>  -10.9759    1.0000 </r>
       <r>  -10.9636    1.0000 </r>
[...]
       <r>   -32.2607     0.0000    64.0000 </r>
       <r>   -32.0659     0.0000    64.0000 </r>
       <r>   -31.8712     0.0000    64.0000 </r>
       <r>   -31.6764     0.0000    64.0000 </r>
       <r>   -31.4816     0.0000    64.0000 </r>
       <r>   -31.2868     0.0000    64.0000 </r>
       <r>   -31.0920     0.0000    64.0000 </r>
       <r>   -30.8972     0.0000    64.0000 </r>
       <r>   -30.7024    11.4577    66.2319 </r>
       <r>   -30.5076   132.8700    92.1138 </r>
       <r>   -30.3128   154.2307   122.1566 </r>
       <r>   -30.1180   256.7622   172.1717 </r>
       <r>   -29.9232   248.2903   220.5365 </r>
       <r>   -29.7285   169.7119   253.5949 </r>
       <r>   -29.5337    12.3469   256.0000 </r>
       <r>   -29.3389     0.0000   256.0000 </r>
       <r>   -29.1441     0.0000   256.0000 </r>
       <r>   -28.9493     0.0000   256.0000 </r>
       <r>   -28.7545     0.0000   256.0000 </r>
       <r>   -28.5597     0.0000   256.0000 </r>
       <r>   -28.3649     0.0000   256.0000 </r>
       <r>   -28.1701     0.0000   256.0000 </r>
       <r>   -27.9753     0.0000   256.0000 </r>
       <r>   -27.7805     0.0000   256.0000 </r>
       <r>   -27.5857     0.0000   256.0000 </r>
       <r>   -27.3910     0.0000   256.0000 </r>
       <r>   -27.1962     0.0000   256.0000 </r>
       <r>   -27.0014     4.8386   256.9425 </r>
       <r>   -26.8066    42.9840   265.3154 </r>
       <r>   -26.6118   101.7959   285.1444 </r>
       <r>   -26.4170    78.3370   300.4038 </r>
       <r>   -26.2222    68.4097   313.7294 </r>
       <r>   -26.0274    32.0065   319.9640 </r>
       <r>   -25.8326     0.1848   320.0000 </r>
       <r>   -25.6378     0.0000   320.0000 </r>
       <r>   -25.4430     0.0000   320.0000 </r>
       <r>   -25.2482     0.0000   320.0000 </r>
       <r>   -25.0535     0.0000   320.0000 </r>
       <r>   -24.8587     0.0000   320.0000 </r>
       <r>   -24.6639     0.0000   320.0000 </r>
       <r>   -24.4691     0.0000   320.0000 </r>
       <r>   -24.2743     0.0000   320.0000 </r>
       <r>   -24.0795     0.0000   320.0000 </r>
       <r>   -23.8847     0.0000   320.0000 </r>
       <r>   -23.6899     0.0000   320.0000 </r>
       <r>   -23.4951     0.0000   320.0000 </r>
       <r>   -23.3003     0.0000   320.0000 </r>
       <r>   -23.1055     0.0000   320.0000 </r>
       <r>   -22.9108     0.0000   320.0000 </r>
       <r>   -22.7160     0.0000   320.0000 </r>
       <r>   -22.5212     0.0000   320.0000 </r>
       <r>   -22.3264     0.0000   320.0000 </r>
       <r>   -22.1316     0.0000   320.0000 </r>
       <r>   -21.9368     0.0000   320.0000 </r>
       <r>   -21.7420     0.0000   320.0000 </r>
       <r>   -21.5472     0.0000   320.0000 </r>
       <r>   -21.3524     0.0000   320.0000 </r>
       <r>   -21.1576     0.0000   320.0000 </r>
       <r>   -20.9628     0.0000   320.0000 </r>
       <r>   -20.7680     0.0000   320.0000 </r>
       <r>   -20.5733     0.0000   320.0000 </r>
       <r>   -20.3785     0.0000   320.0000 </r>
       <r>   -20.1837     0.0000   320.0000 </r>
       <r>   -19.9889     0.0000   320.0000 </r>
       <r>   -19.7941     0.0000   320.0000 </r>
       <r>   -19.5993     0.0000   320.0000 </r>
       <r>   -19.4045     0.0000   320.0000 </r>
       <r>   -19.2097     0.0000   320.0000 </r>
       <r>   -19.0149     0.0000   320.0000 </r>
       <r>   -18.8201     0.0000   320.0000 </r>
       <r>   -18.6253     0.0000   320.0000 </r>
       <r>   -18.4306     0.0000   320.0000 </r>
       <r>   -18.2358     0.0000   320.0000 </r>
       <r>   -18.0410     0.0000   320.0000 </r>
       <r>   -17.8462     0.0000   320.0000 </r>
       <r>   -17.6514     0.0000   320.0000 </r>
       <r>   -17.4566     0.0000   320.0000 </r>
       <r>   -17.2618     0.0000   320.0000 </r>
       <r>   -17.0670     0.0000   320.0000 </r>
       <r>   -16.8722     0.0000   320.0000 </r>
       <r>   -16.6774     0.0000   320.0000 </r>
       <r>   -16.4826     0.0000   320.0000 </r>
       <r>   -16.2878     0.0000   320.0000 </r>
       <r>   -16.0931     0.0000   320.0000 </r>
       <r>   -15.8983     0.0000   320.0000 </r>
       <r>   -15.7035     0.0000   320.0000 </r>
       <r>   -15.5087     0.0000   320.0000 </r>
       <r>   -15.3139     0.0000   320.0000 </r>
       <r>   -15.1191     0.0000   320.0000 </r>
       <r>   -14.9243     0.0000   320.0000 </r>
       <r>   -14.7295     0.0000   320.0000 </r>
       <r>   -14.5347     0.0000   320.0000 </r>
       <r>   -14.3399     0.0000   320.0000 </r>
       <r>   -14.1451     0.0000   320.0000 </r>
       <r>   -13.9503     0.0000   320.0000 </r>
       <r>   -13.7556     0.0000   320.0000 </r>
       <r>   -13.5608     0.0000   320.0000 </r>
       <r>   -13.3660     0.0000   320.0000 </r>
       <r>   -13.1712     0.0000   320.0000 </r>
       <r>   -12.9764     0.0000   320.0000 </r>
       <r>   -12.7816     0.0000   320.0000 </r>
       <r>   -12.5868     0.0000   320.0000 </r>
       <r>   -12.3920     0.0000   320.0000 </r>
       <r>   -12.1972     0.0000   320.0000 </r>
       <r>   -12.0024     4.8404   320.9429 </r>
       <r>   -11.8076    15.3404   323.9311 </r>
       <r>   -11.6129    17.6353   327.3663 </r>
       <r>   -11.4181    21.4379   331.5422 </r>
       <r>   -11.2233    21.1076   335.6538 </r>
       <r>   -11.0285    32.5792   341.9999 </r>
       <r>   -10.8337    38.6596   349.5305 </r>
       <r>   -10.6389    12.6775   351.9999 </r>
       <r>   -10.4441     0.0003   352.0000 </r>
       <r>   -10.2493     0.0000   352.0000 </r>
       <r>   -10.0545     0.0000   352.0000 </r>
       <r>    -9.8597     0.0000   352.0000 </r>
       <r>    -9.6649     0.0000   352.0000 </r>
       <r>    -9.4701     0.0005   352.0001 </r>
       <r>    -9.2754    21.0956   356.1093 </r>
       <r>    -9.0806    72.9849   370.3262 </r>
       <r>    -8.8858   100.5171   389.9060 </r>
       <r>    -8.6910   129.8384   415.1974 </r>
       <r>    -8.4962   164.2848   447.1987 </r>
       <r>    -8.3014   193.2833   484.8486 </r>
       <r>    -8.1066   136.7201   511.4805 </r>
       <r>    -7.9118   109.1748   532.7468 </r>
       <r>    -7.7170    57.4342   543.9345 </r>
       <r>    -7.5222     0.3361   544.0000 </r>
       <r>    -7.3274     0.0000   544.0000 </r>
       <r>    -7.1326     0.0000   544.0000 </r>
       <r>    -6.9379     0.0000   544.0000 </r>
       <r>    -6.7431     0.0000   544.0000 </r>
       <r>    -6.5483     0.0000   544.0000 </r>
       <r>    -6.3535     0.0000   544.0000 </r>
       <r>    -6.1587     0.0000   544.0000 </r>
       <r>    -5.9639     0.0000   544.0000 </r>
       <r>    -5.7691     0.0000   544.0000 </r>
       <r>    -5.5743     0.0000   544.0000 </r>
       <r>    -5.3795     0.0000   544.0000 </r>
       <r>    -5.1847     0.5832   544.1136 </r>
       <r>    -4.9899    26.9865   549.3703 </r>
       <r>    -4.7952    42.7459   557.6969 </r>
       <r>    -4.6004    31.9734   563.9250 </r>
       <r>    -4.4056    23.5784   568.5179 </r>
       <r>    -4.2108    41.8681   576.6734 </r>
       <r>    -4.0160    53.0679   587.0106 </r>
       <r>    -3.8212    92.3843   605.0063 </r>
       <r>    -3.6264    57.3563   616.1788 </r>
       <r>    -3.4316    31.5330   622.3211 </r>
       <r>    -3.2368    36.9991   629.5282 </r>
       <r>    -3.0420    30.4895   635.4673 </r>
       <r>    -2.8472    19.5741   639.2802 </r>
       <r>    -2.6524     3.6952   640.0000 </r>
       <r>    -2.4577     0.0000   640.0000 </r>
       <r>    -2.2629     0.0000   640.0000 </r>
       <r>    -2.0681     0.0000   640.0000 </r>
       <r>    -1.8733     0.7367   640.1435 </r>
       <r>    -1.6785     9.4273   641.9799 </r>
       <r>    -1.4837    18.0818   645.5020 </r>
       <r>    -1.2889    14.7154   648.3685 </r>
       <r>    -1.0941    16.2686   651.5375 </r>
       <r>    -0.8993    24.8643   656.3808 </r>
       <r>    -0.7045    25.4219   661.3328 </r>
       <r>    -0.5097    19.3299   665.0981 </r>
       <r>    -0.3149    37.8645   672.4738 </r>
       <r>    -0.1202    31.9975   678.7066 </r>
       <r>     0.0746    29.3666   684.4270 </r>
       <r>     0.2694    28.5646   689.9911 </r>
       <r>     0.4642    31.7514   696.1760 </r>
       <r>     0.6590    47.7364   705.4746 </r>
       <r>     0.8538    98.6622   724.6932 </r>
       <r>     1.0486   112.1446   746.5380 </r>
       <r>     1.2434    93.0087   764.6553 </r>
       <r>     1.4382    17.1702   767.9999 </r>
       <r>     1.6330     0.0005   768.0000 </r>
       <r>     1.8278     0.0000   768.0000 </r>
       <r>     2.0225     0.0000   768.0000 </r>
       <r>     2.2173     0.0000   768.0000 </r>
       <r>     2.4121     0.0000   768.0000 </r>
       <r>     2.6069     0.0000   768.0000 </r>
       <r>     2.8017     0.0000   768.0000 </r>
       <r>     2.9965     0.0000   768.0000 </r>
       <r>     3.1913     0.0000   768.0000 </r>
       <r>     3.3861     0.0000   768.0000 </r>
       <r>     3.5809     0.0000   768.0000 </r>
       <r>     3.7757     0.0000   768.0000 </r>
       <r>     3.9705     0.0000   768.0000 </r>
      </set>
     </set>
    </array>
   </total>
  </dos>
 </calculation>
 <structure name="finalpos" >
  <crystal>
   <varray name="basis" >
    <v>      13.12862340       0.00000000       0.00000000 </v>
    <v>      -6.56431170      11.36972138       0.00000000 </v>
    <v>       0.00000000       0.00000000      26.82809424 </v>
   </varray>
   <i name="volume">   4004.59716953 </i>
   <varray name="rec_basis" >
    <v>       0.07616945       0.04397645       0.00000000 </v>
    <v>       0.00000000       0.08795290       0.00000000 </v>
    <v>       0.00000000       0.00000000       0.03727436 </v>
   </varray>
  </crystal>
  <varray name="positions" >
   <v>       0.08909364       0.17427945       0.45438092 </v>
   <v>       0.08758361       0.41225698       0.45331343 </v>
   <v>       0.09289590       0.67720871       0.44910342 </v>
   <v>       0.09064289       0.92365976       0.45117521 </v>
   <v>       0.33568233       0.16613740       0.45231795 </v>
   <v>       0.33669994       0.41689791       0.45713908 </v>
   <v>       0.33765358       0.66994485       0.45039088 </v>
   <v>       0.33864508       0.91924514       0.45395142 </v>
   <v>       0.58535128       0.16669533       0.45624961 </v>
   <v>       0.58181567       0.41414931       0.45255983 </v>
   <v>       0.57539374       0.66266405       0.44864345 </v>
   <v>       0.58963674       0.91861192       0.45241153 </v>
   <v>       0.82805157       0.16749921       0.45749702 </v>
   <v>       0.83744672       0.41615240       0.45227915 </v>
   <v>       0.82966644       0.66340077       0.44990905 </v>
   <v>       0.83568416       0.91786327       0.44904454 </v>
   <v>       0.16793725       0.08357946       0.54309137 </v>
   <v>       0.16339174       0.33358274       0.55134833 </v>
   <v>       0.16639749       0.58580243       0.54668041 </v>
   <v>       0.15783513       0.83144743       0.54597915 </v>
   <v>       0.40942092       0.07651567       0.54543432 </v>
   <v>       0.41071988       0.32742191       0.54840742 </v>
   <v>       0.41594179       0.58534367       0.54837280 </v>
   <v>       0.41786652       0.83756942       0.54769224 </v>
   <v>       0.66917806       0.07819593       0.55069521 </v>
   <v>       0.66299939       0.33358389       0.54999054 </v>
   <v>       0.66166167       0.58483306       0.54486298 </v>
   <v>       0.67029627       0.83720688       0.54398770 </v>
   <v>       0.92019728       0.07800109       0.54435176 </v>
   <v>       0.91503080       0.33033728       0.54902086 </v>
   <v>       0.91700692       0.57991667       0.54723134 </v>
   <v>       0.91354385       0.82321995       0.54586685 </v>
   <v>       0.08140742       0.16255755       0.59031209 </v>
   <v>       0.09133313       0.43676018       0.59657390 </v>
   <v>       0.07234282       0.65106421       0.59401371 </v>
   <v>       0.07388281       0.90351399       0.58704794 </v>
   <v>       0.31330010       0.14480432       0.59152547 </v>
   <v>       0.32788764       0.42001713       0.59098726 </v>
   <v>       0.33288054       0.68159606       0.58939347 </v>
   <v>       0.32892192       0.91556829       0.59340318 </v>
   <v>       0.58945757       0.17037202       0.58967160 </v>
   <v>       0.57527269       0.41562545       0.59461293 </v>
   <v>       0.58300173       0.66507346       0.58847270 </v>
   <v>       0.58998385       0.91079105       0.58925766 </v>
   <v>       0.84683079       0.18009945       0.59412249 </v>
   <v>       0.84018850       0.41655794       0.58850758 </v>
   <v>       0.83625475       0.66189950       0.59010326 </v>
   <v>       0.84396078       0.90711803       0.58670866 </v>
   <v>       0.16761821       0.09366381       0.40853771 </v>
   <v>       0.18014022       0.34017280       0.41046389 </v>
   <v>       0.18061703       0.60005646       0.40933655 </v>
   <v>       0.18008066       0.84369878       0.41003961 </v>
   <v>       0.41408006       0.08213143       0.41224963 </v>
   <v>       0.41753661       0.32188672       0.41153557 </v>
   <v>       0.41707857       0.57328033       0.40896689 </v>
   <v>       0.42215457       0.83537527       0.41070604 </v>
   <v>       0.64651378       0.08497040       0.40868417 </v>
   <v>       0.67181518       0.33416679       0.41354006 </v>
   <v>       0.65460476       0.58717755       0.40800631 </v>
   <v>       0.65815880       0.83506913       0.41077634 </v>
   <v>       0.91263353       0.09147828       0.40993022 </v>
   <v>       0.90314585       0.32204613       0.40947199 </v>
   <v>       0.91269739       0.58770808       0.41431737 </v>
   <v>       0.89514576       0.82854866       0.40739407 </v>
   <v>       0.99788325       0.99911244       0.49670914 </v>
   <v>       0.00773753       0.25568385       0.50014486 </v>
   <v>       0.99794115       0.48897290       0.49546296 </v>
   <v>       0.00285679       0.75241128       0.49508149 </v>
   <v>       0.24481044       0.99949604       0.49801892 </v>
   <v>       0.25106458       0.25028225       0.50372041 </v>
   <v>       0.25508927       0.50795137       0.50162868 </v>
   <v>       0.25479385       0.75730533       0.49838987 </v>
   <v>       0.50527339       0.00681097       0.50167462 </v>
   <v>       0.50048920       0.24634207       0.50305931 </v>
   <v>       0.50104968       0.49905541       0.49979595 </v>
   <v>       0.50497484       0.74999113       0.49987080 </v>
   <v>       0.75518332       0.00499758       0.49874842 </v>
   <v>       0.75267002       0.25083866       0.50357447 </v>
   <v>       0.74034572       0.49618356       0.50117606 </v>
   <v>       0.74708826       0.75225694       0.49818938 </v>
  </varray>
  <varray name="velocities" >
   <v>       0.00000000       0.00000000       0.00000000 </v>
   <v>       0.00000000       0.00000000       0.00000000 </v>
   <v>       0.00000000       0.00000000       0.00000000 </v>
   <v>       0.00000000       0.00000000       0.00000000 </v>
   <v>       0.00000000       0.00000000       0.00000000 </v>
   <v>       0.00000000       0.00000000       0.00000000 </v>
   <v>       0.00000000       0.00000000       0.00000000 </v>
   <v>       0.00000000       0.00000000       0.00000000 </v>
   <v>       0.00000000       0.00000000       0.00000000 </v>
   <v>       0.00000000       0.00000000       0.00000000 </v>
   <v>       0.00000000       0.00000000       0.00000000 </v>
   <v>       0.00000000       0.00000000       0.00000000 </v>
   <v>       0.00000000       0.00000000       0.00000000 </v>
   <v>       0.00000000       0.00000000       0.00000000 </v>
   <v>       0.00000000       0.00000000       0.00000000 </v>
   <v>       0.00000000       0.00000000       0.00000000 </v>
   <v>       0.00000000       0.00000000       0.00000000 </v>
   <v>       0.00000000       0.00000000       0.00000000 </v>
   <v>       0.00000000       0.00000000       0.00000000 </v>
   <v>       0.00000000       0.00000000       0.00000000 </v>
   <v>       0.00000000       0.00000000       0.00000000 </v>
   <v>       0.00000000       0.00000000       0.00000000 </v>
   <v>       0.00000000       0.00000000       0.00000000 </v>
   <v>       0.00000000       0.00000000       0.00000000 </v>
   <v>       0.00000000       0.00000000       0.00000000 </v>
   <v>       0.00000000       0.00000000       0.00000000 </v>
   <v>       0.00000000       0.00000000       0.00000000 </v>
   <v>       0.00000000       0.00000000       0.00000000 </v>
   <v>       0.00000000       0.00000000       0.00000000 </v>
   <v>       0.00000000       0.00000000       0.00000000 </v>
   <v>       0.00000000       0.00000000       0.00000000 </v>
   <v>       0.00000000       0.00000000       0.00000000 </v>
   <v>       0.00000000       0.00000000       0.00000000 </v>
   <v>       0.00000000       0.00000000       0.00000000 </v>
   <v>       0.00000000       0.00000000       0.00000000 </v>
   <v>       0.00000000       0.00000000       0.00000000 </v>
   <v>       0.00000000       0.00000000       0.00000000 </v>
   <v>       0.00000000       0.00000000       0.00000000 </v>
   <v>       0.00000000       0.00000000       0.00000000 </v>
   <v>       0.00000000       0.00000000       0.00000000 </v>
   <v>       0.00000000       0.00000000       0.00000000 </v>
   <v>       0.00000000       0.00000000       0.00000000 </v>
   <v>       0.00000000       0.00000000       0.00000000 </v>
   <v>       0.00000000       0.00000000       0.00000000 </v>
   <v>       0.00000000       0.00000000       0.00000000 </v>
   <v>       0.00000000       0.00000000       0.00000000 </v>
   <v>       0.00000000       0.00000000       0.00000000 </v>
   <v>       0.00000000       0.00000000       0.00000000 </v>
   <v>       0.00000000       0.00000000       0.00000000 </v>
   <v>       0.00000000       0.00000000       0.00000000 </v>
   <v>       0.00000000       0.00000000       0.00000000 </v>
   <v>       0.00000000       0.00000000       0.00000000 </v>
   <v>       0.00000000       0.00000000       0.00000000 </v>
   <v>       0.00000000       0.00000000       0.00000000 </v>
   <v>       0.00000000       0.00000000       0.00000000 </v>
   <v>       0.00000000       0.00000000       0.00000000 </v>
   <v>       0.00000000       0.00000000       0.00000000 </v>
   <v>       0.00000000       0.00000000       0.00000000 </v>
   <v>       0.00000000       0.00000000       0.00000000 </v>
   <v>       0.00000000       0.00000000       0.00000000 </v>
   <v>       0.00000000       0.00000000       0.00000000 </v>
   <v>       0.00000000       0.00000000       0.00000000 </v>
   <v>       0.00000000       0.00000000       0.00000000 </v>
   <v>       0.00000000       0.00000000       0.00000000 </v>
   <v>       0.00000000       0.00000000       0.00000000 </v>
   <v>       0.00000000       0.00000000       0.00000000 </v>
   <v>       0.00000000       0.00000000       0.00000000 </v>
   <v>       0.00000000       0.00000000       0.00000000 </v>
   <v>       0.00000000       0.00000000       0.00000000 </v>
   <v>       0.00000000       0.00000000       0.00000000 </v>
   <v>       0.00000000       0.00000000       0.00000000 </v>
   <v>       0.00000000       0.00000000       0.00000000 </v>
   <v>       0.00000000       0.00000000       0.00000000 </v>
   <v>       0.00000000       0.00000000       0.00000000 </v>
   <v>       0.00000000       0.00000000       0.00000000 </v>
   <v>       0.00000000       0.00000000       0.00000000 </v>
   <v>       0.00000000       0.00000000       0.00000000 </v>
   <v>       0.00000000       0.00000000       0.00000000 </v>
   <v>       0.00000000       0.00000000       0.00000000 </v>
   <v>       0.00000000       0.00000000       0.00000000 </v>
  </varray>
 </structure>
</modeling>
