 vasp.5.4.4.18Apr17-6-g9f103f2a35 (build Oct 31 2019 15:01:46) complex          
  
 executed on             LinuxIFC date 2024.04.30  14:46:17
 running on   52 total cores
 distrk:  each k-point on   52 cores,    1 groups
 distr:  one band on NCORES_PER_BAND=  13 cores,    4 groups


--------------------------------------------------------------------------------------------------------


 INCAR:
 POTCAR:    PAW_PBE Sc_sv 07Sep2000               
 POTCAR:    PAW_PBE Cl 06Sep2000                  
 POTCAR:    PAW_PBE C 08Apr2002                   
 POTCAR:    PAW_PBE Sc_sv 07Sep2000               
   VRHFIN =Sc: 3p4s3d                                                           
   LEXCH  = PE                                                                  
   EATOM  =  1273.2868 eV,   93.5839 Ry                                         
                                                                                
   TITEL  = PAW_PBE Sc_sv 07Sep2000                                             
   LULTRA =        F    use ultrasoft PP ?                                      
   IUNSCR =        1    unscreen: 0-lin 1-nonlin 2-no                           
   RPACOR =    2.200    partial core radius                                     
   POMASS =   44.956; ZVAL   =   11.000    mass and valenz                      
   RCORE  =    2.500    outmost cutoff radius                                   
   RWIGS  =    2.700; RWIGS  =    1.429    wigner-seitz radius (au A)           
   ENMAX  =  222.660; ENMIN  =  166.995 eV                                      
   RCLOC  =    1.805    cutoff for local pot                                    
   LCOR   =        T    correct aug charges                                     
   LPAW   =        T    paw PP                                                  
   EAUG   =  443.063                                                            
   RMAX   =    2.551    core radius for proj-oper                               
   RAUG   =    1.300    factor for augmentation sphere                          
   RDEP   =    2.650    radius for radial grids                                 
   RDEPT  =    2.038    core radius for aug-charge                              
                                                                                
   Atomic configuration                                                         
    8 entries                                                                   
     n  l   j            E        occ.                                          
     1  0  0.50     -4394.2533   2.0000                                         
     2  0  0.50      -471.0040   2.0000                                         
     2  1  1.50      -384.9788   6.0000                                         
     3  0  0.50       -52.1410   2.0000                                         
     4  0  0.50        -3.5584   1.0000                                         
     3  1  1.50       -30.8841   6.0000                                         
     3  2  2.50        -1.3655   2.0000                                         
     4  3  2.50        -1.3606   0.0000                                         
   Description                                                                  
     l       E           TYP  RCUT    TYP  RCUT                                 
     0    -52.1409870     23  1.800                                             
     0     -3.5583698     23  2.500                                             
     1    -30.8840697     23  2.300                                             
     1      4.0817478     23  2.300                                             
     2     -1.3655397     23  2.500                                             
     2      0.3564476     23  2.500                                             
  local pseudopotential read in
  partial core-charges read in
  partial kinetic energy density read in
  atomic valenz-charges read in
  non local Contribution for L=           0  read in
    real space projection operators read in
  non local Contribution for L=           0  read in
    real space projection operators read in
  non local Contribution for L=           1  read in
    real space projection operators read in
  non local Contribution for L=           1  read in
    real space projection operators read in
  non local Contribution for L=           2  read in
    real space projection operators read in
  non local Contribution for L=           2  read in
    real space projection operators read in
    PAW grid and wavefunctions read in
 
   number of l-projection  operators is LMAX  =           6
   number of lm-projection operators is LMMAX =          18
 
 POTCAR:    PAW_PBE Cl 06Sep2000                  
   VRHFIN =Cl: s2p5                                                             
   LEXCH  = PE                                                                  
   EATOM  =   409.7259 eV,   30.1140 Ry                                         
                                                                                
   TITEL  = PAW_PBE Cl 06Sep2000                                                
   LULTRA =        F    use ultrasoft PP ?                                      
   IUNSCR =        1    unscreen: 0-lin 1-nonlin 2-no                           
   RPACOR =    1.500    partial core radius                                     
   POMASS =   35.453; ZVAL   =    7.000    mass and valenz                      
   RCORE  =    1.900    outmost cutoff radius                                   
   RWIGS  =    2.100; RWIGS  =    1.111    wigner-seitz radius (au A)           
   ENMAX  =  262.472; ENMIN  =  196.854 eV                                      
   ICORE  =        2    local potential                                         
   LCOR   =        T    correct aug charges                                     
   LPAW   =        T    paw PP                                                  
   EAUG   =  356.192                                                            
   DEXC   =    0.000                                                            
   RMAX   =    1.945    core radius for proj-oper                               
   RAUG   =    1.300    factor for augmentation sphere                          
   RDEP   =    2.020    radius for radial grids                                 
   RDEPT  =    1.678    core radius for aug-charge                              
                                                                                
   Atomic configuration                                                         
    6 entries                                                                   
     n  l   j            E        occ.                                          
     1  0  0.50     -2751.1850   2.0000                                         
     2  0  0.50      -252.6861   2.0000                                         
     2  1  1.50      -191.6157   6.0000                                         
     3  0  0.50       -20.6916   2.0000                                         
     3  1  0.50        -8.5949   5.0000                                         
     3  2  1.50        -8.1635   0.0000                                         
   Description                                                                  
     l       E           TYP  RCUT    TYP  RCUT                                 
     0    -20.6915656     23  1.900                                             
     0    -22.0521482     23  1.900                                             
     1     -8.5948577     23  1.900                                             
     1     -5.3847331     23  1.900                                             
     2     -8.1634956     23  1.900                                             
  local pseudopotential read in
  partial core-charges read in
  partial kinetic energy density read in
  atomic valenz-charges read in
  non local Contribution for L=           0  read in
    real space projection operators read in
  non local Contribution for L=           0  read in
    real space projection operators read in
  non local Contribution for L=           1  read in
    real space projection operators read in
  non local Contribution for L=           1  read in
    real space projection operators read in
    PAW grid and wavefunctions read in
 
   number of l-projection  operators is LMAX  =           4
   number of lm-projection operators is LMMAX =           8
 
 POTCAR:    PAW_PBE C 08Apr2002                   
   VRHFIN =C: s2p2                                                              
   LEXCH  = PE                                                                  
   EATOM  =   147.1560 eV,   10.8157 Ry                                         
                                                                                
   TITEL  = PAW_PBE C 08Apr2002                                                 
   LULTRA =        F    use ultrasoft PP ?                                      
   IUNSCR =        1    unscreen: 0-lin 1-nonlin 2-no                           
   RPACOR =    1.200    partial core radius                                     
   POMASS =   12.011; ZVAL   =    4.000    mass and valenz                      
   RCORE  =    1.500    outmost cutoff radius                                   
   RWIGS  =    1.630; RWIGS  =    0.863    wigner-seitz radius (au A)           
   ENMAX  =  400.000; ENMIN  =  300.000 eV                                      
   ICORE  =        2    local potential                                         
   LCOR   =        T    correct aug charges                                     
   LPAW   =        T    paw PP                                                  
   EAUG   =  644.873                                                            
   DEXC   =    0.000                                                            
   RMAX   =    1.529    core radius for proj-oper                               
   RAUG   =    1.300    factor for augmentation sphere                          
   RDEP   =    1.501    radius for radial grids                                 
   RDEPT  =    1.300    core radius for aug-charge                              
                                                                                
   Atomic configuration                                                         
    4 entries                                                                   
     n  l   j            E        occ.                                          
     1  0  0.50      -273.3789   2.0000                                         
     2  0  0.50       -13.7508   2.0000                                         
     2  1  0.50        -5.2854   2.0000                                         
     3  2  1.50        -5.4423   0.0000                                         
   Description                                                                  
     l       E           TYP  RCUT    TYP  RCUT                                 
     0    -13.7508458     23  1.200                                             
     0     -8.2022199     23  1.200                                             
     1     -5.2854383     23  1.500                                             
     1     34.0145650     23  1.500                                             
     2     -5.4423304      7  1.500                                             
  local pseudopotential read in
  partial core-charges read in
  partial kinetic energy density read in
  atomic valenz-charges read in
  non local Contribution for L=           0  read in
    real space projection operators read in
  non local Contribution for L=           0  read in
    real space projection operators read in
  non local Contribution for L=           1  read in
    real space projection operators read in
  non local Contribution for L=           1  read in
    real space projection operators read in
    PAW grid and wavefunctions read in
 
   number of l-projection  operators is LMAX  =           4
   number of lm-projection operators is LMMAX =           8
 
 Optimization of the real space projectors (new method)

 maximal supplied QI-value         = 15.12
 optimisation between [QCUT,QGAM] = [ 12.55, 25.10] = [ 44.09,176.36] Ry 
 Optimized for a Real-space Cutoff    1.56 Angstroem

   l    n(q)    QCUT    max X(q) W(low)/X(q) W(high)/X(q)  e(spline) 
   0     12    12.548     2.962    0.12E-05    0.11E-06    0.46E-07
   0     12    12.548    26.414    0.30E-04    0.15E-05    0.76E-07
   1     11    12.548     3.969    0.45E-05    0.12E-05    0.60E-07
   1     11    12.548     5.137    0.15E-04    0.18E-04    0.36E-06
   2     11    12.548   143.970    0.20E-03    0.19E-03    0.76E-06
   2     11    12.548   121.201    0.20E-03    0.19E-03    0.76E-06
 Optimization of the real space projectors (new method)

 maximal supplied QI-value         = 19.84
 optimisation between [QCUT,QGAM] = [ 12.50, 25.00] = [ 43.76,175.03] Ry 
 Optimized for a Real-space Cutoff    1.20 Angstroem

   l    n(q)    QCUT    max X(q) W(low)/X(q) W(high)/X(q)  e(spline) 
   0      9    12.501   168.010    0.44E-04    0.61E-04    0.77E-07
   0      9    12.501   164.674    0.43E-04    0.60E-04    0.75E-07
   1      8    12.501    69.222    0.11E-03    0.13E-03    0.91E-07
   1      8    12.501    56.786    0.11E-03    0.13E-03    0.90E-07
 Optimization of the real space projectors (new method)

 maximal supplied QI-value         = 25.13
 optimisation between [QCUT,QGAM] = [ 12.32, 24.88] = [ 42.47,173.37] Ry 
 Optimized for a Real-space Cutoff    1.16 Angstroem

   l    n(q)    QCUT    max X(q) W(low)/X(q) W(high)/X(q)  e(spline) 
   0      9    12.315   115.676    0.19E-03    0.80E-05    0.34E-06
   0      9    12.315    87.132    0.19E-03    0.82E-05    0.34E-06
   1      8    12.315     4.429    0.18E-03    0.13E-03    0.22E-06
   1      8    12.315     2.733    0.14E-03    0.10E-03    0.18E-06
  PAW_PBE Sc_sv 07Sep2000               :
 energy of atom  1       EATOM=-1273.2868
 kinetic energy error for atom=    0.0014 (will be added to EATOM!!)
  PAW_PBE Cl 06Sep2000                  :
 energy of atom  2       EATOM= -409.7259
 kinetic energy error for atom=    0.0013 (will be added to EATOM!!)
  PAW_PBE C 08Apr2002                   :
 energy of atom  3       EATOM= -147.1560
 kinetic energy error for atom=    0.0057 (will be added to EATOM!!)
 
 
 POSCAR: Sc Cl  C                                
  positions in cartesian coordinates
  No initial velocities read in
 exchange correlation table for  LEXCH =        8
   RHO(1)=    0.500       N(1)  =     2000
   RHO(2)=  100.500       N(2)  =     4000
 


--------------------------------------------------------------------------------------------------------


 ion  position               nearest neighbor table
   1  0.093  0.173  0.545-  66 2.24  70 2.32  65 2.39  49 2.48  50 2.74  61 2.94  17 3.13  18 3.30
                            29 3.33   6 3.36   2 3.41  13 3.43
   2  0.079  0.412  0.543-  67 2.28  66 2.34  71 2.43  50 2.51  51 2.66  62 2.74  18 3.22  30 3.23
                            19 3.37   7 3.38  14 3.40   1 3.41  13 3.41
   3  0.081  0.662  0.546-  67 2.31  68 2.33  51 2.49  72 2.53  63 2.66  52 2.86  31 3.10  20 3.21
                             7 3.35  19 3.36   8 3.36  14 3.41
   4  0.088  0.921  0.544-  69 2.32  68 2.41  65 2.42  52 2.68  64 2.76  49 2.88  20 3.03  32 3.15
                            17 3.23   5 3.32   8 3.39  16 3.42
   5  0.336  0.154  0.545-  69 2.11  74 2.32  53 2.44  49 2.59  70 2.63  54 2.78  21 3.18  17 3.25
                             9 3.29   4 3.32   8 3.37
   6  0.335  0.417  0.546-  75 2.38  71 2.42  55 2.44  50 2.47  70 2.49  54 2.74  22 3.15  23 3.20
                            18 3.33   1 3.36   7 3.43
   7  0.322  0.659  0.541-  71 2.26  72 2.33  76 2.46  51 2.52  55 2.64  56 2.99  19 3.07  24 3.22
                            23 3.22   3 3.35   8 3.38   2 3.38   6 3.43
   8  0.326  0.905  0.548-  73 2.21  72 2.38  52 2.51  69 2.55  53 2.74  56 2.80  20 3.20   3 3.36
                             5 3.37   7 3.38  21 3.38   4 3.39  24 3.40
   9  0.585  0.178  0.547-  74 2.24  78 2.37  73 2.48  57 2.49  58 2.52  53 2.71  26 3.04  10 3.23
                            25 3.28   5 3.29  14 3.36  21 3.41
  10  0.587  0.413  0.546-  79 2.25  74 2.36  58 2.44  59 2.54  75 2.58  54 2.79  26 3.15   9 3.23
                            27 3.32  22 3.38  14 3.39
  11  0.597  0.678  0.544-  80 2.17  76 2.36  75 2.37  60 2.39  55 2.60  59 2.64  27 3.10  15 3.18
                            28 3.18  12 3.31  16 3.31  23 3.32
  12  0.585  0.912  0.546-  76 2.19  73 2.28  77 2.36  56 2.45  57 2.53  60 2.78  25 3.20  28 3.20
                            24 3.23  11 3.31
  13  0.838  0.158  0.546-  77 2.21  66 2.33  61 2.43  78 2.52  57 2.52  62 2.67  29 3.10  30 3.26
                            25 3.31  16 3.34   2 3.41   1 3.43
  14  0.834  0.415  0.542-  78 2.22  67 2.33  79 2.37  62 2.54  58 2.60  63 2.84  30 3.08  31 3.25
                            26 3.30   9 3.36  10 3.39   2 3.40   3 3.41
  15  0.825  0.674  0.548-  80 2.27  79 2.29  68 2.48  63 2.51  64 2.54  59 2.61  32 3.12  11 3.18
                            27 3.20  16 3.27
  16  0.838  0.917  0.551-  65 2.30  80 2.37  60 2.47  64 2.52  61 2.57  77 2.61  32 3.19  15 3.27
                            11 3.31  13 3.34  29 3.35  28 3.39   4 3.42
  17  0.167  0.091  0.454-  70 2.17  69 2.33  65 2.47  36 2.64  33 2.67  37 2.68   1 3.13   4 3.23
                             5 3.25  22 3.40
  18  0.167  0.340  0.451-  71 2.31  70 2.36  34 2.39  66 2.42  33 2.66  38 2.66   2 3.22   1 3.30
                            22 3.32   6 3.33  23 3.35  19 3.38
  19  0.179  0.590  0.450-  72 2.27  71 2.34  35 2.38  39 2.51  67 2.53  34 2.74   7 3.07   3 3.36
                            31 3.36  24 3.36  23 3.37   2 3.37  18 3.38
  20  0.159  0.837  0.458-  68 2.24  72 2.38  69 2.41  36 2.47  40 2.56  35 2.79   4 3.03   8 3.20
                             3 3.21  31 3.24  32 3.35  21 3.37
  21  0.408  0.076  0.451-  69 2.31  74 2.46  37 2.57  40 2.60  73 2.62  41 2.64   5 3.18  26 3.30
                            20 3.37   8 3.38   9 3.41
  22  0.409  0.342  0.453-  70 2.25  75 2.39  38 2.60  74 2.60  37 2.67  42 2.67   6 3.15  23 3.19
                            18 3.32  10 3.38  17 3.40
  23  0.416  0.576  0.453-  75 2.19  71 2.31  76 2.58  39 2.62  43 2.67  38 2.72  22 3.19   6 3.20
                             7 3.22  11 3.32  18 3.35  19 3.37  27 3.38  24 3.41
  24  0.427  0.829  0.452-  76 2.26  72 2.37  44 2.51  39 2.51  73 2.52  40 2.80   7 3.22  12 3.23
                            28 3.28  25 3.31  19 3.36   8 3.40  23 3.41
  25  0.658  0.077  0.456-  77 2.26  78 2.48  41 2.51  44 2.53  73 2.53  45 2.59  12 3.20   9 3.28
                            13 3.31  24 3.31  28 3.36  26 3.39  30 3.43
  26  0.645  0.316  0.455-  74 2.15  78 2.40  42 2.55  41 2.56  46 2.59  79 2.71   9 3.04  10 3.15
                            21 3.30  14 3.30  25 3.39
  27  0.668  0.592  0.455-  80 2.34  75 2.34  79 2.40  43 2.60  47 2.84  42 2.87  11 3.10  15 3.20
                            10 3.32  32 3.36  23 3.38  28 3.41
  28  0.670  0.840  0.453-  44 2.33  76 2.39  80 2.39  77 2.41  43 2.55  48 2.56  11 3.18  12 3.20
                            24 3.28  29 3.34  25 3.36  16 3.39  27 3.41  32 3.41
  29  0.911  0.084  0.454-  66 2.31  77 2.31  65 2.35  45 2.46  48 2.57  33 2.68  13 3.10   1 3.33
                            28 3.34  16 3.35  30 3.41
  30  0.904  0.328  0.454-  78 2.23  67 2.43  46 2.57  66 2.58  45 2.59  34 2.73  14 3.08   2 3.23
                            13 3.26  29 3.41  25 3.43
  31  0.936  0.591  0.453-  68 2.28  67 2.32  35 2.41  47 2.49  79 2.68  46 2.68   3 3.10  20 3.24
                            14 3.25  19 3.36
  32  0.914  0.833  0.459-  80 2.29  65 2.33  68 2.37  48 2.48  36 2.54  47 2.68  15 3.12   4 3.15
                            16 3.19  20 3.35  27 3.36  28 3.41
  33  0.078  0.168  0.390-  18 2.66  17 2.67  29 2.68
  34  0.082  0.403  0.393-  18 2.39  30 2.73  19 2.74
  35  0.088  0.654  0.396-  19 2.38  31 2.41  20 2.79
  36  0.075  0.910  0.400-  20 2.47  32 2.54  17 2.64
  37  0.337  0.170  0.392-  21 2.57  22 2.67  17 2.68
  38  0.329  0.413  0.385-  22 2.60  18 2.66  23 2.72
  39  0.343  0.670  0.393-  24 2.51  19 2.51  23 2.62
  40  0.313  0.904  0.394-  20 2.56  21 2.60  24 2.80
  41  0.585  0.158  0.394-  25 2.51  26 2.56  21 2.64
  42  0.579  0.403  0.392-  26 2.55  22 2.67  27 2.87
  43  0.589  0.677  0.394-  28 2.55  27 2.60  23 2.67
  44  0.596  0.914  0.399-  28 2.33  24 2.51  25 2.53
  45  0.827  0.157  0.397-  29 2.46  30 2.59  25 2.59
  46  0.816  0.410  0.398-  30 2.57  26 2.59  31 2.68
  47  0.857  0.670  0.394-  31 2.49  32 2.68  27 2.84
  48  0.843  0.914  0.398-  32 2.48  28 2.56  29 2.57
  49  0.179  0.111  0.608-   1 2.48   5 2.59   4 2.88
  50  0.178  0.357  0.603-   6 2.47   2 2.51   1 2.74
  51  0.166  0.587  0.602-   3 2.49   7 2.52   2 2.66
  52  0.176  0.847  0.611-   8 2.51   4 2.68   3 2.86
  53  0.409  0.085  0.608-   5 2.44   9 2.71   8 2.74
  54  0.412  0.325  0.613-   6 2.74   5 2.78  10 2.79
  55  0.421  0.582  0.598-   6 2.44  11 2.60   7 2.64
  56  0.446  0.846  0.611-  12 2.45   8 2.80   7 2.99
  57  0.665  0.086  0.598-   9 2.49  13 2.52  12 2.53
  58  0.671  0.343  0.604-  10 2.44   9 2.52  14 2.60
  59  0.656  0.573  0.607-  10 2.54  15 2.61  11 2.64
  60  0.676  0.816  0.606-  11 2.39  16 2.47  12 2.78
  61  0.899  0.081  0.610-  13 2.43  16 2.57   1 2.94
  62  0.901  0.331  0.606-  14 2.54  13 2.67   2 2.74
  63  0.911  0.599  0.606-  15 2.51   3 2.66  14 2.84
  64  0.914  0.831  0.610-  16 2.52  15 2.54   4 2.76
  65  0.992  0.001  0.502-  16 2.30  32 2.33  29 2.35   1 2.39   4 2.42  17 2.47
  66  0.004  0.242  0.502-   1 2.24  29 2.31  13 2.33   2 2.34  18 2.42  30 2.58
  67  0.004  0.500  0.500-   2 2.28   3 2.31  31 2.32  14 2.33  30 2.43  19 2.53
  68  0.000  0.746  0.501-  20 2.24  31 2.28   3 2.33  32 2.37   4 2.41  15 2.48
  69  0.252  0.013  0.500-   5 2.11  21 2.31   4 2.32  17 2.33  20 2.41   8 2.55
  70  0.246  0.248  0.493-  17 2.17  22 2.25   1 2.32  18 2.36   6 2.49   5 2.63
  71  0.251  0.500  0.497-   7 2.26  18 2.31  23 2.31  19 2.34   6 2.42   2 2.43
  72  0.254  0.751  0.493-  19 2.27   7 2.33  24 2.37   8 2.38  20 2.38   3 2.53
  73  0.489  0.988  0.511-   8 2.21  12 2.28   9 2.48  24 2.52  25 2.53  21 2.62
  74  0.500  0.246  0.501-  26 2.15   9 2.24   5 2.32  10 2.36  21 2.46  22 2.60
  75  0.500  0.511  0.499-  23 2.19  27 2.34  11 2.37   6 2.38  22 2.39  10 2.58
  76  0.507  0.760  0.502-  12 2.19  24 2.26  11 2.36  28 2.39   7 2.46  23 2.58
  77  0.749  0.010  0.499-  13 2.21  25 2.26  29 2.31  12 2.36  28 2.41  16 2.61
  78  0.752  0.256  0.501-  14 2.22  30 2.23   9 2.37  26 2.40  25 2.48  13 2.52
  79  0.749  0.510  0.506-  10 2.25  15 2.29  14 2.37  27 2.40  31 2.68  26 2.71
  80  0.750  0.755  0.502-  11 2.17  15 2.27  32 2.29  27 2.34  16 2.37  28 2.39
 
  LATTYP: Found a hexagonal cell.
 ALAT       =    13.7939866762
 C/A-ratio  =     2.0161119278
  
  Lattice vectors:
  
 A1 = (  13.7939866800,   0.0000000000,   0.0000000000)
 A2 = (  -6.8969933400,  11.9459428800,   0.0000000000)
 A3 = (   0.0000000000,   0.0000000000,  27.8102210700)


Analysis of symmetry for initial positions (statically):
=====================================================================
 Subroutine PRICEL returns:
 Original cell was already a primitive cell.
 

 Routine SETGRP: Setting up the symmetry group for a 
 hexagonal supercell.


 Subroutine GETGRP returns: Found  1 space group operations
 (whereof  1 operations were pure point group operations)
 out of a pool of 24 trial point group operations.


The static configuration has the point symmetry C_1 .


Analysis of symmetry for dynamics (positions and initial velocities):
=====================================================================
 Subroutine PRICEL returns:
 Original cell was already a primitive cell.
 

 Routine SETGRP: Setting up the symmetry group for a 
 hexagonal supercell.


 Subroutine GETGRP returns: Found  1 space group operations
 (whereof  1 operations were pure point group operations)
 out of a pool of 24 trial point group operations.


The dynamic configuration has the point symmetry C_1 .


 Subroutine INISYM returns: Found  1 space group operations
 (whereof  1 operations are pure point group operations),
 and found     1 'primitive' translations

 
 

Automatic generation of k-mesh.
 generate k-points for:    3    3    1
Space group operators:
 irot       det(A)        alpha          n_x          n_y          n_z        tau_x        tau_y        tau_z
    1     1.000000     0.000000     1.000000     0.000000     0.000000     0.000000     0.000000     0.000000
 
 Subroutine IBZKPT returns following result:
 ===========================================
 
 Found      5 irreducible k-points:
 
 Following reciprocal coordinates:
            Coordinates               Weight
  0.000000  0.000000  0.000000      1.000000
  0.333333 -0.000000  0.000000      2.000000
  0.000000  0.333333  0.000000      2.000000
  0.333333  0.333333  0.000000      2.000000
 -0.333333  0.333333  0.000000      2.000000
 
 Following cartesian coordinates:
            Coordinates               Weight
  0.000000  0.000000  0.000000      1.000000
  0.024165  0.013952  0.000000      2.000000
  0.000000  0.027903  0.000000      2.000000
  0.024165  0.041855  0.000000      2.000000
 -0.024165  0.013952  0.000000      2.000000
 


--------------------------------------------------------------------------------------------------------




 Dimension of arrays:
   k-points           NKPTS =      5   k-points in BZ     NKDIM =      5   number of bands    NBANDS=    384
   number of dos      NEDOS =    301   number of ions     NIONS =     80
   non local maximal  LDIM  =      6   non local SUM 2l+1 LMDIM =     18
   total plane-waves  NPLWV = ******
   max r-space proj   IRMAX =   9806   max aug-charges    IRDMAX= 216835
   dimension x,y,z NGX =   112 NGY =  112 NGZ =  224
   dimension x,y,z NGXF=   224 NGYF=  224 NGZF=  448
   support grid    NGXF=   448 NGYF=  448 NGZF=  896
   ions per type =              32  32  16
   NGX,Y,Z   is equivalent  to a cutoff of  13.50, 13.50, 13.39 a.u.
   NGXF,Y,Z  is equivalent  to a cutoff of  27.00, 27.00, 26.78 a.u.

 SYSTEM =  unknown system                          
 POSCAR =  Sc Cl  C                                

 Startparameter for this run:
   NWRITE =      2    write-flag & timer
   PREC   = anorma    normal or accurate (medium, high low for compatibility)
   ISTART =      0    job   : 0-new  1-cont  2-samecut
   ICHARG =      2    charge: 1-file 2-atom 10-const
   ISPIN  =      1    spin polarized calculation?
   LNONCOLLINEAR =      F non collinear calculations
   LSORBIT =      F    spin-orbit coupling
   INIWAV =      1    electr: 0-lowe 1-rand  2-diag
   LASPH  =      F    aspherical Exc in radial PAW
   METAGGA=      F    non-selfconsistent MetaGGA calc.

 Electronic Relaxation 1
   ENCUT  =  600.0 eV  44.10 Ry    6.64 a.u.  27.55 27.55 55.54*2*pi/ulx,y,z
   ENINI  =  600.0     initial cutoff
   ENAUG  =  644.9 eV  augmentation charge cutoff
   NELM   =     60;   NELMIN=  2; NELMDL= -5     # of ELM steps 
   EDIFF  = 0.1E-05   stopping-criterion for ELM
   LREAL  =      T    real-space projection
   NLSPLINE    = F    spline interpolate recip. space projectors
   LCOMPAT=      F    compatible to vasp.4.4
   GGA_COMPAT  = T    GGA compatible to vasp.4.4-vasp.4.6
   LMAXPAW     = -100 max onsite density
   LMAXMIX     =    2 max onsite mixed and CHGCAR
   VOSKOWN=      0    Vosko Wilk Nusair interpolation
   ROPT   =   -0.00025  -0.00025  -0.00025
 Ionic relaxation
   EDIFFG = -.1E-01   stopping-criterion for IOM
   NSW    =      1    number of steps for IOM
   NBLOCK =      1;   KBLOCK =      1    inner block; outer block 
   IBRION =     -1    ionic relax: 0-MD 1-quasi-New 2-CG
   NFREE  =      0    steps in history (QN), initial steepest desc. (CG)
   ISIF   =      2    stress and relaxation
   IWAVPR =     10    prediction:  0-non 1-charg 2-wave 3-comb
   ISYM   =      2    0-nonsym 1-usesym 2-fastsym
   LCORR  =      T    Harris-Foulkes like correction to forces

   POTIM  = 1.0000    time-step for ionic-motion
   TEIN   =    0.0    initial temperature
   TEBEG  =    0.0;   TEEND  =   0.0 temperature during run
   SMASS  =  -3.00    Nose mass-parameter (am)
   estimated Nose-frequenzy (Omega)   =  0.10E-29 period in steps =****** mass=  -0.435E-26a.u.
   SCALEE = 1.0000    scale energy and forces
   NPACO  =    256;   APACO  = 16.0  distance and # of slots for P.C.
   PSTRESS=    0.0 pullay stress

  Mass of Ions in am
   POMASS =  44.96 35.45 12.01
  Ionic Valenz
   ZVAL   =  11.00  7.00  4.00
  Atomic Wigner-Seitz radii
   RWIGS  =  -1.00 -1.00 -1.00
  virtual crystal weights 
   VCA    =   1.00  1.00  1.00
   NELECT =     640.0000    total number of electrons
   NUPDOWN=      -1.0000    fix difference up-down

 DOS related values:
   EMIN   =  10.00;   EMAX   =-10.00  energy-range for DOS
   EFERMI =   0.00
   ISMEAR =     0;   SIGMA  =   0.05  broadening in eV -4-tet -1-fermi 0-gaus

 Electronic relaxation 2 (details)
   IALGO  =     38    algorithm
   LDIAG  =      T    sub-space diagonalisation (order eigenvalues)
   LSUBROT=      F    optimize rotation matrix (better conditioning)
   TURBO    =      0    0=normal 1=particle mesh
   IRESTART =      0    0=no restart 2=restart with 2 vectors
   NREBOOT  =      0    no. of reboots
   NMIN     =      0    reboot dimension
   EREF     =   0.00    reference energy to select bands
   IMIX   =      4    mixing-type and parameters
     AMIX     =   0.40;   BMIX     =  1.00
     AMIX_MAG =   1.60;   BMIX_MAG =  1.00
     AMIN     =   0.10
     WC   =   100.;   INIMIX=   1;  MIXPRE=   1;  MAXMIX= -45

 Intra band minimization:
   WEIMIN = 0.0000     energy-eigenvalue tresh-hold
   EBREAK =  0.65E-09  absolut break condition
   DEPER  =   0.30     relativ break condition  

   TIME   =   0.40     timestep for ELM

  volume/ion in A,a.u.               =      57.28       386.56
  Fermi-wavevector in a.u.,A,eV,Ry     =   0.849369  1.605075  9.815628  0.721428
  Thomas-Fermi vector in A             =   1.965179
 
 Write flags
   LWAVE        =      F    write WAVECAR
   LDOWNSAMPLE  =      F    k-point downsampling of WAVECAR
   LCHARG       =      F    write CHGCAR
   LVTOT        =      F    write LOCPOT, total local potential
   LVHAR        =      F    write LOCPOT, Hartree potential only
   LELF         =      F    write electronic localiz. function (ELF)
   LORBIT       =      0    0 simple, 1 ext, 2 COOP (PROOUT), +10 PAW based schemes


 Dipole corrections
   LMONO  =      F    monopole corrections only (constant potential shift)
   LDIPOL =      F    correct potential (dipole corrections)
   IDIPOL =      0    1-x, 2-y, 3-z, 4-all directions 
   EPSILON=  1.0000000 bulk dielectric constant

 Exchange correlation treatment:
   GGA     =    --    GGA type
   LEXCH   =     8    internal setting for exchange type
   VOSKOWN=      0    Vosko Wilk Nusair interpolation
   LHFCALC =     F    Hartree Fock is set to
   LHFONE  =     F    Hartree Fock one center treatment
   AEXX    =    0.0000 exact exchange contribution

 Linear response parameters
   LEPSILON=     F    determine dielectric tensor
   LRPA    =     F    only Hartree local field effects (RPA)
   LNABLA  =     F    use nabla operator in PAW spheres
   LVEL    =     F    velocity operator in full k-point grid
   LINTERFAST=   F  fast interpolation
   KINTER  =     0    interpolate to denser k-point grid
   CSHIFT  =0.1000    complex shift for real part using Kramers Kronig
   OMEGAMAX=  -1.0    maximum frequency
   DEG_THRESHOLD= 0.2000000E-02 threshold for treating states as degnerate
   RTIME   =   -0.100 relaxation time in fs
  (WPLASMAI=    0.000 imaginary part of plasma frequency in eV, 0.658/RTIME)
   DFIELD  = 0.0000000 0.0000000 0.0000000 field for delta impulse in time
 
 Orbital magnetization related:
   ORBITALMAG=     F  switch on orbital magnetization
   LCHIMAG   =     F  perturbation theory with respect to B field
   DQ        =  0.001000  dq finite difference perturbation B field
   LLRAUG    =     F  two centre corrections for induced B field



--------------------------------------------------------------------------------------------------------


 Static calculation
 charge density and potential will be updated during run
 non-spin polarized calculation
 Variant of blocked Davidson
 Davidson routine will perform the subspace rotation
 perform sub-space diagonalisation
    after iterative eigenvector-optimisation
 modified Broyden-mixing scheme, WC =      100.0
 initial mixing is a Kerker type mixing with AMIX =  0.4000 and BMIX =      1.0000
 Hartree-type preconditioning will be used
 using additional bands           64
 real space projection scheme for non local part
 use partial core corrections
 calculate Harris-corrections to forces 
   (improved forces if not selfconsistent)
 use gradient corrections 
 use of overlap-Matrix (Vanderbilt PP)
 Gauss-broadening in eV      SIGMA  =   0.05


--------------------------------------------------------------------------------------------------------


  energy-cutoff  :      600.00
  volume of cell :     4582.63
      direct lattice vectors                 reciprocal lattice vectors
    13.793986680  0.000000000  0.000000000     0.072495358  0.041855214  0.000000000
    -6.896993340 11.945942880  0.000000000     0.000000000  0.083710429  0.000000000
     0.000000000  0.000000000 27.810221070     0.000000000  0.000000000  0.035958003

  length of vectors
    13.793986680 13.793986676 27.810221070     0.083710429  0.083710429  0.035958003


 
 k-points in units of 2pi/SCALE and weight: read from INCAR                         
   0.00000000  0.00000000  0.00000000       0.111
   0.02416512  0.01395174  0.00000000       0.222
   0.00000000  0.02790348  0.00000000       0.222
   0.02416512  0.04185521  0.00000000       0.222
  -0.02416512  0.01395174  0.00000000       0.222
 
 k-points in reciprocal lattice and weights: read from INCAR                         
   0.00000000  0.00000000  0.00000000       0.111
   0.33333333 -0.00000000  0.00000000       0.222
   0.00000000  0.33333333  0.00000000       0.222
   0.33333333  0.33333333  0.00000000       0.222
  -0.33333333  0.33333333  0.00000000       0.222
 
 position of ions in fractional coordinates (direct lattice) 
   0.09292079  0.17263632  0.54489594
   0.07851844  0.41195701  0.54330918
   0.08091025  0.66226200  0.54552176
   0.08813799  0.92096636  0.54434660
   0.33560027  0.15382667  0.54540668
   0.33488738  0.41707653  0.54617523
   0.32214590  0.65875641  0.54124930
   0.32552358  0.90490763  0.54761078
   0.58513382  0.17814426  0.54700259
   0.58712073  0.41314854  0.54643826
   0.59736397  0.67832055  0.54373552
   0.58514036  0.91210300  0.54623827
   0.83772254  0.15836508  0.54595295
   0.83408152  0.41541884  0.54183151
   0.82539414  0.67415888  0.54833303
   0.83832864  0.91702688  0.55125416
   0.16692963  0.09116171  0.45435161
   0.16704434  0.33985890  0.45061287
   0.17905116  0.59038032  0.44968028
   0.15872803  0.83691552  0.45796926
   0.40781957  0.07600022  0.45094165
   0.40851235  0.34190348  0.45270404
   0.41552503  0.57623349  0.45349533
   0.42737672  0.82921115  0.45206135
   0.65783738  0.07733257  0.45563510
   0.64499331  0.31631871  0.45530684
   0.66783241  0.59197942  0.45513568
   0.67033835  0.84007814  0.45295304
   0.91093005  0.08388462  0.45443955
   0.90442652  0.32783750  0.45433884
   0.93601124  0.59131503  0.45306125
   0.91373031  0.83289969  0.45918492
   0.07799435  0.16804976  0.39002915
   0.08233856  0.40274332  0.39291158
   0.08753809  0.65433762  0.39640684
   0.07527430  0.90993411  0.39993127
   0.33744076  0.17038780  0.39157256
   0.32916634  0.41313494  0.38518283
   0.34253655  0.67049318  0.39304522
   0.31286430  0.90422502  0.39394807
   0.58462799  0.15762604  0.39396793
   0.57900874  0.40298786  0.39155465
   0.58942859  0.67714555  0.39351733
   0.59618443  0.91393643  0.39860519
   0.82660512  0.15690195  0.39738346
   0.81598947  0.41022944  0.39817446
   0.85726174  0.66962691  0.39408578
   0.84262213  0.91411926  0.39845428
   0.17917984  0.11149362  0.60751566
   0.17801533  0.35698107  0.60321892
   0.16634308  0.58704443  0.60243005
   0.17649229  0.84709649  0.61082284
   0.40888194  0.08507849  0.60848291
   0.41206175  0.32498724  0.61277045
   0.42112838  0.58155263  0.59824888
   0.44573905  0.84604872  0.61083794
   0.66516271  0.08635587  0.59762809
   0.67142497  0.34289089  0.60379304
   0.65553424  0.57296543  0.60661070
   0.67613553  0.81643563  0.60563985
   0.89909297  0.08126466  0.60973246
   0.90147074  0.33120027  0.60582289
   0.91088415  0.59859427  0.60643012
   0.91366410  0.83102138  0.60962058
   0.99205892  0.00122793  0.50153786
   0.00369491  0.24171925  0.50170663
   0.00368242  0.49960800  0.50038503
   0.00034731  0.74642319  0.50059919
   0.25235067  0.01298918  0.50005969
   0.24617168  0.24831217  0.49343910
   0.25062082  0.50023017  0.49687510
   0.25428247  0.75067201  0.49329399
   0.48930996  0.98837574  0.51079514
   0.49950306  0.24617774  0.50090463
   0.49984887  0.51110130  0.49873387
   0.50664744  0.76010361  0.50214417
   0.74890024  0.00973487  0.49945355
   0.75240673  0.25570885  0.50099408
   0.74894270  0.51003570  0.50560483
   0.75016954  0.75525911  0.50178886
 
 position of ions in cartesian coordinates  (Angst):
   0.09107663  2.06230357 15.15367657
  -1.75818241  4.92121486 15.10954835
  -3.45154172  7.91134408 15.17108076
  -5.13612456 11.00181148 15.13839941
   3.56832416  1.83760457 15.16788027
   1.74285799  4.98237240 15.18925398
  -0.09976232  7.86946647 15.05226272
  -1.75087392 10.80997480 15.22917697
   6.84266835  2.12810114 15.21226301
   5.24925279  4.93544887 15.19656876
   3.56165834  8.10317851 15.12140498
   1.78065001 10.89593030 15.19100711
  10.46329062  1.89182024 15.18307224
   8.64016839  4.96256973 15.06845402
   6.73580642  8.05346346 15.24926275
   5.23916582 10.95475076 15.33050012
   1.67388336  1.08901253 12.63561881
  -0.03979721  4.05993501 12.53164346
  -1.60201977  7.05264955 12.50570794
  -3.58270848  9.99774501 12.73622623
   5.10128472  0.90789426 12.54078697
   3.27690793  4.08435941 12.58979935
   1.75746820  6.88365234 12.61180545
   0.17616496  9.90570901 12.57192609
   8.54083791  0.92381044 12.67131278
   6.71538117  3.77872521 12.66218377
   5.12919320  7.07175238 12.65742384
   3.45262487 10.03552551 12.59672409
  11.98680535  1.00208093 12.63806435
  10.21455438  3.91632799 12.63526363
   8.83303080  7.06381552 12.59973347
   6.85948019  9.94977209 12.77003420
  -0.08318500  2.00751281 10.84679693
  -1.64194103  4.81114866 10.92695801
  -3.30546301  7.81667989 11.02416185
  -5.23747686 10.87002090 11.12217702
   3.47948974  2.03544298 10.88971947
   1.69112720  4.93528639 10.71201962
   0.10055762  8.00967324 10.93067441
  -1.92078800 10.80182042 10.95578290
   6.97720498  1.88299170 10.95633511
   5.20743426  4.81406992 10.88922150
   3.46030170  8.08914209 10.94380391
   1.92034654 10.91783243 11.08529838
  10.32002831  1.87434176 11.05132195
   8.42639816  4.90057745 11.07331983
   7.20664464  7.99932483 10.95961266
   5.31844399 10.92001648 11.08110173
   1.70263355  1.33189637 16.89514470
  -0.00655491  4.26447546 16.77565165
  -1.75430731  7.01279920 16.75371295
  -3.40788653 10.11936634 16.98711824
   5.05332621  1.01634282 16.92204433
   3.44253944  3.88227905 17.04128165
   1.79807473  6.94719447 16.63743365
   0.31332607 10.10684969 16.98753809
   8.57964975  1.03160229 16.62016918
   6.89671085  4.09615500 16.79161789
   5.09069184  6.84461228 16.86997779
   3.69565344  9.75309341 16.84297814
  11.84159467  0.97078301 16.95679455
  10.15058934  3.95649956 16.84806858
   8.43622319  7.15077297 16.86495576
   6.87152147  9.92733399 16.95368317
  13.67597850  0.01466882 13.94787872
  -1.61616849  2.88756435 13.95257239
  -3.39499777  5.96828860 13.91581838
  -5.14328494  8.91672878 13.92177419
   3.39133555  0.15516798 13.90677043
   1.68308148  2.96632294 13.72265055
   0.00697605  5.97572105 13.81820636
  -1.66981085  8.96748494 13.71861478
  -0.06728581 11.80708019 14.20532580
   5.19225236  2.94082525 13.93026857
   3.36984634  6.10558693 13.86989905
   1.74625857  9.08015431 13.96474035
  10.26317859  0.11629226 13.88991365
   8.61506617  3.05468327 13.93275602
   6.81319283  6.09285737 14.06098201
   5.13881160  9.02228221 13.95485914
 


--------------------------------------------------------------------------------------------------------


 k-point  1 :   0.0000 0.0000 0.0000  plane waves:  153003
 k-point  2 :   0.3333-0.0000 0.0000  plane waves:  152954
 k-point  3 :   0.0000 0.3333 0.0000  plane waves:  152954
 k-point  4 :   0.3333 0.3333 0.0000  plane waves:  152898
 k-point  5 :  -0.3333 0.3333 0.0000  plane waves:  152954

 maximum and minimum number of plane-waves per node :     11814    11730

 maximum number of plane-waves:    153003
 maximum index in each direction: 
   IXMAX=   27   IYMAX=   27   IZMAX=   55
   IXMIN=  -27   IYMIN=  -27   IZMIN=  -55


 real space projection operators:
  total allocation   :      55020.42 KBytes
  max/ min on nodes  :       4435.42       3928.81


 parallel 3D FFT for wavefunctions:
    minimum data exchange during FFTs selected (reduces bandwidth)
 parallel 3D FFT for charge:
    minimum data exchange during FFTs selected (reduces bandwidth)


 total amount of memory used by VASP MPI-rank0   253937. kBytes
=======================================================================

   base      :      30000. kBytes
   nonlr-proj:      18753. kBytes
   fftplans  :      72602. kBytes
   grid      :      41267. kBytes
   one-center:        108. kBytes
   wavefun   :      91207. kBytes
 
     INWAV:  cpu time    0.0000: real time    0.0000
 Broyden mixing: mesh for mixing (old mesh)
   NGX = 55   NGY = 55   NGZ =111
  (NGX  =224   NGY  =224   NGZ  =448)
  gives a total of 335775 points

 initial charge density was supplied:
 charge density of overlapping atoms calculated
 number of electron     640.0000000 magnetization 
 keeping initial charge density in first step


--------------------------------------------------------------------------------------------------------


 Maximum index for non-local projection operator          954
 Maximum index for augmentation-charges         5792 (set IRDMAX)


--------------------------------------------------------------------------------------------------------


 First call to EWALD:  gamma=   0.107
 Maximum number of real-space cells 4x 4x 2
 Maximum number of reciprocal cells 2x 2x 4

    FEWALD:  cpu time    0.0030: real time    0.0030


--------------------------------------- Iteration      1(   1)  ---------------------------------------


    POTLOK:  cpu time    0.4097: real time    0.4154
    SETDIJ:  cpu time    0.4216: real time    0.4217
     EDDAV:  cpu time   50.1280: real time   50.1298
       DOS:  cpu time    0.0015: real time    0.0015
    --------------------------------------------
      LOOP:  cpu time   50.9608: real time   50.9684

 eigenvalue-minimisations  :  4424
 total energy-change (2. order) : 0.1218566E+05  (-0.2678233E+05)
 number of electron     640.0000000 magnetization 
 augmentation part      640.0000000 magnetization 

 Free energy of the ion-electron system (eV)
  ---------------------------------------------------
  alpha Z        PSCENC =       784.57699423
  Ewald energy   TEWEN  =    250412.21937911
  -Hartree energ DENC   =   -298088.07810058
  -exchange      EXHF   =         0.00000000
  -V(xc)+E(xc)   XCENC  =      2502.02102518
  PAW double counting   =     43679.68029659   -43417.33247688
  entropy T*S    EENTRO =        -0.05729427
  eigenvalues    EBANDS =       101.90696139
  atomic energy  EATOM  =     56210.72393729
  Solvation  Ediel_sol  =         0.00000000
  ---------------------------------------------------
  free energy    TOTEN  =     12185.66072205 eV

  energy without entropy =    12185.71801633  energy(sigma->0) =    12185.68936919


--------------------------------------------------------------------------------------------------------




--------------------------------------- Iteration      1(   2)  ---------------------------------------


     EDDAV:  cpu time   56.7746: real time   56.7858
       DOS:  cpu time    0.0012: real time    0.0012
    --------------------------------------------
      LOOP:  cpu time   56.7758: real time   56.7870

 eigenvalue-minimisations  :  5192
 total energy-change (2. order) :-0.1044495E+05  (-0.1018066E+05)
 number of electron     640.0000000 magnetization 
 augmentation part      640.0000000 magnetization 

 Free energy of the ion-electron system (eV)
  ---------------------------------------------------
  alpha Z        PSCENC =       784.57699423
  Ewald energy   TEWEN  =    250412.21937911
  -Hartree energ DENC   =   -298088.07810058
  -exchange      EXHF   =         0.00000000
  -V(xc)+E(xc)   XCENC  =      2502.02102518
  PAW double counting   =     43679.68029659   -43417.33247688
  entropy T*S    EENTRO =        -0.04227216
  eigenvalues    EBANDS =    -10343.05650371
  atomic energy  EATOM  =     56210.72393729
  Solvation  Ediel_sol  =         0.00000000
  ---------------------------------------------------
  free energy    TOTEN  =      1740.71227906 eV

  energy without entropy =     1740.75455122  energy(sigma->0) =     1740.73341514


--------------------------------------------------------------------------------------------------------




--------------------------------------- Iteration      1(   3)  ---------------------------------------


     EDDAV:  cpu time   70.9837: real time   70.9897
       DOS:  cpu time    0.0008: real time    0.0008
    --------------------------------------------
      LOOP:  cpu time   70.9845: real time   70.9906

 eigenvalue-minimisations  :  6800
 total energy-change (2. order) :-0.2144713E+04  (-0.2059075E+04)
 number of electron     640.0000000 magnetization 
 augmentation part      640.0000000 magnetization 

 Free energy of the ion-electron system (eV)
  ---------------------------------------------------
  alpha Z        PSCENC =       784.57699423
  Ewald energy   TEWEN  =    250412.21937911
  -Hartree energ DENC   =   -298088.07810058
  -exchange      EXHF   =         0.00000000
  -V(xc)+E(xc)   XCENC  =      2502.02102518
  PAW double counting   =     43679.68029659   -43417.33247688
  entropy T*S    EENTRO =        -0.00000002
  eigenvalues    EBANDS =    -12487.81128477
  atomic energy  EATOM  =     56210.72393729
  Solvation  Ediel_sol  =         0.00000000
  ---------------------------------------------------
  free energy    TOTEN  =      -404.00022985 eV

  energy without entropy =     -404.00022984  energy(sigma->0) =     -404.00022984


--------------------------------------------------------------------------------------------------------




--------------------------------------- Iteration      1(   4)  ---------------------------------------


     EDDAV:  cpu time   64.8256: real time   64.8349
       DOS:  cpu time    0.0005: real time    0.0005
    --------------------------------------------
      LOOP:  cpu time   64.8261: real time   64.8353

 eigenvalue-minimisations  :  6096
 total energy-change (2. order) :-0.2369558E+03  (-0.2325651E+03)
 number of electron     640.0000000 magnetization 
 augmentation part      640.0000000 magnetization 

 Free energy of the ion-electron system (eV)
  ---------------------------------------------------
  alpha Z        PSCENC =       784.57699423
  Ewald energy   TEWEN  =    250412.21937911
  -Hartree energ DENC   =   -298088.07810058
  -exchange      EXHF   =         0.00000000
  -V(xc)+E(xc)   XCENC  =      2502.02102518
  PAW double counting   =     43679.68029659   -43417.33247688
  entropy T*S    EENTRO =        -0.00000000
  eigenvalues    EBANDS =    -12724.76705494
  atomic energy  EATOM  =     56210.72393729
  Solvation  Ediel_sol  =         0.00000000
  ---------------------------------------------------
  free energy    TOTEN  =      -640.95600000 eV

  energy without entropy =     -640.95600000  energy(sigma->0) =     -640.95600000


--------------------------------------------------------------------------------------------------------




--------------------------------------- Iteration      1(   5)  ---------------------------------------


     EDDAV:  cpu time   64.6548: real time   64.6637
       DOS:  cpu time    0.0005: real time    0.0005
    CHARGE:  cpu time    3.8920: real time    3.8921
    MIXING:  cpu time    0.0108: real time    0.0109
    --------------------------------------------
      LOOP:  cpu time   68.5582: real time   68.5671

 eigenvalue-minimisations  :  6080
 total energy-change (2. order) :-0.1044289E+02  (-0.1038800E+02)
 number of electron     640.0000003 magnetization 
 augmentation part       59.1631733 magnetization 

 Broyden mixing:
  rms(total) = 0.69258E+01    rms(broyden)= 0.69257E+01
  rms(prec ) = 0.72938E+01
  weight for this iteration     100.00

 Free energy of the ion-electron system (eV)
  ---------------------------------------------------
  alpha Z        PSCENC =       784.57699423
  Ewald energy   TEWEN  =    250412.21937911
  -Hartree energ DENC   =   -298088.07810058
  -exchange      EXHF   =         0.00000000
  -V(xc)+E(xc)   XCENC  =      2502.02102518
  PAW double counting   =     43679.68029659   -43417.33247688
  entropy T*S    EENTRO =        -0.00000000
  eigenvalues    EBANDS =    -12735.20994761
  atomic energy  EATOM  =     56210.72393729
  Solvation  Ediel_sol  =         0.00000000
  ---------------------------------------------------
  free energy    TOTEN  =      -651.39889268 eV

  energy without entropy =     -651.39889268  energy(sigma->0) =     -651.39889268


--------------------------------------------------------------------------------------------------------




--------------------------------------- Iteration      1(   6)  ---------------------------------------


    POTLOK:  cpu time    0.3858: real time    0.3941
    SETDIJ:  cpu time    0.4205: real time    0.4205
     EDDAV:  cpu time   62.5577: real time   62.5585
       DOS:  cpu time    0.0010: real time    0.0010
    CHARGE:  cpu time    3.9122: real time    3.9123
    MIXING:  cpu time    0.0106: real time    0.0107
    --------------------------------------------
      LOOP:  cpu time   67.2879: real time   67.2971

 eigenvalue-minimisations  :  5832
 total energy-change (2. order) : 0.1311192E+03  (-0.6953901E+02)
 number of electron     640.0000003 magnetization 
 augmentation part       70.2087463 magnetization 

 Broyden mixing:
  rms(total) = 0.31369E+01    rms(broyden)= 0.31368E+01
  rms(prec ) = 0.31706E+01
  weight for this iteration     100.00

 eigenvalues of (default mixing * dielectric matrix)
  average eigenvalue GAMMA=   0.9367
  0.9367

 Free energy of the ion-electron system (eV)
  ---------------------------------------------------
  alpha Z        PSCENC =       784.57699423
  Ewald energy   TEWEN  =    250412.21937911
  -Hartree energ DENC   =   -297898.32425944
  -exchange      EXHF   =         0.00000000
  -V(xc)+E(xc)   XCENC  =      2491.70796785
  PAW double counting   =     49174.81156669   -48966.95034036
  entropy T*S    EENTRO =        -0.00002015
  eigenvalues    EBANDS =    -12729.04493752
  atomic energy  EATOM  =     56210.72393729
  Solvation  Ediel_sol  =         0.00000000
  ---------------------------------------------------
  free energy    TOTEN  =      -520.27971232 eV

  energy without entropy =     -520.27969217  energy(sigma->0) =     -520.27970224


--------------------------------------------------------------------------------------------------------




--------------------------------------- Iteration      1(   7)  ---------------------------------------


    POTLOK:  cpu time    0.3865: real time    0.3943
    SETDIJ:  cpu time    0.4202: real time    0.4202
     EDDAV:  cpu time   63.1866: real time   63.1910
       DOS:  cpu time    0.0005: real time    0.0005
    CHARGE:  cpu time    3.8846: real time    3.8847
    MIXING:  cpu time    0.0105: real time    0.0105
    --------------------------------------------
      LOOP:  cpu time   67.8889: real time   67.9012

 eigenvalue-minimisations  :  5904
 total energy-change (2. order) :-0.5585664E+01  (-0.9741541E+01)
 number of electron     640.0000003 magnetization 
 augmentation part       69.4796715 magnetization 

 Broyden mixing:
  rms(total) = 0.15718E+01    rms(broyden)= 0.15718E+01
  rms(prec ) = 0.16106E+01
  weight for this iteration     100.00

 eigenvalues of (default mixing * dielectric matrix)
  average eigenvalue GAMMA=   0.9739
  0.9739  0.9739

 Free energy of the ion-electron system (eV)
  ---------------------------------------------------
  alpha Z        PSCENC =       784.57699423
  Ewald energy   TEWEN  =    250412.21937911
  -Hartree energ DENC   =   -297999.95510769
  -exchange      EXHF   =         0.00000000
  -V(xc)+E(xc)   XCENC  =      2487.76547899
  PAW double counting   =     54236.05904628   -54041.31886705
  entropy T*S    EENTRO =        -0.00000000
  eigenvalues    EBANDS =    -12615.93623746
  atomic energy  EATOM  =     56210.72393729
  Solvation  Ediel_sol  =         0.00000000
  ---------------------------------------------------
  free energy    TOTEN  =      -525.86537631 eV

  energy without entropy =     -525.86537631  energy(sigma->0) =     -525.86537631


--------------------------------------------------------------------------------------------------------




--------------------------------------- Iteration      1(   8)  ---------------------------------------


    POTLOK:  cpu time    0.3867: real time    0.3956
    SETDIJ:  cpu time    0.4192: real time    0.4192
     EDDAV:  cpu time   61.3565: real time   61.3573
       DOS:  cpu time    0.0006: real time    0.0006
    CHARGE:  cpu time    3.8716: real time    3.8717
    MIXING:  cpu time    0.0108: real time    0.0108
    --------------------------------------------
      LOOP:  cpu time   66.0454: real time   66.0552

 eigenvalue-minimisations  :  5696
 total energy-change (2. order) : 0.2493210E+01  (-0.1068581E+01)
 number of electron     640.0000003 magnetization 
 augmentation part       69.2359961 magnetization 

 Broyden mixing:
  rms(total) = 0.96911E+00    rms(broyden)= 0.96910E+00
  rms(prec ) = 0.98571E+00
  weight for this iteration     100.00

 eigenvalues of (default mixing * dielectric matrix)
  average eigenvalue GAMMA=   1.4061
  2.5031  0.8576  0.8576

 Free energy of the ion-electron system (eV)
  ---------------------------------------------------
  alpha Z        PSCENC =       784.57699423
  Ewald energy   TEWEN  =    250412.21937911
  -Hartree energ DENC   =   -298065.21790793
  -exchange      EXHF   =         0.00000000
  -V(xc)+E(xc)   XCENC  =      2487.77166051
  PAW double counting   =     56021.31056176   -55836.82210760
  entropy T*S    EENTRO =        -0.00000000
  eigenvalues    EBANDS =    -12537.93468346
  atomic energy  EATOM  =     56210.72393729
  Solvation  Ediel_sol  =         0.00000000
  ---------------------------------------------------
  free energy    TOTEN  =      -523.37216610 eV

  energy without entropy =     -523.37216610  energy(sigma->0) =     -523.37216610


--------------------------------------------------------------------------------------------------------




--------------------------------------- Iteration      1(   9)  ---------------------------------------


    POTLOK:  cpu time    0.3864: real time    0.3940
    SETDIJ:  cpu time    0.4194: real time    0.4195
     EDDAV:  cpu time   58.6834: real time   58.6858
       DOS:  cpu time    0.0006: real time    0.0006
    CHARGE:  cpu time    3.8838: real time    3.8839
    MIXING:  cpu time    0.0122: real time    0.0122
    --------------------------------------------
      LOOP:  cpu time   63.3859: real time   63.3959

 eigenvalue-minimisations  :  5392
 total energy-change (2. order) : 0.5463050E+00  (-0.4667130E+00)
 number of electron     640.0000003 magnetization 
 augmentation part       69.9731785 magnetization 

 Broyden mixing:
  rms(total) = 0.32582E+00    rms(broyden)= 0.32581E+00
  rms(prec ) = 0.34095E+00
  weight for this iteration     100.00

 eigenvalues of (default mixing * dielectric matrix)
  average eigenvalue GAMMA=   1.2022
  2.1945  0.8399  0.8399  0.9346

 Free energy of the ion-electron system (eV)
  ---------------------------------------------------
  alpha Z        PSCENC =       784.57699423
  Ewald energy   TEWEN  =    250412.21937911
  -Hartree energ DENC   =   -298194.22929835
  -exchange      EXHF   =         0.00000000
  -V(xc)+E(xc)   XCENC  =      2487.28029778
  PAW double counting   =     59801.87198810   -59634.63390169
  entropy T*S    EENTRO =        -0.00000000
  eigenvalues    EBANDS =    -12390.63525752
  atomic energy  EATOM  =     56210.72393729
  Solvation  Ediel_sol  =         0.00000000
  ---------------------------------------------------
  free energy    TOTEN  =      -522.82586107 eV

  energy without entropy =     -522.82586107  energy(sigma->0) =     -522.82586107


--------------------------------------------------------------------------------------------------------




--------------------------------------- Iteration      1(  10)  ---------------------------------------


    POTLOK:  cpu time    0.3865: real time    0.3960
    SETDIJ:  cpu time    0.4189: real time    0.4189
     EDDAV:  cpu time   61.4451: real time   61.4576
       DOS:  cpu time    0.0006: real time    0.0006
    CHARGE:  cpu time    3.8934: real time    3.8935
    MIXING:  cpu time    0.0119: real time    0.0119
    --------------------------------------------
      LOOP:  cpu time   66.1564: real time   66.1784

 eigenvalue-minimisations  :  5704
 total energy-change (2. order) : 0.1698112E+00  (-0.6448346E-01)
 number of electron     640.0000003 magnetization 
 augmentation part       69.7900500 magnetization 

 Broyden mixing:
  rms(total) = 0.18160E+00    rms(broyden)= 0.18159E+00
  rms(prec ) = 0.18971E+00
  weight for this iteration     100.00

 eigenvalues of (default mixing * dielectric matrix)
  average eigenvalue GAMMA=   1.2163
  2.2374  1.3198  0.9106  0.9106  0.7030

 Free energy of the ion-electron system (eV)
  ---------------------------------------------------
  alpha Z        PSCENC =       784.57699423
  Ewald energy   TEWEN  =    250412.21937911
  -Hartree energ DENC   =   -298222.08252217
  -exchange      EXHF   =         0.00000000
  -V(xc)+E(xc)   XCENC  =      2487.84781371
  PAW double counting   =     59353.02053603   -59183.82996834
  entropy T*S    EENTRO =        -0.00000000
  eigenvalues    EBANDS =    -12365.13221970
  atomic energy  EATOM  =     56210.72393729
  Solvation  Ediel_sol  =         0.00000000
  ---------------------------------------------------
  free energy    TOTEN  =      -522.65604986 eV

  energy without entropy =     -522.65604986  energy(sigma->0) =     -522.65604986


--------------------------------------------------------------------------------------------------------




--------------------------------------- Iteration      1(  11)  ---------------------------------------


    POTLOK:  cpu time    0.3876: real time    0.3956
    SETDIJ:  cpu time    0.4182: real time    0.4182
     EDDAV:  cpu time   60.8157: real time   60.8233
       DOS:  cpu time    0.0006: real time    0.0006
    CHARGE:  cpu time    3.9016: real time    3.9016
    MIXING:  cpu time    0.0165: real time    0.0165
    --------------------------------------------
      LOOP:  cpu time   65.5402: real time   65.5559

 eigenvalue-minimisations  :  5632
 total energy-change (2. order) : 0.2330468E-01  (-0.3629356E-01)
 number of electron     640.0000003 magnetization 
 augmentation part       69.7435804 magnetization 

 Broyden mixing:
  rms(total) = 0.79918E-01    rms(broyden)= 0.79915E-01
  rms(prec ) = 0.87030E-01
  weight for this iteration     100.00

 eigenvalues of (default mixing * dielectric matrix)
  average eigenvalue GAMMA=   1.2502
  2.4611  1.6704  0.8992  0.8992  0.7857  0.7857

 Free energy of the ion-electron system (eV)
  ---------------------------------------------------
  alpha Z        PSCENC =       784.57699423
  Ewald energy   TEWEN  =    250412.21937911
  -Hartree energ DENC   =   -298274.25669431
  -exchange      EXHF   =         0.00000000
  -V(xc)+E(xc)   XCENC  =      2488.43611876
  PAW double counting   =     59475.72765756   -59306.80062408
  entropy T*S    EENTRO =        -0.00000000
  eigenvalues    EBANDS =    -12313.25951372
  atomic energy  EATOM  =     56210.72393729
  Solvation  Ediel_sol  =         0.00000000
  ---------------------------------------------------
  free energy    TOTEN  =      -522.63274517 eV

  energy without entropy =     -522.63274517  energy(sigma->0) =     -522.63274517


--------------------------------------------------------------------------------------------------------




--------------------------------------- Iteration      1(  12)  ---------------------------------------


    POTLOK:  cpu time    0.3870: real time    0.3956
    SETDIJ:  cpu time    0.4179: real time    0.4180
     EDDAV:  cpu time   64.4731: real time   64.4745
       DOS:  cpu time    0.0006: real time    0.0005
    CHARGE:  cpu time    3.9075: real time    3.9076
    MIXING:  cpu time    0.0185: real time    0.0185
    --------------------------------------------
      LOOP:  cpu time   69.2045: real time   69.2146

 eigenvalue-minimisations  :  6048
 total energy-change (2. order) : 0.1559861E-01  (-0.6254056E-02)
 number of electron     640.0000003 magnetization 
 augmentation part       69.7220838 magnetization 

 Broyden mixing:
  rms(total) = 0.33257E-01    rms(broyden)= 0.33257E-01
  rms(prec ) = 0.40368E-01
  weight for this iteration     100.00

 eigenvalues of (default mixing * dielectric matrix)
  average eigenvalue GAMMA=   1.2403
  2.2000  2.2000  0.9164  0.9164  0.8674  0.8674  0.7148

 Free energy of the ion-electron system (eV)
  ---------------------------------------------------
  alpha Z        PSCENC =       784.57699423
  Ewald energy   TEWEN  =    250412.21937911
  -Hartree energ DENC   =   -298306.59179419
  -exchange      EXHF   =         0.00000000
  -V(xc)+E(xc)   XCENC  =      2488.83376422
  PAW double counting   =     59538.41656394   -59369.59482208
  entropy T*S    EENTRO =        -0.00000000
  eigenvalues    EBANDS =    -12281.20116909
  atomic energy  EATOM  =     56210.72393729
  Solvation  Ediel_sol  =         0.00000000
  ---------------------------------------------------
  free energy    TOTEN  =      -522.61714657 eV

  energy without entropy =     -522.61714657  energy(sigma->0) =     -522.61714657


--------------------------------------------------------------------------------------------------------




--------------------------------------- Iteration      1(  13)  ---------------------------------------


    POTLOK:  cpu time    0.3872: real time    0.3952
    SETDIJ:  cpu time    0.4177: real time    0.4177
     EDDAV:  cpu time   59.4495: real time   59.4518
       DOS:  cpu time    0.0006: real time    0.0006
    CHARGE:  cpu time    3.9145: real time    3.9146
    MIXING:  cpu time    0.0189: real time    0.0189
    --------------------------------------------
      LOOP:  cpu time   64.1884: real time   64.1988

 eigenvalue-minimisations  :  5472
 total energy-change (2. order) : 0.3172019E-02  (-0.1562719E-02)
 number of electron     640.0000003 magnetization 
 augmentation part       69.7197671 magnetization 

 Broyden mixing:
  rms(total) = 0.21289E-01    rms(broyden)= 0.21288E-01
  rms(prec ) = 0.27926E-01
  weight for this iteration     100.00

 eigenvalues of (default mixing * dielectric matrix)
  average eigenvalue GAMMA=   1.2579
  2.6673  1.7999  1.4298  0.9005  0.9005  0.8530  0.8530  0.6590

 Free energy of the ion-electron system (eV)
  ---------------------------------------------------
  alpha Z        PSCENC =       784.57699423
  Ewald energy   TEWEN  =    250412.21937911
  -Hartree energ DENC   =   -298328.10398806
  -exchange      EXHF   =         0.00000000
  -V(xc)+E(xc)   XCENC  =      2489.04069852
  PAW double counting   =     59499.71351178   -59330.74170262
  entropy T*S    EENTRO =        -0.00000000
  eigenvalues    EBANDS =    -12260.04280478
  atomic energy  EATOM  =     56210.72393729
  Solvation  Ediel_sol  =         0.00000000
  ---------------------------------------------------
  free energy    TOTEN  =      -522.61397455 eV

  energy without entropy =     -522.61397455  energy(sigma->0) =     -522.61397455


--------------------------------------------------------------------------------------------------------




--------------------------------------- Iteration      1(  14)  ---------------------------------------


    POTLOK:  cpu time    0.3845: real time    0.3927
    SETDIJ:  cpu time    0.4182: real time    0.4182
     EDDAV:  cpu time   59.2351: real time   59.2373
       DOS:  cpu time    0.0005: real time    0.0005
    CHARGE:  cpu time    3.9049: real time    3.9049
    MIXING:  cpu time    0.0174: real time    0.0174
    --------------------------------------------
      LOOP:  cpu time   63.9606: real time   63.9710

 eigenvalue-minimisations  :  5448
 total energy-change (2. order) : 0.2072456E-02  (-0.6166375E-03)
 number of electron     640.0000003 magnetization 
 augmentation part       69.7336361 magnetization 

 Broyden mixing:
  rms(total) = 0.18817E-01    rms(broyden)= 0.18817E-01
  rms(prec ) = 0.23026E-01
  weight for this iteration     100.00

 eigenvalues of (default mixing * dielectric matrix)
  average eigenvalue GAMMA=   1.2902
  2.4590  2.4590  1.6636  0.9314  0.9314  0.9610  0.7654  0.7654  0.6759

 Free energy of the ion-electron system (eV)
  ---------------------------------------------------
  alpha Z        PSCENC =       784.57699423
  Ewald energy   TEWEN  =    250412.21937911
  -Hartree energ DENC   =   -298349.84350654
  -exchange      EXHF   =         0.00000000
  -V(xc)+E(xc)   XCENC  =      2489.17517295
  PAW double counting   =     59512.24409213   -59343.35543260
  entropy T*S    EENTRO =        -0.00000000
  eigenvalues    EBANDS =    -12238.35253866
  atomic energy  EATOM  =     56210.72393729
  Solvation  Ediel_sol  =         0.00000000
  ---------------------------------------------------
  free energy    TOTEN  =      -522.61190209 eV

  energy without entropy =     -522.61190209  energy(sigma->0) =     -522.61190209


--------------------------------------------------------------------------------------------------------




--------------------------------------- Iteration      1(  15)  ---------------------------------------


    POTLOK:  cpu time    0.3858: real time    0.3944
    SETDIJ:  cpu time    0.4172: real time    0.4172
     EDDAV:  cpu time   59.5777: real time   59.5797
       DOS:  cpu time    0.0006: real time    0.0005
    CHARGE:  cpu time    3.9061: real time    3.9061
    MIXING:  cpu time    0.0190: real time    0.0190
    --------------------------------------------
      LOOP:  cpu time   64.3063: real time   64.3170

 eigenvalue-minimisations  :  5488
 total energy-change (2. order) :-0.1220269E-02  (-0.3163533E-03)
 number of electron     640.0000003 magnetization 
 augmentation part       69.7395994 magnetization 

 Broyden mixing:
  rms(total) = 0.11629E-01    rms(broyden)= 0.11629E-01
  rms(prec ) = 0.15256E-01
  weight for this iteration     100.00

 eigenvalues of (default mixing * dielectric matrix)
  average eigenvalue GAMMA=   1.3159
  2.7813  2.7813  1.3659  1.3659  0.8899  0.8899  0.8240  0.8240  0.8169  0.6203

 Free energy of the ion-electron system (eV)
  ---------------------------------------------------
  alpha Z        PSCENC =       784.57699423
  Ewald energy   TEWEN  =    250412.21937911
  -Hartree energ DENC   =   -298367.65902863
  -exchange      EXHF   =         0.00000000
  -V(xc)+E(xc)   XCENC  =      2489.26242824
  PAW double counting   =     59469.95327789   -59300.93419252
  entropy T*S    EENTRO =        -0.00000000
  eigenvalues    EBANDS =    -12220.75591797
  atomic energy  EATOM  =     56210.72393729
  Solvation  Ediel_sol  =         0.00000000
  ---------------------------------------------------
  free energy    TOTEN  =      -522.61312236 eV

  energy without entropy =     -522.61312236  energy(sigma->0) =     -522.61312236


--------------------------------------------------------------------------------------------------------




--------------------------------------- Iteration      1(  16)  ---------------------------------------


    POTLOK:  cpu time    0.3881: real time    0.3959
    SETDIJ:  cpu time    0.4175: real time    0.4175
     EDDAV:  cpu time   61.4435: real time   61.4458
       DOS:  cpu time    0.0006: real time    0.0006
    CHARGE:  cpu time    3.9188: real time    3.9189
    MIXING:  cpu time    0.0246: real time    0.0246
    --------------------------------------------
      LOOP:  cpu time   66.1931: real time   66.2033

 eigenvalue-minimisations  :  5696
 total energy-change (2. order) :-0.1312028E-02  (-0.1297552E-03)
 number of electron     640.0000003 magnetization 
 augmentation part       69.7367792 magnetization 

 Broyden mixing:
  rms(total) = 0.71418E-02    rms(broyden)= 0.71417E-02
  rms(prec ) = 0.97676E-02
  weight for this iteration     100.00

 eigenvalues of (default mixing * dielectric matrix)
  average eigenvalue GAMMA=   1.3375
  3.1718  2.4958  1.8285  1.2645  1.0619  0.9104  0.9104  0.8729  0.8729  0.6947
  0.6291

 Free energy of the ion-electron system (eV)
  ---------------------------------------------------
  alpha Z        PSCENC =       784.57699423
  Ewald energy   TEWEN  =    250412.21937911
  -Hartree energ DENC   =   -298383.19146514
  -exchange      EXHF   =         0.00000000
  -V(xc)+E(xc)   XCENC  =      2489.34822180
  PAW double counting   =     59454.99925914   -59285.95527215
  entropy T*S    EENTRO =        -0.00000000
  eigenvalues    EBANDS =    -12205.33548867
  atomic energy  EATOM  =     56210.72393729
  Solvation  Ediel_sol  =         0.00000000
  ---------------------------------------------------
  free energy    TOTEN  =      -522.61443439 eV

  energy without entropy =     -522.61443439  energy(sigma->0) =     -522.61443439


--------------------------------------------------------------------------------------------------------




--------------------------------------- Iteration      1(  17)  ---------------------------------------


    POTLOK:  cpu time    0.3891: real time    0.3977
    SETDIJ:  cpu time    0.4172: real time    0.4173
     EDDAV:  cpu time   59.3924: real time   59.3949
       DOS:  cpu time    0.0006: real time    0.0005
    CHARGE:  cpu time    3.8844: real time    3.8845
    MIXING:  cpu time    0.0218: real time    0.0218
    --------------------------------------------
      LOOP:  cpu time   64.1054: real time   64.1166

 eigenvalue-minimisations  :  5464
 total energy-change (2. order) :-0.2695812E-02  (-0.1281087E-03)
 number of electron     640.0000003 magnetization 
 augmentation part       69.7349045 magnetization 

 Broyden mixing:
  rms(total) = 0.45332E-02    rms(broyden)= 0.45329E-02
  rms(prec ) = 0.63761E-02
  weight for this iteration     100.00

 eigenvalues of (default mixing * dielectric matrix)
  average eigenvalue GAMMA=   1.3935
  3.7306  2.7687  2.1672  1.3910  0.8691  0.8691  0.9108  0.9108  0.9071  0.7894
  0.7894  0.6187

 Free energy of the ion-electron system (eV)
  ---------------------------------------------------
  alpha Z        PSCENC =       784.57699423
  Ewald energy   TEWEN  =    250412.21937911
  -Hartree energ DENC   =   -298394.97350192
  -exchange      EXHF   =         0.00000000
  -V(xc)+E(xc)   XCENC  =      2489.39348422
  PAW double counting   =     59457.45255115   -59288.45465058
  entropy T*S    EENTRO =        -0.00000000
  eigenvalues    EBANDS =    -12193.55532370
  atomic energy  EATOM  =     56210.72393729
  Solvation  Ediel_sol  =         0.00000000
  ---------------------------------------------------
  free energy    TOTEN  =      -522.61713020 eV

  energy without entropy =     -522.61713020  energy(sigma->0) =     -522.61713020


--------------------------------------------------------------------------------------------------------




--------------------------------------- Iteration      1(  18)  ---------------------------------------


    POTLOK:  cpu time    0.3939: real time    0.4024
    SETDIJ:  cpu time    0.4177: real time    0.4178
     EDDAV:  cpu time   56.1677: real time   56.1695
       DOS:  cpu time    0.0006: real time    0.0006
    CHARGE:  cpu time    3.8934: real time    3.8935
    MIXING:  cpu time    0.0224: real time    0.0224
    --------------------------------------------
      LOOP:  cpu time   60.8957: real time   60.9061

 eigenvalue-minimisations  :  5096
 total energy-change (2. order) :-0.3017844E-02  (-0.3989961E-04)
 number of electron     640.0000003 magnetization 
 augmentation part       69.7344207 magnetization 

 Broyden mixing:
  rms(total) = 0.31585E-02    rms(broyden)= 0.31584E-02
  rms(prec ) = 0.41263E-02
  weight for this iteration     100.00

 eigenvalues of (default mixing * dielectric matrix)
  average eigenvalue GAMMA=   1.4075
  4.2719  2.5468  2.4267  1.2243  1.2243  0.9289  0.9289  0.9406  0.9406  0.7948
  0.7948  0.6668  0.6086

 Free energy of the ion-electron system (eV)
  ---------------------------------------------------
  alpha Z        PSCENC =       784.57699423
  Ewald energy   TEWEN  =    250412.21937911
  -Hartree energ DENC   =   -298405.43305340
  -exchange      EXHF   =         0.00000000
  -V(xc)+E(xc)   XCENC  =      2489.42453952
  PAW double counting   =     59449.33045093   -59280.33142882
  entropy T*S    EENTRO =        -0.00000000
  eigenvalues    EBANDS =    -12183.13096689
  atomic energy  EATOM  =     56210.72393729
  Solvation  Ediel_sol  =         0.00000000
  ---------------------------------------------------
  free energy    TOTEN  =      -522.62014804 eV

  energy without entropy =     -522.62014804  energy(sigma->0) =     -522.62014804


--------------------------------------------------------------------------------------------------------




--------------------------------------- Iteration      1(  19)  ---------------------------------------


    POTLOK:  cpu time    0.3922: real time    0.4009
    SETDIJ:  cpu time    0.4178: real time    0.4178
     EDDAV:  cpu time   56.3349: real time   56.3368
       DOS:  cpu time    0.0005: real time    0.0005
    CHARGE:  cpu time    3.9198: real time    3.9199
    MIXING:  cpu time    0.0211: real time    0.0211
    --------------------------------------------
      LOOP:  cpu time   61.0862: real time   61.0969

 eigenvalue-minimisations  :  5112
 total energy-change (2. order) :-0.1217404E-02  (-0.2073895E-04)
 number of electron     640.0000003 magnetization 
 augmentation part       69.7351426 magnetization 

 Broyden mixing:
  rms(total) = 0.20306E-02    rms(broyden)= 0.20305E-02
  rms(prec ) = 0.27657E-02
  weight for this iteration     100.00

 eigenvalues of (default mixing * dielectric matrix)
  average eigenvalue GAMMA=   1.4501
  4.8000  2.6980  2.3492  1.6209  0.9251  0.9251  0.9955  0.9955  1.0300  1.0300
  0.8197  0.8197  0.6844  0.6088

 Free energy of the ion-electron system (eV)
  ---------------------------------------------------
  alpha Z        PSCENC =       784.57699423
  Ewald energy   TEWEN  =    250412.21937911
  -Hartree energ DENC   =   -298409.82749370
  -exchange      EXHF   =         0.00000000
  -V(xc)+E(xc)   XCENC  =      2489.43728791
  PAW double counting   =     59451.06017758   -59282.07503857
  entropy T*S    EENTRO =        -0.00000000
  eigenvalues    EBANDS =    -12178.73660929
  atomic energy  EATOM  =     56210.72393729
  Solvation  Ediel_sol  =         0.00000000
  ---------------------------------------------------
  free energy    TOTEN  =      -522.62136545 eV

  energy without entropy =     -522.62136545  energy(sigma->0) =     -522.62136545


--------------------------------------------------------------------------------------------------------




--------------------------------------- Iteration      1(  20)  ---------------------------------------


    POTLOK:  cpu time    0.3942: real time    0.4030
    SETDIJ:  cpu time    0.4172: real time    0.4172
     EDDAV:  cpu time   50.5304: real time   50.5328
       DOS:  cpu time    0.0006: real time    0.0006
    CHARGE:  cpu time    3.8984: real time    3.8985
    MIXING:  cpu time    0.0205: real time    0.0205
    --------------------------------------------
      LOOP:  cpu time   55.2613: real time   55.2726

 eigenvalue-minimisations  :  4448
 total energy-change (2. order) :-0.1211446E-02  (-0.8997241E-05)
 number of electron     640.0000003 magnetization 
 augmentation part       69.7353262 magnetization 

 Broyden mixing:
  rms(total) = 0.13505E-02    rms(broyden)= 0.13504E-02
  rms(prec ) = 0.18181E-02
  weight for this iteration     100.00

 eigenvalues of (default mixing * dielectric matrix)
  average eigenvalue GAMMA=   1.5230
  5.5817  2.8970  2.2839  2.2839  1.2195  1.2195  0.9275  0.9275  0.9093  0.9093
  0.8197  0.8197  0.7819  0.6625  0.6023

 Free energy of the ion-electron system (eV)
  ---------------------------------------------------
  alpha Z        PSCENC =       784.57699423
  Ewald energy   TEWEN  =    250412.21937911
  -Hartree energ DENC   =   -298413.61178552
  -exchange      EXHF   =         0.00000000
  -V(xc)+E(xc)   XCENC  =      2489.44454588
  PAW double counting   =     59450.48914883   -59281.50272300
  entropy T*S    EENTRO =        -0.00000000
  eigenvalues    EBANDS =    -12174.96207370
  atomic energy  EATOM  =     56210.72393729
  Solvation  Ediel_sol  =         0.00000000
  ---------------------------------------------------
  free energy    TOTEN  =      -522.62257689 eV

  energy without entropy =     -522.62257689  energy(sigma->0) =     -522.62257689


--------------------------------------------------------------------------------------------------------




--------------------------------------- Iteration      1(  21)  ---------------------------------------


    POTLOK:  cpu time    0.3942: real time    0.3988
    SETDIJ:  cpu time    0.4165: real time    0.4165
     EDDAV:  cpu time   49.2612: real time   49.2635
       DOS:  cpu time    0.0005: real time    0.0005
    CHARGE:  cpu time    3.8936: real time    3.8936
    MIXING:  cpu time    0.0208: real time    0.0208
    --------------------------------------------
      LOOP:  cpu time   53.9868: real time   53.9938

 eigenvalue-minimisations  :  4312
 total energy-change (2. order) :-0.8298055E-03  (-0.3030467E-05)
 number of electron     640.0000003 magnetization 
 augmentation part       69.7350613 magnetization 

 Broyden mixing:
  rms(total) = 0.83468E-03    rms(broyden)= 0.83452E-03
  rms(prec ) = 0.11483E-02
  weight for this iteration     100.00

 eigenvalues of (default mixing * dielectric matrix)
  average eigenvalue GAMMA=   1.5391
  6.2159  2.9804  2.5008  2.0612  1.3026  0.9262  0.9262  1.0453  1.0453  0.9445
  0.9445  0.8072  0.8072  0.8469  0.6672  0.6044

 Free energy of the ion-electron system (eV)
  ---------------------------------------------------
  alpha Z        PSCENC =       784.57699423
  Ewald energy   TEWEN  =    250412.21937911
[...]
    -6.896993340 11.945942880  0.000000000     0.000000000  0.083710429  0.000000000
     0.000000000  0.000000000 27.810221070     0.000000000  0.000000000  0.035958003

  length of vectors
    13.793986680 13.793986676 27.810221070     0.083710429  0.083710429  0.035958003


 FORCES acting on ions
    electron-ion (+dipol)            ewald-force                    non-local-force                 convergence-correction
 -----------------------------------------------------------------------------------------------
   0.118E+02 0.690E+00 -.110E+04   -.124E+02 -.113E+01 0.109E+04   -.224E+00 0.291E+00 0.538E+01   0.420E-04 0.649E-05 0.994E-04
   0.236E+02 0.395E+01 -.104E+04   -.240E+02 -.429E+01 0.103E+04   0.236E+00 0.370E+00 0.471E+01   -.241E-05 0.175E-04 0.978E-04
   0.253E+01 -.133E+02 -.110E+04   -.376E+01 0.123E+02 0.110E+04   0.708E+00 0.101E+01 0.452E+01   0.152E-04 -.309E-04 0.610E-04
   0.275E+01 -.197E+01 -.109E+04   -.322E+01 0.196E+01 0.109E+04   -.158E+00 0.733E-01 0.510E+01   -.389E-04 0.701E-05 0.105E-03
   0.201E+02 -.579E+02 -.104E+04   -.194E+02 0.588E+02 0.104E+04   -.134E+01 0.944E+00 0.369E+01   -.322E-05 0.720E-04 0.875E-04
   -.369E+02 0.402E+02 -.108E+04   0.375E+02 -.392E+02 0.107E+04   0.989E-01 -.101E+01 0.355E+01   0.508E-04 -.148E-04 0.742E-04
   -.314E+01 -.419E+02 -.103E+04   0.432E+01 0.423E+02 0.103E+04   0.762E-01 0.527E+00 0.508E+01   0.121E-04 0.228E-04 0.729E-04
   -.151E+02 0.200E+02 -.111E+04   0.179E+02 -.186E+02 0.111E+04   -.136E+01 -.552E+00 0.426E+01   0.570E-04 0.124E-04 0.250E-04
   0.879E+00 0.470E+02 -.109E+04   -.298E+00 -.486E+02 0.109E+04   -.327E+00 -.116E+00 0.419E+01   -.523E-04 -.413E-04 0.269E-04
   0.663E+02 0.283E+01 -.104E+04   -.656E+02 -.134E+01 0.103E+04   -.144E+01 -.614E+00 0.350E+01   -.570E-04 0.171E-04 0.402E-04
   0.571E+02 0.640E+02 -.102E+04   -.587E+02 -.648E+02 0.101E+04   0.134E-01 -.669E+00 0.423E+01   -.506E-04 -.110E-03 0.132E-04
   0.155E+02 -.338E+01 -.111E+04   -.180E+02 0.378E+01 0.110E+04   0.187E+01 0.919E-01 0.439E+01   -.656E-04 -.447E-04 0.182E-04
   0.507E+01 -.619E+02 -.108E+04   -.585E+01 0.620E+02 0.108E+04   -.315E+00 0.812E+00 0.388E+01   0.550E-04 -.365E-05 0.120E-03
   -.654E+01 -.526E+02 -.984E+03   0.597E+01 0.527E+02 0.980E+03   0.405E-01 0.682E+00 0.442E+01   0.150E-04 0.507E-04 0.970E-04
   -.680E+02 0.357E+02 -.109E+04   0.693E+02 -.384E+02 0.109E+04   -.760E-01 0.112E+01 0.373E+01   0.275E-04 -.273E-04 0.110E-03
   -.131E+02 -.611E+02 -.117E+04   0.138E+02 0.617E+02 0.116E+04   -.758E+00 0.103E+00 0.367E+01   0.285E-04 0.499E-04 0.969E-04
   0.120E+01 0.168E+02 0.110E+04   -.128E+01 -.160E+02 -.109E+04   -.268E-01 -.110E+01 -.462E+01   -.106E-04 0.603E-04 -.505E-04
   0.530E+01 0.188E+02 0.111E+04   -.518E+01 -.199E+02 -.111E+04   0.282E+00 -.113E+00 -.386E+01   0.331E-04 -.274E-04 -.727E-04
   0.281E+02 0.398E+02 0.115E+04   -.281E+02 -.397E+02 -.114E+04   -.121E+00 -.100E+01 -.448E+01   -.461E-04 0.195E-04 -.617E-04
   -.428E+02 -.556E+01 0.989E+03   0.437E+02 0.535E+01 -.985E+03   0.210E+00 -.180E+00 -.425E+01   0.805E-04 -.766E-05 -.845E-04
   -.327E+02 0.178E+02 0.113E+04   0.317E+02 -.178E+02 -.113E+04   0.114E+01 -.336E-01 -.419E+01   0.666E-04 -.493E-05 -.107E-03
   -.642E+02 0.229E+01 0.107E+04   0.643E+02 -.307E+01 -.107E+04   0.947E+00 0.938E-01 -.381E+01   0.984E-07 0.146E-04 -.118E-04
   -.165E+02 -.109E+02 0.109E+04   0.169E+02 0.110E+02 -.109E+04   -.368E+00 0.642E+00 -.517E+01   0.842E-04 -.122E-05 -.282E-04
   0.688E+02 -.532E+02 0.111E+04   -.701E+02 0.524E+02 -.111E+04   -.194E+00 0.105E+01 -.554E+01   -.229E-04 0.352E-04 -.185E-04
   0.608E+02 -.293E+02 0.102E+04   -.595E+02 0.302E+02 -.101E+04   -.757E+00 -.320E+00 -.468E+01   -.686E-04 -.171E-04 -.622E-04
   -.690E+01 -.699E+02 0.106E+04   0.730E+01 0.710E+02 -.106E+04   0.624E+00 0.445E+00 -.411E+01   -.465E-04 -.147E-04 -.703E-04
   -.620E+02 0.686E+02 0.112E+04   0.625E+02 -.699E+02 -.112E+04   0.393E+00 0.262E+00 -.564E+01   -.359E-04 -.545E-04 -.387E-04
   -.331E+02 0.220E+02 0.108E+04   0.336E+02 -.225E+02 -.108E+04   0.429E+00 -.970E-01 -.427E+01   0.267E-05 -.186E-04 -.784E-04
   -.389E+02 -.146E+02 0.107E+04   0.397E+02 0.149E+02 -.106E+04   0.237E+00 -.339E+00 -.477E+01   0.504E-05 -.340E-04 -.112E-03
   -.195E+02 -.340E+02 0.109E+04   0.184E+02 0.343E+02 -.108E+04   0.140E+01 -.987E-01 -.472E+01   0.254E-04 0.213E-04 -.690E-04
   0.672E+02 0.670E+02 0.107E+04   -.686E+02 -.674E+02 -.107E+04   -.371E+00 -.631E+00 -.388E+01   0.250E-05 -.142E-04 -.512E-04
   -.142E+02 0.248E+02 0.978E+03   0.144E+02 -.242E+02 -.974E+03   0.210E+00 -.377E+00 -.423E+01   -.403E-04 -.138E-05 -.879E-04
   -.425E+01 0.215E+02 0.147E+04   0.412E+01 -.214E+02 -.147E+04   0.374E+00 -.370E+00 0.266E+01   -.872E-05 0.151E-05 -.338E-05
   0.566E+02 -.116E+02 0.145E+04   -.564E+02 0.113E+02 -.146E+04   -.124E+01 0.109E+01 0.159E+01   0.422E-05 -.987E-05 -.167E-04
   0.104E+02 -.142E+02 0.146E+04   -.104E+02 0.142E+02 -.146E+04   -.322E+00 0.778E+00 0.510E+00   0.551E-05 0.847E-05 -.229E-04
   -.163E+01 -.151E+02 0.142E+04   0.161E+01 0.150E+02 -.143E+04   0.160E+00 0.684E+00 0.141E+01   -.348E-05 -.500E-05 -.258E-04
   -.374E+01 0.835E+01 0.145E+04   0.379E+01 -.821E+01 -.146E+04   -.274E+00 -.438E+00 0.255E+01   0.151E-04 -.299E-05 -.308E-04
   -.155E+02 -.898E+01 0.151E+04   0.155E+02 0.882E+01 -.151E+04   0.194E+00 0.519E+00 0.294E+01   0.328E-05 -.313E-05 -.124E-04
   -.216E+01 -.489E+01 0.148E+04   0.218E+01 0.495E+01 -.148E+04   0.583E-01 -.205E+00 0.146E+01   -.160E-05 0.191E-04 -.480E-04
   -.168E+02 -.979E+00 0.144E+04   0.165E+02 0.817E+00 -.144E+04   0.976E+00 0.702E+00 0.213E+01   0.919E-05 0.486E-05 -.371E-04
   0.683E+01 0.488E+01 0.146E+04   -.666E+01 -.467E+01 -.146E+04   -.698E+00 -.421E+00 0.191E+01   -.133E-04 -.165E-04 -.418E-04
   -.102E+02 -.386E+02 0.144E+04   0.105E+02 0.384E+02 -.144E+04   -.589E+00 0.827E+00 0.263E+01   0.184E-05 -.102E-04 -.283E-04
   -.229E+02 0.269E+02 0.146E+04   0.228E+02 -.268E+02 -.146E+04   0.234E+00 -.563E+00 0.209E+01   -.531E-05 0.682E-05 -.348E-04
   0.318E+02 -.218E+02 0.146E+04   -.317E+02 0.217E+02 -.146E+04   -.143E+01 0.751E+00 0.685E-01   -.404E-05 0.137E-05 -.514E-04
   0.120E+02 -.220E+02 0.144E+04   -.119E+02 0.220E+02 -.145E+04   -.488E+00 0.435E+00 0.142E+01   0.746E-05 -.103E-04 -.409E-04
   0.900E+01 -.189E+02 0.140E+04   -.937E+01 0.189E+02 -.140E+04   0.113E+01 0.120E+00 0.201E+01   -.509E-05 0.356E-05 -.388E-04
   0.347E+02 0.241E+02 0.144E+04   -.344E+02 -.241E+02 -.144E+04   -.140E+01 -.123E+00 0.227E+01   0.362E-05 0.605E-05 -.385E-04
   -.153E+02 0.456E+01 0.144E+04   0.156E+02 -.457E+01 -.144E+04   -.744E+00 0.706E-01 0.140E+01   -.513E-05 0.219E-05 -.253E-04
   0.175E+02 0.208E+02 -.145E+04   -.174E+02 -.203E+02 0.146E+04   -.293E+00 -.161E+01 -.216E+01   -.229E-05 0.292E-04 0.378E-04
   0.211E+02 0.132E+02 -.144E+04   -.210E+02 -.129E+02 0.144E+04   -.375E+00 -.117E+01 -.157E+01   0.125E-04 -.556E-05 0.483E-04
   0.497E+00 0.438E+00 -.144E+04   -.408E+00 -.409E+00 0.144E+04   0.294E-01 -.512E-01 -.158E+01   0.187E-07 -.216E-04 0.313E-04
   0.746E+01 0.248E+02 -.147E+04   -.735E+01 -.246E+02 0.147E+04   -.517E+00 -.690E+00 -.262E+01   -.111E-04 0.161E-05 0.399E-04
   -.312E+02 0.183E+02 -.146E+04   0.309E+02 -.182E+02 0.147E+04   0.102E+01 -.255E+00 -.206E+01   -.165E-04 0.274E-04 0.180E-04
   0.487E+01 -.116E+02 -.146E+04   -.490E+01 0.113E+02 0.146E+04   0.844E-01 0.871E+00 -.341E+01   -.122E-04 -.166E-05 0.318E-04
   0.188E+02 -.197E+02 -.140E+04   -.187E+02 0.196E+02 0.140E+04   -.476E+00 0.563E+00 -.149E+01   0.840E-05 -.303E-04 0.274E-04
   0.345E+02 0.327E+02 -.147E+04   -.341E+02 -.325E+02 0.147E+04   -.153E+01 -.104E+01 -.218E+01   0.123E-04 0.796E-06 0.364E-05
   0.140E+02 -.598E+01 -.140E+04   -.140E+02 0.598E+01 0.140E+04   0.196E+00 0.160E+00 -.953E+00   0.307E-05 -.277E-07 0.950E-05
   -.230E+02 -.923E+00 -.145E+04   0.230E+02 0.103E+01 0.146E+04   0.215E+00 -.499E+00 -.129E+01   -.474E-05 0.195E-04 0.261E-04
   0.112E+02 0.225E+02 -.146E+04   -.114E+02 -.227E+02 0.146E+04   0.225E+00 0.537E+00 -.215E+01   0.125E-05 -.195E-04 0.284E-04
   0.436E+02 -.157E+02 -.148E+04   -.436E+02 0.153E+02 0.148E+04   -.876E+00 0.125E+01 -.952E+00   0.364E-05 -.267E-05 0.321E-04
   -.362E+02 -.291E+02 -.149E+04   0.358E+02 0.292E+02 0.149E+04   0.129E+01 -.180E+00 -.167E+01   0.955E-05 0.191E-04 0.327E-04
   -.182E+02 -.161E+02 -.145E+04   0.178E+02 0.160E+02 0.145E+04   0.111E+01 0.360E+00 -.234E+01   0.917E-05 0.106E-04 0.330E-04
   -.388E+02 0.232E+02 -.144E+04   0.386E+02 -.232E+02 0.144E+04   0.114E+01 -.501E+00 -.229E+01   -.134E-04 -.169E-04 0.372E-04
   -.514E+02 -.246E+02 -.148E+04   0.515E+02 0.244E+02 0.149E+04   0.391E+00 0.915E+00 -.215E+01   0.465E-05 -.266E-05 0.416E-04
   -.121E+02 -.136E+02 -.150E+02   0.115E+02 0.135E+02 0.149E+02   0.169E+01 -.275E+00 0.587E+00   -.779E-06 0.556E-05 -.122E-06
   0.646E+01 -.190E+02 -.892E+01   -.601E+01 0.186E+02 0.913E+01   -.118E+01 0.137E+01 -.514E+00   0.807E-05 -.391E-06 0.540E-05
   -.599E+01 0.400E+01 0.461E+01   0.595E+01 -.402E+01 -.433E+01   -.309E+00 0.536E-01 -.574E+00   -.257E-05 -.469E-05 0.963E-05
   0.144E+02 0.136E+02 -.289E+02   -.144E+02 -.139E+02 0.289E+02   0.166E+00 0.135E+01 0.397E+00   -.168E-05 -.291E-05 0.182E-06
   -.139E+02 0.200E+02 0.968E+01   0.139E+02 -.195E+02 -.982E+01   0.474E-01 -.244E+01 -.223E+00   -.946E-06 0.135E-04 0.513E-05
   -.147E+02 -.117E+02 0.287E+02   0.146E+02 0.114E+02 -.292E+02   0.221E+00 0.989E+00 0.139E+01   0.144E-05 0.334E-05 0.223E-05
   0.552E+01 0.136E+02 0.117E+02   -.554E+01 -.135E+02 -.118E+02   0.527E-01 0.184E-02 -.462E-01   0.458E-05 -.921E-05 0.693E-05
   0.110E+02 -.198E+02 0.478E+02   -.108E+02 0.200E+02 -.485E+02   -.537E+00 -.530E+00 0.214E+01   0.100E-05 0.844E-05 -.103E-04
   0.163E+02 -.181E+02 -.773E+02   -.165E+02 0.176E+02 0.788E+02   0.336E+00 0.134E+01 -.400E+01   0.205E-05 -.212E-05 0.864E-06
   0.407E+02 -.249E+01 0.585E+01   -.406E+02 0.250E+01 -.560E+01   -.650E+00 -.681E-01 -.329E+00   -.285E-05 0.508E-05 0.868E-05
   -.271E+02 0.242E+02 -.612E+01   0.268E+02 -.238E+02 0.621E+01   0.679E+00 -.153E+01 -.668E+00   -.404E-06 -.838E-05 0.894E-05
   0.108E+02 0.335E+02 -.263E+02   -.109E+02 -.331E+02 0.268E+02   0.345E+00 -.134E+01 -.170E+01   -.447E-05 0.577E-05 0.628E-05
   -.800E+01 0.138E+02 -.350E+01   0.761E+01 -.133E+02 0.347E+01   0.102E+01 -.136E+01 -.127E+00   -.491E-06 0.110E-05 -.125E-05
   0.412E+00 0.159E+02 -.823E+01   -.226E+00 -.155E+02 0.845E+01   -.656E+00 -.937E+00 -.860E+00   -.139E-05 0.884E-05 0.884E-05
   -.240E+02 0.518E+01 -.228E+01   0.238E+02 -.478E+01 0.298E+01   -.873E-01 -.805E+00 -.153E+01   -.186E-05 -.619E-05 0.145E-04
   -.718E+01 -.507E+01 0.127E+02   0.714E+01 0.511E+01 -.128E+02   0.508E+00 0.674E-01 -.374E+00   -.183E-06 -.265E-05 -.282E-05
 -----------------------------------------------------------------------------------------------
   -.315E+00 0.337E+00 0.122E+02   0.959E-13 0.444E-13 0.626E-11   0.319E+00 -.337E+00 -.122E+02   0.698E-04 -.436E-04 0.186E-03
 
 
 POSITION                                       TOTAL-FORCE (eV/Angst)
 -----------------------------------------------------------------------------------
      0.09108      2.06230     15.15368        -0.801207     -0.149641     -0.771942
     -1.75818      4.92121     15.10955        -0.194269      0.025284     -0.607557
     -3.45154      7.91134     15.17108        -0.521859      0.086753     -0.516582
     -5.13612     11.00181     15.13840        -0.635600      0.057375      0.549316
      3.56832      1.83760     15.16788        -0.663248      1.890890     -0.041301
      1.74286      4.98237     15.18925         0.606293      0.066548     -1.015981
     -0.09976      7.86947     15.05226         1.256052      0.895168     -0.051681
     -1.75087     10.80997     15.22918         1.405670      0.831033     -0.582631
      6.84267      2.12810     15.21226         0.253784     -1.666450     -0.429900
      5.24925      4.93545     15.19657        -0.820677      0.883154     -0.773432
      3.56166      8.10318     15.12140        -1.588120     -1.500944     -0.430977
      1.78065     10.89593     15.19101        -0.639421      0.483705     -0.351704
     10.46329      1.89182     15.18307        -1.093112      0.963896     -0.716632
      8.64017      4.96257     15.06845        -0.530052      0.750782      0.166320
      6.73581      8.05346     15.24926         1.258041     -1.616662     -0.697073
      5.23917     10.95475     15.33050        -0.018808      0.693691     -1.460420
      1.67388      1.08901     12.63562        -0.114753     -0.219856     -0.304237
     -0.03980      4.05994     12.53164         0.405808     -1.167597      1.188287
     -1.60202      7.05265     12.50571        -0.131118     -0.912639      1.466411
     -3.58271      9.99775     12.73623         1.116852     -0.388289     -0.154265
      5.10128      0.90789     12.54079         0.156566     -0.039491      1.348697
      3.27691      4.08436     12.58980         1.051730     -0.682071      0.324717
      1.75747      6.88365     12.61181         0.067600      0.814316      0.416240
      0.17616      9.90571     12.57193        -1.468052      0.266410      1.933418
      8.54084      0.92381     12.67131         0.539595      0.511042      1.813727
      6.71538      3.77873     12.66218         1.022910      1.488469      0.014592
      5.12919      7.07175     12.65742         0.831330     -0.978645      0.394411
      3.45262     10.03553     12.59672         0.862124     -0.603026      2.325801
     11.98681      1.00208     12.63806         0.985527     -0.035821      1.111948
     10.21455      3.91633     12.63526         0.342592      0.266153      0.351032
      8.83303      7.06382     12.59973        -1.735922     -1.041752      1.348830
      6.85948      9.94977     12.77003         0.364326      0.164822      0.141129
     -0.08319      2.00751     10.84680         0.251170     -0.321929      0.468649
     -1.64194      4.81115     10.92696        -1.020321      0.743095     -0.413395
     -3.30546      7.81668     11.02416        -0.404171      0.712898     -1.308630
     -5.23748     10.87002     11.12218         0.136482      0.519511     -0.617757
      3.47949      2.03544     10.88972        -0.229633     -0.296544      0.340718
      1.69113      4.93529     10.71202         0.185814      0.359946      0.788153
      0.10056      8.00967     10.93067         0.078687     -0.152282     -0.531150
     -1.92079     10.80182     10.95578         0.635292      0.539867     -0.014415
      6.97720      1.88299     10.95634        -0.531770     -0.210549     -0.132022
      5.20743      4.81407     10.88922        -0.367626      0.640971      0.470671
      3.46030      8.08914     10.94380         0.209481     -0.487658     -0.041087
      1.92035     10.91783     11.08530        -1.261466      0.645382     -1.790532
     10.32003      1.87434     11.05132        -0.338710      0.446611     -0.622552
      8.42640      4.90058     11.07332         0.762040      0.174628     -0.138311
      7.20664      7.99932     10.95961        -1.103499     -0.068617      0.128380
      5.31844     10.92002     11.08110        -0.445851      0.054679     -0.625516
      1.70263      1.33190     16.89514        -0.178211     -1.099117     -0.123187
     -0.00655      4.26448     16.77565        -0.243137     -0.903710      0.482257
     -1.75431      7.01280     16.75371         0.118019     -0.022226      0.411499
     -3.40789     10.11937     16.98712        -0.411093     -0.497322     -0.482152
      5.05333      1.01634     16.92204         0.680252     -0.184300     -0.072631
      3.44254      3.88228     17.04128         0.048215      0.599347     -1.149959
      1.79807      6.94719     16.63743        -0.397302      0.481330      0.649797
      0.31333     10.10685     16.98754        -1.125124     -0.828694     -0.059161
      8.57965      1.03160     16.62017         0.199867      0.165164      1.203150
      6.89671      4.09615     16.79162         0.227546     -0.390626      0.636234
      5.09069      6.84461     16.86998         0.044690      0.382999     -0.000969
      3.69565      9.75309     16.84298        -0.838779      0.891927      0.922621
     11.84159      0.97078     16.95679         0.947536     -0.053930      0.261580
     10.15059      3.95650     16.84807         0.769105      0.275869     -0.160644
      8.43622      7.15077     16.86496         0.929389     -0.459213     -0.115117
      6.87152      9.92733     16.95368         0.423774      0.678428     -0.077028
     13.67598      0.01467     13.94788         1.123822     -0.312574      0.482000
     -1.61617      2.88756     13.95257        -0.728578      0.989002     -0.301382
     -3.39500      5.96829     13.91582        -0.341228      0.040919     -0.291356
     -5.14328      8.91673     13.92177         0.189716      1.049218      0.361757
      3.39134      0.15517     13.90677        -0.036517     -1.889916     -0.369714
      1.68308      2.96632     13.72265         0.164469      0.778493      0.932284
      0.00698      5.97572     13.81821         0.035638      0.076158     -0.057655
     -1.66981      8.96748     13.71861        -0.322789     -0.339135      1.454798
     -0.06729     11.80708     14.20533         0.172961      0.871722     -2.546908
      5.19225      2.94083     13.93027        -0.474809     -0.057794     -0.083197
      3.36985      6.10559     13.86990         0.335946     -1.125150     -0.572929
      1.74626      9.08015     13.96474         0.214908     -0.871334     -1.208115
     10.26318      0.11629     13.88991         0.626773     -0.843061     -0.158599
      8.61507      3.05468     13.93276        -0.469804     -0.535985     -0.641661
      6.81319      6.09286     14.06098        -0.283353     -0.401443     -0.819881
      5.13881      9.02228     13.95486         0.471597      0.098336     -0.455501
 -----------------------------------------------------------------------------------
    total drift:                                0.004047     -0.000152      0.003846


--------------------------------------------------------------------------------------------------------



  FREE ENERGIE OF THE ION-ELECTRON SYSTEM (eV)
  ---------------------------------------------------
  free  energy   TOTEN  =      -522.62497887 eV

  energy  without entropy=     -522.62497887  energy(sigma->0) =     -522.62497887
 


--------------------------------------------------------------------------------------------------------


    POTLOK:  cpu time    0.8140: real time    0.8159


--------------------------------------------------------------------------------------------------------


     LOOP+:  cpu time 1916.0488: real time 1916.4025
    4ORBIT:  cpu time    0.0000: real time    0.0000

 total amount of memory used by VASP MPI-rank0   253937. kBytes
=======================================================================

   base      :      30000. kBytes
   nonlr-proj:      18753. kBytes
   fftplans  :      72602. kBytes
   grid      :      41267. kBytes
   one-center:        108. kBytes
   wavefun   :      91207. kBytes
 
  
  
 General timing and accounting informations for this job:
 ========================================================
  
                  Total CPU time used (sec):     1946.673
                            User time (sec):     1941.469
                          System time (sec):        5.204
                         Elapsed time (sec):     1947.141
  
                   Maximum memory used (kb):      462432.
                   Average memory used (kb):           0.
  
                          Minor page faults:       201439
                          Major page faults:            0
                 Voluntary context switches:         2034
