135
Time=99999.99999996 pbc="T T T" Lattice="11.62817333 0.00000000 0.00000000 0.00000000 11.62817333 0.00000000 0.00000000 0.00000000 11.62817333" energy=-934.42048352 virial="108.64240759 22.63769734 -14.86659571 22.63769734 138.91653537 -13.18624799 -14.86659571 -13.18624799 100.41051059" stress="0.08759539 0.01439785 -0.00945534 0.01439785 0.10685011 -0.00838662 -0.00945534 -0.00838662 0.08235980" Properties=species:S:1:pos:R:3
Ca 5.51313105 0.17215609 5.18480415
Ca 4.63892126 2.05471479 9.86569278
Ca 4.09060462 9.01426760 1.53539615
Ca 3.18807168 6.65342973 7.10673102
Ca 2.82168766 6.37831432 3.20220094
Ca 0.28115483 10.17631045 7.29479983
Ca 9.34903358 4.96452641 7.39300873
Ca 9.32060657 8.97801226 9.62275794
Ca 0.52277972 5.12885488 5.06451158
Ca 10.23364574 3.56490877 10.38049560
Ca 8.33397444 4.30507225 2.26147935
Ca 7.56965683 9.06292072 6.92194749
Ca 5.35867058 3.44663063 3.52771825
Ca 8.21515140 5.90330258 10.97011501
Ca 2.73918093 10.42937281 10.34294800
Ca 10.32257031 10.09624369 2.54448865
Ca 8.73701086 0.00444897 8.37328412
Ca 2.66394859 3.92071670 1.26990378
Ca 11.33589028 7.42362248 1.23966050
Ca 9.13191673 7.30936243 3.57179036
Ca 11.09920602 1.68722566 3.04572787
Ca 3.79210811 0.91960482 2.38623152
Ca 5.52655002 8.71656044 10.06347584
Ca 4.48620897 3.31398675 6.46809937
Ca 1.09634574 0.03260415 4.56690285
Ca 5.55966865 7.83101984 4.74098357
Ca 1.18806028 4.18926118 8.31239133
Si 7.51062230 3.04076969 9.21985489
Si 8.36568389 1.16119437 3.23909160
Si 11.22633998 4.50811945 1.76433228
Si 4.69078101 4.70324564 9.22367021
Si 6.18398177 6.36011163 1.75102656
Si 9.88165869 10.98685392 5.44233722
Si 11.16177406 7.05733216 7.16362110
Si 1.28534284 10.16869797 1.32002718
Si 6.67776757 6.58030929 8.05216374
Si 3.75258763 9.97315402 7.27062490
Si 7.70230708 1.92194619 5.88364220
Si 5.73923222 3.36557998 0.44805951
Si 7.41365174 9.79682206 3.88415411
Si 2.47954604 3.02801052 4.49817889
Si 1.18114956 1.93518754 0.06222125
Si 2.90712591 6.67878840 11.03742461
Si 11.31729093 11.19406539 10.44973523
Si 6.57502518 5.45691180 5.27923410
Si 11.49538076 6.77740202 9.78941565
Si 11.33084739 1.99600922 6.94165237
Si 2.36751946 1.06115783 7.84529877
Si 0.27396620 8.40010926 4.59458498
Si 2.97741426 9.41000391 4.48342343
Si 8.26106879 2.14453044 0.28161838
Si 7.52082277 8.35084807 1.32343451
Si 6.14659649 11.13478520 9.02727490
Si 6.64948096 11.22967498 1.20540121
O 3.60429478 1.82493756 4.79873403
O 2.75450163 8.94505714 8.20145364
O 1.25629260 1.11361934 6.76097467
O 5.79396016 6.03255120 9.41530674
O 6.66194927 8.48819625 2.77181279
O 7.01040488 3.45678424 10.86290304
O 6.45137901 9.91325737 5.10168760
O 8.68965927 2.04146903 10.10073127
O 5.85321657 7.69265219 7.30150570
O 7.32381963 4.54961904 4.07089737
O 5.90104224 3.52296561 8.66372312
O 9.60003163 10.16943614 6.87973181
O 2.71730808 3.93949761 3.24973113
O 3.33246533 8.30326876 3.38286410
O 1.50775913 8.36310305 1.86279703
O 1.61954704 9.57512740 5.07683818
O 1.17994344 2.15849723 4.31157492
O 7.31632114 9.90476669 9.27304548
O 0.53672103 10.70501814 9.23443997
O 5.92359316 4.77918291 1.45443434
O 10.99848822 2.68695046 8.32007668
O 6.62648557 0.94766900 8.89051537
O 5.67310570 7.42775146 0.67286518
O 7.15424753 2.65833292 1.25363335
O 0.69355667 11.34504142 2.43802888
O 7.78041732 11.18404503 2.53741625
O 8.80759851 2.07651874 4.52740238
O 1.27444677 6.92967867 10.57051471
O 9.46365056 2.08261103 1.85919117
O 6.26621462 2.48124412 5.41524764
O 6.39515380 1.29811075 2.97847899
O 4.74167192 4.17443003 10.92645293
O 10.36446711 6.19068303 6.16050937
O 2.60956748 10.76087351 0.77128680
O 11.23859645 3.31898139 5.98603735
O 8.12450139 0.26560200 6.14754940
O 2.46402958 4.16914036 5.55413539
O 9.21074804 8.61043231 1.32392673
O 2.94403661 11.31361253 7.26582717
O 11.31422058 8.33660169 6.18897449
O 8.29129997 4.63612302 9.42461493
O 7.27275288 5.26305657 7.01631429
O 8.25408277 7.07873262 8.65935864
O 10.50906419 4.70791410 3.11706688
O 7.92344755 2.40062698 7.38435653
O 5.22278588 6.29081496 3.10656759
O 5.50792253 10.57110581 7.56914241
O 9.62742086 0.12369858 3.84268300
O 7.45716007 0.70154527 0.19337683
O 3.18613802 5.48671587 9.94984367
O 10.11406186 4.69444478 0.61913459
O 4.15588711 9.15616646 5.82609420
O 1.52699971 7.01853587 5.02969108
O 10.17262619 7.31881912 10.87282377
O 3.82010859 10.73011536 3.90284645
O 0.20036516 0.94034117 11.22299611
O 10.73685489 0.45038396 6.11082841
O 1.16333024 3.20612544 10.72009576
O 0.48154525 3.01192697 1.54301601
O 2.32493050 1.33223485 0.85842284
O 7.21620798 9.85534623 0.40353288
O 5.12476213 10.93081068 1.50763372
O 0.80446300 5.50033258 1.97131877
O 5.00812256 5.13484080 5.35432572
O 3.50200907 8.22981804 10.85571249
O 11.31036823 8.03931041 8.73378282
O 3.85606639 4.85166328 7.70293808
O 10.96963847 10.09068822 4.69719046
O 2.57388739 0.69382067 9.27896544
O 11.45980725 10.12660364 0.29963702
O 10.88023050 5.51089883 9.11513868
O 9.71099599 11.12721559 10.24150905
O 3.18703862 6.25175395 0.92052778
O 8.82404927 9.40689789 4.09810117
O 10.99692709 8.21713861 3.25864975
O 7.94867552 6.45421790 1.49610216
O 2.91144958 2.45902520 8.24347349
O 4.85523203 10.98054601 10.26243327
O 4.77159698 2.43681165 1.25435938
O 7.51851651 6.84936382 5.08954491
O 0.77475079 6.15406278 7.48099253
135
Time=199999.99999918 pbc="T T T" Lattice="11.62817333 0.00000000 0.00000000 0.00000000 11.62817333 0.00000000 0.00000000 0.00000000 11.62817333" energy=-927.30262362 virial="164.54930797 -7.35886770 -12.90982363 -7.35886770 144.27396002 11.53656351 -12.90982363 11.53656351 162.14468528" stress="0.12315287 -0.00468033 -0.00821081 -0.00468033 0.11025750 0.00733740 -0.00821081 0.00733740 0.12162350" Properties=species:S:1:pos:R:3
Ca 9.20028306 9.63190281 8.60357419
Ca 8.42238399 5.42046338 4.68833249
Ca 5.84275396 8.37465965 7.03764117
Ca 0.43713285 7.59593955 7.32161160
Ca 7.21092171 0.34363037 6.73794158
Ca 0.55973606 11.53103069 8.39688958
Ca 5.08247575 1.80941236 8.36121453
Ca 10.39142573 5.04482907 1.61136240
Ca 3.24006164 1.40834305 11.01044467
Ca 2.09183133 8.86246887 4.43932038
Ca 4.64280432 2.06820473 3.76494843
Ca 3.29295647 7.57151419 9.69337049
Ca 8.74205736 1.21473739 3.87464626
Ca 5.09779641 6.63370195 4.67561380
Ca 5.43206951 5.53003400 0.23073642
Ca 6.69817737 5.18845381 9.52868893
Ca 0.52164119 3.60984722 7.68470549
Ca 3.90277243 10.08100757 11.35187098
Ca 0.68838813 1.64871014 4.50821943
Ca 7.10533911 7.07631812 1.70610651
Ca 4.62737011 10.06838201 2.95885361
Ca 0.72580910 7.54259751 1.12022924
Ca 9.87361235 0.64345363 0.30471606
Ca 0.53521053 5.01527815 3.79625882
Ca 6.06669848 1.08555493 0.87825665
Ca 9.46284618 7.18445123 10.42976733
Ca 2.84867784 4.16245872 1.68431573
Si 0.01555516 9.83235264 10.93807969
Si 7.44860832 8.61862709 4.30798497
Si 9.69154880 8.81907776 1.28707433
Si 8.72552790 6.96860449 7.63284845
Si 4.61331004 10.87830451 5.61990423
Si 7.28340769 10.42852319 2.09284325
Si 10.19840310 1.51177854 7.15065786
Si 7.28447686 3.57011034 2.35948505
Si 3.54652587 7.31768052 1.44181496
Si 3.14290044 4.23271729 10.37164062
Si 8.43825189 1.33696508 9.60992810
Si 3.28157533 11.12665300 7.76068291
Si 0.36646345 2.80212818 1.55026559
Si 0.59433904 5.70665485 10.36856141
Si 10.58483568 7.53426205 3.64130627
Si 2.38120000 6.32970834 6.38129652
Si 3.43220792 4.43830364 4.66357537
Si 8.31128076 3.93978904 11.51299104
Si 6.37216948 3.56970706 6.23451581
Si 10.71991763 9.94802915 5.70826642
Si 6.53592932 7.91918265 10.05341110
Si 11.02841217 10.82099236 2.80689175
Si 3.67688131 4.55734421 7.68353959
Si 2.21619146 0.28677311 2.21955741
Si 0.38077086 2.93750919 10.37260306
Si 6.51681639 10.99247266 10.04472741
Si 9.11955337 4.31136066 7.90705412
O 5.37880348 0.53694649 10.38950497
O 8.66184117 2.54788053 10.84713533
O 0.07778914 1.52164177 6.74081144
O 4.59239569 6.31585359 2.12065060
O 4.92568113 11.47851762 7.19380471
O 4.78176478 9.11290498 5.48096316
O 8.64708905 7.51199364 3.77393652
O 3.53427975 0.15720474 1.18573531
O 6.69393895 3.90287395 11.01387413
O 5.52036579 4.12066915 7.79911088
O 0.49889805 7.27586807 3.30841545
O 9.70767614 7.34086287 1.89719197
O 4.00960945 7.69716133 11.57751574
O 5.81267099 9.47232373 10.59669751
O 0.14143714 1.83010700 9.17865078
O 3.55893423 3.57862520 6.25025321
O 7.47808377 6.85131221 6.67722877
O 9.54569361 9.05248939 11.33914783
O 8.27445055 0.14330041 2.09156640
O 1.26929466 1.45471278 1.39919531
O 3.19652292 3.45499499 8.84341282
O 1.89565042 2.98062704 10.69748233
O 0.31276413 9.61653728 6.75752496
O 11.45134176 4.45180952 9.75984092
O 0.72587065 4.20049954 1.30132215
O 6.48316599 4.71729404 5.21358900
O 9.06320395 1.42312724 5.97303325
O 2.95516960 9.64067720 8.14144954
O 9.48436683 0.64841617 8.31146159
O 6.22208392 7.83703765 3.57853791
O 10.20145572 9.39365401 2.63089585
O 5.33957374 7.63283173 9.05336869
O 8.85011610 5.29819819 9.15906159
O 6.30790413 2.26076942 2.53458086
O 11.19081692 2.55189529 0.06384871
O 5.90618851 10.49883503 1.22496669
O 4.08675417 6.05113541 6.53720020
O 11.15260615 8.60960762 4.92762690
O 2.33272479 6.26105989 1.41878198
O 7.06104058 1.55264844 8.74763244
O 4.50039403 4.16215755 3.51490032
O 7.88249946 9.08524924 1.28477037
O 7.62072640 8.96571057 5.81661744
O 10.11421932 3.08844776 7.69530575
O 10.07688136 5.54457016 7.04070826
O 7.96009449 3.68619881 7.02232372
O 10.89483331 10.96437734 10.16850735
O 4.30500536 3.41164362 0.04640815
O 2.16528858 5.38583007 8.08473866
O 8.81824270 5.54890954 0.13024682
O 6.86819041 6.85690049 11.03945584
O 2.78458609 0.94749545 3.56457351
O 3.04981079 8.59556852 2.13101764
O 7.85475781 3.51625580 3.93100934
O 1.03932901 7.17165110 9.66336612
O 5.79067448 1.86170088 6.19886142
O 2.22230882 3.55047642 4.06401791
O 2.39657561 7.81227647 6.44099985
O 7.90888245 0.33157756 10.84567348
O 2.76514225 0.23245773 9.20648382
O 2.78111996 6.08354945 4.65332930
O 8.34254996 3.07050859 1.32665944
O 9.90509498 7.88580208 7.99651411
O 10.38354657 5.76017074 3.87637963
O 6.73794322 5.01508474 2.00675075
O 1.21413058 10.60225711 2.62132342
O 9.27536462 10.36446320 6.31970163
O 11.06343883 11.26854581 4.38180725
O 11.26723484 2.72072222 2.88104564
O 11.20670164 6.25186141 11.55919571
O 7.40940973 10.50326049 8.82559874
O 10.38408999 0.65425741 2.33249614
O 4.38873765 5.41106782 9.56210390
O 7.11569427 10.23362076 3.72463996
O 2.97257610 11.16170457 5.95459659
O 2.15999014 5.40849336 10.83562783
O 5.48707426 0.11836965 4.60348679
O 0.79203799 5.78304630 6.25984254
O 1.58923395 9.91853323 10.77775799
O 7.82284140 8.11544283 9.27200762
O 11.33375161 9.91038811 0.84144988
135
Time=299999.99999840 pbc="T T T" Lattice="11.62817333 0.00000000 0.00000000 0.00000000 11.62817333 0.00000000 0.00000000 0.00000000 11.62817333" energy=-933.83463252 virial="149.92297057 -3.40361641 7.13328879 -3.40361641 152.34993191 2.30699985 7.13328879 2.30699985 129.65856942" stress="0.11385034 -0.00216474 0.00453686 -0.00216474 0.11539391 0.00146728 0.00453686 0.00146728 0.10096193" Properties=species:S:1:pos:R:3
Ca 11.33592729 6.12621698 2.97667102
Ca 9.95861894 10.94500197 9.30231084
Ca 7.34568399 5.33272847 1.50000707
Ca 4.23307852 3.23175929 11.29592316
Ca 3.03606372 8.35893038 2.75852233
Ca 6.35148994 11.06293158 10.66395909
Ca 6.70448501 3.82238825 5.66203722
Ca 9.95292333 7.65301807 0.47289682
Ca 3.75509881 6.92975418 9.70017025
Ca 3.84826105 10.12500617 8.32185138
Ca 1.79856044 10.62552022 10.48789542
Ca 1.59843949 5.77202174 0.82471723
Ca 0.68374873 1.95151588 11.49362740
Ca 2.94077334 0.20921215 2.06974413
Ca 8.59505923 1.97112056 10.99270552
Ca 7.47556901 11.57967514 3.44639036
Ca 0.98537716 6.86466752 6.76845009
Ca 7.01352971 4.70164967 9.48236299
Ca 4.05802950 2.87537935 3.51256098
Ca 1.07302793 3.33438462 6.95103539
Ca 4.01634718 4.52747256 7.20684124
Ca 1.13295520 0.41001502 5.54069275
Ca 9.54918317 2.18539629 7.04861554
Ca 9.30378478 2.98422415 3.10155780
Ca 9.39887561 8.54390212 6.14255513
Ca 11.42044893 9.33706158 3.22317991
Ca 6.88329864 7.71721506 10.33144848
Si 9.37024260 5.17758832 5.82475918
Si 0.72538520 7.92360284 9.67398374
Si 7.34711287 9.05860880 1.31027168
Si 6.71354562 2.22798148 2.03377548
Si 5.52226005 6.40362366 4.00137235
Si 4.30082288 8.99625166 0.06632604
Si 9.34696996 11.12031601 1.02430055
Si 0.35987809 9.83668840 0.72098580
Si 8.37058176 7.10415698 3.62450831
Si 0.96986538 2.86771979 2.94122678
Si 2.59632940 5.63272486 4.33107959
Si 3.66014578 1.64243226 6.00589001
Si 1.65362117 4.06511515 9.32543077
Si 4.17210578 7.42758865 5.82458710
Si 10.09035746 4.92334507 0.59396378
Si 6.57241275 9.24712962 5.63999685
Si 4.50791031 11.14098778 4.44139117
Si 4.61532873 5.88696121 0.98843804
Si 6.63632758 6.65524844 7.04712029
Si 9.80050761 6.98107161 8.67715602
Si 7.00821072 11.48058963 7.44686300
Si 10.52543283 0.58191588 3.99724481
Si 10.22162151 4.29229017 9.55213851
Si 0.34708398 9.53546886 6.77532675
Si 0.96545702 0.80720112 8.38915382
Si 3.34368502 1.78084712 9.34895245
Si 6.33464906 2.07547392 8.59896732
O 4.81463518 0.57052557 3.27641929
O 0.03751669 1.52270184 7.32484956
O 2.48138173 0.09797924 8.58025283
O 6.23450601 6.47876556 8.52521945
O 0.01937324 0.59583671 9.85251345
O 1.03786540 4.39759228 3.95705341
O 10.31435208 9.80142432 1.06305554
O 9.59862964 6.28853685 4.49742784
O 2.32800098 5.11950606 8.37820722
O 6.75725582 2.06017385 10.14574107
O 11.36374247 3.60208692 1.97710662
O 8.01774372 2.99886197 1.31000403
O 9.76481044 7.66317075 2.76446497
O 4.78606978 7.78085861 4.14200192
O 10.14888440 6.62618247 7.06774776
O 9.33668108 5.52884610 8.95142485
O 3.89560981 7.37359573 7.35227052
O 8.28183536 11.54849635 8.36092671
O 7.95866971 9.49657807 11.09643698
O 5.62270247 9.13337849 1.17220201
O 4.77334478 0.97169767 9.02945045
O 9.38189927 0.21971004 11.20677524
O 8.29406857 10.32005621 1.96553728
O 5.06592789 5.80197521 10.92717036
O 10.52962415 4.05283080 6.41923840
O 5.45993515 6.39940186 2.35339035
O 3.79548526 7.34542308 0.56998858
O 7.30993975 10.58180202 6.01783786
O 6.26400378 3.47203333 7.81472522
O 4.87866065 8.97608238 10.17096880
O 8.57006750 7.80682193 8.70705565
O 5.65677094 10.12958155 4.33890259
O 7.08619828 8.25932524 6.73521842
O 11.20284738 6.02438591 0.75083681
O 9.26011325 3.16580324 9.31953917
O 6.94389182 0.56122139 1.42945871
O 7.66358802 7.64132704 1.87001739
O 1.67252436 6.72926867 10.45188057
O 2.09035826 8.82877797 9.29178196
O 6.87583140 2.40673145 3.61074636
O 4.23782398 5.25488409 3.81581865
O 3.21813408 9.97181009 0.65923062
O 11.58134928 1.70945416 3.73175687
O 2.37491034 2.06839789 4.73337315
O 5.97517740 10.99039724 8.34514602
O 5.46203010 6.16939033 5.66450173
O 11.32814595 10.87208110 4.73580641
O 9.79432058 0.50907869 2.21036665
O 0.13732891 4.13752530 8.93685568
O 3.93536764 0.10357983 5.84407476
O 1.22667551 8.86114992 1.45978033
O 10.49709458 10.32255608 7.14679646
O 7.10103905 6.17479602 4.05554206
O 10.52231136 3.88215075 11.03760091
O 9.24571018 5.17309132 2.02305482
O 8.67084379 3.73844582 5.17836333
O 7.89575425 5.77978434 6.54595886
O 10.72434993 7.33296661 9.96306257
O 0.06840403 8.46786743 5.61563636
O 2.87184357 10.39020964 3.95562262
O 1.89431706 3.87988777 10.98121562
O 0.82713981 11.29486848 0.89016106
O 1.74189074 2.42158056 9.22273257
O 9.45866885 0.91287713 4.97552136
O 3.58138344 4.70197094 1.39644251
O 11.61275775 8.37802607 8.11971850
O 7.58057590 8.55425137 4.42512387
O 2.76732252 2.00880213 7.23391922
O 5.54530004 3.16125854 1.42420054
O 2.03017745 6.47977216 2.89614177
O 2.74052985 1.16495806 10.77705647
O 7.04323274 1.35122610 7.22350191
O 2.50809570 4.88032032 5.77375129
O 4.90195253 2.91991956 5.86013455
O 1.69993241 10.21347522 6.64135687
O 5.00420660 8.83928015 6.10372247
O 8.49281395 5.77002675 11.40527404
O 4.21517521 3.33931647 9.08091395
O 2.29014212 2.36380866 2.15116750
O 2.72809750 7.23305340 4.95442013
O 0.09979686 9.31118536 10.66396182
135
Time=400000.00000008 pbc="T T T" Lattice="11.62817333 0.00000000 0.00000000 0.00000000 11.62817333 0.00000000 0.00000000 0.00000000 11.62817333" energy=-931.67682253 virial="169.89007162 -4.72639272 9.79174149 -4.72639272 135.80035601 8.59229836 9.79174149 8.59229836 122.54098810" stress="0.12654966 -0.00300604 0.00622767 -0.00300604 0.10486818 0.00546481 0.00622767 0.00546481 0.09643506" Properties=species:S:1:pos:R:3
Ca 9.69537251 6.89916257 10.75306964
Ca 5.08737184 6.92810778 1.80431883
Ca 11.52817659 9.17322317 9.08131424
Ca 0.54008290 1.12099290 6.10586221
Ca 5.02299159 3.66810051 3.07327109
Ca 9.46650804 3.11799201 7.94927090
Ca 6.69418415 5.93480190 8.07704986
Ca 0.98683656 3.66088501 8.73207060
Ca 1.53041515 7.44118498 10.98819429
Ca 7.89204926 11.21426988 3.28427536
Ca 9.92434892 9.62011194 1.14926866
Ca 1.73883663 8.80304390 2.73503319
Ca 3.37851961 5.61471421 8.67125821
Ca 1.46975804 10.05116082 6.20073185
Ca 8.70114549 3.57550374 1.81410563
Ca 4.00323374 1.39426009 11.07325405
Ca 2.15858501 2.47161814 2.78231257
Ca 8.09377706 0.73159591 11.06528149
Ca 0.89210544 6.52268593 5.83289734
Ca 5.32199701 2.59149784 5.60580241
Ca 4.54752768 5.47982446 5.55687820
Ca 10.61185393 4.13147811 4.45004318
Ca 3.70679842 11.25409452 3.46396762
Ca 9.05660212 11.31584229 6.62537587
Ca 7.42653894 8.04666892 5.54149431
Ca 5.93373189 2.84713648 8.57401342
Ca 11.35191616 2.83072661 10.95422075
Si 8.35839035 2.34420456 5.35376445
Si 2.28348375 3.29916828 5.53968847
Si 7.52765052 4.93977654 4.87385466
Si 8.61316898 9.04265913 9.50397010
Si 9.95888270 7.85913678 6.93455279
Si 2.79664343 3.88221016 11.20244590
Si 10.59050084 1.47895264 1.96457481
Si 5.88315898 1.25088304 1.73433518
Si 10.64569432 5.70667483 8.45232487
Si 3.13401343 8.14047707 7.79754490
Si 0.95907997 11.30641870 11.49057316
Si 3.01582771 1.02107050 7.30210869
Si 10.43300601 8.22852448 4.02343312
Si 5.40832257 4.81160769 11.27716690
Si 8.19946480 4.15091329 10.04618994
Si 11.38488282 0.29066707 8.79921736
Si 4.99402944 7.90455265 10.10609619
Si 3.06079221 10.23925196 9.66314367
Si 8.34255615 7.07443791 2.32809249
Si 7.05732891 8.92022292 0.69488474
Si 4.43201055 10.15479335 0.77543154
Si 6.37569796 10.99267178 5.58321231
Si 4.10762937 8.64152661 5.03681307
Si 11.00589159 6.31828047 1.59644089
Si 2.06136843 5.87474403 2.44347729
Si 11.50241284 11.01155971 3.88459009
Si 6.02396951 10.73290225 8.94719804
O 2.94201981 4.87413266 3.31872713
O 7.51981508 10.24745774 9.04768347
O 7.47574821 3.27634583 6.53589717
O 8.07773043 2.57130576 9.66482916
O 9.38503371 5.81768426 1.63059927
O 7.77247065 7.53684100 0.42948851
O 4.36267539 3.53039064 10.77070633
O 9.18516873 8.91983113 8.00940084
O 7.63259816 10.14843635 5.35719636
O 1.73213202 6.89794499 3.72237199
O 1.92509948 2.24216870 6.94535250
O 6.28328465 4.16495355 4.46856222
O 7.27430568 8.03957210 9.48756440
O 2.28567341 4.67329905 6.45831261
O 0.49280431 10.09415805 0.99156441
O 4.86464086 7.50196526 4.11790931
O 0.39899988 1.61846971 1.27384177
O 9.99613961 2.41456794 5.81570498
O 3.00976722 6.90608573 1.41217078
O 3.23619763 8.00827320 6.15479945
O 9.74857233 11.50502519 8.88742294
O 1.25711987 0.07387773 3.56362690
O 8.97928608 8.21280267 3.13227579
O 10.67263036 6.72661898 4.34442547
O 1.95934635 2.74074983 10.22688617
O 3.62438812 9.59762040 2.05066851
O 2.80430358 3.66546001 1.04124081
O 2.10692665 7.05189482 8.37250311
O 3.54697695 10.60295381 11.10322440
O 10.44920440 11.35152309 2.70027043
O 7.68878131 10.34283944 0.35272959
O 4.53839584 1.79622113 2.49370643
O 8.73452817 5.26946748 8.82039991
O 7.93842695 6.05361543 3.75457054
O 6.32020815 1.87651086 0.32696161
O 0.24952869 10.99421948 7.77198697
O 11.45663068 1.90877346 8.44969810
O 5.99836961 0.44983002 9.77035336
O 4.75852520 6.50198294 10.78846937
O 2.78086615 9.63571680 4.65218945
O 6.47048342 4.58582586 10.04174711
O 6.66415619 8.86057033 2.28062970
O 11.29863335 4.89368661 6.91534657
O 2.91540846 0.44338372 5.83434825
O 11.19961431 6.96707326 9.18671124
O 3.05088934 0.38392887 8.82767613
O 3.64418583 2.97226762 4.67527348
O 10.01418309 2.36036539 3.13176761
O 0.84526696 2.78495769 4.67457654
O 10.64526990 4.44678059 9.39108939
O 5.00979608 7.24251349 8.54159803
O 9.69712540 9.19058068 10.55023061
O 8.42472304 3.79706202 4.35234198
O 2.85954191 9.78974443 8.01958155
O 11.06167733 7.92329378 2.00549289
O 0.28810721 5.01222631 2.28133968
O 9.47067018 1.41115323 0.91516864
O 5.57242673 8.99531019 11.43152447
O 10.85296840 11.44664285 5.17157938
O 6.23807830 11.23452069 7.25082637
O 4.27700075 2.24836315 7.38034705
O 7.12584566 1.71511082 2.64666596
O 11.48367705 6.09277304 11.57298118
O 5.49958210 0.11856193 4.59543430
O 5.00192514 9.62126114 9.26010746
O 5.33938981 4.58957941 7.24743145
O 2.04898267 0.68906409 0.16262126
O 2.67160271 5.44274093 10.82957413
O 6.99505840 6.03919664 5.90237352
O 11.38592185 8.31666508 6.87987920
O 5.51401097 9.16428824 5.52069134
O 1.44374468 10.25377418 10.04856686
O 8.59854561 4.63143177 11.55110183
O 5.99577554 4.78211951 1.27030080
O 9.54916443 6.44432465 7.28103381
O 5.67892287 11.15853636 1.46635571
O 11.49915309 9.28900602 4.35126112
O 7.58182493 0.95610574 5.50585461
O 9.34622356 8.55824888 5.37285160
O 11.34647705 0.38673929 10.56571006
O 3.28145481 8.35524769 10.10371196
135
Time=500000.00000301 pbc="T T T" Lattice="11.62817333 0.00000000 0.00000000 0.00000000 11.62817333 0.00000000 0.00000000 0.00000000 11.62817333" energy=-928.06106703 virial="110.63597235 9.29471287 -29.37290609 9.29471287 116.34413374 -4.00371321 -29.37290609 -4.00371321 154.43047154" stress="0.08886332 0.00591155 -0.01868153 0.00591155 0.09249378 -0.00254641 -0.01868153 -0.00254641 0.11671716" Properties=species:S:1:pos:R:3
Ca 11.08907249 4.21299773 2.60356895
Ca 1.09669274 8.89396374 11.30984550
Ca 10.25908420 7.66523536 4.05361725
Ca 0.55328319 1.78198377 4.77203189
Ca 5.25303779 4.88418455 3.23346279
Ca 10.30130898 7.02452470 10.62322470
Ca 7.58344953 10.42417403 1.89535368
Ca 0.68245110 8.52075303 7.18450873
Ca 5.57700146 10.58549013 4.98623728
Ca 6.62216761 7.98185714 2.33974640
Ca 3.09620477 8.02964004 4.81311531
Ca 9.47187300 11.52118668 3.88825149
Ca 6.81985920 3.98194419 7.16507404
Ca 2.04668742 0.88205211 9.32188355
Ca 6.25949713 8.70576446 10.51602105
Ca 3.40786397 2.96810349 5.60695256
Ca 0.90353264 4.20456057 10.94446638
Ca 9.50274020 6.29410480 7.49175573
Ca 0.69547938 6.66482318 1.34055276
Ca 5.36583832 3.15397421 10.02577254
Ca 3.53777902 2.89479607 1.30886072
Ca 8.62656589 1.18603451 6.83215328
Ca 3.71700668 10.30861404 1.33854587
Ca 7.83871460 0.08038135 10.00384301
Ca 0.56476816 9.72729002 2.44173287
Ca 6.22726021 9.62353369 7.76712637
Ca 8.77922442 2.14449405 1.22155705
Si 8.43288589 9.68371912 5.43948492
Si 2.51387073 11.22689714 6.18459176
Si 3.53234747 7.39622971 1.71624680
Si 6.68360028 2.18415557 4.46824073
Si 9.52068551 9.61459835 8.95926653
Si 4.50912219 6.18699374 7.08386223
Si 0.09555806 10.33729939 4.97950572
Si 5.78258561 0.71666479 2.24183593
Si 4.99180678 0.94109338 7.69975708
Si 8.29182101 5.42573548 3.23077751
Si 1.74575859 6.61083028 9.23010286
Si 2.76838993 4.05012932 8.69215220
Si 9.00891691 5.12040045 0.71270723
Si 7.58388914 5.85008890 9.75983819
Si 1.01368919 5.38164235 6.60496146
Si 10.85247730 0.22140688 9.26863643
Si 0.64034387 1.20035360 0.98817767
Si 3.21773773 9.61403185 9.08021535
Si 4.94181660 5.89852825 11.59400686
Si 6.81595876 7.14761888 5.94366006
Si 2.82744662 0.65972986 3.37965202
Si 4.63966874 11.51218089 10.75395080
Si 9.69221833 9.98876726 0.53135935
Si 2.05122344 4.82005329 3.16823006
Si 9.51740725 3.16470924 4.99442139
Si 11.24837781 3.15582812 7.91605495
Si 8.57172957 3.39957188 9.51790311
O 5.80681092 7.32230106 7.26217899
O 10.09488183 9.60622883 10.55293866
O 0.70598261 10.81158342 6.55553547
O 1.33140000 4.22594057 1.64891580
O 2.30359116 8.52187366 1.36470140
O 8.23469081 11.07074542 5.98854478
O 3.32768548 10.45712912 10.44455243
O 7.96452734 6.06023301 11.50988041
O 3.63191519 10.18760365 6.03962713
O 0.64140734 8.78748771 4.54731978
O 1.63155732 1.65497604 2.98808392
O 10.00536693 9.97730617 2.38330355
O 4.73249539 4.67185052 7.74571412
O 8.10677782 9.25771846 3.82433429
O 8.81563082 3.58129738 11.44916473
O 0.77923444 6.54419655 10.54045768
O 8.95713273 11.38784880 0.49516940
O 2.69315608 10.61714003 3.29973607
O 2.36489927 4.26099623 7.10934849
O 6.73634617 3.42916824 3.49016378
O 4.41654140 4.30999781 0.15865605
O 11.33226422 4.23742375 6.73526077
O 9.03801228 6.85285739 2.57128570
O 9.42517410 4.83809701 4.36029249
O 1.22062425 4.30435240 4.41836889
O 2.64894505 0.75949650 5.00043999
O 2.83811310 6.41296776 2.91817356
O 4.74183908 8.99862224 9.17802115
O 10.66794401 10.62063285 8.12582607
O 9.09133172 5.52013961 9.41078694
O 10.37185745 2.50221396 6.06466055
O 0.55215184 11.33579766 10.20456045
O 4.23504379 1.19404438 2.49057632
O 7.37329245 7.49161642 9.11013515
O 7.72239448 2.09169147 9.42178330
O 10.41535809 8.23434966 8.52252380
O 3.04583816 2.69064064 9.47782788
O 4.93632966 0.38514997 9.21250061
O 5.96127760 8.52007780 5.16661715
O 0.82920909 11.35356211 1.15888374
O 3.37521085 3.78392208 3.16373222
O 3.44636510 0.87386589 7.18697541
O 6.67374217 0.52938931 3.63204488
O 1.93205167 8.28696285 9.16565173
O 4.03054121 6.05009730 5.39258727
O 7.51101573 5.62369042 6.24513580
O 5.96162075 6.28917822 10.34874654
O 7.88766920 2.65317723 5.56443047
O 8.37105394 4.35594146 1.94668959
O 3.14629900 7.25153368 7.57818889
O 10.13265863 9.51365879 5.48162718
O 2.44087733 10.50845932 8.03346496
O 5.64753343 2.34293309 7.70864856
O 8.16100288 8.23378193 6.35120128
O 2.82389930 5.43261755 9.61757198
O 6.90050295 6.22029891 3.78206457
O 10.84032668 8.59784137 0.77313794
O 6.60651299 1.47503285 0.99108719
O 8.07352896 10.18419913 8.63742814
O 11.57559796 0.05576342 4.19335069
O 0.05210485 1.45154211 8.03445986
O 7.19425833 4.24915288 9.34288633
O 3.63234073 0.77798439 11.56357086
O 9.52316737 2.28093104 3.64236061
O 1.24915034 2.14919428 0.04868095
O 4.59207204 8.42218292 2.48425250
O 9.84354557 1.27110429 9.73534813
O 3.73568790 6.96586825 0.00114945
O 10.55762464 5.38427741 0.34864401
O 0.10493087 6.25730928 3.00885521
O 0.93696475 3.87633131 8.74828922
O 5.24686080 2.17939918 5.25939209
O 0.09026014 6.58989759 5.82138002
O 5.61274546 6.10449369 1.51177102
O 0.57354282 6.18280113 8.08202702
O 5.60424264 10.69809368 2.04421824
O 5.68046829 11.34301782 6.91382380
O 9.59325320 3.11869698 8.49800611
O 10.94125286 1.82462871 1.79461959
O 5.91019027 10.60512014 11.13467327
O 8.10248381 9.30383105 0.45566353
135
Time=600000.00000594 pbc="T T T" Lattice="11.62817333 0.00000000 0.00000000 0.00000000 11.62817333 0.00000000 0.00000000 0.00000000 11.62817333" energy=-927.68348224 virial="146.52869043 -10.91519301 -32.44235202 -10.91519301 155.26668365 -13.79335660 -32.44235202 -13.79335660 123.88207972" stress="0.11169153 -0.00694220 -0.02063373 -0.00694220 0.11724900 -0.00877274 -0.02063373 -0.00877274 0.09728801" Properties=species:S:1:pos:R:3
Ca 6.74379558 7.17856607 10.07161705
Ca 2.03380815 4.71844463 7.11659225
Ca 5.15231637 2.76507515 11.44682641
Ca 5.42728696 5.88799752 7.37766078
Ca 2.94046031 4.37627792 2.79815112
Ca 5.92884933 8.89710570 5.77026293
Ca 0.62108505 0.03826933 6.50591953
Ca 8.69977995 5.17894018 1.05017930
Ca 3.62476435 0.80837633 2.81475751
Ca 2.69700938 7.52498985 6.20557552
Ca 11.35725075 10.94493710 10.80378833
Ca 2.40383506 1.76686221 8.78436380
Ca 1.18039181 4.02937482 10.92789293
Ca 2.38523623 10.14386572 4.01467897
Ca 0.87540285 7.47430816 10.54107029
Ca 5.28147481 3.16294482 6.58436470
Ca 10.66132071 8.70081642 1.88925385
Ca 8.17940827 10.91440729 10.39380102
Ca 0.11701387 0.61165298 3.08088855
Ca 4.31819406 10.76171767 11.31499915
Ca 8.17767550 1.74288466 5.09219215
Ca 10.44252679 1.89330573 8.86043732
Ca 11.58999174 6.06761757 4.53762112
Ca 5.93825285 3.12895276 2.88654179
Ca 8.16147372 5.51000004 4.69663239
Ca 8.90440329 9.61195978 4.63668125
Ca 4.67946256 9.07764850 2.18450904
Si 6.74785835 0.60300647 1.31159171
Si 1.69467753 10.03410744 8.95903192
Si 2.43821275 7.25784886 2.98738480
Si 8.60903451 3.90049678 7.48626255
Si 11.40231902 7.67190320 7.59311718
Si 5.95663961 0.65500171 8.71332280
Si 10.44636513 5.27754089 9.07059925
Si 8.10568287 3.82687200 10.36546039
Si 5.89862020 11.50163869 4.77502679
Si 1.93408303 10.08377947 1.18627697
Si 3.53113827 5.36060442 9.42750467
Si 4.48866119 8.86789930 8.91680130
Si 9.12203602 8.47773706 11.16758739
Si 9.30428057 1.69634512 0.84961535
Si 3.88732572 10.95711593 7.00302398
Si 7.07339535 7.69830643 2.38902022
Si 9.76197585 3.42849033 3.40568573
Si 2.49264957 2.44480074 5.10828981
Si 4.35600903 6.11046448 0.66304063
Si 8.37035399 8.08557181 7.24411612
Si 1.91719730 1.65951140 11.46897603
Si 8.72649841 11.13967673 7.42925194
Si 8.59618097 10.77565638 1.91715286
Si 0.14214801 8.81785111 4.94353149
Si 4.88858179 6.08725790 4.77375785
Si 11.14191749 3.09172652 5.74857382
Si 0.05487175 5.45354429 1.48929766
O 9.42232396 2.71057155 6.82069246
O 3.76545292 5.45216849 5.99449906
O 9.29243757 11.40535038 5.94395089
O 7.12190060 10.67252542 1.09247233
O 0.22192829 6.99989948 1.81395358
O 3.51618222 2.78174008 3.91848268
O 4.95300385 8.00531695 7.73117070
O 11.56334430 6.39231663 8.82901093
O 7.77862211 6.36541938 2.58815138
O 2.07254467 0.80425796 4.83113845
O 3.80780554 10.09570145 5.73592948
O 9.99285572 0.72032541 11.24623268
O 6.07989449 7.18225642 0.69030324
O 7.17860892 4.07990197 11.60862885
O 10.76679164 4.68856125 2.59288710
O 7.71091603 3.42161413 8.56277617
O 2.88814351 0.36902629 10.22569560
O 5.30746781 4.80303694 4.04533902
O 3.50189615 6.18026722 10.82200811
O 10.69070904 7.79605544 4.44723401
O 6.99364860 10.67598824 5.32537775
O 1.67183908 9.54265773 11.16909176
O 3.42221493 10.78243302 1.44926298
O 4.97673942 0.42866586 6.21509376
O 6.13598518 8.32042488 3.41618129
O 6.03113417 6.60557298 5.47605549
O 8.25937731 3.75670624 3.05352394
O 4.94173497 2.00126542 8.50493218
O 10.96771309 5.37518082 11.57158795
O 10.23458659 4.50042248 4.75667225
O 0.59803506 1.55256691 10.49480200
O 8.07741389 9.56643722 7.58560421
O 2.62285626 11.07492435 7.92291047
O 3.00229297 2.83464991 11.32844224
O 1.69690216 5.00848075 1.36196788