 vasp.5.4.4.18Apr17-6-g9f103f2a35 (build Mar 16 2023 09:39:13) complex          
  
 executed on             LinuxIFC date 2024.04.29  18:03:15
 running on   48 total cores
 distrk:  each k-point on   48 cores,    1 groups
 distr:  one band on NCORES_PER_BAND=  12 cores,    4 groups


--------------------------------------------------------------------------------------------------------


 INCAR:
 POTCAR:    PAW_PBE Ca_sv 06Sep2000               
 POTCAR:    PAW_PBE Si 05Jan2001                  
 POTCAR:    PAW_PBE O 08Apr2002                   
 POTCAR:    PAW_PBE Ca_sv 06Sep2000               
   SHA256 =  a47365830e737f14e0e6c5cf1ed81b94e081eecf0a33df105380881bc9da05d5 Ca
   COPYR  = (c) Copyright 06Sep2000 Georg Kresse                                
   COPYR  = This file is part of the software VASP. Any use, copying, and all ot
   COPYR  = If you do not have a valid VASP license, you may not use, copy or di
   VRHFIN =Ca: 3s3p4s                                                           
   LEXCH  = PE                                                                  
   EATOM  =  1006.0909 eV,   73.9456 Ry                                         
                                                                                
   TITEL  = PAW_PBE Ca_sv 06Sep2000                                             
   LULTRA =        F    use ultrasoft PP ?                                      
   IUNSCR =        1    unscreen: 0-lin 1-nonlin 2-no                           
   RPACOR =    2.000    partial core radius                                     
   POMASS =   40.078; ZVAL   =   10.000    mass and valenz                      
   RCORE  =    2.300    outmost cutoff radius                                   
   RWIGS  =    2.500; RWIGS  =    1.323    wigner-seitz radius (au A)           
   ENMAX  =  266.622; ENMIN  =  199.967 eV                                      
   RCLOC  =    1.808    cutoff for local pot                                    
   LCOR   =        T    correct aug charges                                     
   LPAW   =        T    paw PP                                                  
   EAUG   =  420.852                                                            
   RMAX   =    2.359    core radius for proj-oper                               
   RAUG   =    1.300    factor for augmentation sphere                          
   RDEP   =    2.392    radius for radial grids                                 
   RDEPT  =    1.987    core radius for aug-charge                              
                                                                                
   Atomic configuration                                                         
    7 entries                                                                   
     n  l   j            E        occ.                                          
     1  0  0.50     -3949.1705   2.0000                                         
     2  0  0.50      -414.3434   2.0000                                         
     2  1  1.50      -334.7047   6.0000                                         
     3  0  0.50       -47.0896   2.0000                                         
     4  0  0.50        -3.7663   2.0000                                         
     3  1  1.50       -28.0061   6.0000                                         
     3  2  1.50        -4.0817   0.0000                                         
   Description                                                                  
     l       E           TYP  RCUT    TYP  RCUT                                 
     0    -47.0896403     23  2.300                                             
     0     -3.7663320     23  2.300                                             
     1    -28.0060855     23  2.300                                             
     1      6.8029130     23  2.300                                             
     2     -4.0817478     23  2.300                                             
     2      0.4464412     23  2.300                                             
  local pseudopotential read in
  partial core-charges read in
  partial kinetic energy density read in
  atomic valenz-charges read in
  non local Contribution for L=           0  read in
    real space projection operators read in
  non local Contribution for L=           0  read in
    real space projection operators read in
  non local Contribution for L=           1  read in
    real space projection operators read in
  non local Contribution for L=           1  read in
    real space projection operators read in
  non local Contribution for L=           2  read in
    real space projection operators read in
  non local Contribution for L=           2  read in
    real space projection operators read in
    PAW grid and wavefunctions read in
 
   number of l-projection  operators is LMAX  =           6
   number of lm-projection operators is LMMAX =          18
 
 POTCAR:    PAW_PBE Si 05Jan2001                  
   SHA256 =  79d9987ad8750f624c4d6acb2a16d13abf6a777132adc04dc6c8399be72b42bb Si
   COPYR  = (c) Copyright 05Jan2001 Georg Kresse                                
   COPYR  = This file is part of the software VASP. Any use, copying, and all ot
   COPYR  = If you do not have a valid VASP license, you may not use, copy or di
   VRHFIN =Si: s2p2                                                             
   LEXCH  = PE                                                                  
   EATOM  =   103.0669 eV,    7.5752 Ry                                         
                                                                                
   TITEL  = PAW_PBE Si 05Jan2001                                                
   LULTRA =        F    use ultrasoft PP ?                                      
   IUNSCR =        1    unscreen: 0-lin 1-nonlin 2-no                           
   RPACOR =    1.500    partial core radius                                     
   POMASS =   28.085; ZVAL   =    4.000    mass and valenz                      
   RCORE  =    1.900    outmost cutoff radius                                   
   RWIGS  =    2.480; RWIGS  =    1.312    wigner-seitz radius (au A)           
   ENMAX  =  245.345; ENMIN  =  184.009 eV                                      
   ICORE  =        2    local potential                                         
   LCOR   =        T    correct aug charges                                     
   LPAW   =        T    paw PP                                                  
   EAUG   =  322.069                                                            
   DEXC   =    0.000                                                            
   RMAX   =    1.950    core radius for proj-oper                               
   RAUG   =    1.300    factor for augmentation sphere                          
   RDEP   =    1.993    radius for radial grids                                 
   RDEPT  =    1.837    core radius for aug-charge                              
                                                                                
   Atomic configuration                                                         
    6 entries                                                                   
     n  l   j            E        occ.                                          
     1  0  0.50     -1785.8828   2.0000                                         
     2  0  0.50      -139.4969   2.0000                                         
     2  1  1.50       -95.5546   6.0000                                         
     3  0  0.50       -10.8127   2.0000                                         
     3  1  0.50        -4.0811   2.0000                                         
     3  2  1.50        -4.0817   0.0000                                         
   Description                                                                  
     l       E           TYP  RCUT    TYP  RCUT                                 
     0    -10.8127223     23  1.900                                             
     0     -7.6451159     23  1.900                                             
     1     -4.0811372     23  1.900                                             
     1      2.4879257     23  1.900                                             
     2     -4.0817478      7  1.900                                             
  local pseudopotential read in
  partial core-charges read in
  partial kinetic energy density read in
  atomic valenz-charges read in
  non local Contribution for L=           0  read in
    real space projection operators read in
  non local Contribution for L=           0  read in
    real space projection operators read in
  non local Contribution for L=           1  read in
    real space projection operators read in
  non local Contribution for L=           1  read in
    real space projection operators read in
    PAW grid and wavefunctions read in
 
   number of l-projection  operators is LMAX  =           4
   number of lm-projection operators is LMMAX =           8
 
 POTCAR:    PAW_PBE O 08Apr2002                   
   SHA256 =  818f92134a0a090dccd8ba1447fa70422a3b330e708bb4f08108d8ae51209ddf O/
   COPYR  = (c) Copyright 08Apr2002 Georg Kresse                                
   COPYR  = This file is part of the software VASP. Any use, copying, and all ot
   COPYR  = If you do not have a valid VASP license, you may not use, copy or di
   VRHFIN =O: s2p4                                                              
   LEXCH  = PE                                                                  
   EATOM  =   432.3788 eV,   31.7789 Ry                                         
                                                                                
   TITEL  = PAW_PBE O 08Apr2002                                                 
   LULTRA =        F    use ultrasoft PP ?                                      
   IUNSCR =        1    unscreen: 0-lin 1-nonlin 2-no                           
   RPACOR =    1.200    partial core radius                                     
   POMASS =   16.000; ZVAL   =    6.000    mass and valenz                      
   RCORE  =    1.520    outmost cutoff radius                                   
   RWIGS  =    1.550; RWIGS  =    0.820    wigner-seitz radius (au A)           
   ENMAX  =  400.000; ENMIN  =  300.000 eV                                      
   ICORE  =        2    local potential                                         
   LCOR   =        T    correct aug charges                                     
   LPAW   =        T    paw PP                                                  
   EAUG   =  605.392                                                            
   DEXC   =    0.000                                                            
   RMAX   =    1.553    core radius for proj-oper                               
   RAUG   =    1.300    factor for augmentation sphere                          
   RDEP   =    1.550    radius for radial grids                                 
   RDEPT  =    1.329    core radius for aug-charge                              
                                                                                
   Atomic configuration                                                         
    4 entries                                                                   
     n  l   j            E        occ.                                          
     1  0  0.50      -514.6923   2.0000                                         
     2  0  0.50       -23.9615   2.0000                                         
     2  1  0.50        -9.0305   4.0000                                         
     3  2  1.50        -9.5241   0.0000                                         
   Description                                                                  
     l       E           TYP  RCUT    TYP  RCUT                                 
     0    -23.9615318     23  1.200                                             
     0     -9.5240782     23  1.200                                             
     1     -9.0304911     23  1.520                                             
     1      8.1634956     23  1.520                                             
     2     -9.5240782      7  1.500                                             
  local pseudopotential read in
  partial core-charges read in
  partial kinetic energy density read in
  kinetic energy density of atom read in
  atomic valenz-charges read in
  non local Contribution for L=           0  read in
    real space projection operators read in
  non local Contribution for L=           0  read in
    real space projection operators read in
  non local Contribution for L=           1  read in
    real space projection operators read in
  non local Contribution for L=           1  read in
    real space projection operators read in
    PAW grid and wavefunctions read in
 
   number of l-projection  operators is LMAX  =           4
   number of lm-projection operators is LMMAX =           8
 
 Optimization of the real space projectors (new method)

 maximal supplied QI-value         = 16.25
 optimisation between [QCUT,QGAM] = [ 12.51, 25.03] = [ 43.85,175.40] Ry 
 Optimized for a Real-space Cutoff    1.47 Angstroem

   l    n(q)    QCUT    max X(q) W(low)/X(q) W(high)/X(q)  e(spline) 
   0     11    12.514    11.817    0.25E-04    0.32E-05    0.87E-07
   0     11    12.514     8.461    0.39E-04    0.59E-05    0.18E-06
   1     11    12.514     3.957    0.97E-05    0.57E-05    0.28E-07
   1     11    12.514     4.314    0.42E-04    0.14E-04    0.23E-06
   2     10    12.514    14.565    0.79E-04    0.50E-03    0.16E-05
   2     10    12.514    14.552    0.75E-04    0.48E-03    0.15E-05
 Optimization of the real space projectors (new method)

 maximal supplied QI-value         = 19.84
 optimisation between [QCUT,QGAM] = [ 12.50, 25.00] = [ 43.76,175.03] Ry 
 Optimized for a Real-space Cutoff    1.16 Angstroem

   l    n(q)    QCUT    max X(q) W(low)/X(q) W(high)/X(q)  e(spline) 
   0      9    12.501   159.560    0.10E-03    0.83E-04    0.71E-07
   0      9    12.501   115.863    0.99E-04    0.81E-04    0.70E-07
   1      8    12.501    88.339    0.20E-03    0.25E-03    0.76E-07
   1      8    12.501    48.592    0.20E-03    0.24E-03    0.75E-07
 Optimization of the real space projectors (new method)

 maximal supplied QI-value         = 24.76
 optimisation between [QCUT,QGAM] = [ 12.38, 25.00] = [ 42.90,175.06] Ry 
 Optimized for a Real-space Cutoff    1.16 Angstroem

   l    n(q)    QCUT    max X(q) W(low)/X(q) W(high)/X(q)  e(spline) 
   0      9    12.378    20.381    0.16E-03    0.67E-05    0.31E-06
   0      9    12.378    15.268    0.17E-03    0.81E-05    0.33E-06
   1      8    12.378     5.964    0.20E-03    0.16E-03    0.30E-06
   1      8    12.378     5.382    0.18E-03    0.14E-03    0.26E-06
  PAW_PBE Ca_sv 06Sep2000               :
 energy of atom  1       EATOM=-1006.0909
 kinetic energy error for atom=    0.0012 (will be added to EATOM!!)
  PAW_PBE Si 05Jan2001                  :
 energy of atom  2       EATOM= -103.0669
 kinetic energy error for atom=    0.0003 (will be added to EATOM!!)
  PAW_PBE O 08Apr2002                   :
 energy of atom  3       EATOM= -432.3788
 kinetic energy error for atom=    0.0168 (will be added to EATOM!!)
 
 
 POSCAR: Ca Si  O                                
  positions in direct lattice
  No initial velocities read in
 exchange correlation table for  LEXCH =        8
   RHO(1)=    0.500       N(1)  =     2000
   RHO(2)=  100.500       N(2)  =     4000
 


--------------------------------------------------------------------------------------------------------


 ion  position               nearest neighbor table
   1  0.249  0.383  0.413-  64 2.04 100 2.12  81 2.37 114 2.39  94 2.48  40 2.74  49 3.08
   2  0.473  0.538  0.892-  90 2.13 104 2.35 112 2.36  30 2.91  51 3.04
   3  0.918  0.270  0.406- 125 2.14  80 2.35  83 2.43 114 2.48 122 2.57   9 2.99  25 3.02  31 3.10

   4  0.743  0.700  0.520-  56 2.08 132 2.20  62 2.25 116 2.31  67 2.44  84 2.48  44 2.75  48 2.97
                            35 3.09
   5  0.788  0.481  0.193-  63 2.15  95 2.18  67 2.18  86 2.39  93 2.47  48 2.78  54 2.90  30 2.91
                            31 2.98
   6  0.026  0.745  0.185- 120 2.09 106 2.15  85 2.30  74 2.49  86 2.50  19 2.90
   7  0.566  0.166  0.982- 135 2.14  60 2.15 123 2.23 110 2.25 108 2.33  88 2.33  46 2.80  29 3.11
                            16 3.15  30 3.15
   8  0.084  0.745  0.811-  71 2.34 134 2.48 128 2.55  42 2.77  51 2.85  24 2.98  18 3.08
   9  0.900  0.175  0.644-  61 2.09 122 2.10 113 2.20 107 2.28  79 2.46  83 2.49  18 2.86   3 2.99

  10  0.339  0.995  0.781- 118 2.24  91 2.47 102 2.47  39 3.15
  11  0.485  0.384  0.220-  95 2.06 100 2.31  89 2.34 110 2.37  49 2.74  48 2.94
  12  0.631  0.208  0.412- 126 1.93  55 2.28  89 2.40 130 2.46 122 2.47  78 2.57  36 2.89  28 3.15

  13  0.797  0.924  0.031- 109 2.13  85 2.16 134 2.26  68 2.47 108 2.49  42 2.91  19 2.96  15 3.09

  14  0.767  0.607  0.780- 116 2.12  71 2.15  96 2.22 132 2.42  42 2.44 104 2.52  68 2.54  33 2.82

  15  0.544  0.856  0.989- 108 1.95 123 2.09  97 2.33  91 2.40 109 2.50 127 2.52  54 2.85  13 3.09
                            50 3.15
  16  0.328  0.296  0.982- 135 2.02 111 2.22  99 2.23  98 2.27  37 2.67   7 3.15
  17  0.474  0.709  0.282-  84 2.27 115 2.38  97 2.45  70 2.49  57 2.51 101 2.51  53 2.87  48 2.94
                            54 2.95
  18  0.938  0.940  0.708-  61 2.05 107 2.22 119 2.39  62 2.42  71 2.52   9 2.86   8 3.08
  19  0.045  0.967  0.074-  74 2.22 103 2.24  85 2.28 134 2.32 120 2.47  32 2.83   6 2.90  13 2.96
                            45 3.10
  20  0.163  0.208  0.184- 100 2.19  87 2.21 117 2.25 103 2.38  49 2.65  41 2.67
  21  0.178  0.209  0.616- 133 1.94  81 2.17  83 2.31  80 2.38  61 2.45  34 2.74  37 2.78  36 2.99

  22  0.941  0.296  0.928-  82 1.99  58 2.06 113 2.12 103 2.40  87 2.46  32 2.85
  23  0.559  0.973  0.292-  78 2.28  69 2.31  72 2.36 126 2.45  84 2.50  35 3.13
  24  0.172  0.533  0.925-  99 2.31  90 2.48 128 2.49  76 2.53   8 2.98  53 3.11
  25  0.978  0.522  0.393- 114 2.12  86 2.18  56 2.33 106 2.44  44 2.97   3 3.02  41 3.08
  26  0.490  0.487  0.582- 105 2.09  70 2.16 116 2.38 112 2.45  89 2.50  48 3.03
  27  0.227  0.778  0.500-  57 2.05 119 2.35  59 2.36  94 2.46 118 2.54  43 2.84  44 3.07
  28  0.757  0.982  0.496-  62 1.52 122 1.63  72 1.70  78 1.83 107 2.53  45 2.86  39 2.97  12 3.15

  29  0.590  0.278  0.741-  60 1.56 130 1.74 105 1.79  79 1.98 135 2.16 104 2.24  37 2.82  46 2.95
                            33 3.00  36 3.01   7 3.11
  30  0.671  0.415  0.982-  58 1.54 110 1.55  75 1.58 104 1.80   5 2.91   2 2.91   7 3.15
  31  0.818  0.228  0.163-  93 1.54  55 1.68  88 1.70  65 1.94  58 2.49   5 2.98   3 3.10
  32  0.093  0.108  0.881- 113 1.60 102 1.70 103 1.72  98 1.75  19 2.83  22 2.85
  33  0.766  0.425  0.621-  79 1.52 125 1.64  96 1.65 116 1.75  47 2.69  14 2.82  29 3.00
  34  0.096  0.036  0.480-  80 1.55  59 1.59 129 1.70  61 1.76 119 2.49  21 2.74  43 2.77  45 3.09

  35  0.748  0.783  0.267-  84 1.59 109 1.68  63 1.71 124 1.77  85 2.40  72 2.47  54 2.73  45 3.03
                             4 3.09  23 3.13
  36  0.427  0.207  0.553-  64 1.50 130 1.55  92 1.59 133 1.64  37 2.74  12 2.89  39 2.99  21 2.99
                            29 3.01
  37  0.350  0.304  0.753-  99 1.62 105 1.62 133 1.66 135 1.92  81 2.06  98 2.42  16 2.67  36 2.74
                            21 2.78  29 2.82
  38  0.527  0.766  0.699- 132 1.59  91 1.67 112 1.74  77 1.90  51 2.56  39 2.73
  39  0.515  0.966  0.576-  78 1.55  66 1.65  77 1.69  92 1.70  38 2.73  28 2.97  36 2.99  10 3.15

  40  0.211  0.500  0.615- 121 1.51  81 1.58  94 1.72  76 1.86   1 2.74  47 2.80
  41  0.073  0.419  0.168-  87 1.62 114 1.71  86 1.75  73 1.80  93 2.19  20 2.67  25 3.08
  42  0.877  0.713  0.923-  71 1.55 128 1.65  68 1.67 134 1.90  14 2.44   8 2.77  13 2.91
  43  0.255  0.948  0.326-  57 1.54  59 1.60  74 1.74  69 1.84 117 1.87  34 2.77  27 2.84  50 3.04
                            49 3.14
  44  0.965  0.765  0.470-  56 1.54 119 1.70 124 1.74 106 1.75 129 2.46  62 2.51   4 2.75  25 2.97
                            27 3.07
  45  0.906  0.988  0.301- 129 1.60  65 1.71  85 1.73  72 1.86 124 2.52  28 2.86  35 3.03  34 3.09
                            19 3.10
  46  0.659  0.040  0.798-  60 1.54 108 1.59  66 1.61 107 1.71   7 2.80  29 2.95
  47  0.989  0.434  0.679-  96 1.41 121 1.76  83 1.77  82 1.79  33 2.69  40 2.80
  48  0.631  0.530  0.367-  70 1.59  67 1.63  89 1.66  95 1.68   5 2.78  11 2.94  17 2.94   4 2.97
                            26 3.03
  49  0.369  0.188  0.280- 117 1.54 126 1.62 100 1.75 111 1.85  64 2.21  20 2.65  11 2.74  50 2.83
                             1 3.08  43 3.14
  50  0.362  0.024  0.101-  69 1.59 123 1.63 127 1.73 111 1.77  49 2.83  52 2.98  43 3.04  15 3.15

  51  0.325  0.717  0.772- 131 1.56 118 1.63  76 1.70 112 1.77  91 1.92  38 2.56   8 2.85   2 3.04

  52  0.266  0.796  0.032- 120 1.60 101 1.60 127 1.63 131 1.79  53 2.87  50 2.98
  53  0.309  0.583  0.149- 101 1.56 115 1.58  73 1.62  90 1.69  17 2.87  52 2.87  24 3.11
  54  0.641  0.659  0.098-  97 1.62  75 1.71  63 1.74  68 2.20 109 2.26  95 2.29  35 2.73  15 2.85
                             5 2.90  17 2.95
  55  0.704  0.270  0.241-  31 1.68  12 2.28
  56  0.917  0.656  0.529-  44 1.54   4 2.08  25 2.33
  57  0.310  0.830  0.352-  43 1.54  27 2.05  17 2.51
  58  0.792  0.361  0.996-  30 1.54  22 2.06  31 2.49
  59  0.216  0.976  0.455-  34 1.59  43 1.60  27 2.36
  60  0.631  0.170  0.809-  46 1.54  29 1.56   7 2.15
  61  0.033  0.057  0.616-  34 1.76  18 2.05   9 2.09  21 2.45
  62  0.805  0.879  0.560-  28 1.52   4 2.25  18 2.42  44 2.51
  63  0.765  0.664  0.182-  35 1.71  54 1.74   5 2.15
  64  0.375  0.267  0.453-  36 1.50   1 2.04  49 2.21
  65  0.918  0.104  0.212-  45 1.71  31 1.94
  66  0.569  0.989  0.706-  46 1.61  39 1.65
  67  0.764  0.572  0.355-  48 1.63   5 2.18   4 2.44
  68  0.739  0.735  0.955-  42 1.67  54 2.20  13 2.47  14 2.54
  69  0.373  0.961  0.222-  50 1.59  43 1.84  23 2.31
  70  0.553  0.604  0.452-  48 1.59  26 2.16  17 2.49
  71  0.884  0.749  0.796-  42 1.55  14 2.15   8 2.34  18 2.52
  72  0.754  0.978  0.350-  28 1.70  45 1.86  23 2.36  35 2.47
  73  0.180  0.530  0.156-  53 1.62  41 1.80
  74  0.144  0.918  0.230-  43 1.74  19 2.22   6 2.49
  75  0.670  0.549  0.006-  30 1.58  54 1.71
  76  0.241  0.605  0.732-  51 1.70  40 1.86  24 2.53
  77  0.482  0.826  0.554-  39 1.69  38 1.90
  78  0.601  0.000  0.481-  39 1.55  28 1.83  23 2.28  12 2.57
  79  0.749  0.316  0.691-  33 1.52  29 1.98   9 2.46
  80  0.086  0.162  0.439-  34 1.55   3 2.35  21 2.38
  81  0.263  0.375  0.617-  40 1.58  37 2.06  21 2.17   1 2.37
  82  0.035  0.390  0.819-  47 1.79  22 1.99
  83  0.027  0.331  0.574-  47 1.77  21 2.31   3 2.43   9 2.49
  84  0.640  0.784  0.352-  35 1.59  17 2.27   4 2.48  23 2.50
  85  0.899  0.896  0.184-  45 1.73  13 2.16  19 2.28   6 2.30  35 2.40
  86  0.986  0.535  0.206-  41 1.75  25 2.18   5 2.39   6 2.50
  87  0.102  0.337  0.059-  41 1.62  20 2.21  22 2.46
  88  0.747  0.144  0.066-  31 1.70   7 2.33
  89  0.570  0.405  0.401-  48 1.66  11 2.34  12 2.40  26 2.50
  90  0.356  0.515  0.030-  53 1.69   2 2.13  24 2.48
  91  0.451  0.817  0.810-  38 1.67  51 1.92  15 2.40  10 2.47
  92  0.418  0.071  0.542-  36 1.59  39 1.70
  93  0.918  0.313  0.184-  31 1.54  41 2.19   5 2.47
  94  0.278  0.573  0.504-  40 1.72  27 2.46   1 2.48
  95  0.606  0.513  0.225-  48 1.68  11 2.06   5 2.18  54 2.29
  96  0.877  0.479  0.690-  47 1.41  33 1.65  14 2.22
  97  0.505  0.680  0.076-  54 1.62  15 2.33  17 2.45
  98  0.224  0.180  0.864-  32 1.75  16 2.27  37 2.42
  99  0.272  0.393  0.827-  37 1.62  16 2.23  24 2.31
 100  0.300  0.318  0.251-  49 1.75   1 2.12  20 2.19  11 2.31
 101  0.327  0.714  0.125-  53 1.56  52 1.60  17 2.51
 102  0.140  0.973  0.852-  32 1.70  10 2.47
 103  0.057  0.151  0.018-  32 1.72  19 2.24  20 2.38  22 2.40
 104  0.640  0.440  0.832-  30 1.80  29 2.24   2 2.35  14 2.52
 105  0.467  0.366  0.713-  37 1.62  29 1.79  26 2.09
 106  0.059  0.714  0.365-  44 1.75   6 2.15  25 2.44
 107  0.773  0.038  0.706-  46 1.71  18 2.22   9 2.28  28 2.53
 108  0.626  0.985  0.919-  46 1.59  15 1.95   7 2.33  13 2.49
 109  0.686  0.841  0.151-  35 1.68  13 2.13  54 2.26  15 2.50
 110  0.569  0.350  0.038-  30 1.55   7 2.25  11 2.37
 111  0.374  0.174  0.122-  50 1.77  49 1.85  16 2.22
 112  0.445  0.641  0.719-  38 1.74  51 1.77   2 2.36  26 2.45
 113  0.000  0.175  0.805-  32 1.60  22 2.12   9 2.20
 114  0.070  0.387  0.312-  41 1.71  25 2.12   1 2.39   3 2.48
 115  0.341  0.553  0.277-  53 1.58  17 2.38
 116  0.680  0.548  0.631-  33 1.75  14 2.12   4 2.31  26 2.38
 117  0.268  0.107  0.311-  49 1.54  43 1.87  20 2.25
 118  0.274  0.830  0.707-  51 1.63  10 2.24  27 2.54
 119  0.047  0.844  0.562-  44 1.70  27 2.35  18 2.39  34 2.49
 120  0.130  0.775  0.042-  52 1.60   6 2.09  19 2.47
 121  0.084  0.530  0.611-  40 1.51  47 1.76
 122  0.797  0.116  0.508-  28 1.63   9 2.10  12 2.47   3 2.57
 123  0.499  0.009  0.071-  50 1.63  15 2.09   7 2.23
 124  0.874  0.779  0.352-  44 1.74  35 1.77  45 2.52
 125  0.808  0.391  0.490-  33 1.64   3 2.14
 126  0.504  0.175  0.311-  49 1.62  12 1.93  23 2.45
 127  0.336  0.915  0.003-  52 1.63  50 1.73  15 2.52
 128  0.972  0.609  0.941-  42 1.65  24 2.49   8 2.55
 129  0.996  0.963  0.402-  45 1.60  34 1.70  44 2.46
 130  0.546  0.240  0.602-  36 1.55  29 1.74  12 2.46
 131  0.302  0.717  0.905-  51 1.56  52 1.79
 132  0.662  0.757  0.681-  38 1.59   4 2.20  14 2.42
 133  0.338  0.196  0.662-  36 1.64  37 1.66  21 1.94
 134  0.953  0.857  0.935-  42 1.90  13 2.26  19 2.32   8 2.48
 135  0.459  0.267  0.871-  37 1.92  16 2.02   7 2.14  29 2.16
 

IMPORTANT INFORMATION: All symmetrisations will be switched off!
NOSYMM: (Re-)initialisation of all symmetry stuff for point group C_1.

 
 

Automatic generation of k-mesh.
 generate k-points for:    2    2    2
Space group operators:
 irot       det(A)        alpha          n_x          n_y          n_z        tau_x        tau_y        tau_z
    1     1.000000     0.000001     1.000000     0.000000     0.000000     0.000000     0.000000     0.000000
 
 Subroutine IBZKPT returns following result:
 ===========================================
 
 Found      8 irreducible k-points:
 
 Following reciprocal coordinates:
            Coordinates               Weight
  0.000000  0.000000  0.000000      1.000000
  0.500000  0.000000  0.000000      1.000000
  0.000000  0.500000  0.000000      1.000000
  0.500000  0.500000  0.000000      1.000000
  0.000000  0.000000  0.500000      1.000000
  0.500000  0.000000  0.500000      1.000000
  0.000000  0.500000  0.500000      1.000000
  0.500000  0.500000  0.500000      1.000000
 
 Following cartesian coordinates:
            Coordinates               Weight
  0.000000  0.000000  0.000000      1.000000
  0.042999  0.000000  0.000000      1.000000
  0.000000  0.042999  0.000000      1.000000
  0.042999  0.042999  0.000000      1.000000
  0.000000  0.000000  0.042999      1.000000
  0.042999  0.000000  0.042999      1.000000
  0.000000  0.042999  0.042999      1.000000
  0.042999  0.042999  0.042999      1.000000
 


--------------------------------------------------------------------------------------------------------




 Dimension of arrays:
   k-points           NKPTS =      8   k-points in BZ     NKDIM =      8   number of bands    NBANDS=    520
   number of dos      NEDOS =    301   number of ions     NIONS =    135
   non local maximal  LDIM  =      6   non local SUM 2l+1 LMDIM =     18
   total plane-waves  NPLWV = 884736
   max r-space proj   IRMAX =   7548   max aug-charges    IRDMAX= 214954
   dimension x,y,z NGX =    96 NGY =   96 NGZ =   96
   dimension x,y,z NGXF=   192 NGYF=  192 NGZF=  192
   support grid    NGXF=   384 NGYF=  384 NGZF=  384
   ions per type =              27  27  81
   NGX,Y,Z   is equivalent  to a cutoff of  13.72, 13.72, 13.72 a.u.
   NGXF,Y,Z  is equivalent  to a cutoff of  27.45, 27.45, 27.45 a.u.

 SYSTEM =  unknown system                          
 POSCAR =  Ca Si  O                                

 Startparameter for this run:
   NWRITE =      2    write-flag & timer
   PREC   = a         normal or accurate (medium, high low for compatibility)
   ISTART =      0    job   : 0-new  1-cont  2-samecut
   ICHARG =      2    charge: 1-file 2-atom 10-const
   ISPIN  =      1    spin polarized calculation?
   LNONCOLLINEAR =      F non collinear calculations
   LSORBIT =      F    spin-orbit coupling
   INIWAV =      1    electr: 0-lowe 1-rand  2-diag
   LASPH  =      F    aspherical Exc in radial PAW
   METAGGA=      F    non-selfconsistent MetaGGA calc.

 Electronic Relaxation 1
   ENCUT  =  600.0 eV  44.10 Ry    6.64 a.u.  23.22 23.22 23.22*2*pi/ulx,y,z
   ENINI  =  600.0     initial cutoff
   ENAUG  =  605.4 eV  augmentation charge cutoff
   NELM   =     60;   NELMIN=  2; NELMDL= -5     # of ELM steps 
   EDIFF  = 0.1E-05   stopping-criterion for ELM
   LREAL  =      T    real-space projection
   NLSPLINE    = F    spline interpolate recip. space projectors
   LCOMPAT=      F    compatible to vasp.4.4
   GGA_COMPAT  = T    GGA compatible to vasp.4.4-vasp.4.6
   LMAXPAW     = -100 max onsite density
   LMAXMIX     =    2 max onsite mixed and CHGCAR
   VOSKOWN=      0    Vosko Wilk Nusair interpolation
   ROPT   =   -0.00025  -0.00025  -0.00025
 Ionic relaxation
   EDIFFG = -.1E-01   stopping-criterion for IOM
   NSW    =      1    number of steps for IOM
   NBLOCK =      1;   KBLOCK =      1    inner block; outer block 
   IBRION =     -1    ionic relax: 0-MD 1-quasi-New 2-CG
   NFREE  =      0    steps in history (QN), initial steepest desc. (CG)
   ISIF   =      2    stress and relaxation
   IWAVPR =     10    prediction:  0-non 1-charg 2-wave 3-comb
   ISYM   =      0    0-nonsym 1-usesym 2-fastsym
   LCORR  =      T    Harris-Foulkes like correction to forces

   POTIM  = 1.0000    time-step for ionic-motion
   TEIN   =    0.0    initial temperature
   TEBEG  =    0.0;   TEEND  =   0.0 temperature during run
   SMASS  =  -3.00    Nose mass-parameter (am)
   estimated Nose-frequenzy (Omega)   =  0.10E-29 period in steps =****** mass=  -0.309E-26a.u.
   SCALEE = 1.0000    scale energy and forces
   NPACO  =    256;   APACO  = 16.0  distance and # of slots for P.C.
   PSTRESS=    0.0 pullay stress

  Mass of Ions in am
   POMASS =  40.08 28.09 16.00
  Ionic Valenz
   ZVAL   =  10.00  4.00  6.00
  Atomic Wigner-Seitz radii
   RWIGS  =  -1.00 -1.00 -1.00
  virtual crystal weights 
   VCA    =   1.00  1.00  1.00
   NELECT =     864.0000    total number of electrons
   NUPDOWN=      -1.0000    fix difference up-down

 DOS related values:
   EMIN   =  10.00;   EMAX   =-10.00  energy-range for DOS
   EFERMI =   0.00
   ISMEAR =     0;   SIGMA  =   0.05  broadening in eV -4-tet -1-fermi 0-gaus

 Electronic relaxation 2 (details)
   IALGO  =     38    algorithm
   LDIAG  =      T    sub-space diagonalisation (order eigenvalues)
   LSUBROT=      F    optimize rotation matrix (better conditioning)
   TURBO    =      0    0=normal 1=particle mesh
   IRESTART =      0    0=no restart 2=restart with 2 vectors
   NREBOOT  =      0    no. of reboots
   NMIN     =      0    reboot dimension
   EREF     =   0.00    reference energy to select bands
   IMIX   =      4    mixing-type and parameters
     AMIX     =   0.40;   BMIX     =  1.00
     AMIX_MAG =   1.60;   BMIX_MAG =  1.00
     AMIN     =   0.10
     WC   =   100.;   INIMIX=   1;  MIXPRE=   1;  MAXMIX= -45

 Intra band minimization:
   WEIMIN = 0.0000     energy-eigenvalue tresh-hold
   EBREAK =  0.48E-09  absolut break condition
   DEPER  =   0.30     relativ break condition  

   TIME   =   0.40     timestep for ELM

  volume/ion in A,a.u.               =      11.65        78.60
  Fermi-wavevector in a.u.,A,eV,Ry     =   1.340915  2.533962 24.463997  1.798053
  Thomas-Fermi vector in A             =   2.469190
 
 Write flags
   LWAVE        =      F    write WAVECAR
   LDOWNSAMPLE  =      F    k-point downsampling of WAVECAR
   LCHARG       =      F    write CHGCAR
   LVTOT        =      F    write LOCPOT, total local potential
   LVHAR        =      F    write LOCPOT, Hartree potential only
   LELF         =      F    write electronic localiz. function (ELF)
   LORBIT       =      0    0 simple, 1 ext, 2 COOP (PROOUT), +10 PAW based schemes


 Dipole corrections
   LMONO  =      F    monopole corrections only (constant potential shift)
   LDIPOL =      F    correct potential (dipole corrections)
   IDIPOL =      0    1-x, 2-y, 3-z, 4-all directions 
   EPSILON=  1.0000000 bulk dielectric constant

 Exchange correlation treatment:
   GGA     =    --    GGA type
   LEXCH   =     8    internal setting for exchange type
   VOSKOWN=      0    Vosko Wilk Nusair interpolation
   LHFCALC =     F    Hartree Fock is set to
   LHFONE  =     F    Hartree Fock one center treatment
   AEXX    =    0.0000 exact exchange contribution

 Linear response parameters
   LEPSILON=     F    determine dielectric tensor
   LRPA    =     F    only Hartree local field effects (RPA)
   LNABLA  =     F    use nabla operator in PAW spheres
   LVEL    =     F    velocity operator in full k-point grid
   LINTERFAST=   F  fast interpolation
   KINTER  =     0    interpolate to denser k-point grid
   CSHIFT  =0.1000    complex shift for real part using Kramers Kronig
   OMEGAMAX=  -1.0    maximum frequency
   DEG_THRESHOLD= 0.2000000E-02 threshold for treating states as degnerate
   RTIME   =   -0.100 relaxation time in fs
  (WPLASMAI=    0.000 imaginary part of plasma frequency in eV, 0.658/RTIME)
   DFIELD  = 0.0000000 0.0000000 0.0000000 field for delta impulse in time
 
 Orbital magnetization related:
   ORBITALMAG=     F  switch on orbital magnetization
   LCHIMAG   =     F  perturbation theory with respect to B field
   DQ        =  0.001000  dq finite difference perturbation B field
   LLRAUG    =     F  two centre corrections for induced B field



--------------------------------------------------------------------------------------------------------


 Static calculation
 charge density and potential will be updated during run
 non-spin polarized calculation
 Variant of blocked Davidson
 Davidson routine will perform the subspace rotation
 perform sub-space diagonalisation
    after iterative eigenvector-optimisation
 modified Broyden-mixing scheme, WC =      100.0
 initial mixing is a Kerker type mixing with AMIX =  0.4000 and BMIX =      1.0000
 Hartree-type preconditioning will be used
 using additional bands           88
 real space projection scheme for non local part
 use partial core corrections
 calculate Harris-corrections to forces 
   (improved forces if not selfconsistent)
 use gradient corrections 
 use of overlap-Matrix (Vanderbilt PP)
 Gauss-broadening in eV      SIGMA  =   0.05


--------------------------------------------------------------------------------------------------------


  energy-cutoff  :      600.00
  volume of cell :     1572.30
      direct lattice vectors                 reciprocal lattice vectors
    11.628173330  0.000000000  0.000000000     0.085998030  0.000000000  0.000000000
     0.000000000 11.628173330  0.000000000     0.000000000  0.085998030  0.000000000
     0.000000000  0.000000000 11.628173330     0.000000000  0.000000000  0.085998030

  length of vectors
    11.628173330 11.628173330 11.628173330     0.085998030  0.085998030  0.085998030


 
 k-points in units of 2pi/SCALE and weight: read from INCAR                         
   0.00000000  0.00000000  0.00000000       0.125
   0.04299902  0.00000000  0.00000000       0.125
   0.00000000  0.04299902  0.00000000       0.125
   0.04299902  0.04299902  0.00000000       0.125
   0.00000000  0.00000000  0.04299902       0.125
   0.04299902  0.00000000  0.04299902       0.125
   0.00000000  0.04299902  0.04299902       0.125
   0.04299902  0.04299902  0.04299902       0.125
 
 k-points in reciprocal lattice and weights: read from INCAR                         
   0.00000000  0.00000000  0.00000000       0.125
   0.50000000  0.00000000  0.00000000       0.125
   0.00000000  0.50000000  0.00000000       0.125
   0.50000000  0.50000000  0.00000000       0.125
   0.00000000  0.00000000  0.50000000       0.125
   0.50000000  0.00000000  0.50000000       0.125
   0.00000000  0.50000000  0.50000000       0.125
   0.50000000  0.50000000  0.50000000       0.125
 
 position of ions in fractional coordinates (direct lattice) 
   0.24852750  0.38286655  0.41328314
   0.47344840  0.53845953  0.89165231
   0.91847372  0.27042641  0.40620848
   0.74316904  0.70031092  0.51957022
   0.78793607  0.48099036  0.19292993
   0.02606085  0.74471896  0.18500479
   0.56558045  0.16552503  0.98186878
   0.08427356  0.74482764  0.81059991
   0.90000496  0.17468997  0.64449193
   0.33893772  0.99492823  0.78076699
   0.48504749  0.38403529  0.21994807
   0.63142795  0.20763937  0.41171039
   0.79737142  0.92443213  0.03115206
   0.76714999  0.60739545  0.77962844
   0.54415821  0.85639178  0.98944018
   0.32764801  0.29551762  0.98168266
   0.47359349  0.70892211  0.28246648
   0.93803984  0.94047815  0.70812630
   0.04486313  0.96710673  0.07417701
   0.16301730  0.20752313  0.18396071
   0.17816658  0.20946821  0.61562675
   0.94134418  0.29552676  0.92761514
   0.55906434  0.97303610  0.29201450
   0.17178354  0.53304257  0.92525969
   0.97810483  0.52245056  0.39262688
   0.49013296  0.48726757  0.58241115
   0.22731980  0.77841634  0.49983486
   0.75662229  0.98243516  0.49607330
   0.59031706  0.27791188  0.74075758
   0.67147952  0.41512536  0.98181519
   0.81778708  0.22807943  0.16268286
   0.09301844  0.10812191  0.88137455
   0.76562362  0.42481609  0.62059649
   0.09558401  0.03583453  0.48000863
   0.74755802  0.78271408  0.26742323
   0.42725856  0.20651886  0.55336665
   0.34973462  0.30394194  0.75342038
   0.52665150  0.76577467  0.69868372
   0.51468641  0.96622400  0.57646843
   0.21076579  0.50004685  0.61466351
   0.07305694  0.41854049  0.16831887
   0.87718357  0.71277374  0.92348626
   0.25466297  0.94778178  0.32600382
   0.96530516  0.76522254  0.46992189
   0.90560288  0.98751968  0.30081488
   0.65850636  0.04018783  0.79798773
   0.98881962  0.43402468  0.67915456
   0.63055440  0.52952171  0.36669955
   0.36894168  0.18790307  0.28027509
   0.36233550  0.02363464  0.10061893
   0.32493174  0.71725274  0.77203157
   0.26586873  0.79635463  0.03199721
   0.30854463  0.58324071  0.14938007
   0.64115223  0.65949883  0.09831429
   0.70401699  0.27009829  0.24092394
   0.91668684  0.65649952  0.52870930
   0.30970381  0.83032262  0.35248503
   0.79169739  0.36090691  0.99644617
   0.21588984  0.97590630  0.45521901
   0.63075861  0.16959478  0.80899816
   0.03251356  0.05672842  0.61584846
   0.80544845  0.87930455  0.55976381
   0.76463512  0.66400086  0.18213920
   0.37519001  0.26749416  0.45277940
   0.91780752  0.10355033  0.21156671
   0.56903905  0.98882762  0.70564469
   0.76399964  0.57150244  0.35546286
   0.73923911  0.73470708  0.95513525
   0.37332649  0.96132006  0.22217451
   0.55275930  0.60366151  0.45155091
   0.88402610  0.74923694  0.79552110
   0.75353806  0.97845865  0.34971809
   0.17987648  0.52968308  0.15574918
   0.14354128  0.91798994  0.22995405
   0.66959424  0.54851961  0.00618727
   0.24148560  0.60454137  0.73163951
   0.48168472  0.82615659  0.55372239
   0.60097243  0.00005422  0.48125445
   0.74923973  0.31555939  0.69116875
   0.08563373  0.16242158  0.43914254
   0.26326977  0.37516261  0.61663157
   0.03468926  0.39010480  0.81929787
   0.02711135  0.33146819  0.57376695
   0.64029064  0.78358158  0.35203685
   0.89877646  0.89570840  0.18393150
   0.98572398  0.53472232  0.20611228
   0.10203283  0.33693536  0.05932378
   0.74650801  0.14427053  0.06620685
   0.57014195  0.40481877  0.40072633
   0.35622730  0.51455738  0.03032273
   0.45099223  0.81699805  0.80979373
   0.41803566  0.07063291  0.54247966
   0.91770148  0.31265813  0.18359491
   0.27753138  0.57305888  0.50447979
   0.60644330  0.51303239  0.22520072
   0.87671589  0.47874340  0.68992104
   0.50482976  0.68029327  0.07609334
   0.22442713  0.17980402  0.86361702
   0.27198727  0.39314923  0.82652575
   0.30026039  0.31834344  0.25100016
   0.32652657  0.71389852  0.12450370
   0.14021294  0.97270590  0.85221524
   0.05708246  0.15108511  0.01845972
   0.63985308  0.44025627  0.83208689
   0.46747348  0.36632851  0.71331851
   0.05926494  0.71356007  0.36452030
   0.77342107  0.03771533  0.70561045
   0.62580112  0.98520778  0.91907510
   0.68585577  0.84123045  0.15055079
   0.56928456  0.35038920  0.03759835
   0.37432617  0.17418065  0.12176139
   0.44542916  0.64127092  0.71858876
   0.00020782  0.17474454  0.80450421
   0.06991194  0.38715528  0.31180280
   0.34134995  0.55256432  0.27735588
   0.67952707  0.54836484  0.63069025
   0.26833989  0.10726651  0.31101965
   0.27352858  0.82990527  0.70702263
   0.04676105  0.84397732  0.56229832
   0.13022932  0.77523268  0.04211620
   0.08399456  0.52975876  0.61060505
   0.79699612  0.11608918  0.50778270
   0.49905024  0.00935564  0.07145407
   0.87390514  0.77925458  0.35179697
   0.80827308  0.39148815  0.48999221
   0.50424403  0.17543479  0.31050006
   0.33563054  0.91459159  0.00327364
   0.97196938  0.60919155  0.94088846
   0.99563092  0.96304964  0.40225533
   0.54643617  0.24009238  0.60246616
   0.30158263  0.71699813  0.90455250
   0.66179031  0.75711991  0.68093742
   0.33762654  0.19550068  0.66153998
   0.95261463  0.85727332  0.93519361
   0.45904828  0.26672501  0.87125913
 
 position of ions in cartesian coordinates  (Angst):
   2.88992081  4.45203863  4.80572797
   5.50534011  6.26130077 10.36828758
  10.68017160  3.14456522  4.72346267
   8.64169838  8.14333671  6.04165263
   9.16225721  5.59303926  2.24342271
   0.30304009  8.65972120  2.15126782
   6.57666753  1.92475378 11.41734032
   0.97994753  8.66098491  9.42579621
  10.46541371  2.03132520  7.49426383
   3.94122656 11.56919795  9.07889390
   5.64021632  4.46562897  2.55759428
   7.34235368  2.41446654  4.78743979
   9.27197313 10.74945707  0.36224156
   8.92055306  7.06289954  9.06565460
   6.32756599  9.95827200 11.50538187
   3.80994782  3.43633010 11.41517612
   5.50702724  8.24346912  3.28456919
  10.90768983 10.93604291  8.23421533
   0.52167628 11.24568466  0.86254308
   1.89559345  2.41311492  2.13912699
   2.07175184  2.43573261  7.15861451
  10.94611334  3.43643635 10.78646959
   6.50089708 11.31463237  3.39559521
   1.99752875  6.19831135 10.75908006
  11.37357249  6.07514569  4.56553340
   5.69935102  5.66603179  6.77237781
   2.64331407  9.05156015  5.81216638
   8.79813511 11.42392629  5.76842629
   6.86430907  3.23160750  8.61365759
   7.80808021  4.82714965 11.41671723
   9.50936988  2.65214710  1.89170451
   1.08163456  1.25726026 10.24877604
   8.90280413  4.93983509  7.21640361
   1.11146746  0.41669010  5.58162354
   8.69273423  9.10153494  3.10964362
   4.96823656  2.40143715  6.43464328
   4.06677483  3.53428955  8.76090275
   6.12399490  8.90456057  8.12441541
   5.98486278 11.23542014  6.70327478
   2.45082115  5.81463147  7.14741386
   0.84951878  4.86686133  1.95724096
  10.20004265  8.28825665 10.73845835
   2.96126513 11.02097080  3.79082891
  11.22473572  8.89814030  5.46433316
  10.53050721 11.48304998  3.49792753
   7.65722613  0.46731101  9.27913969
  11.49816595  5.04691420  7.89732697
   7.33219590  6.15737020  4.26404589
   4.29011780  2.18496944  3.25908731
   4.21330004  0.27482764  1.17001441
   3.77836262  8.34033918  8.97731689
   3.09156765  9.26014972  0.37206911
   3.58781042  6.78202402  1.73701732
   7.45542927  7.66876671  1.14321558
   8.18643157  3.14074976  2.80150536
  10.65939352  7.63389016  6.14792337
   3.60128955  9.65513529  4.09875703
   9.20599442  4.19668813 11.58684880
   2.51040450 11.34800757  5.29336556
   7.33457049  1.97207744  9.40717087
   0.37807331  0.65964786  7.16119266
   9.36589416 10.22470570  6.50903064
   8.89130969  7.72111710  2.11794613
   4.36277447  3.11046840  5.26499731
  10.67242498  1.20410119  2.46013432
   6.61688470 11.49825896  8.20535875
   8.88392020  6.64552939  4.13338372
   8.59600052  8.54330122 11.10647819
   4.34110508 11.17839623  2.58348374
   6.42758094  7.01948066  5.25071220
  10.27960875  8.71225695  9.25045729
   8.76227116 11.37768679  4.06658251
   2.09163483  6.15924667  1.81107849
   1.66912289 10.67454613  2.67394558
   7.78615791  6.37828112  0.07194663
   2.80803639  7.02971182  8.50763109
   5.60111336  9.60669197  6.43877987
   6.98821163  0.00063046  5.59611018
   8.71228943  3.66937927  8.03703005
   0.99576391  1.88866626  5.10642553
   3.06134648  4.36245586  7.17029872
   0.40337278  4.53620620  9.52693768
   0.31525542  3.85436956  6.67186155
   7.44541051  9.11162247  4.09354555
  10.45112841 10.41545249  2.13878735
  11.46216924  6.21784384  2.39670931
   1.18645549  3.91794281  0.68982715
   8.68052459  1.67760272  0.76986476
   6.62970946  4.70730277  4.65971525
   4.14227277  5.98336246  0.35259796
   5.24421586  9.50019493  9.41642190
   4.86099116  0.82133169  6.30804754
  10.67119182  3.63564291  2.13487340
   3.22718302  6.66362800  5.86617845
   7.05182786  5.96562951  2.61867302
  10.19460429  5.56691118  8.02252145
   5.87024794  7.91056806  0.88482660
   2.60967752  2.09079234 10.04228845
   3.16271511  4.57160739  9.61098470
   3.49147988  3.70175265  2.91867335
   3.79690760  8.30133571  1.44775060
   1.63042033 11.31079275  9.90970658
   0.66376469  1.75684379  0.21465285
   7.44032247  5.11937623  9.67565054
   5.43586266  4.25973141  8.29459127
   0.68914304  8.29740017  4.23870525
   8.99347430  0.43856036  8.20496058
   7.27692388 11.45616678 10.68716452
   7.97524972  9.78197344  1.75063066
   6.61973950  4.07438638  0.43720010
   4.35272961  2.02540274  1.41586251
   5.17952745  7.45680938  8.35587465
   0.00241658  2.03195982  9.35491436
   0.81294815  4.50190872  3.62569706
   3.96927635  6.42531371  3.22514229
   7.90165853  6.37648136  7.33377558
   3.12030276  1.24731361  3.61659045
   3.18063773  9.65028228  8.22138166
   0.54374564  9.81391451  6.53850227
   1.51432912  9.01453998  0.48973447
   0.97670329  6.16012668  7.10022136
   9.26760904  1.34990511  5.90458530
   5.80304268  0.10878899  0.83088032
  10.16192045  9.06130727  4.09075611
   9.39873949  4.55229206  5.69771430
   5.86343693  2.03998616  3.61054851
   3.90277014 10.63502958  0.03806646
  11.30222847  7.08378489 10.94081407
  11.57736889 11.19850809  4.67749469
   6.35405446  2.79183582  7.00558093
   3.50685512  8.33737848 10.51829329
   7.69541239  8.80392152  7.91805832
   3.92597996  2.27331575  7.69250156
  11.07716806  9.96852277 10.87459341
   5.33789297  3.10152460 10.13115220
 


--------------------------------------------------------------------------------------------------------


 k-point  1 :   0.0000 0.0000 0.0000  plane waves:   52515
 k-point  2 :   0.5000 0.0000 0.0000  plane waves:   52518
 k-point  3 :   0.0000 0.5000 0.0000  plane waves:   52518
 k-point  4 :   0.5000 0.5000 0.0000  plane waves:   52456
 k-point  5 :   0.0000 0.0000 0.5000  plane waves:   52518
 k-point  6 :   0.5000 0.0000 0.5000  plane waves:   52456
 k-point  7 :   0.0000 0.5000 0.5000  plane waves:   52456
 k-point  8 :   0.5000 0.5000 0.5000  plane waves:   52568

 maximum and minimum number of plane-waves per node :      4420     4326

 maximum number of plane-waves:     52568
 maximum index in each direction: 
   IXMAX=   23   IYMAX=   23   IZMAX=   23
   IXMIN=  -23   IYMIN=  -23   IZMIN=  -23


 real space projection operators:
  total allocation   :      51780.94 KBytes
  max/ min on nodes  :       4358.50       4248.69


 parallel 3D FFT for wavefunctions:
    minimum data exchange during FFTs selected (reduces bandwidth)
 parallel 3D FFT for charge:
    minimum data exchange during FFTs selected (reduces bandwidth)


 total amount of memory used by VASP MPI-rank0   164797. kBytes
=======================================================================

   base      :      30000. kBytes
   nonlr-proj:      22686. kBytes
   fftplans  :      23775. kBytes
   grid      :      12472. kBytes
   one-center:        186. kBytes
   wavefun   :      75678. kBytes
 
     INWAV:  cpu time    0.0001: real time    0.0000
 Broyden mixing: mesh for mixing (old mesh)
   NGX = 47   NGY = 47   NGZ = 47
  (NGX  =192   NGY  =192   NGZ  =192)
  gives a total of 103823 points

 initial charge density was supplied:
 charge density of overlapping atoms calculated
 number of electron     864.0000000 magnetization 
 keeping initial charge density in first step


--------------------------------------------------------------------------------------------------------


 Maximum index for non-local projection operator          683
 Maximum index for augmentation-charges         4878 (set IRDMAX)


--------------------------------------------------------------------------------------------------------


 First call to EWALD:  gamma=   0.152
 Maximum number of real-space cells 3x 3x 3
 Maximum number of reciprocal cells 3x 3x 3

    FEWALD:  cpu time    0.0053: real time    0.0054


--------------------------------------- Iteration      1(   1)  ---------------------------------------


    POTLOK:  cpu time    0.1064: real time    0.1152
    SETDIJ:  cpu time    0.3055: real time    0.3065
     EDDAV:  cpu time   34.1114: real time   34.2282
       DOS:  cpu time    0.0024: real time    0.0024
    --------------------------------------------
      LOOP:  cpu time   34.5256: real time   34.6523

 eigenvalue-minimisations  :  8320
 total energy-change (2. order) : 0.9748328E+04  (-0.4842758E+05)
 number of electron     864.0000000 magnetization 
 augmentation part      864.0000000 magnetization 

 Free energy of the ion-electron system (eV)
  ---------------------------------------------------
  alpha Z        PSCENC =      3039.22321400
  Ewald energy   TEWEN  =    -48781.86115029
  -Hartree energ DENC   =    -15885.63265111
  -exchange      EXHF   =         0.00000000
  -V(xc)+E(xc)   XCENC  =      3194.63978372
  PAW double counting   =     50594.51003143   -49994.65612350
  entropy T*S    EENTRO =        -0.03476336
  eigenvalues    EBANDS =      2613.59901433
  atomic energy  EATOM  =     64968.54023382
  Solvation  Ediel_sol  =         0.00000000
  ---------------------------------------------------
  free energy    TOTEN  =      9748.32758906 eV

  energy without entropy =     9748.36235242  energy(sigma->0) =     9748.34497074


--------------------------------------------------------------------------------------------------------




--------------------------------------- Iteration      1(   2)  ---------------------------------------


     EDDAV:  cpu time   38.0927: real time   38.2093
       DOS:  cpu time    0.0012: real time    0.0012
    --------------------------------------------
      LOOP:  cpu time   38.0939: real time   38.2105

 eigenvalue-minimisations  :  9704
 total energy-change (2. order) :-0.9714333E+04  (-0.9395457E+04)
 number of electron     864.0000000 magnetization 
 augmentation part      864.0000000 magnetization 

 Free energy of the ion-electron system (eV)
  ---------------------------------------------------
  alpha Z        PSCENC =      3039.22321400
  Ewald energy   TEWEN  =    -48781.86115029
  -Hartree energ DENC   =    -15885.63265111
  -exchange      EXHF   =         0.00000000
  -V(xc)+E(xc)   XCENC  =      3194.63978372
  PAW double counting   =     50594.51003143   -49994.65612350
  entropy T*S    EENTRO =        -0.00000000
  eigenvalues    EBANDS =     -7100.76911605
  atomic energy  EATOM  =     64968.54023382
  Solvation  Ediel_sol  =         0.00000000
  ---------------------------------------------------
  free energy    TOTEN  =        33.99422204 eV

  energy without entropy =       33.99422204  energy(sigma->0) =       33.99422204


--------------------------------------------------------------------------------------------------------




--------------------------------------- Iteration      1(   3)  ---------------------------------------


     EDDAV:  cpu time   39.9019: real time   40.0236
       DOS:  cpu time    0.0012: real time    0.0012
    --------------------------------------------
      LOOP:  cpu time   39.9031: real time   40.0247

 eigenvalue-minimisations  : 10264
 total energy-change (2. order) :-0.1050156E+04  (-0.1043219E+04)
 number of electron     864.0000000 magnetization 
 augmentation part      864.0000000 magnetization 

 Free energy of the ion-electron system (eV)
  ---------------------------------------------------
  alpha Z        PSCENC =      3039.22321400
  Ewald energy   TEWEN  =    -48781.86115029
  -Hartree energ DENC   =    -15885.63265111
  -exchange      EXHF   =         0.00000000
  -V(xc)+E(xc)   XCENC  =      3194.63978372
  PAW double counting   =     50594.51003143   -49994.65612350
  entropy T*S    EENTRO =        -0.00000000
  eigenvalues    EBANDS =     -8150.92462184
  atomic energy  EATOM  =     64968.54023382
  Solvation  Ediel_sol  =         0.00000000
  ---------------------------------------------------
  free energy    TOTEN  =     -1016.16128375 eV

  energy without entropy =    -1016.16128375  energy(sigma->0) =    -1016.16128375


--------------------------------------------------------------------------------------------------------




--------------------------------------- Iteration      1(   4)  ---------------------------------------


     EDDAV:  cpu time   43.4088: real time   43.5657
       DOS:  cpu time    0.0010: real time    0.0010
    --------------------------------------------
      LOOP:  cpu time   43.4098: real time   43.5667

 eigenvalue-minimisations  : 11352
 total energy-change (2. order) :-0.4997524E+02  (-0.4980356E+02)
 number of electron     864.0000000 magnetization 
 augmentation part      864.0000000 magnetization 

 Free energy of the ion-electron system (eV)
  ---------------------------------------------------
  alpha Z        PSCENC =      3039.22321400
  Ewald energy   TEWEN  =    -48781.86115029
  -Hartree energ DENC   =    -15885.63265111
  -exchange      EXHF   =         0.00000000
  -V(xc)+E(xc)   XCENC  =      3194.63978372
  PAW double counting   =     50594.51003143   -49994.65612350
  entropy T*S    EENTRO =        -0.00000000
  eigenvalues    EBANDS =     -8200.89986586
  atomic energy  EATOM  =     64968.54023382
  Solvation  Ediel_sol  =         0.00000000
  ---------------------------------------------------
  free energy    TOTEN  =     -1066.13652777 eV

  energy without entropy =    -1066.13652777  energy(sigma->0) =    -1066.13652777


--------------------------------------------------------------------------------------------------------




--------------------------------------- Iteration      1(   5)  ---------------------------------------


     EDDAV:  cpu time   53.0261: real time   53.1697
       DOS:  cpu time    0.0009: real time    0.0009
    CHARGE:  cpu time    1.2680: real time    1.2712
    MIXING:  cpu time    0.0054: real time    0.0054
    --------------------------------------------
      LOOP:  cpu time   54.3004: real time   54.4473

 eigenvalue-minimisations  : 14720
 total energy-change (2. order) :-0.4976699E+01  (-0.4974075E+01)
 number of electron     864.0000006 magnetization 
 augmentation part      133.6614904 magnetization 

 Broyden mixing:
  rms(total) = 0.86016E+01    rms(broyden)= 0.86010E+01
  rms(prec ) = 0.10185E+02
  weight for this iteration     100.00

 Free energy of the ion-electron system (eV)
  ---------------------------------------------------
  alpha Z        PSCENC =      3039.22321400
  Ewald energy   TEWEN  =    -48781.86115029
  -Hartree energ DENC   =    -15885.63265111
  -exchange      EXHF   =         0.00000000
  -V(xc)+E(xc)   XCENC  =      3194.63978372
  PAW double counting   =     50594.51003143   -49994.65612350
  entropy T*S    EENTRO =        -0.00000000
  eigenvalues    EBANDS =     -8205.87656492
  atomic energy  EATOM  =     64968.54023382
  Solvation  Ediel_sol  =         0.00000000
  ---------------------------------------------------
  free energy    TOTEN  =     -1071.11322684 eV

  energy without entropy =    -1071.11322684  energy(sigma->0) =    -1071.11322684


--------------------------------------------------------------------------------------------------------




--------------------------------------- Iteration      1(   6)  ---------------------------------------


    POTLOK:  cpu time    0.1093: real time    0.1199
    SETDIJ:  cpu time    0.3004: real time    0.3042
     EDDAV:  cpu time   38.4213: real time   38.5179
       DOS:  cpu time    0.0011: real time    0.0011
    CHARGE:  cpu time    1.2946: real time    1.3021
    MIXING:  cpu time    0.0048: real time    0.0048
    --------------------------------------------
      LOOP:  cpu time   40.1315: real time   40.2499

 eigenvalue-minimisations  :  9864
 total energy-change (2. order) : 0.1429662E+03  (-0.6455107E+02)
 number of electron     864.0000006 magnetization 
 augmentation part      120.8454475 magnetization 

 Broyden mixing:
  rms(total) = 0.36569E+01    rms(broyden)= 0.36560E+01
  rms(prec ) = 0.38696E+01
  weight for this iteration     100.00

 eigenvalues of (default mixing * dielectric matrix)
  average eigenvalue GAMMA=   1.0584
  1.0584

 Free energy of the ion-electron system (eV)
  ---------------------------------------------------
  alpha Z        PSCENC =      3039.22321400
  Ewald energy   TEWEN  =    -48781.86115029
  -Hartree energ DENC   =    -17194.04789089
  -exchange      EXHF   =         0.00000000
  -V(xc)+E(xc)   XCENC  =      3283.77425534
  PAW double counting   =     66600.22544165   -66140.78923597
  entropy T*S    EENTRO =        -0.00000000
  eigenvalues    EBANDS =     -6703.21185033
  atomic energy  EATOM  =     64968.54023382
  Solvation  Ediel_sol  =         0.00000000
  ---------------------------------------------------
  free energy    TOTEN  =      -928.14698266 eV

  energy without entropy =     -928.14698266  energy(sigma->0) =     -928.14698266


--------------------------------------------------------------------------------------------------------




--------------------------------------- Iteration      1(   7)  ---------------------------------------


    POTLOK:  cpu time    0.1045: real time    0.1108
    SETDIJ:  cpu time    0.3008: real time    0.3015
     EDDAV:  cpu time   42.6738: real time   42.7965
       DOS:  cpu time    0.0012: real time    0.0012
    CHARGE:  cpu time    1.2593: real time    1.2624
    MIXING:  cpu time    0.0044: real time    0.0044
    --------------------------------------------
      LOOP:  cpu time   44.3441: real time   44.4768

 eigenvalue-minimisations  : 11176
 total energy-change (2. order) :-0.2081500E+01  (-0.6846198E+01)
 number of electron     864.0000006 magnetization 
 augmentation part      119.4605712 magnetization 

 Broyden mixing:
  rms(total) = 0.17959E+01    rms(broyden)= 0.17958E+01
  rms(prec ) = 0.19629E+01
  weight for this iteration     100.00

 eigenvalues of (default mixing * dielectric matrix)
  average eigenvalue GAMMA=   1.2587
  1.2587  1.2587

 Free energy of the ion-electron system (eV)
  ---------------------------------------------------
  alpha Z        PSCENC =      3039.22321400
  Ewald energy   TEWEN  =    -48781.86115029
  -Hartree energ DENC   =    -17279.18565307
  -exchange      EXHF   =         0.00000000
  -V(xc)+E(xc)   XCENC  =      3288.80137030
  PAW double counting   =     81191.81705644   -80790.72480426
  entropy T*S    EENTRO =        -0.00000000
  eigenvalues    EBANDS =     -6566.83874980
  atomic energy  EATOM  =     64968.54023382
  Solvation  Ediel_sol  =         0.00000000
  ---------------------------------------------------
  free energy    TOTEN  =      -930.22848284 eV

  energy without entropy =     -930.22848284  energy(sigma->0) =     -930.22848284


--------------------------------------------------------------------------------------------------------




--------------------------------------- Iteration      1(   8)  ---------------------------------------


    POTLOK:  cpu time    0.1042: real time    0.1099
    SETDIJ:  cpu time    0.3016: real time    0.3023
     EDDAV:  cpu time   40.0789: real time   40.1851
       DOS:  cpu time    0.0012: real time    0.0012
    CHARGE:  cpu time    1.2742: real time    1.2773
    MIXING:  cpu time    0.0045: real time    0.0045
    --------------------------------------------
      LOOP:  cpu time   41.7646: real time   41.8804

 eigenvalue-minimisations  : 10344
 total energy-change (2. order) : 0.1164112E+01  (-0.1164881E+01)
 number of electron     864.0000006 magnetization 
 augmentation part      119.8916481 magnetization 

 Broyden mixing:
  rms(total) = 0.72168E+00    rms(broyden)= 0.72157E+00
  rms(prec ) = 0.85090E+00
  weight for this iteration     100.00

 eigenvalues of (default mixing * dielectric matrix)
  average eigenvalue GAMMA=   1.3510
  2.1216  0.9657  0.9657

 Free energy of the ion-electron system (eV)
  ---------------------------------------------------
  alpha Z        PSCENC =      3039.22321400
  Ewald energy   TEWEN  =    -48781.86115029
  -Hartree energ DENC   =    -17259.56425198
  -exchange      EXHF   =         0.00000000
  -V(xc)+E(xc)   XCENC  =      3286.90596109
  PAW double counting   =     90062.73453022   -89699.47404535
  entropy T*S    EENTRO =        -0.00000000
  eigenvalues    EBANDS =     -6545.56886240
  atomic energy  EATOM  =     64968.54023382
  Solvation  Ediel_sol  =         0.00000000
  ---------------------------------------------------
  free energy    TOTEN  =      -929.06437088 eV

  energy without entropy =     -929.06437088  energy(sigma->0) =     -929.06437088


--------------------------------------------------------------------------------------------------------




--------------------------------------- Iteration      1(   9)  ---------------------------------------


    POTLOK:  cpu time    0.1033: real time    0.1109
    SETDIJ:  cpu time    0.3008: real time    0.3015
     EDDAV:  cpu time   39.3521: real time   40.3663
       DOS:  cpu time    0.0010: real time    0.0010
    CHARGE:  cpu time    1.2299: real time    1.2601
    MIXING:  cpu time    0.0038: real time    0.0039
    --------------------------------------------
      LOOP:  cpu time   40.9909: real time   42.0437

 eigenvalue-minimisations  : 10416
 total energy-change (2. order) : 0.3629279E+00  (-0.2443100E+00)
 number of electron     864.0000006 magnetization 
 augmentation part      119.2376777 magnetization 

 Broyden mixing:
  rms(total) = 0.21959E+00    rms(broyden)= 0.21957E+00
  rms(prec ) = 0.27077E+00
  weight for this iteration     100.00

 eigenvalues of (default mixing * dielectric matrix)
  average eigenvalue GAMMA=   1.3645
  2.3253  1.2409  0.9459  0.9459

 Free energy of the ion-electron system (eV)
  ---------------------------------------------------
  alpha Z        PSCENC =      3039.22321400
  Ewald energy   TEWEN  =    -48781.86115029
  -Hartree energ DENC   =    -17337.03588061
  -exchange      EXHF   =         0.00000000
  -V(xc)+E(xc)   XCENC  =      3292.16602818
  PAW double counting   =     96398.07485495   -96057.87949746
  entropy T*S    EENTRO =        -0.00000000
  eigenvalues    EBANDS =     -6449.92924561
  atomic energy  EATOM  =     64968.54023382
  Solvation  Ediel_sol  =         0.00000000
  ---------------------------------------------------
  free energy    TOTEN  =      -928.70144301 eV

  energy without entropy =     -928.70144301  energy(sigma->0) =     -928.70144301


--------------------------------------------------------------------------------------------------------




--------------------------------------- Iteration      1(  10)  ---------------------------------------


    POTLOK:  cpu time    0.1049: real time    0.1127
    SETDIJ:  cpu time    0.3008: real time    0.3020
     EDDAV:  cpu time   43.3192: real time   43.4784
       DOS:  cpu time    0.0013: real time    0.0013
    CHARGE:  cpu time    1.2629: real time    1.2660
    MIXING:  cpu time    0.0039: real time    0.0039
    --------------------------------------------
      LOOP:  cpu time   44.9930: real time   45.1643

 eigenvalue-minimisations  : 11440
 total energy-change (2. order) :-0.8184024E-01  (-0.1229357E+00)
 number of electron     864.0000006 magnetization 
 augmentation part      119.0764626 magnetization 

 Broyden mixing:
  rms(total) = 0.15710E+00    rms(broyden)= 0.15707E+00
  rms(prec ) = 0.18296E+00
  weight for this iteration     100.00

 eigenvalues of (default mixing * dielectric matrix)
  average eigenvalue GAMMA=   1.3010
  2.4210  1.1961  1.1961  0.8459  0.8459

 Free energy of the ion-electron system (eV)
  ---------------------------------------------------
  alpha Z        PSCENC =      3039.22321400
  Ewald energy   TEWEN  =    -48781.86115029
  -Hartree energ DENC   =    -17351.60217137
  -exchange      EXHF   =         0.00000000
  -V(xc)+E(xc)   XCENC  =      3293.09581763
  PAW double counting   =     97502.02453207   -97164.46055332
  entropy T*S    EENTRO =        -0.00000000
  eigenvalues    EBANDS =     -6433.74320580
  atomic energy  EATOM  =     64968.54023382
  Solvation  Ediel_sol  =         0.00000000
  ---------------------------------------------------
  free energy    TOTEN  =      -928.78328324 eV

  energy without entropy =     -928.78328324  energy(sigma->0) =     -928.78328324


--------------------------------------------------------------------------------------------------------




--------------------------------------- Iteration      1(  11)  ---------------------------------------


    POTLOK:  cpu time    0.1034: real time    0.1096
    SETDIJ:  cpu time    0.3008: real time    0.3015
     EDDAV:  cpu time   43.1533: real time   43.2721
       DOS:  cpu time    0.0013: real time    0.0013
    CHARGE:  cpu time    1.2600: real time    1.2631
    MIXING:  cpu time    0.0049: real time    0.0049
    --------------------------------------------
      LOOP:  cpu time   44.8235: real time   44.9525

 eigenvalue-minimisations  : 11384
 total energy-change (2. order) : 0.2699417E-02  (-0.1737904E-01)
 number of electron     864.0000006 magnetization 
 augmentation part      119.0498008 magnetization 

 Broyden mixing:
  rms(total) = 0.82205E-01    rms(broyden)= 0.82199E-01
  rms(prec ) = 0.96462E-01
  weight for this iteration     100.00

 eigenvalues of (default mixing * dielectric matrix)
  average eigenvalue GAMMA=   1.3787
  2.4330  1.9915  1.0061  1.0061  0.9176  0.9176

 Free energy of the ion-electron system (eV)
  ---------------------------------------------------
  alpha Z        PSCENC =      3039.22321400
  Ewald energy   TEWEN  =    -48781.86115029
  -Hartree energ DENC   =    -17360.19680210
  -exchange      EXHF   =         0.00000000
  -V(xc)+E(xc)   XCENC  =      3293.62298015
  PAW double counting   =     97497.02443168   -97158.92273611
  entropy T*S    EENTRO =        -0.00000000
  eigenvalues    EBANDS =     -6426.21075500
  atomic energy  EATOM  =     64968.54023382
  Solvation  Ediel_sol  =         0.00000000
  ---------------------------------------------------
  free energy    TOTEN  =      -928.78058383 eV

  energy without entropy =     -928.78058383  energy(sigma->0) =     -928.78058383


--------------------------------------------------------------------------------------------------------




--------------------------------------- Iteration      1(  12)  ---------------------------------------


    POTLOK:  cpu time    0.1037: real time    0.1126
    SETDIJ:  cpu time    0.3003: real time    0.3011
     EDDAV:  cpu time   38.6598: real time   38.7619
       DOS:  cpu time    0.0009: real time    0.0009
    CHARGE:  cpu time    1.2922: real time    1.2973
    MIXING:  cpu time    0.0056: real time    0.0057
    --------------------------------------------
      LOOP:  cpu time   40.3626: real time   40.4794

 eigenvalue-minimisations  :  9904
 total energy-change (2. order) :-0.2383103E-02  (-0.5024871E-02)
 number of electron     864.0000006 magnetization 
 augmentation part      119.0629236 magnetization 

 Broyden mixing:
  rms(total) = 0.24364E-01    rms(broyden)= 0.24354E-01
  rms(prec ) = 0.34331E-01
  weight for this iteration     100.00

 eigenvalues of (default mixing * dielectric matrix)
  average eigenvalue GAMMA=   1.3873
  2.5025  2.5025  1.0279  1.0279  0.8864  0.8818  0.8818

 Free energy of the ion-electron system (eV)
  ---------------------------------------------------
  alpha Z        PSCENC =      3039.22321400
  Ewald energy   TEWEN  =    -48781.86115029
  -Hartree energ DENC   =    -17361.88522628
  -exchange      EXHF   =         0.00000000
  -V(xc)+E(xc)   XCENC  =      3293.64504231
  PAW double counting   =     97224.54498746   -96884.57394939
  entropy T*S    EENTRO =        -0.00000000
  eigenvalues    EBANDS =     -6426.41611857
  atomic energy  EATOM  =     64968.54023382
  Solvation  Ediel_sol  =         0.00000000
  ---------------------------------------------------
  free energy    TOTEN  =      -928.78296693 eV

  energy without entropy =     -928.78296693  energy(sigma->0) =     -928.78296693


--------------------------------------------------------------------------------------------------------




--------------------------------------- Iteration      1(  13)  ---------------------------------------


    POTLOK:  cpu time    0.1064: real time    0.1130
    SETDIJ:  cpu time    0.3023: real time    0.3040
     EDDAV:  cpu time   45.7846: real time   45.9227
       DOS:  cpu time    0.0011: real time    0.0011
    CHARGE:  cpu time    1.2612: real time    1.2643
    MIXING:  cpu time    0.0047: real time    0.0047
    --------------------------------------------
      LOOP:  cpu time   47.4603: real time   47.6098

 eigenvalue-minimisations  : 12200
 total energy-change (2. order) :-0.9627279E-03  (-0.1365708E-02)
 number of electron     864.0000006 magnetization 
 augmentation part      119.0742165 magnetization 

 Broyden mixing:
  rms(total) = 0.17343E-01    rms(broyden)= 0.17342E-01
  rms(prec ) = 0.22203E-01
  weight for this iteration     100.00

 eigenvalues of (default mixing * dielectric matrix)
  average eigenvalue GAMMA=   1.3448
  2.6284  2.5506  0.8952  0.8952  1.0672  1.0672  0.8273  0.8273

 Free energy of the ion-electron system (eV)
  ---------------------------------------------------
  alpha Z        PSCENC =      3039.22321400
  Ewald energy   TEWEN  =    -48781.86115029
  -Hartree energ DENC   =    -17363.15779800
  -exchange      EXHF   =         0.00000000
  -V(xc)+E(xc)   XCENC  =      3293.67851541
  PAW double counting   =     97087.78040897   -96746.92378188
  entropy T*S    EENTRO =        -0.00000000
  eigenvalues    EBANDS =     -6426.06357170
  atomic energy  EATOM  =     64968.54023382
  Solvation  Ediel_sol  =         0.00000000
  ---------------------------------------------------
  free energy    TOTEN  =      -928.78392966 eV

  energy without entropy =     -928.78392966  energy(sigma->0) =     -928.78392966


--------------------------------------------------------------------------------------------------------




--------------------------------------- Iteration      1(  14)  ---------------------------------------


    POTLOK:  cpu time    0.1031: real time    0.1113
    SETDIJ:  cpu time    0.3014: real time    0.3021
     EDDAV:  cpu time   41.6881: real time   41.8420
       DOS:  cpu time    0.0012: real time    0.0012
    CHARGE:  cpu time    1.2646: real time    1.2696
    MIXING:  cpu time    0.0044: real time    0.0044
    --------------------------------------------
      LOOP:  cpu time   43.3629: real time   43.5306

 eigenvalue-minimisations  : 10912
 total energy-change (2. order) :-0.1083326E-03  (-0.5521777E-03)
 number of electron     864.0000006 magnetization 
 augmentation part      119.0687009 magnetization 

 Broyden mixing:
  rms(total) = 0.11329E-01    rms(broyden)= 0.11328E-01
  rms(prec ) = 0.13565E-01
  weight for this iteration     100.00

 eigenvalues of (default mixing * dielectric matrix)
  average eigenvalue GAMMA=   1.3379
  2.8128  2.4691  1.2512  1.0137  1.0137  0.8368  0.8368  0.9033  0.9033

 Free energy of the ion-electron system (eV)
  ---------------------------------------------------
  alpha Z        PSCENC =      3039.22321400
  Ewald energy   TEWEN  =    -48781.86115029
  -Hartree energ DENC   =    -17364.29465368
  -exchange      EXHF   =         0.00000000
  -V(xc)+E(xc)   XCENC  =      3293.73687349
  PAW double counting   =     97076.26918372   -96735.24559271
  entropy T*S    EENTRO =        -0.00000000
  eigenvalues    EBANDS =     -6425.15214636
  atomic energy  EATOM  =     64968.54023382
  Solvation  Ediel_sol  =         0.00000000
  ---------------------------------------------------
  free energy    TOTEN  =      -928.78403799 eV

  energy without entropy =     -928.78403799  energy(sigma->0) =     -928.78403799


--------------------------------------------------------------------------------------------------------




--------------------------------------- Iteration      1(  15)  ---------------------------------------


    POTLOK:  cpu time    0.1022: real time    0.1139
    SETDIJ:  cpu time    0.2974: real time    0.3030
     EDDAV:  cpu time   42.8590: real time   43.1713
       DOS:  cpu time    0.0012: real time    0.0012
    CHARGE:  cpu time    1.2634: real time    1.2665
    MIXING:  cpu time    0.0043: real time    0.0043
    --------------------------------------------
      LOOP:  cpu time   44.5275: real time   44.8602

 eigenvalue-minimisations  : 11296
 total energy-change (2. order) : 0.4358322E-04  (-0.8195706E-04)
 number of electron     864.0000006 magnetization 
 augmentation part      119.0728412 magnetization 

 Broyden mixing:
  rms(total) = 0.66164E-02    rms(broyden)= 0.66158E-02
  rms(prec ) = 0.81199E-02
  weight for this iteration     100.00

 eigenvalues of (default mixing * dielectric matrix)
  average eigenvalue GAMMA=   1.4252
  3.0465  2.3979  2.3979  0.9041  0.9041  0.9307  1.0075  1.0075  0.8279  0.8279

 Free energy of the ion-electron system (eV)
  ---------------------------------------------------
  alpha Z        PSCENC =      3039.22321400
  Ewald energy   TEWEN  =    -48781.86115029
  -Hartree energ DENC   =    -17364.51092332
  -exchange      EXHF   =         0.00000000
  -V(xc)+E(xc)   XCENC  =      3293.74003294
  PAW double counting   =     97090.88470901   -96749.86162780
  entropy T*S    EENTRO =        -0.00000000
  eigenvalues    EBANDS =     -6424.93848279
  atomic energy  EATOM  =     64968.54023382
  Solvation  Ediel_sol  =         0.00000000
  ---------------------------------------------------
  free energy    TOTEN  =      -928.78399441 eV

  energy without entropy =     -928.78399441  energy(sigma->0) =     -928.78399441


--------------------------------------------------------------------------------------------------------




--------------------------------------- Iteration      1(  16)  ---------------------------------------


    POTLOK:  cpu time    0.1047: real time    0.1114
    SETDIJ:  cpu time    0.3016: real time    0.3023
     EDDAV:  cpu time   39.9312: real time   40.0330
       DOS:  cpu time    0.0013: real time    0.0013
    CHARGE:  cpu time    1.2614: real time    1.2669
    MIXING:  cpu time    0.0058: real time    0.0058
    --------------------------------------------
      LOOP:  cpu time   41.6059: real time   41.7207

 eigenvalue-minimisations  : 10368
 total energy-change (2. order) : 0.5155557E-04  (-0.3933896E-04)
 number of electron     864.0000006 magnetization 
 augmentation part      119.0683911 magnetization 

 Broyden mixing:
  rms(total) = 0.22118E-02    rms(broyden)= 0.22105E-02
  rms(prec ) = 0.28875E-02
  weight for this iteration     100.00

 eigenvalues of (default mixing * dielectric matrix)
  average eigenvalue GAMMA=   1.4034
  3.1750  2.4287  2.4287  0.9866  0.9866  0.8794  0.8794  0.9630  0.9630  0.8735
  0.8735

 Free energy of the ion-electron system (eV)
  ---------------------------------------------------
  alpha Z        PSCENC =      3039.22321400
  Ewald energy   TEWEN  =    -48781.86115029
  -Hartree energ DENC   =    -17365.17803226
  -exchange      EXHF   =         0.00000000
  -V(xc)+E(xc)   XCENC  =      3293.77698685
  PAW double counting   =     97122.14691437   -96781.22852379
  entropy T*S    EENTRO =        -0.00000000
  eigenvalues    EBANDS =     -6424.20358557
  atomic energy  EATOM  =     64968.54023382
  Solvation  Ediel_sol  =         0.00000000
  ---------------------------------------------------
  free energy    TOTEN  =      -928.78394285 eV

  energy without entropy =     -928.78394285  energy(sigma->0) =     -928.78394285


--------------------------------------------------------------------------------------------------------




--------------------------------------- Iteration      1(  17)  ---------------------------------------


    POTLOK:  cpu time    0.1055: real time    0.1153
    SETDIJ:  cpu time    0.3035: real time    0.3058
     EDDAV:  cpu time   41.5709: real time   41.7069
       DOS:  cpu time    0.0014: real time    0.0014
    CHARGE:  cpu time    1.2820: real time    1.2876
    MIXING:  cpu time    0.0055: real time    0.0055
    --------------------------------------------
      LOOP:  cpu time   43.2688: real time   43.4225

 eigenvalue-minimisations  : 10856
 total energy-change (2. order) :-0.1134213E-04  (-0.2563782E-04)
 number of electron     864.0000006 magnetization 
 augmentation part      119.0694719 magnetization 

 Broyden mixing:
  rms(total) = 0.17311E-02    rms(broyden)= 0.17302E-02
  rms(prec ) = 0.20402E-02
  weight for this iteration     100.00

 eigenvalues of (default mixing * dielectric matrix)
  average eigenvalue GAMMA=   1.3528
  3.3264  2.4027  2.4027  1.0165  1.0165  1.0327  1.0327  0.8586  0.8586  0.8629
  0.8629  0.5600

 Free energy of the ion-electron system (eV)
  ---------------------------------------------------
  alpha Z        PSCENC =      3039.22321400
  Ewald energy   TEWEN  =    -48781.86115029
  -Hartree energ DENC   =    -17365.09492911
  -exchange      EXHF   =         0.00000000
  -V(xc)+E(xc)   XCENC  =      3293.77131652
  PAW double counting   =     97121.61302764   -96780.70197717
  entropy T*S    EENTRO =        -0.00000000
  eigenvalues    EBANDS =     -6424.27368961
  atomic energy  EATOM  =     64968.54023382
  Solvation  Ediel_sol  =         0.00000000
  ---------------------------------------------------
  free energy    TOTEN  =      -928.78395419 eV

  energy without entropy =     -928.78395419  energy(sigma->0) =     -928.78395419


--------------------------------------------------------------------------------------------------------




--------------------------------------- Iteration      1(  18)  ---------------------------------------


    POTLOK:  cpu time    0.1048: real time    0.1135
    SETDIJ:  cpu time    0.3018: real time    0.3026
     EDDAV:  cpu time   40.7483: real time   40.8640
       DOS:  cpu time    0.0013: real time    0.0013
    CHARGE:  cpu time    1.2710: real time    1.2742
    MIXING:  cpu time    0.0050: real time    0.0050
    --------------------------------------------
      LOOP:  cpu time   42.4322: real time   42.5604

 eigenvalue-minimisations  : 10568
 total energy-change (2. order) : 0.7281924E-06  (-0.4203166E-05)
 number of electron     864.0000006 magnetization 
[...]
   -.552E+02 0.501E+02 0.511E+02   0.442E+02 -.617E+02 -.633E+02   0.129E+02 0.116E+02 0.123E+02   0.160E-03 -.309E-03 -.283E-03
   0.612E+01 0.411E+02 -.628E+02   -.155E+02 -.588E+02 0.691E+02   0.972E+01 0.163E+02 -.559E+01   0.143E-03 0.355E-04 0.599E-03
   0.117E+02 0.335E+02 -.220E+02   -.543E+01 -.428E+02 0.927E+01   -.677E+01 0.861E+01 0.135E+02   0.127E-03 0.541E-04 -.507E-03
   -.565E+02 -.522E+02 -.132E+02   0.504E+02 0.641E+02 0.327E+02   0.798E+01 -.109E+02 -.199E+02   0.492E-04 0.265E-03 -.144E-03
   0.807E+02 0.156E+03 0.174E+02   -.101E+03 -.168E+03 -.277E+02   0.209E+02 0.722E+01 0.100E+02   0.577E-05 -.373E-03 0.286E-03
   -.295E+02 0.155E+02 0.468E+02   0.519E+02 0.880E+00 -.415E+02   -.205E+02 -.142E+02 -.519E+01   0.228E-03 -.106E-03 0.227E-03
   -.262E+02 -.118E+03 0.713E+02   0.373E+02 0.132E+03 -.910E+02   -.121E+02 -.159E+02 0.220E+02   0.379E-03 0.551E-03 0.237E-03
   0.589E+02 -.259E+02 0.601E+02   -.628E+02 0.213E+02 -.781E+02   0.308E+01 0.819E+01 0.169E+02   0.831E-04 0.470E-03 0.977E-04
   -.516E+02 -.481E+02 -.912E+02   0.314E+02 0.720E+02 0.106E+03   0.109E+02 -.193E+02 -.137E+02   -.179E-05 0.361E-03 -.718E-03
   0.338E+02 -.251E+01 0.435E+02   -.645E+02 0.243E+01 -.479E+02   0.342E+02 0.846E+00 0.455E+01   0.528E-03 -.213E-05 0.205E-04
   0.194E+02 0.782E+02 -.798E+01   -.891E+01 -.693E+02 0.768E+01   -.102E+02 -.104E+02 -.367E+00   -.118E-04 -.210E-03 -.288E-03
   0.102E+03 -.680E+02 0.130E+01   -.121E+03 0.847E+02 0.700E+01   0.194E+02 -.163E+02 -.795E+01   -.359E-03 0.319E-03 -.273E-03
   0.272E+02 -.933E+02 0.602E+02   -.358E+02 0.114E+03 -.671E+02   0.107E+02 -.228E+02 0.660E+01   -.233E-03 0.320E-03 0.148E-03
   0.486E+02 -.707E+02 -.691E+02   -.317E+02 0.827E+02 0.826E+02   -.179E+02 -.819E+01 -.130E+02   0.467E-04 0.215E-03 -.215E-03
   -.226E+01 0.414E+02 0.200E+02   0.941E+01 -.628E+02 -.247E+02   -.833E+01 0.227E+02 0.501E+01   -.127E-03 -.502E-03 -.589E-03
   0.461E+02 0.425E+02 -.216E+00   -.526E+02 -.298E+02 0.179E+02   0.704E+01 -.161E+02 -.195E+02   0.399E-04 -.115E-03 0.899E-04
   -.732E+02 0.892E+01 0.275E+02   0.738E+02 -.227E+01 -.435E+02   -.986E+00 -.882E+01 0.175E+02   -.169E-03 -.610E-04 -.925E-03
   -.335E+02 -.844E+02 -.177E+02   0.412E+02 0.104E+03 0.128E+02   -.662E+01 -.175E+02 0.463E+01   0.565E-03 0.157E-03 -.107E-03
   -.177E+03 0.446E+02 -.162E+02   0.190E+03 -.509E+02 0.381E+01   -.119E+02 0.649E+01 0.152E+02   0.419E-04 0.398E-04 0.502E-03
   0.224E+02 0.238E+02 -.111E+03   -.123E+02 -.245E+02 0.954E+02   -.115E+02 0.727E+00 0.192E+02   0.230E-03 -.541E-03 -.311E-03
   -.105E+03 0.299E+01 0.651E+02   0.998E+02 -.101E+02 -.422E+02   0.897E+01 0.888E+01 -.256E+02   0.365E-03 -.295E-03 -.257E-03
   0.581E+02 -.742E+02 0.237E+02   -.658E+02 0.839E+02 -.367E+02   0.500E+01 -.884E+01 0.130E+02   0.371E-03 -.343E-03 0.279E-03
   0.361E+01 0.212E+02 -.371E+02   -.251E+02 -.340E+02 0.493E+02   0.192E+02 0.122E+02 -.107E+02   -.146E-03 -.397E-04 -.397E-04
   -.986E+01 0.320E+02 0.673E+02   0.164E+02 -.158E+02 -.757E+02   -.829E+01 -.189E+02 0.830E+01   -.492E-03 -.757E-03 -.393E-03
   -.195E+02 0.107E+02 0.707E+02   0.210E+02 -.344E+02 -.774E+02   -.749E+00 0.244E+02 0.617E+01   0.280E-03 -.373E-03 -.554E-03
   0.486E+02 0.499E+02 -.301E+02   -.622E+02 -.366E+02 0.146E+02   0.132E+02 -.154E+02 0.147E+02   -.217E-03 -.334E-03 -.800E-03
   -.492E+02 0.352E+02 -.237E+02   0.480E+02 -.392E+02 0.402E+02   0.394E+01 0.977E+00 -.169E+02   -.229E-03 -.102E-03 0.359E-03
   0.500E+02 -.336E+02 -.131E+03   -.498E+02 0.263E+02 0.163E+03   0.302E+01 0.751E+01 -.309E+02   0.361E-03 0.158E-03 0.967E-03
   0.511E+02 0.103E+02 -.738E+01   -.653E+02 0.650E+01 0.620E+01   0.152E+02 -.213E+02 0.408E+00   -.104E-03 0.396E-03 -.325E-03
   0.601E+02 0.614E+02 -.576E+02   -.840E+02 -.682E+02 0.695E+02   0.223E+02 0.467E+01 -.111E+02   -.397E-03 -.328E-03 0.837E-04
   0.792E+02 -.640E+02 0.106E+03   -.902E+02 0.840E+02 -.120E+03   0.983E+01 -.206E+02 0.128E+02   -.532E-03 0.409E-03 -.292E-03
   -.750E+02 0.444E+02 -.110E+03   0.863E+02 -.327E+02 0.123E+03   -.119E+02 -.131E+02 -.133E+02   -.290E-03 0.233E-03 0.636E-03
   0.758E+01 0.313E+02 0.536E+02   -.346E+02 -.377E+02 -.547E+02   0.291E+02 0.731E+01 -.103E+01   -.293E-03 0.297E-03 -.520E-03
   0.446E+02 -.127E+03 -.112E+02   -.668E+02 0.151E+03 -.587E+00   0.166E+02 -.246E+02 0.131E+02   -.328E-03 0.219E-03 0.518E-04
   0.164E+02 -.412E+02 0.376E+02   -.119E+02 0.627E+02 -.355E+02   -.469E+01 -.213E+02 -.383E+01   0.242E-03 -.302E-03 0.272E-03
   -.449E+02 -.369E+02 -.339E+02   0.686E+02 0.363E+02 0.323E+02   -.238E+02 0.214E+01 0.233E+01   0.759E-04 -.211E-03 -.295E-03
   -.205E+02 -.177E+02 0.836E+01   0.296E+02 0.149E+02 -.151E+02   -.123E+02 0.374E+01 0.606E+01   -.553E-03 0.235E-03 0.387E-03
   0.401E+02 -.143E+00 0.271E+02   -.377E+02 -.138E+01 -.503E+02   -.278E+01 0.153E+01 0.245E+02   -.891E-04 0.300E-03 0.177E-03
   -.222E+02 0.617E+02 0.792E+02   0.439E+02 -.624E+02 -.782E+02   -.252E+02 -.116E+01 -.396E+01   0.483E-03 0.501E-04 0.321E-03
   0.817E+02 -.603E+02 0.612E+02   -.702E+02 0.671E+02 -.813E+02   -.133E+02 -.558E+01 0.202E+02   -.437E-03 0.365E-03 -.318E-04
   0.768E+01 0.118E+03 -.470E+02   0.709E+01 -.141E+03 0.533E+02   -.158E+02 0.235E+02 -.625E+01   0.341E-03 0.266E-03 -.367E-03
   -.156E+02 -.887E+01 0.114E+02   0.207E+02 -.100E+02 -.148E+01   -.568E+01 0.199E+02 -.104E+02   -.651E-03 -.154E-03 0.471E-03
   -.132E+03 0.401E+02 0.788E+01   0.155E+03 -.354E+02 -.135E+02   -.183E+02 -.576E+01 0.574E+01   0.589E-03 0.328E-03 0.341E-03
   0.250E+02 -.118E+02 -.319E+02   -.234E+02 0.327E+01 0.478E+02   -.364E+01 0.817E+01 -.118E+02   -.140E-03 0.149E-03 -.178E-03
   -.477E+01 -.898E+02 -.948E+02   0.348E+02 0.933E+02 0.915E+02   -.318E+02 -.329E+01 0.542E+01   0.870E-03 0.157E-03 -.414E-03
   -.851E+01 0.161E+03 -.869E+02   -.130E+01 -.183E+03 0.917E+02   0.128E+02 0.216E+02 -.108E+01   -.221E-03 -.859E-04 0.268E-03
   -.884E+01 -.710E+02 0.485E+02   0.175E+02 0.805E+02 -.533E+02   -.984E+01 -.100E+02 0.722E+01   0.393E-04 0.181E-03 -.629E-03
   -.206E+02 0.631E+02 0.126E+02   0.285E+02 -.610E+02 -.525E+01   -.928E+01 -.381E+01 -.103E+02   0.290E-03 -.118E-04 -.574E-03
 -----------------------------------------------------------------------------------------------
   0.171E+02 -.228E+02 -.487E+02   -.380E-12 0.568E-12 0.466E-12   -.171E+02 0.228E+02 0.487E+02   0.120E-03 0.108E-02 0.522E-03
 
 
 POSITION                                       TOTAL-FORCE (eV/Angst)
 -----------------------------------------------------------------------------------
      2.88992      4.45204      4.80573        -1.932093      3.216389     -1.612553
      5.50534      6.26130     10.36829         0.362015     -0.668263      0.233269
     10.68017      3.14457      4.72346         1.115724     -0.763807     -1.259192
      8.64170      8.14334      6.04165        -2.325798     -0.429696     -1.253979
      9.16226      5.59304      2.24342         2.668968     -1.857266     -0.697563
      0.30304      8.65972      2.15127        -0.739462     -2.459465      2.227583
      6.57667      1.92475     11.41734         1.383796     -0.347580      3.771357
      0.97995      8.66098      9.42580        -0.679321      1.618757     -0.227233
     10.46541      2.03133      7.49426        -0.971100      2.186691      1.147657
      3.94123     11.56920      9.07889        -1.484133     -0.130910      0.724779
      5.64022      4.46563      2.55759         0.355896      0.022915     -0.183678
      7.34235      2.41447      4.78744         4.275641      2.698370      1.657070
      9.27197     10.74946      0.36224        -0.537455      2.043051     -1.034301
      8.92055      7.06290      9.06565        -2.304823     -0.393282     -0.249255
      6.32757      9.95827     11.50538        -1.447008     -2.801759      0.448783
      3.80995      3.43633     11.41518        -2.388335      1.850511      1.744028
      5.50703      8.24347      3.28457        -1.897908     -0.487173      1.877240
     10.90769     10.93604      8.23422        -0.794829     -2.957147      1.328620
      0.52168     11.24568      0.86254         0.333270     -0.196382     -0.480054
      1.89559      2.41311      2.13913        -3.201481     -1.099502      0.098377
      2.07175      2.43573      7.15861        -6.712177     -0.214144     -0.419917
     10.94611      3.43644     10.78647         0.217826     -0.590980      2.410790
      6.50090     11.31463      3.39560         0.703500     -0.311283     -1.437490
      1.99753      6.19831     10.75908        -0.695507     -1.941056      0.623142
     11.37357      6.07515      4.56553        -0.700657      2.555095      0.952453
      5.69935      5.66603      6.77238        -0.000227      2.128273     -2.540469
      2.64331      9.05156      5.81217        -0.833376     -2.138121      1.423454
      8.79814     11.42393      5.76843        -1.901300      3.317001     -1.854737
      6.86431      3.23161      8.61366        -0.067988      5.958027     -0.489719
      7.80808      4.82715     11.41672        -0.699212     -0.753620     -4.419452
      9.50937      2.65215      1.89170        -4.597440     -4.647262     -0.975542
      1.08163      1.25726     10.24878         3.641596      0.944892      0.620705
      8.90280      4.93984      7.21640        -1.281636      4.960441     -5.168863
      1.11147      0.41669      5.58162        -5.524545     -2.097129      2.238268
      8.69273      9.10153      3.10964         2.873135     -0.456463      0.467853
      4.96824      2.40144      6.43464        -0.475395     -2.529414      1.986372
      4.06677      3.53429      8.76090        -0.411554      1.979708      3.479312
      6.12399      8.90456      8.12442         0.267847     -0.381403     -1.882283
      5.98486     11.23542      6.70327        -2.009546     -0.923454      0.724898
      2.45082      5.81463      7.14741         5.754833      6.364401     -0.050011
      0.84952      4.86686      1.95724        -2.203441      6.068405      2.699017
     10.20004      8.28826     10.73846         3.270979      4.007912      3.235176
      2.96127     11.02097      3.79083        -0.837556      1.200027     -6.206202
     11.22474      8.89814      5.46433         3.913657      1.149363     -2.851636
     10.53051     11.48305      3.49793        -2.565171     -0.362372     -3.783617
      7.65723      0.46731      9.27914         4.860021     -3.636048     -3.720246
     11.49817      5.04691      7.89733        15.432264     -6.256165      0.323454
      7.33220      6.15737      4.26405         0.274346     -1.833593      0.746788
      4.29012      2.18497      3.25909         1.500040      3.396608     -0.181707
      4.21330      0.27483      1.17001         4.509063     -0.275480     -0.433130
      3.77836      8.34034      8.97732         1.537211      0.400598     -3.784456
      3.09157      9.26015      0.37207        -1.413477     -2.498466     -1.508803
      3.58781      6.78202      1.73702        -1.665247     -5.543327     -0.109280
      7.45543      7.66877      1.14322         3.271369     -1.616606     -1.062657
      8.18643      3.14075      2.80151         2.237375     -0.023151      0.521766
     10.65939      7.63389      6.14792        -0.442113     -1.953458      2.087725
      3.60129      9.65514      4.09876         3.177393     -3.376075      0.545217
      9.20599      4.19669     11.58685         0.466968      0.403324      1.110861
      2.51040     11.34801      5.29337        -0.411154      0.238455      3.211668
      7.33457      1.97208      9.40717         0.598410      1.812537      0.430139
      0.37807      0.65965      7.16119         4.105362      0.051063     -2.966940
      9.36589     10.22471      6.50903         1.405831     -1.593590      0.360598
      8.89131      7.72112      2.11795        -0.897016      1.221968     -1.933153
      4.36277      3.11047      5.26500        -0.569314      0.571600     -2.527211
     10.67242      1.20410      2.46013        -0.397794     -0.149151      2.689978
      6.61688     11.49826      8.20536        -3.644134     -0.761514     -1.807022
      8.88392      6.64553      4.13338        -0.370672     -1.131643      2.367633
      8.59600      8.54330     11.10648        -0.111324     -0.228518      1.020765
      4.34111     11.17840      2.58348        -0.930641     -0.244350      1.257064
      6.42758      7.01948      5.25071        -0.492692      2.358739     -0.769177
     10.27961      8.71226      9.25046         0.299558     -0.887898     -5.478105
      8.76227     11.37769      4.06658         3.335227      0.294606     -1.224586
      2.09163      6.15925      1.81108        -1.442092     -0.512850     -1.947626
      1.66912     10.67455      2.67395         1.911413      2.038833      0.581186
      7.78616      6.37828      0.07195        -0.100899      2.669305      1.686118
      2.80804      7.02971      8.50763        -1.181516     -0.517936      0.664750
      5.60111      9.60669      6.43878        -0.031013      1.598397      3.531065
      6.98821      0.00063      5.59611         3.967936      0.600556     -1.246300
      8.71229      3.66938      8.03703        -3.778013     -4.668892      2.535585
      0.99576      1.88867      5.10643         0.884692      2.476176     -1.251834
      3.06135      4.36246      7.17030         0.641566     -0.170197      0.279165
      0.40337      4.53621      9.52694         0.327276      3.751843     -5.329602
      0.31526      3.85437      6.67186        -1.929536      0.834553      2.163975
      7.44541      9.11162      4.09355        -1.167041      0.517728      0.321803
     10.45113     10.41545      2.13879         0.469353      0.591624      1.404432
     11.46217      6.21784      2.39671        -1.711863     -0.587825     -2.292975
      1.18646      3.91794      0.68983         1.092799      2.401241      0.535674
      8.68052      1.67760      0.76986         1.864267     -0.000883      0.075772
      6.62971      4.70730      4.65972         0.323980     -1.453671      0.722222
      4.14227      5.98336      0.35260        -0.519304     -0.683804      0.816639
      5.24422      9.50019      9.41642         1.936262      0.976594     -0.357963
      4.86099      0.82133      6.30805         0.771936     -4.748731     -0.281700
     10.67119      3.63564      2.13487         1.821397      2.233691      0.061749
      3.22718      6.66363      5.86618        -0.951547     -2.360307      2.313924
      7.05183      5.96563      2.61867        -0.850397      3.609392     -1.084454
     10.19460      5.56691      8.02252        -9.343475      4.558727      0.997936
      5.87025      7.91057      0.88483         3.489771      0.768602      0.089536
      2.60968      2.09079     10.04229         0.237898     -1.521158     -0.662790
      3.16272      4.57161      9.61098         0.900068      0.404133      0.353686
      3.49148      3.70175      2.91867         2.051411     -2.236842     -0.295183
      3.79691      8.30134      1.44775        -1.038199      3.814691      0.560536
      1.63042     11.31079      9.90971        -1.182902      1.296817      0.355678
      0.66376      1.75684      0.21465         0.576748     -3.447121     -1.858278
      7.44032      5.11938      9.67565        -0.401705     -2.166809      1.502027
      5.43586      4.25973      8.29459         1.098821      1.887514     -0.259190
      0.68914      8.29740      4.23871         1.087539      0.197631      2.865575
      8.99347      0.43856      8.20496        -1.459916      0.033724      3.817438
      7.27692     11.45617     10.68716         3.335850      1.745260     -2.655521
      7.97525      9.78197      1.75063        -2.654202      0.844385      0.079547
      6.61974      4.07439      0.43720        -2.248563     -0.516553      1.523279
      4.35273      2.02540      1.41586        -1.746776     -2.711904     -0.059724
      5.17953      7.45681      8.35587         0.758189      0.707936     -0.522132
      0.00242      2.03196      9.35491        -0.349605     -2.210895     -0.807666
      0.81295      4.50191      3.62570         2.751754     -2.997706     -0.403871
      3.96928      6.42531      3.22514         3.205285      0.141526      0.628850
      7.90166      6.37648      7.33378         1.082201     -4.426449     -0.769522
      3.12030      1.24731      3.61659        -1.614703     -2.143263      0.791094
      3.18064      9.65028      8.22138        -1.195693     -0.661316     -0.747454
      0.54375      9.81391      6.53850        -0.629739     -1.406702      0.121677
      1.51433      9.01454      0.48973         2.099081      0.944108     -2.147772
      0.97670      6.16013      7.10022        -5.655261     -0.132933      1.307460
      9.26761      1.34991      5.90459        -0.271145      0.194009     -1.753094
      5.80304      0.10879      0.83088        -0.215217      1.552374      0.771260
     10.16192      9.06131      4.09076        -3.293447      0.933504     -0.676399
      9.39874      4.55229      5.69771        -0.373513      0.010688      1.356495
      5.86344      2.03999      3.61055        -3.587738     -1.821601     -2.959322
      3.90277     10.63503      0.03807        -1.764210      1.182296      0.051971
     11.30223      7.08378     10.94081        -1.002967      0.827785      0.134661
     11.57737     11.19851      4.67749        -0.639139      0.982463     -0.496657
      6.35405      2.79184      7.00558         4.419619     -1.065603      0.130819
      3.50686      8.33738     10.51829        -2.045053     -0.318529      4.112960
      7.69541      8.80392      7.91806        -1.798010      0.152462      2.167686
      3.92598      2.27332      7.69250         2.939383     -0.775378      3.758449
     11.07717      9.96852     10.87459        -1.155624     -0.544516      2.417430
      5.33789      3.10152     10.13115        -1.299549     -1.741958     -2.932716
 -----------------------------------------------------------------------------------
    total drift:                               -0.002599      0.005357      0.004112


--------------------------------------------------------------------------------------------------------



  FREE ENERGIE OF THE ION-ELECTRON SYSTEM (eV)
  ---------------------------------------------------
  free  energy   TOTEN  =      -928.78395183 eV

  energy  without entropy=     -928.78395183  energy(sigma->0) =     -928.78395183
 


--------------------------------------------------------------------------------------------------------


    POTLOK:  cpu time    0.4051: real time    0.4062


--------------------------------------------------------------------------------------------------------


     LOOP+:  cpu time  878.1429: real time  882.0199
    4ORBIT:  cpu time    0.0000: real time    0.0000

 total amount of memory used by VASP MPI-rank0   164797. kBytes
=======================================================================

   base      :      30000. kBytes
   nonlr-proj:      22686. kBytes
   fftplans  :      23775. kBytes
   grid      :      12472. kBytes
   one-center:        186. kBytes
   wavefun   :      75678. kBytes
 
  
  
 General timing and accounting informations for this job:
 ========================================================
  
                  Total CPU time used (sec):      897.085
                            User time (sec):      893.463
                          System time (sec):        3.623
                         Elapsed time (sec):      901.083
  
                   Maximum memory used (kb):      289952.
                   Average memory used (kb):           0.
  
                          Minor page faults:       118791
                          Major page faults:            0
                 Voluntary context switches:          402
