 running on   52 total cores
 distrk:  each k-point on   52 cores,    1 groups
 distr:  one band on   13 cores,    4 groups
 using from now: INCAR     
 vasp.5.4.4.18Apr17-6-g9f103f2a35 (build Oct 31 2019 15:01:46) complex          
  
 POSCAR found type information on POSCAR  Sc Cl C 
 POSCAR found :  3 types and      80 ions
 scaLAPACK is switched off
 LDA part: xc-table for Pade appr. of Perdew
 generate k-points for:    3    3    1
 POSCAR, INCAR and KPOINTS ok, starting setup
 FFT: planning ...
 WAVECAR not read
 entering main loop
       N       E                     dE             d eps       ncg     rms          rms(c)
DAV:   1     0.122285506053E+05    0.12229E+05   -0.26772E+05  4440   0.152E+03
DAV:   2     0.174173165494E+04   -0.10487E+05   -0.10225E+05  5208   0.523E+02
DAV:   3    -0.405919106485E+03   -0.21477E+04   -0.20617E+04  6800   0.285E+02
DAV:   4    -0.644287639772E+03   -0.23837E+03   -0.23374E+03  6088   0.993E+01
DAV:   5    -0.654840055195E+03   -0.10552E+02   -0.10499E+02  6080   0.281E+01    0.685E+01
DAV:   6    -0.524810641125E+03    0.13003E+03   -0.70102E+02  5832   0.493E+01    0.298E+01
DAV:   7    -0.529299102419E+03   -0.44885E+01   -0.83477E+01  5896   0.224E+01    0.150E+01
DAV:   8    -0.527135818354E+03    0.21633E+01   -0.93624E+00  5968   0.685E+00    0.900E+00
DAV:   9    -0.526622388414E+03    0.51343E+00   -0.34053E+00  5336   0.376E+00    0.294E+00
DAV:  10    -0.526506641258E+03    0.11575E+00   -0.58370E-01  5656   0.200E+00    0.171E+00
DAV:  11    -0.526488213270E+03    0.18428E-01   -0.17935E-01  5664   0.828E-01    0.750E-01
DAV:  12    -0.526475157610E+03    0.13056E-01   -0.31020E-02  6152   0.481E-01    0.286E-01
DAV:  13    -0.526472364539E+03    0.27931E-02   -0.89535E-03  5376   0.245E-01    0.170E-01
DAV:  14    -0.526470800212E+03    0.15643E-02   -0.59551E-03  5376   0.150E-01    0.168E-01
DAV:  15    -0.526472329797E+03   -0.15296E-02   -0.21362E-03  5464   0.954E-02    0.104E-01
DAV:  16    -0.526474281023E+03   -0.19512E-02   -0.97923E-04  6040   0.570E-02    0.600E-02
DAV:  17    -0.526477734300E+03   -0.34533E-02   -0.74853E-04  5152   0.528E-02    0.335E-02
DAV:  18    -0.526479837163E+03   -0.21029E-02   -0.28193E-04  4976   0.319E-02    0.228E-02
DAV:  19    -0.526480823620E+03   -0.98646E-03   -0.10352E-04  4976   0.177E-02    0.151E-02
DAV:  20    -0.526481947681E+03   -0.11241E-02   -0.30109E-05  4496   0.110E-02    0.109E-02
DAV:  21    -0.526482471397E+03   -0.52372E-03   -0.12817E-05  3928   0.692E-03    0.746E-03
DAV:  22    -0.526482871647E+03   -0.40025E-03   -0.42006E-06  3568   0.455E-03    0.439E-03
DAV:  23    -0.526483331280E+03   -0.45963E-03   -0.11231E-05  3504   0.427E-03    0.257E-03
DAV:  24    -0.526483506452E+03   -0.17517E-03   -0.40185E-06  3720   0.308E-03    0.262E-03
DAV:  25    -0.526483583989E+03   -0.77537E-04   -0.11238E-06  3000   0.206E-03    0.163E-03
DAV:  26    -0.526483668454E+03   -0.84465E-04   -0.26415E-06  3216   0.207E-03    0.160E-03
DAV:  27    -0.526483674816E+03   -0.63619E-05   -0.23515E-07  2640   0.160E-03    0.128E-03
DAV:  28    -0.526483680555E+03   -0.57396E-05   -0.13832E-07  2504   0.113E-03    0.732E-04
DAV:  29    -0.526483690838E+03   -0.10283E-04   -0.22840E-07  2656   0.101E-03    0.437E-04
DAV:  30    -0.526483701070E+03   -0.10232E-04   -0.24601E-07  2744   0.125E-03    0.645E-04
DAV:  31    -0.526483704872E+03   -0.38020E-05   -0.19773E-07  2552   0.113E-03    0.366E-04
DAV:  32    -0.526483706466E+03   -0.15936E-05   -0.13398E-07  2456   0.842E-04    0.264E-04
DAV:  33    -0.526483706967E+03   -0.50166E-06   -0.86158E-08  2400   0.753E-04
   1 F= -.52648371E+03 E0= -.52648371E+03  d E =-.553769E-11
