 vasp.5.4.4.18Apr17-6-g9f103f2a35 (build Oct 31 2019 15:01:46) complex          
  
 executed on             LinuxIFC date 2024.05.02  01:01:36
 running on   52 total cores
 distrk:  each k-point on   52 cores,    1 groups
 distr:  one band on NCORES_PER_BAND=  13 cores,    4 groups


--------------------------------------------------------------------------------------------------------


 INCAR:
 POTCAR:    PAW_PBE Sc_sv 07Sep2000               
 POTCAR:    PAW_PBE Cl 06Sep2000                  
 POTCAR:    PAW_PBE C 08Apr2002                   
 POTCAR:    PAW_PBE Sc_sv 07Sep2000               
   VRHFIN =Sc: 3p4s3d                                                           
   LEXCH  = PE                                                                  
   EATOM  =  1273.2868 eV,   93.5839 Ry                                         
                                                                                
   TITEL  = PAW_PBE Sc_sv 07Sep2000                                             
   LULTRA =        F    use ultrasoft PP ?                                      
   IUNSCR =        1    unscreen: 0-lin 1-nonlin 2-no                           
   RPACOR =    2.200    partial core radius                                     
   POMASS =   44.956; ZVAL   =   11.000    mass and valenz                      
   RCORE  =    2.500    outmost cutoff radius                                   
   RWIGS  =    2.700; RWIGS  =    1.429    wigner-seitz radius (au A)           
   ENMAX  =  222.660; ENMIN  =  166.995 eV                                      
   RCLOC  =    1.805    cutoff for local pot                                    
   LCOR   =        T    correct aug charges                                     
   LPAW   =        T    paw PP                                                  
   EAUG   =  443.063                                                            
   RMAX   =    2.551    core radius for proj-oper                               
   RAUG   =    1.300    factor for augmentation sphere                          
   RDEP   =    2.650    radius for radial grids                                 
   RDEPT  =    2.038    core radius for aug-charge                              
                                                                                
   Atomic configuration                                                         
    8 entries                                                                   
     n  l   j            E        occ.                                          
     1  0  0.50     -4394.2533   2.0000                                         
     2  0  0.50      -471.0040   2.0000                                         
     2  1  1.50      -384.9788   6.0000                                         
     3  0  0.50       -52.1410   2.0000                                         
     4  0  0.50        -3.5584   1.0000                                         
     3  1  1.50       -30.8841   6.0000                                         
     3  2  2.50        -1.3655   2.0000                                         
     4  3  2.50        -1.3606   0.0000                                         
   Description                                                                  
     l       E           TYP  RCUT    TYP  RCUT                                 
     0    -52.1409870     23  1.800                                             
     0     -3.5583698     23  2.500                                             
     1    -30.8840697     23  2.300                                             
     1      4.0817478     23  2.300                                             
     2     -1.3655397     23  2.500                                             
     2      0.3564476     23  2.500                                             
  local pseudopotential read in
  partial core-charges read in
  partial kinetic energy density read in
  atomic valenz-charges read in
  non local Contribution for L=           0  read in
    real space projection operators read in
  non local Contribution for L=           0  read in
    real space projection operators read in
  non local Contribution for L=           1  read in
    real space projection operators read in
  non local Contribution for L=           1  read in
    real space projection operators read in
  non local Contribution for L=           2  read in
    real space projection operators read in
  non local Contribution for L=           2  read in
    real space projection operators read in
    PAW grid and wavefunctions read in
 
   number of l-projection  operators is LMAX  =           6
   number of lm-projection operators is LMMAX =          18
 
 POTCAR:    PAW_PBE Cl 06Sep2000                  
   VRHFIN =Cl: s2p5                                                             
   LEXCH  = PE                                                                  
   EATOM  =   409.7259 eV,   30.1140 Ry                                         
                                                                                
   TITEL  = PAW_PBE Cl 06Sep2000                                                
   LULTRA =        F    use ultrasoft PP ?                                      
   IUNSCR =        1    unscreen: 0-lin 1-nonlin 2-no                           
   RPACOR =    1.500    partial core radius                                     
   POMASS =   35.453; ZVAL   =    7.000    mass and valenz                      
   RCORE  =    1.900    outmost cutoff radius                                   
   RWIGS  =    2.100; RWIGS  =    1.111    wigner-seitz radius (au A)           
   ENMAX  =  262.472; ENMIN  =  196.854 eV                                      
   ICORE  =        2    local potential                                         
   LCOR   =        T    correct aug charges                                     
   LPAW   =        T    paw PP                                                  
   EAUG   =  356.192                                                            
   DEXC   =    0.000                                                            
   RMAX   =    1.945    core radius for proj-oper                               
   RAUG   =    1.300    factor for augmentation sphere                          
   RDEP   =    2.020    radius for radial grids                                 
   RDEPT  =    1.678    core radius for aug-charge                              
                                                                                
   Atomic configuration                                                         
    6 entries                                                                   
     n  l   j            E        occ.                                          
     1  0  0.50     -2751.1850   2.0000                                         
     2  0  0.50      -252.6861   2.0000                                         
     2  1  1.50      -191.6157   6.0000                                         
     3  0  0.50       -20.6916   2.0000                                         
     3  1  0.50        -8.5949   5.0000                                         
     3  2  1.50        -8.1635   0.0000                                         
   Description                                                                  
     l       E           TYP  RCUT    TYP  RCUT                                 
     0    -20.6915656     23  1.900                                             
     0    -22.0521482     23  1.900                                             
     1     -8.5948577     23  1.900                                             
     1     -5.3847331     23  1.900                                             
     2     -8.1634956     23  1.900                                             
  local pseudopotential read in
  partial core-charges read in
  partial kinetic energy density read in
  atomic valenz-charges read in
  non local Contribution for L=           0  read in
    real space projection operators read in
  non local Contribution for L=           0  read in
    real space projection operators read in
  non local Contribution for L=           1  read in
    real space projection operators read in
  non local Contribution for L=           1  read in
    real space projection operators read in
    PAW grid and wavefunctions read in
 
   number of l-projection  operators is LMAX  =           4
   number of lm-projection operators is LMMAX =           8
 
 POTCAR:    PAW_PBE C 08Apr2002                   
   VRHFIN =C: s2p2                                                              
   LEXCH  = PE                                                                  
   EATOM  =   147.1560 eV,   10.8157 Ry                                         
                                                                                
   TITEL  = PAW_PBE C 08Apr2002                                                 
   LULTRA =        F    use ultrasoft PP ?                                      
   IUNSCR =        1    unscreen: 0-lin 1-nonlin 2-no                           
   RPACOR =    1.200    partial core radius                                     
   POMASS =   12.011; ZVAL   =    4.000    mass and valenz                      
   RCORE  =    1.500    outmost cutoff radius                                   
   RWIGS  =    1.630; RWIGS  =    0.863    wigner-seitz radius (au A)           
   ENMAX  =  400.000; ENMIN  =  300.000 eV                                      
   ICORE  =        2    local potential                                         
   LCOR   =        T    correct aug charges                                     
   LPAW   =        T    paw PP                                                  
   EAUG   =  644.873                                                            
   DEXC   =    0.000                                                            
   RMAX   =    1.529    core radius for proj-oper                               
   RAUG   =    1.300    factor for augmentation sphere                          
   RDEP   =    1.501    radius for radial grids                                 
   RDEPT  =    1.300    core radius for aug-charge                              
                                                                                
   Atomic configuration                                                         
    4 entries                                                                   
     n  l   j            E        occ.                                          
     1  0  0.50      -273.3789   2.0000                                         
     2  0  0.50       -13.7508   2.0000                                         
     2  1  0.50        -5.2854   2.0000                                         
     3  2  1.50        -5.4423   0.0000                                         
   Description                                                                  
     l       E           TYP  RCUT    TYP  RCUT                                 
     0    -13.7508458     23  1.200                                             
     0     -8.2022199     23  1.200                                             
     1     -5.2854383     23  1.500                                             
     1     34.0145650     23  1.500                                             
     2     -5.4423304      7  1.500                                             
  local pseudopotential read in
  partial core-charges read in
  partial kinetic energy density read in
  atomic valenz-charges read in
  non local Contribution for L=           0  read in
    real space projection operators read in
  non local Contribution for L=           0  read in
    real space projection operators read in
  non local Contribution for L=           1  read in
    real space projection operators read in
  non local Contribution for L=           1  read in
    real space projection operators read in
    PAW grid and wavefunctions read in
 
   number of l-projection  operators is LMAX  =           4
   number of lm-projection operators is LMMAX =           8
 
 Optimization of the real space projectors (new method)

 maximal supplied QI-value         = 15.12
 optimisation between [QCUT,QGAM] = [ 12.55, 25.10] = [ 44.09,176.36] Ry 
 Optimized for a Real-space Cutoff    1.56 Angstroem

   l    n(q)    QCUT    max X(q) W(low)/X(q) W(high)/X(q)  e(spline) 
   0     12    12.548     2.962    0.12E-05    0.11E-06    0.46E-07
   0     12    12.548    26.414    0.30E-04    0.15E-05    0.76E-07
   1     11    12.548     3.969    0.45E-05    0.12E-05    0.60E-07
   1     11    12.548     5.137    0.15E-04    0.18E-04    0.36E-06
   2     11    12.548   143.970    0.20E-03    0.19E-03    0.76E-06
   2     11    12.548   121.201    0.20E-03    0.19E-03    0.76E-06
 Optimization of the real space projectors (new method)

 maximal supplied QI-value         = 19.84
 optimisation between [QCUT,QGAM] = [ 12.50, 25.00] = [ 43.76,175.03] Ry 
 Optimized for a Real-space Cutoff    1.20 Angstroem

   l    n(q)    QCUT    max X(q) W(low)/X(q) W(high)/X(q)  e(spline) 
   0      9    12.501   168.010    0.44E-04    0.61E-04    0.77E-07
   0      9    12.501   164.674    0.43E-04    0.60E-04    0.75E-07
   1      8    12.501    69.222    0.11E-03    0.13E-03    0.91E-07
   1      8    12.501    56.786    0.11E-03    0.13E-03    0.90E-07
 Optimization of the real space projectors (new method)

 maximal supplied QI-value         = 25.13
 optimisation between [QCUT,QGAM] = [ 12.32, 24.88] = [ 42.47,173.37] Ry 
 Optimized for a Real-space Cutoff    1.16 Angstroem

   l    n(q)    QCUT    max X(q) W(low)/X(q) W(high)/X(q)  e(spline) 
   0      9    12.315   115.676    0.19E-03    0.80E-05    0.34E-06
   0      9    12.315    87.132    0.19E-03    0.82E-05    0.34E-06
   1      8    12.315     4.429    0.18E-03    0.13E-03    0.22E-06
   1      8    12.315     2.733    0.14E-03    0.10E-03    0.18E-06
  PAW_PBE Sc_sv 07Sep2000               :
 energy of atom  1       EATOM=-1273.2868
 kinetic energy error for atom=    0.0014 (will be added to EATOM!!)
  PAW_PBE Cl 06Sep2000                  :
 energy of atom  2       EATOM= -409.7259
 kinetic energy error for atom=    0.0013 (will be added to EATOM!!)
  PAW_PBE C 08Apr2002                   :
 energy of atom  3       EATOM= -147.1560
 kinetic energy error for atom=    0.0057 (will be added to EATOM!!)
 
 
 POSCAR: Sc Cl  C                                
  positions in cartesian coordinates
  No initial velocities read in
 exchange correlation table for  LEXCH =        8
   RHO(1)=    0.500       N(1)  =     2000
   RHO(2)=  100.500       N(2)  =     4000
 


--------------------------------------------------------------------------------------------------------


 ion  position               nearest neighbor table
   1  0.072  0.157  0.542-  66 2.23  65 2.26  70 2.44  61 2.60  49 2.69  50 2.77  29 3.05  17 3.24
                             4 3.26  13 3.29  18 3.32  16 3.39   2 3.42
   2  0.095  0.415  0.545-  71 2.33  66 2.38  67 2.43  50 2.50  51 2.62  62 2.76  18 3.15  19 3.16
                            30 3.22   7 3.42   1 3.42
   3  0.079  0.664  0.545-  68 2.34  72 2.37  67 2.40  51 2.66  52 2.66  63 2.67  31 3.06  19 3.22
                            20 3.25  15 3.41
   4  0.080  0.924  0.546-  65 2.26  69 2.28  68 2.49  49 2.51  64 2.53  52 2.61  17 3.22   1 3.26
                            32 3.26  20 3.30  16 3.34
   5  0.331  0.171  0.549-  74 2.23  70 2.33  54 2.58  69 2.58  49 2.60  53 2.66  22 3.21  21 3.24
                             6 3.30  17 3.35
   6  0.345  0.416  0.541-  75 2.31  71 2.36  70 2.38  55 2.53  54 2.62  50 2.77  22 3.07  23 3.11
                            18 3.14   5 3.30  10 3.39  11 3.40
   7  0.333  0.671  0.547-  72 2.40  76 2.43  71 2.47  56 2.48  55 2.57  51 2.71  19 3.24  24 3.25
                            23 3.26   8 3.37   2 3.42
   8  0.332  0.914  0.545-  69 2.33  73 2.35  72 2.42  53 2.53  56 2.59  52 2.66  21 3.03  24 3.18
                            20 3.26   7 3.37  12 3.40
   9  0.584  0.164  0.545-  78 2.18  73 2.30  74 2.39  57 2.50  58 2.55  53 2.89  25 3.00  21 3.20
                            26 3.28  12 3.30  14 3.41
  10  0.592  0.419  0.541-  79 2.11  75 2.34  74 2.44  59 2.58  58 2.66  54 2.82  27 3.15  22 3.15
                            26 3.18  14 3.33  15 3.36   6 3.39
  11  0.584  0.669  0.543-  76 2.28  80 2.33  75 2.35  60 2.54  55 2.58  59 2.62  23 3.06  27 3.22
                            28 3.28  16 3.34   6 3.40
  12  0.583  0.924  0.546-  73 2.22  77 2.40  76 2.40  60 2.61  57 2.63  56 2.72  25 3.10  24 3.23
                             9 3.30  28 3.31   8 3.40
  13  0.840  0.167  0.547-  77 2.32  66 2.33  78 2.45  62 2.59  61 2.63  57 2.66  30 3.14  25 3.17
                            29 3.22   1 3.29
  14  0.830  0.413  0.548-  79 2.41  67 2.42  78 2.42  58 2.56  63 2.63  62 2.65  30 3.17  31 3.29
                            26 3.31  10 3.33   9 3.41
  15  0.833  0.666  0.543-  68 2.23  80 2.31  79 2.34  64 2.59  59 2.68  63 2.75  27 3.13  31 3.17
                            32 3.24  16 3.35  10 3.36   3 3.41
  16  0.830  0.908  0.542-  80 2.26  77 2.32  65 2.37  60 2.50  64 2.66  61 2.86  28 3.16  29 3.18
                            32 3.22   4 3.34  11 3.34  15 3.35   1 3.39
  17  0.167  0.079  0.452-  70 2.36  65 2.38  69 2.41  37 2.44  36 2.47  33 2.55   4 3.22   1 3.24
                            21 3.34   5 3.35  20 3.35  32 3.38
  18  0.179  0.343  0.454-  71 2.24  70 2.37  66 2.49  38 2.65  33 2.67  34 2.75   6 3.14   2 3.15
                             1 3.32  19 3.36  23 3.37  22 3.41
  19  0.166  0.579  0.456-  72 2.30  67 2.35  71 2.37  34 2.45  35 2.66  39 2.73   2 3.16   3 3.22
                             7 3.24  31 3.36  18 3.36
  20  0.161  0.834  0.454-  69 2.25  72 2.38  68 2.41  40 2.56  35 2.61  36 2.66   3 3.25   8 3.26
                            32 3.30   4 3.30  21 3.32  31 3.34  17 3.35
  21  0.404  0.072  0.459-  69 2.30  74 2.31  73 2.37  40 2.59  41 2.66  37 2.79   8 3.03   9 3.20
                             5 3.24  20 3.32  17 3.34  24 3.35
  22  0.419  0.329  0.456-  74 2.29  70 2.35  75 2.39  42 2.47  37 2.52  38 2.66   6 3.07  10 3.15
                             5 3.21  18 3.41  26 3.42
  23  0.423  0.587  0.457-  71 2.29  75 2.32  76 2.33  38 2.53  43 2.53  39 2.81  11 3.06   6 3.11
                             7 3.26  18 3.37
  24  0.417  0.836  0.455-  73 2.35  72 2.39  76 2.41  39 2.58  40 2.66  44 2.68   8 3.18  12 3.23
                             7 3.25  21 3.35
  25  0.668  0.091  0.460-  78 2.15  73 2.30  77 2.41  41 2.62  45 2.67  44 2.73   9 3.00  12 3.10
                            13 3.17  26 3.33  30 3.35
  26  0.669  0.332  0.451-  78 2.38  79 2.40  46 2.53  42 2.59  41 2.63  74 2.64  10 3.18   9 3.28
                            14 3.31  25 3.33  30 3.38  22 3.42
  27  0.673  0.586  0.454-  80 2.31  75 2.32  79 2.34  43 2.59  47 2.64  42 2.71  15 3.13  10 3.15
                            11 3.22  32 3.42
  28  0.671  0.843  0.452-  77 2.37  76 2.41  80 2.46  44 2.54  43 2.62  48 2.66  16 3.16  11 3.28
                            12 3.31  29 3.33
  29  0.917  0.080  0.455-  77 2.32  65 2.33  66 2.34  48 2.51  33 2.61  45 2.69   1 3.05  16 3.18
                            13 3.22  28 3.33
  30  0.913  0.331  0.459-  67 2.24  66 2.39  78 2.41  45 2.46  46 2.60  34 2.94  13 3.14  14 3.17
                             2 3.22  25 3.35  26 3.38  31 3.43
  31  0.926  0.586  0.457-  68 2.27  67 2.33  35 2.44  79 2.51  46 2.56  47 2.80   3 3.06  15 3.17
                            14 3.29  20 3.34  19 3.36  30 3.43
  32  0.922  0.833  0.451-  68 2.36  65 2.36  80 2.45  36 2.60  47 2.69  48 2.73  16 3.22  15 3.24
                             4 3.26  20 3.30  17 3.38  27 3.42
  33  0.085  0.165  0.395-  17 2.55  29 2.61  18 2.67
  34  0.100  0.440  0.391-  19 2.45  18 2.75  30 2.94
  35  0.073  0.661  0.396-  31 2.44  20 2.61  19 2.66
  36  0.088  0.928  0.391-  17 2.47  32 2.60  20 2.66
  37  0.323  0.171  0.396-  17 2.44  22 2.52  21 2.79
  38  0.354  0.433  0.395-  23 2.53  18 2.65  22 2.66
  39  0.336  0.679  0.391-  24 2.58  19 2.73  23 2.81
  40  0.325  0.917  0.394-  20 2.56  21 2.59  24 2.66
  41  0.571  0.154  0.396-  25 2.62  26 2.63  21 2.66
  42  0.570  0.405  0.395-  22 2.47  26 2.59  27 2.71
  43  0.581  0.665  0.396-  23 2.53  27 2.59  28 2.62
  44  0.589  0.924  0.393-  28 2.54  24 2.68  25 2.73
  45  0.838  0.182  0.398-  30 2.46  25 2.67  29 2.69
  46  0.840  0.422  0.397-  26 2.53  31 2.56  30 2.60
  47  0.833  0.664  0.388-  27 2.64  32 2.69  31 2.80
  48  0.842  0.933  0.390-  29 2.51  28 2.66  32 2.73
  49  0.160  0.079  0.607-   4 2.51   5 2.60   1 2.69
  50  0.168  0.334  0.606-   2 2.50   1 2.77   6 2.77
  51  0.157  0.576  0.608-   2 2.62   3 2.66   7 2.71
  52  0.161  0.836  0.606-   4 2.61   8 2.66   3 2.66
  53  0.395  0.064  0.609-   8 2.53   5 2.66   9 2.89
  54  0.417  0.336  0.609-   5 2.58   6 2.62  10 2.82
  55  0.416  0.577  0.601-   6 2.53   7 2.57  11 2.58
  56  0.406  0.825  0.607-   7 2.48   8 2.59  12 2.72
  57  0.666  0.094  0.606-   9 2.50  12 2.63  13 2.66
  58  0.661  0.323  0.605-   9 2.55  14 2.56  10 2.66
  59  0.659  0.578  0.604-  10 2.58  11 2.62  15 2.68
  60  0.670  0.833  0.600-  16 2.50  11 2.54  12 2.61
  61  0.924  0.088  0.610-   1 2.60  13 2.63  16 2.86
  62  0.918  0.329  0.609-  13 2.59  14 2.65   2 2.76
  63  0.915  0.580  0.610-  14 2.63   3 2.67  15 2.75
  64  0.919  0.828  0.605-   4 2.53  15 2.59  16 2.66
  65  0.000  0.997  0.499-   4 2.26   1 2.26  29 2.33  32 2.36  16 2.37  17 2.38
  66  0.002  0.245  0.500-   1 2.23  13 2.33  29 2.34   2 2.38  30 2.39  18 2.49
  67  0.998  0.492  0.500-  30 2.24  31 2.33  19 2.35   3 2.40  14 2.42   2 2.43
  68  0.992  0.745  0.501-  15 2.23  31 2.27   3 2.34  32 2.36  20 2.41   4 2.49
  69  0.238  0.986  0.501-  20 2.25   4 2.28  21 2.30   8 2.33  17 2.41   5 2.58
  70  0.249  0.245  0.498-   5 2.33  22 2.35  17 2.36  18 2.37   6 2.38   1 2.44
  71  0.257  0.499  0.498-  18 2.24  23 2.29   2 2.33   6 2.36  19 2.37   7 2.47
  72  0.244  0.745  0.498-  19 2.30   3 2.37  20 2.38  24 2.39   7 2.40   8 2.42
  73  0.502  0.998  0.502-  12 2.22  25 2.30   9 2.30  24 2.35   8 2.35  21 2.37
  74  0.483  0.237  0.503-   5 2.23  22 2.29  21 2.31   9 2.39  10 2.44  26 2.64
  75  0.509  0.503  0.498-   6 2.31  27 2.32  23 2.32  10 2.34  11 2.35  22 2.39
  76  0.505  0.753  0.500-  11 2.28  23 2.33  12 2.40  24 2.41  28 2.41   7 2.43
  77  0.756  0.003  0.502-  16 2.32  13 2.32  29 2.32  28 2.37  12 2.40  25 2.41
  78  0.738  0.241  0.502-  25 2.15   9 2.18  26 2.38  30 2.41  14 2.42  13 2.45
  79  0.743  0.495  0.502-  10 2.11  27 2.34  15 2.34  26 2.40  14 2.41  31 2.51
  80  0.750  0.748  0.499-  16 2.26  27 2.31  15 2.31  11 2.33  32 2.45  28 2.46
 
  LATTYP: Found a hexagonal cell.
 ALAT       =    13.7939866762
 C/A-ratio  =     2.0161119278
  
  Lattice vectors:
  
 A1 = (  13.7939866800,   0.0000000000,   0.0000000000)
 A2 = (  -6.8969933400,  11.9459428800,   0.0000000000)
 A3 = (   0.0000000000,   0.0000000000,  27.8102210700)


Analysis of symmetry for initial positions (statically):
=====================================================================
 Subroutine PRICEL returns:
 Original cell was already a primitive cell.
 

 Routine SETGRP: Setting up the symmetry group for a 
 hexagonal supercell.


 Subroutine GETGRP returns: Found  1 space group operations
 (whereof  1 operations were pure point group operations)
 out of a pool of 24 trial point group operations.


The static configuration has the point symmetry C_1 .


Analysis of symmetry for dynamics (positions and initial velocities):
=====================================================================
 Subroutine PRICEL returns:
 Original cell was already a primitive cell.
 

 Routine SETGRP: Setting up the symmetry group for a 
 hexagonal supercell.


 Subroutine GETGRP returns: Found  1 space group operations
 (whereof  1 operations were pure point group operations)
 out of a pool of 24 trial point group operations.


The dynamic configuration has the point symmetry C_1 .


 Subroutine INISYM returns: Found  1 space group operations
 (whereof  1 operations are pure point group operations),
 and found     1 'primitive' translations

 
 

Automatic generation of k-mesh.
 generate k-points for:    3    3    1
Space group operators:
 irot       det(A)        alpha          n_x          n_y          n_z        tau_x        tau_y        tau_z
    1     1.000000     0.000000     1.000000     0.000000     0.000000     0.000000     0.000000     0.000000
 
 Subroutine IBZKPT returns following result:
 ===========================================
 
 Found      5 irreducible k-points:
 
 Following reciprocal coordinates:
            Coordinates               Weight
  0.000000  0.000000  0.000000      1.000000
  0.333333 -0.000000  0.000000      2.000000
  0.000000  0.333333  0.000000      2.000000
  0.333333  0.333333  0.000000      2.000000
 -0.333333  0.333333  0.000000      2.000000
 
 Following cartesian coordinates:
            Coordinates               Weight
  0.000000  0.000000  0.000000      1.000000
  0.024165  0.013952  0.000000      2.000000
  0.000000  0.027903  0.000000      2.000000
  0.024165  0.041855  0.000000      2.000000
 -0.024165  0.013952  0.000000      2.000000
 


--------------------------------------------------------------------------------------------------------




 Dimension of arrays:
   k-points           NKPTS =      5   k-points in BZ     NKDIM =      5   number of bands    NBANDS=    384
   number of dos      NEDOS =    301   number of ions     NIONS =     80
   non local maximal  LDIM  =      6   non local SUM 2l+1 LMDIM =     18
   total plane-waves  NPLWV = ******
   max r-space proj   IRMAX =   9806   max aug-charges    IRDMAX= 216835
   dimension x,y,z NGX =   112 NGY =  112 NGZ =  224
   dimension x,y,z NGXF=   224 NGYF=  224 NGZF=  448
   support grid    NGXF=   448 NGYF=  448 NGZF=  896
   ions per type =              32  32  16
   NGX,Y,Z   is equivalent  to a cutoff of  13.50, 13.50, 13.39 a.u.
   NGXF,Y,Z  is equivalent  to a cutoff of  27.00, 27.00, 26.78 a.u.

 SYSTEM =  unknown system                          
 POSCAR =  Sc Cl  C                                

 Startparameter for this run:
   NWRITE =      2    write-flag & timer
   PREC   = anorma    normal or accurate (medium, high low for compatibility)
   ISTART =      0    job   : 0-new  1-cont  2-samecut
   ICHARG =      2    charge: 1-file 2-atom 10-const
   ISPIN  =      1    spin polarized calculation?
   LNONCOLLINEAR =      F non collinear calculations
   LSORBIT =      F    spin-orbit coupling
   INIWAV =      1    electr: 0-lowe 1-rand  2-diag
   LASPH  =      F    aspherical Exc in radial PAW
   METAGGA=      F    non-selfconsistent MetaGGA calc.

 Electronic Relaxation 1
   ENCUT  =  600.0 eV  44.10 Ry    6.64 a.u.  27.55 27.55 55.54*2*pi/ulx,y,z
   ENINI  =  600.0     initial cutoff
   ENAUG  =  644.9 eV  augmentation charge cutoff
   NELM   =     60;   NELMIN=  2; NELMDL= -5     # of ELM steps 
   EDIFF  = 0.1E-05   stopping-criterion for ELM
   LREAL  =      T    real-space projection
   NLSPLINE    = F    spline interpolate recip. space projectors
   LCOMPAT=      F    compatible to vasp.4.4
   GGA_COMPAT  = T    GGA compatible to vasp.4.4-vasp.4.6
   LMAXPAW     = -100 max onsite density
   LMAXMIX     =    2 max onsite mixed and CHGCAR
   VOSKOWN=      0    Vosko Wilk Nusair interpolation
   ROPT   =   -0.00025  -0.00025  -0.00025
 Ionic relaxation
   EDIFFG = -.1E-01   stopping-criterion for IOM
   NSW    =      1    number of steps for IOM
   NBLOCK =      1;   KBLOCK =      1    inner block; outer block 
   IBRION =     -1    ionic relax: 0-MD 1-quasi-New 2-CG
   NFREE  =      0    steps in history (QN), initial steepest desc. (CG)
   ISIF   =      2    stress and relaxation
   IWAVPR =     10    prediction:  0-non 1-charg 2-wave 3-comb
   ISYM   =      2    0-nonsym 1-usesym 2-fastsym
   LCORR  =      T    Harris-Foulkes like correction to forces

   POTIM  = 1.0000    time-step for ionic-motion
   TEIN   =    0.0    initial temperature
   TEBEG  =    0.0;   TEEND  =   0.0 temperature during run
   SMASS  =  -3.00    Nose mass-parameter (am)
   estimated Nose-frequenzy (Omega)   =  0.10E-29 period in steps =****** mass=  -0.435E-26a.u.
   SCALEE = 1.0000    scale energy and forces
   NPACO  =    256;   APACO  = 16.0  distance and # of slots for P.C.
   PSTRESS=    0.0 pullay stress

  Mass of Ions in am
   POMASS =  44.96 35.45 12.01
  Ionic Valenz
   ZVAL   =  11.00  7.00  4.00
  Atomic Wigner-Seitz radii
   RWIGS  =  -1.00 -1.00 -1.00
  virtual crystal weights 
   VCA    =   1.00  1.00  1.00
   NELECT =     640.0000    total number of electrons
   NUPDOWN=      -1.0000    fix difference up-down

 DOS related values:
   EMIN   =  10.00;   EMAX   =-10.00  energy-range for DOS
   EFERMI =   0.00
   ISMEAR =     0;   SIGMA  =   0.05  broadening in eV -4-tet -1-fermi 0-gaus

 Electronic relaxation 2 (details)
   IALGO  =     38    algorithm
   LDIAG  =      T    sub-space diagonalisation (order eigenvalues)
   LSUBROT=      F    optimize rotation matrix (better conditioning)
   TURBO    =      0    0=normal 1=particle mesh
   IRESTART =      0    0=no restart 2=restart with 2 vectors
   NREBOOT  =      0    no. of reboots
   NMIN     =      0    reboot dimension
   EREF     =   0.00    reference energy to select bands
   IMIX   =      4    mixing-type and parameters
     AMIX     =   0.40;   BMIX     =  1.00
     AMIX_MAG =   1.60;   BMIX_MAG =  1.00
     AMIN     =   0.10
     WC   =   100.;   INIMIX=   1;  MIXPRE=   1;  MAXMIX= -45

 Intra band minimization:
   WEIMIN = 0.0000     energy-eigenvalue tresh-hold
   EBREAK =  0.65E-09  absolut break condition
   DEPER  =   0.30     relativ break condition  

   TIME   =   0.40     timestep for ELM

  volume/ion in A,a.u.               =      57.28       386.56
  Fermi-wavevector in a.u.,A,eV,Ry     =   0.849369  1.605075  9.815628  0.721428
  Thomas-Fermi vector in A             =   1.965179
 
 Write flags
   LWAVE        =      F    write WAVECAR
   LDOWNSAMPLE  =      F    k-point downsampling of WAVECAR
   LCHARG       =      F    write CHGCAR
   LVTOT        =      F    write LOCPOT, total local potential
   LVHAR        =      F    write LOCPOT, Hartree potential only
   LELF         =      F    write electronic localiz. function (ELF)
   LORBIT       =      0    0 simple, 1 ext, 2 COOP (PROOUT), +10 PAW based schemes


 Dipole corrections
   LMONO  =      F    monopole corrections only (constant potential shift)
   LDIPOL =      F    correct potential (dipole corrections)
   IDIPOL =      0    1-x, 2-y, 3-z, 4-all directions 
   EPSILON=  1.0000000 bulk dielectric constant

 Exchange correlation treatment:
   GGA     =    --    GGA type
   LEXCH   =     8    internal setting for exchange type
   VOSKOWN=      0    Vosko Wilk Nusair interpolation
   LHFCALC =     F    Hartree Fock is set to
   LHFONE  =     F    Hartree Fock one center treatment
   AEXX    =    0.0000 exact exchange contribution

 Linear response parameters
   LEPSILON=     F    determine dielectric tensor
   LRPA    =     F    only Hartree local field effects (RPA)
   LNABLA  =     F    use nabla operator in PAW spheres
   LVEL    =     F    velocity operator in full k-point grid
   LINTERFAST=   F  fast interpolation
   KINTER  =     0    interpolate to denser k-point grid
   CSHIFT  =0.1000    complex shift for real part using Kramers Kronig
   OMEGAMAX=  -1.0    maximum frequency
   DEG_THRESHOLD= 0.2000000E-02 threshold for treating states as degnerate
   RTIME   =   -0.100 relaxation time in fs
  (WPLASMAI=    0.000 imaginary part of plasma frequency in eV, 0.658/RTIME)
   DFIELD  = 0.0000000 0.0000000 0.0000000 field for delta impulse in time
 
 Orbital magnetization related:
   ORBITALMAG=     F  switch on orbital magnetization
   LCHIMAG   =     F  perturbation theory with respect to B field
   DQ        =  0.001000  dq finite difference perturbation B field
   LLRAUG    =     F  two centre corrections for induced B field



--------------------------------------------------------------------------------------------------------


 Static calculation
 charge density and potential will be updated during run
 non-spin polarized calculation
 Variant of blocked Davidson
 Davidson routine will perform the subspace rotation
 perform sub-space diagonalisation
    after iterative eigenvector-optimisation
 modified Broyden-mixing scheme, WC =      100.0
 initial mixing is a Kerker type mixing with AMIX =  0.4000 and BMIX =      1.0000
 Hartree-type preconditioning will be used
 using additional bands           64
 real space projection scheme for non local part
 use partial core corrections
 calculate Harris-corrections to forces 
   (improved forces if not selfconsistent)
 use gradient corrections 
 use of overlap-Matrix (Vanderbilt PP)
 Gauss-broadening in eV      SIGMA  =   0.05


--------------------------------------------------------------------------------------------------------


  energy-cutoff  :      600.00
  volume of cell :     4582.63
      direct lattice vectors                 reciprocal lattice vectors
    13.793986680  0.000000000  0.000000000     0.072495358  0.041855214  0.000000000
    -6.896993340 11.945942880  0.000000000     0.000000000  0.083710429  0.000000000
     0.000000000  0.000000000 27.810221070     0.000000000  0.000000000  0.035958003

  length of vectors
    13.793986680 13.793986676 27.810221070     0.083710429  0.083710429  0.035958003


 
 k-points in units of 2pi/SCALE and weight: read from INCAR                         
   0.00000000  0.00000000  0.00000000       0.111
   0.02416512  0.01395174  0.00000000       0.222
   0.00000000  0.02790348  0.00000000       0.222
   0.02416512  0.04185521  0.00000000       0.222
  -0.02416512  0.01395174  0.00000000       0.222
 
 k-points in reciprocal lattice and weights: read from INCAR                         
   0.00000000  0.00000000  0.00000000       0.111
   0.33333333 -0.00000000  0.00000000       0.222
   0.00000000  0.33333333  0.00000000       0.222
   0.33333333  0.33333333  0.00000000       0.222
  -0.33333333  0.33333333  0.00000000       0.222
 
 position of ions in fractional coordinates (direct lattice) 
   0.07241303  0.15663142  0.54199095
   0.09458284  0.41479495  0.54473897
   0.07864646  0.66395790  0.54482758
   0.08016480  0.92440560  0.54649631
   0.33079720  0.17108114  0.54917014
   0.34485380  0.41646091  0.54138820
   0.33331144  0.67073157  0.54736351
   0.33239790  0.91437773  0.54479400
   0.58439261  0.16369080  0.54461487
   0.59234274  0.41923024  0.54122568
   0.58418711  0.66916373  0.54269472
   0.58338272  0.92427210  0.54584614
   0.83959028  0.16667526  0.54684261
   0.82966170  0.41277208  0.54844427
   0.83283031  0.66624096  0.54272106
   0.83023317  0.90769222  0.54229256
   0.16663264  0.07914340  0.45167445
   0.17935037  0.34250080  0.45367599
   0.16568010  0.57909642  0.45566059
   0.16143978  0.83352284  0.45357014
   0.40431678  0.07188621  0.45949528
   0.41941446  0.32855796  0.45585960
   0.42288967  0.58689996  0.45707304
   0.41682169  0.83559189  0.45455688
   0.66777783  0.09054655  0.46008988
   0.66892471  0.33175105  0.45141493
   0.67338371  0.58588791  0.45360071
   0.67146957  0.84283601  0.45154165
   0.91662076  0.07960203  0.45498570
   0.91312561  0.33139178  0.45901324
   0.92562520  0.58595008  0.45657624
   0.92204726  0.83329452  0.45109056
   0.08506535  0.16536439  0.39512401
   0.10011853  0.44007628  0.39078844
   0.07348317  0.66116337  0.39597072
   0.08804586  0.92808565  0.39093475
   0.32311930  0.17137846  0.39581352
   0.35355079  0.43301351  0.39474155
   0.33645184  0.67878009  0.39096651
   0.32535706  0.91723758  0.39427495
   0.57095425  0.15371205  0.39615623
   0.56989958  0.40469270  0.39511696
   0.58124960  0.66491004  0.39648322
   0.58949337  0.92386592  0.39295681
   0.83796954  0.18224436  0.39807381
   0.83976078  0.42165574  0.39741827
   0.83287597  0.66367744  0.38767790
   0.84200572  0.93264717  0.39029394
   0.16037511  0.07930195  0.60743235
   0.16781001  0.33428673  0.60576467
   0.15678267  0.57553870  0.60837520
   0.16124201  0.83592691  0.60576486
   0.39478965  0.06360963  0.60919461
   0.41694898  0.33627968  0.60895552
   0.41589315  0.57734851  0.60055808
   0.40570989  0.82548716  0.60655107
   0.66627659  0.09350397  0.60625269
   0.66087043  0.32338535  0.60518679
   0.65933928  0.57763925  0.60389525
   0.67019809  0.83344264  0.60037724
   0.92380934  0.08758902  0.61010694
   0.91817261  0.32924013  0.60860377
   0.91462130  0.57980476  0.61012905
   0.91889472  0.82757848  0.60478808
   0.00012402  0.99688675  0.49867169
   0.00204789  0.24488187  0.50021141
   0.99791804  0.49236040  0.50010022
   0.99248080  0.74480885  0.50119978
   0.23800228  0.98588939  0.50129338
   0.24927754  0.24451497  0.49826692
   0.25730544  0.49886531  0.49838397
   0.24396546  0.74472476  0.49751371
   0.50194903  0.99842465  0.50191398
   0.48320267  0.23659308  0.50314086
   0.50873849  0.50332725  0.49758578
   0.50515212  0.75329232  0.50046178
   0.75626700  0.00294034  0.50205916
   0.73803014  0.24094576  0.50230649
   0.74296144  0.49526378  0.50151043
   0.75016015  0.74758011  0.49890408
 
 position of ions in cartesian coordinates  (Angst):
  -0.08142141  1.87110996 15.07288803
  -1.55616355  4.95511677 15.14931123
  -3.49446500  7.93160317 15.15177543
  -5.26982703 11.04289651 15.19818329
   3.38306671  2.04372558 15.27254311
   1.88458061  4.97501821 15.05612552
  -0.02833765  8.01252108 15.22230022
  -1.72136492 10.92310409 15.15084169
   6.93212959  1.95544090 15.14586007
   5.27933973  5.00810051 15.05160570
   3.44305137  7.99379174 15.09246009
   1.67247485 11.04130177 15.18010185
  10.43173892  1.99109318 15.20781397
   8.59745619  4.93095164 15.25235628
   6.89299076  7.95887646 15.09319262
   5.19187808 10.84323947 15.08127594
   1.75267688  0.94544252 12.56116633
   0.11173084  4.09149501 12.61682964
  -1.70863506  6.91785275 12.67202164
  -3.52190331  9.95721623 12.61388595
   5.08134155  0.85874859 12.77866543
   3.51933539  3.92493462 12.67755634
   1.78548941  7.01107341 12.71130237
  -0.01343885  9.98193300 12.64132730
   8.58681953  1.08166392 12.79520140
   6.93905372  3.96307904 12.55394906
   5.24778088  6.99898347 12.61473607
   3.44920801 10.06847078 12.55747318
  12.09483991  0.95092131 12.65325301
  10.31003551  3.95878732 12.76525978
   8.72676786  6.99972619 12.69748625
   6.97148086  9.95448873 12.54492825
   0.03287315  1.97543354 10.98848605
  -1.65416954  5.25712614 10.86791279
  -3.54641347  7.89821989 11.01203324
  -5.18649717 11.08685816 10.87198194
   3.27510724  2.04727725 11.00766153
   1.89038358  5.17275471 10.97784983
  -0.04052957  8.10866821 10.87286494
  -1.83821058 10.95726775 10.96487353
   6.81558433  1.83623538 11.01719246
   5.07002429  4.83443590 10.98828994
   3.43186911  7.94297732 11.02628595
   1.75956663 11.03644947 10.92821581
  10.30200252  2.17708075 11.07052069
   8.67549211  5.03707543 11.05228983
   6.91130114  7.92825279 10.78140806
   5.18215435 11.14134983 10.85416086
   1.66526715  0.94733661 16.89282806
   0.00919564  3.99337017 16.84644940
  -1.80682846  6.87535245 16.91904883
  -3.54121221  9.98593509 16.84645454
   5.00700799  0.75987703 16.94183666
   3.43206996  4.01717787 16.93518763
   1.75485579  6.89697230 16.70165301
  -0.09702259  9.86122246 16.86831931
   8.54571422  1.11699307 16.86002133
   6.88565127  3.86314294 16.83037849
   5.11094311  6.90044551 16.79446053
   3.49645520  9.95625819 16.69662388
  12.13891287  1.04633343 16.96720889
  10.39449376  3.93308378 16.92540536
   8.61736451  6.92631451 16.96782389
   6.96741823  9.88620531 16.81929025
  -6.87381056 11.90875219 13.86816985
  -1.66070001  2.92534480 13.91099001
  10.36946166  5.88170926 13.90789776
   8.55332521  8.89744395 13.93847664
  -3.51667231 11.77737830 13.94107971
   1.75211298  2.92096186 13.85691322
   0.10859715  5.95941651 13.86016850
  -1.77110538  8.89643946 13.83596636
   0.03775002 11.92712388 13.95833878
   5.03351028  2.82632738 13.99245857
   3.54608731  6.01271859 13.83797062
   1.77260955  8.99878701 13.91795264
  10.41165746  0.03512512 13.96237616
   8.51857656  2.87832433 13.96925455
   6.83256922  5.91639277 13.94711598
   5.19164409  8.93054924 13.87463264
 


--------------------------------------------------------------------------------------------------------


 k-point  1 :   0.0000 0.0000 0.0000  plane waves:  153003
 k-point  2 :   0.3333-0.0000 0.0000  plane waves:  152954
 k-point  3 :   0.0000 0.3333 0.0000  plane waves:  152954
 k-point  4 :   0.3333 0.3333 0.0000  plane waves:  152898
 k-point  5 :  -0.3333 0.3333 0.0000  plane waves:  152954

 maximum and minimum number of plane-waves per node :     11814    11730

 maximum number of plane-waves:    153003
 maximum index in each direction: 
   IXMAX=   27   IYMAX=   27   IZMAX=   55
   IXMIN=  -27   IYMIN=  -27   IZMIN=  -55


 real space projection operators:
  total allocation   :      55011.88 KBytes
  max/ min on nodes  :       4449.52       3893.94


 parallel 3D FFT for wavefunctions:
    minimum data exchange during FFTs selected (reduces bandwidth)
 parallel 3D FFT for charge:
    minimum data exchange during FFTs selected (reduces bandwidth)


 total amount of memory used by VASP MPI-rank0   253934. kBytes
=======================================================================

   base      :      30000. kBytes
   nonlr-proj:      18750. kBytes
   fftplans  :      72602. kBytes
   grid      :      41267. kBytes
   one-center:        108. kBytes
   wavefun   :      91207. kBytes
 
     INWAV:  cpu time    0.0001: real time    0.0001
 Broyden mixing: mesh for mixing (old mesh)
   NGX = 55   NGY = 55   NGZ =111
  (NGX  =224   NGY  =224   NGZ  =448)
  gives a total of 335775 points

 initial charge density was supplied:
 charge density of overlapping atoms calculated
 number of electron     640.0000000 magnetization 
 keeping initial charge density in first step


--------------------------------------------------------------------------------------------------------


 Maximum index for non-local projection operator          952
 Maximum index for augmentation-charges         5146 (set IRDMAX)


--------------------------------------------------------------------------------------------------------


 First call to EWALD:  gamma=   0.107
 Maximum number of real-space cells 4x 4x 2
 Maximum number of reciprocal cells 2x 2x 4

    FEWALD:  cpu time    0.0027: real time    0.0028


--------------------------------------- Iteration      1(   1)  ---------------------------------------


    POTLOK:  cpu time    0.4138: real time    0.4202
    SETDIJ:  cpu time    0.4412: real time    0.4412
     EDDAV:  cpu time   50.7008: real time   50.7040
       DOS:  cpu time    0.0014: real time    0.0014
    --------------------------------------------
      LOOP:  cpu time   51.5572: real time   51.5668

 eigenvalue-minimisations  :  4440
 total energy-change (2. order) : 0.1222855E+05  (-0.2677208E+05)
 number of electron     640.0000000 magnetization 
 augmentation part      640.0000000 magnetization 

 Free energy of the ion-electron system (eV)
  ---------------------------------------------------
  alpha Z        PSCENC =       784.57699423
  Ewald energy   TEWEN  =    250961.65080958
  -Hartree energ DENC   =   -298641.40681664
  -exchange      EXHF   =         0.00000000
  -V(xc)+E(xc)   XCENC  =      2501.43797668
  PAW double counting   =     43679.68029659   -43417.33247688
  entropy T*S    EENTRO =        -0.06409891
  eigenvalues    EBANDS =       149.28398334
  atomic energy  EATOM  =     56210.72393729
  Solvation  Ediel_sol  =         0.00000000
  ---------------------------------------------------
  free energy    TOTEN  =     12228.55060527 eV

  energy without entropy =    12228.61470418  energy(sigma->0) =    12228.58265472


--------------------------------------------------------------------------------------------------------




--------------------------------------- Iteration      1(   2)  ---------------------------------------


     EDDAV:  cpu time   57.5005: real time   57.5399
       DOS:  cpu time    0.0012: real time    0.0012
    --------------------------------------------
      LOOP:  cpu time   57.5016: real time   57.5411

 eigenvalue-minimisations  :  5208
 total energy-change (2. order) :-0.1048682E+05  (-0.1022546E+05)
 number of electron     640.0000000 magnetization 
 augmentation part      640.0000000 magnetization 

 Free energy of the ion-electron system (eV)
  ---------------------------------------------------
  alpha Z        PSCENC =       784.57699423
  Ewald energy   TEWEN  =    250961.65080958
  -Hartree energ DENC   =   -298641.40681664
  -exchange      EXHF   =         0.00000000
  -V(xc)+E(xc)   XCENC  =      2501.43797668
  PAW double counting   =     43679.68029659   -43417.33247688
  entropy T*S    EENTRO =        -0.04480839
  eigenvalues    EBANDS =    -10337.55425751
  atomic energy  EATOM  =     56210.72393729
  Solvation  Ediel_sol  =         0.00000000
  ---------------------------------------------------
  free energy    TOTEN  =      1741.73165494 eV

  energy without entropy =     1741.77646333  energy(sigma->0) =     1741.75405913


--------------------------------------------------------------------------------------------------------




--------------------------------------- Iteration      1(   3)  ---------------------------------------


     EDDAV:  cpu time   71.7518: real time   71.7903
       DOS:  cpu time    0.0005: real time    0.0005
    --------------------------------------------
      LOOP:  cpu time   71.7523: real time   71.7909

 eigenvalue-minimisations  :  6800
 total energy-change (2. order) :-0.2147651E+04  (-0.2061664E+04)
 number of electron     640.0000000 magnetization 
 augmentation part      640.0000000 magnetization 

 Free energy of the ion-electron system (eV)
  ---------------------------------------------------
  alpha Z        PSCENC =       784.57699423
  Ewald energy   TEWEN  =    250961.65080958
  -Hartree energ DENC   =   -298641.40681664
  -exchange      EXHF   =         0.00000000
  -V(xc)+E(xc)   XCENC  =      2501.43797668
  PAW double counting   =     43679.68029659   -43417.33247688
  entropy T*S    EENTRO =        -0.00000000
  eigenvalues    EBANDS =    -12485.24982732
  atomic energy  EATOM  =     56210.72393729
  Solvation  Ediel_sol  =         0.00000000
  ---------------------------------------------------
  free energy    TOTEN  =      -405.91910648 eV

  energy without entropy =     -405.91910648  energy(sigma->0) =     -405.91910648


--------------------------------------------------------------------------------------------------------




--------------------------------------- Iteration      1(   4)  ---------------------------------------


     EDDAV:  cpu time   65.3858: real time   65.4253
       DOS:  cpu time    0.0005: real time    0.0005
    --------------------------------------------
      LOOP:  cpu time   65.3863: real time   65.4258

 eigenvalue-minimisations  :  6088
 total energy-change (2. order) :-0.2383685E+03  (-0.2337425E+03)
 number of electron     640.0000000 magnetization 
 augmentation part      640.0000000 magnetization 

 Free energy of the ion-electron system (eV)
  ---------------------------------------------------
  alpha Z        PSCENC =       784.57699423
  Ewald energy   TEWEN  =    250961.65080958
  -Hartree energ DENC   =   -298641.40681664
  -exchange      EXHF   =         0.00000000
  -V(xc)+E(xc)   XCENC  =      2501.43797668
  PAW double counting   =     43679.68029659   -43417.33247688
  entropy T*S    EENTRO =        -0.00000000
  eigenvalues    EBANDS =    -12723.61836061
  atomic energy  EATOM  =     56210.72393729
  Solvation  Ediel_sol  =         0.00000000
  ---------------------------------------------------
  free energy    TOTEN  =      -644.28763977 eV

  energy without entropy =     -644.28763977  energy(sigma->0) =     -644.28763977


--------------------------------------------------------------------------------------------------------




--------------------------------------- Iteration      1(   5)  ---------------------------------------


     EDDAV:  cpu time   65.3012: real time   65.3385
       DOS:  cpu time    0.0006: real time    0.0006
    CHARGE:  cpu time    3.9536: real time    3.9553
    MIXING:  cpu time    0.0118: real time    0.0119
    --------------------------------------------
      LOOP:  cpu time   69.2673: real time   69.3064

 eigenvalue-minimisations  :  6080
 total energy-change (2. order) :-0.1055242E+02  (-0.1049863E+02)
 number of electron     640.0000003 magnetization 
 augmentation part       59.0970401 magnetization 

 Broyden mixing:
  rms(total) = 0.68507E+01    rms(broyden)= 0.68505E+01
  rms(prec ) = 0.72170E+01
  weight for this iteration     100.00

 Free energy of the ion-electron system (eV)
  ---------------------------------------------------
  alpha Z        PSCENC =       784.57699423
  Ewald energy   TEWEN  =    250961.65080958
  -Hartree energ DENC   =   -298641.40681664
  -exchange      EXHF   =         0.00000000
  -V(xc)+E(xc)   XCENC  =      2501.43797668
  PAW double counting   =     43679.68029659   -43417.33247688
  entropy T*S    EENTRO =        -0.00000000
  eigenvalues    EBANDS =    -12734.17077604
  atomic energy  EATOM  =     56210.72393729
  Solvation  Ediel_sol  =         0.00000000
  ---------------------------------------------------
  free energy    TOTEN  =      -654.84005520 eV

  energy without entropy =     -654.84005520  energy(sigma->0) =     -654.84005520


--------------------------------------------------------------------------------------------------------




--------------------------------------- Iteration      1(   6)  ---------------------------------------


    POTLOK:  cpu time    0.3878: real time    0.3976
    SETDIJ:  cpu time    0.4369: real time    0.4369
     EDDAV:  cpu time   63.3185: real time   63.3476
       DOS:  cpu time    0.0007: real time    0.0007
    CHARGE:  cpu time    3.9671: real time    3.9688
    MIXING:  cpu time    0.0128: real time    0.0128
    --------------------------------------------
      LOOP:  cpu time   68.1237: real time   68.1644

 eigenvalue-minimisations  :  5832
 total energy-change (2. order) : 0.1300294E+03  (-0.7010221E+02)
 number of electron     640.0000004 magnetization 
 augmentation part       69.9853379 magnetization 

 Broyden mixing:
  rms(total) = 0.29771E+01    rms(broyden)= 0.29769E+01
  rms(prec ) = 0.30098E+01
  weight for this iteration     100.00

 eigenvalues of (default mixing * dielectric matrix)
  average eigenvalue GAMMA=   0.9460
  0.9460

 Free energy of the ion-electron system (eV)
  ---------------------------------------------------
  alpha Z        PSCENC =       784.57699423
  Ewald energy   TEWEN  =    250961.65080958
  -Hartree energ DENC   =   -298432.68308046
  -exchange      EXHF   =         0.00000000
  -V(xc)+E(xc)   XCENC  =      2490.87056204
  PAW double counting   =     48998.83339668   -48790.90656342
  entropy T*S    EENTRO =        -0.00000000
  eigenvalues    EBANDS =    -12747.87669707
  atomic energy  EATOM  =     56210.72393729
  Solvation  Ediel_sol  =         0.00000000
  ---------------------------------------------------
  free energy    TOTEN  =      -524.81064113 eV

  energy without entropy =     -524.81064112  energy(sigma->0) =     -524.81064113


--------------------------------------------------------------------------------------------------------




--------------------------------------- Iteration      1(   7)  ---------------------------------------


    POTLOK:  cpu time    0.3889: real time    0.3989
    SETDIJ:  cpu time    0.4371: real time    0.4371
     EDDAV:  cpu time   63.8882: real time   63.8917
       DOS:  cpu time    0.0005: real time    0.0005
    CHARGE:  cpu time    3.9521: real time    3.9522
    MIXING:  cpu time    0.0110: real time    0.0110
    --------------------------------------------
      LOOP:  cpu time   68.6779: real time   68.6915

 eigenvalue-minimisations  :  5896
 total energy-change (2. order) :-0.4488461E+01  (-0.8347655E+01)
 number of electron     640.0000004 magnetization 
 augmentation part       69.4564170 magnetization 

 Broyden mixing:
  rms(total) = 0.14992E+01    rms(broyden)= 0.14991E+01
  rms(prec ) = 0.15344E+01
  weight for this iteration     100.00

 eigenvalues of (default mixing * dielectric matrix)
  average eigenvalue GAMMA=   1.0073
  1.0073  1.0073

 Free energy of the ion-electron system (eV)
  ---------------------------------------------------
  alpha Z        PSCENC =       784.57699423
  Ewald energy   TEWEN  =    250961.65080958
  -Hartree energ DENC   =   -298525.13175947
  -exchange      EXHF   =         0.00000000
  -V(xc)+E(xc)   XCENC  =      2486.71343935
  PAW double counting   =     53828.95979109   -53635.27068005
  entropy T*S    EENTRO =        -0.00000000
  eigenvalues    EBANDS =    -12641.52163443
  atomic energy  EATOM  =     56210.72393729
  Solvation  Ediel_sol  =         0.00000000
  ---------------------------------------------------
  free energy    TOTEN  =      -529.29910242 eV

  energy without entropy =     -529.29910242  energy(sigma->0) =     -529.29910242


--------------------------------------------------------------------------------------------------------




--------------------------------------- Iteration      1(   8)  ---------------------------------------


    POTLOK:  cpu time    0.3890: real time    0.3987
    SETDIJ:  cpu time    0.4372: real time    0.4373
     EDDAV:  cpu time   64.5571: real time   64.5612
       DOS:  cpu time    0.0006: real time    0.0006
    CHARGE:  cpu time    3.9478: real time    3.9480
    MIXING:  cpu time    0.0114: real time    0.0114
    --------------------------------------------
      LOOP:  cpu time   69.3432: real time   69.3572

 eigenvalue-minimisations  :  5968
 total energy-change (2. order) : 0.2163284E+01  (-0.9362373E+00)
 number of electron     640.0000004 magnetization 
 augmentation part       69.2175471 magnetization 

 Broyden mixing:
  rms(total) = 0.89983E+00    rms(broyden)= 0.89983E+00
  rms(prec ) = 0.91574E+00
  weight for this iteration     100.00

 eigenvalues of (default mixing * dielectric matrix)
  average eigenvalue GAMMA=   1.4295
  2.5482  0.8701  0.8701

 Free energy of the ion-electron system (eV)
  ---------------------------------------------------
  alpha Z        PSCENC =       784.57699423
  Ewald energy   TEWEN  =    250961.65080958
  -Hartree energ DENC   =   -298591.25321329
  -exchange      EXHF   =         0.00000000
  -V(xc)+E(xc)   XCENC  =      2486.61870719
  PAW double counting   =     55750.68026966   -55567.81466584
  entropy T*S    EENTRO =        -0.00000000
  eigenvalues    EBANDS =    -12562.31865718
  atomic energy  EATOM  =     56210.72393729
  Solvation  Ediel_sol  =         0.00000000
  ---------------------------------------------------
  free energy    TOTEN  =      -527.13581835 eV

  energy without entropy =     -527.13581835  energy(sigma->0) =     -527.13581835


--------------------------------------------------------------------------------------------------------




--------------------------------------- Iteration      1(   9)  ---------------------------------------


    POTLOK:  cpu time    0.3880: real time    0.3980
    SETDIJ:  cpu time    0.4369: real time    0.4369
     EDDAV:  cpu time   58.9031: real time   58.9052
       DOS:  cpu time    0.0005: real time    0.0005
    CHARGE:  cpu time    3.9476: real time    3.9477
    MIXING:  cpu time    0.0114: real time    0.0114
    --------------------------------------------
      LOOP:  cpu time   63.6875: real time   63.6998

 eigenvalue-minimisations  :  5336
 total energy-change (2. order) : 0.5134299E+00  (-0.3405306E+00)
 number of electron     640.0000004 magnetization 
 augmentation part       69.9528791 magnetization 

 Broyden mixing:
  rms(total) = 0.29406E+00    rms(broyden)= 0.29404E+00
  rms(prec ) = 0.30614E+00
  weight for this iteration     100.00

 eigenvalues of (default mixing * dielectric matrix)
  average eigenvalue GAMMA=   1.2283
  2.0810  0.8731  0.8731  1.0861

 Free energy of the ion-electron system (eV)
  ---------------------------------------------------
  alpha Z        PSCENC =       784.57699423
  Ewald energy   TEWEN  =    250961.65080958
  -Hartree energ DENC   =   -298712.39317350
  -exchange      EXHF   =         0.00000000
  -V(xc)+E(xc)   XCENC  =      2485.96931031
  PAW double counting   =     59377.82010125   -59211.87557730
  entropy T*S    EENTRO =        -0.00000000
  eigenvalues    EBANDS =    -12423.09479027
  atomic energy  EATOM  =     56210.72393729
  Solvation  Ediel_sol  =         0.00000000
  ---------------------------------------------------
  free energy    TOTEN  =      -526.62238841 eV

  energy without entropy =     -526.62238841  energy(sigma->0) =     -526.62238841


--------------------------------------------------------------------------------------------------------




--------------------------------------- Iteration      1(  10)  ---------------------------------------


    POTLOK:  cpu time    0.3895: real time    0.3986
    SETDIJ:  cpu time    0.4365: real time    0.4365
     EDDAV:  cpu time   61.7839: real time   61.7857
       DOS:  cpu time    0.0005: real time    0.0005
    CHARGE:  cpu time    3.9630: real time    3.9631
    MIXING:  cpu time    0.0121: real time    0.0121
    --------------------------------------------
      LOOP:  cpu time   66.5855: real time   66.5966

 eigenvalue-minimisations  :  5656
 total energy-change (2. order) : 0.1157472E+00  (-0.5836970E-01)
 number of electron     640.0000004 magnetization 
 augmentation part       69.7343079 magnetization 

 Broyden mixing:
  rms(total) = 0.17060E+00    rms(broyden)= 0.17060E+00
  rms(prec ) = 0.17673E+00
  weight for this iteration     100.00

 eigenvalues of (default mixing * dielectric matrix)
  average eigenvalue GAMMA=   1.2477
  1.8947  1.8947  0.8996  0.8996  0.6500

 Free energy of the ion-electron system (eV)
  ---------------------------------------------------
  alpha Z        PSCENC =       784.57699423
  Ewald energy   TEWEN  =    250961.65080958
  -Hartree energ DENC   =   -298740.84133202
  -exchange      EXHF   =         0.00000000
  -V(xc)+E(xc)   XCENC  =      2486.66415645
  PAW double counting   =     58781.92638365   -58613.26263073
  entropy T*S    EENTRO =        -0.00000000
  eigenvalues    EBANDS =    -12397.94495971
  atomic energy  EATOM  =     56210.72393729
  Solvation  Ediel_sol  =         0.00000000
  ---------------------------------------------------
  free energy    TOTEN  =      -526.50664126 eV

  energy without entropy =     -526.50664126  energy(sigma->0) =     -526.50664126


--------------------------------------------------------------------------------------------------------




--------------------------------------- Iteration      1(  11)  ---------------------------------------


    POTLOK:  cpu time    0.3888: real time    0.3979
    SETDIJ:  cpu time    0.4373: real time    0.4373
     EDDAV:  cpu time   61.8496: real time   61.8523
       DOS:  cpu time    0.0005: real time    0.0005
    CHARGE:  cpu time    3.9578: real time    3.9580
    MIXING:  cpu time    0.0125: real time    0.0125
    --------------------------------------------
      LOOP:  cpu time   66.6465: real time   66.6586

 eigenvalue-minimisations  :  5664
 total energy-change (2. order) : 0.1842799E-01  (-0.1793539E-01)
 number of electron     640.0000004 magnetization 
 augmentation part       69.6646420 magnetization 

 Broyden mixing:
  rms(total) = 0.74971E-01    rms(broyden)= 0.74970E-01
  rms(prec ) = 0.80667E-01
  weight for this iteration     100.00

 eigenvalues of (default mixing * dielectric matrix)
  average eigenvalue GAMMA=   1.2709
  2.4896  1.7075  0.8868  0.8868  0.8898  0.7648

 Free energy of the ion-electron system (eV)
  ---------------------------------------------------
  alpha Z        PSCENC =       784.57699423
  Ewald energy   TEWEN  =    250961.65080958
  -Hartree energ DENC   =   -298791.84380383
  -exchange      EXHF   =         0.00000000
  -V(xc)+E(xc)   XCENC  =      2487.28071435
  PAW double counting   =     58925.99853281   -58757.62760550
  entropy T*S    EENTRO =        -0.00000000
  eigenvalues    EBANDS =    -12347.24779220
  atomic energy  EATOM  =     56210.72393729
  Solvation  Ediel_sol  =         0.00000000
  ---------------------------------------------------
  free energy    TOTEN  =      -526.48821327 eV

  energy without entropy =     -526.48821327  energy(sigma->0) =     -526.48821327


--------------------------------------------------------------------------------------------------------




--------------------------------------- Iteration      1(  12)  ---------------------------------------


    POTLOK:  cpu time    0.3892: real time    0.4003
    SETDIJ:  cpu time    0.4364: real time    0.4364
     EDDAV:  cpu time   66.2111: real time   66.2144
       DOS:  cpu time    0.0005: real time    0.0005
    CHARGE:  cpu time    3.9626: real time    3.9627
    MIXING:  cpu time    0.0128: real time    0.0128
    --------------------------------------------
      LOOP:  cpu time   71.0125: real time   71.0272

 eigenvalue-minimisations  :  6152
 total energy-change (2. order) : 0.1305566E-01  (-0.3102034E-02)
 number of electron     640.0000004 magnetization 
 augmentation part       69.6843560 magnetization 

 Broyden mixing:
  rms(total) = 0.28587E-01    rms(broyden)= 0.28587E-01
  rms(prec ) = 0.35296E-01
  weight for this iteration     100.00

 eigenvalues of (default mixing * dielectric matrix)
  average eigenvalue GAMMA=   1.2768
  2.2238  2.2238  0.9289  0.9289  0.9683  0.9683  0.6953

 Free energy of the ion-electron system (eV)
  ---------------------------------------------------
  alpha Z        PSCENC =       784.57699423
  Ewald energy   TEWEN  =    250961.65080958
  -Hartree energ DENC   =   -298821.55409659
  -exchange      EXHF   =         0.00000000
  -V(xc)+E(xc)   XCENC  =      2487.59140293
  PAW double counting   =     59053.35287072   -58885.39780448
  entropy T*S    EENTRO =        -0.00000000
  eigenvalues    EBANDS =    -12317.41927129
  atomic energy  EATOM  =     56210.72393729
  Solvation  Ediel_sol  =         0.00000000
  ---------------------------------------------------
  free energy    TOTEN  =      -526.47515761 eV

  energy without entropy =     -526.47515761  energy(sigma->0) =     -526.47515761


--------------------------------------------------------------------------------------------------------




--------------------------------------- Iteration      1(  13)  ---------------------------------------


    POTLOK:  cpu time    0.3885: real time    0.3978
    SETDIJ:  cpu time    0.4366: real time    0.4366
     EDDAV:  cpu time   59.2687: real time   59.2712
       DOS:  cpu time    0.0005: real time    0.0005
    CHARGE:  cpu time    3.9512: real time    3.9513
    MIXING:  cpu time    0.0133: real time    0.0133
    --------------------------------------------
      LOOP:  cpu time   64.0588: real time   64.0707

 eigenvalue-minimisations  :  5376
 total energy-change (2. order) : 0.2793071E-02  (-0.8953489E-03)
 number of electron     640.0000004 magnetization 
 augmentation part       69.6920224 magnetization 

 Broyden mixing:
  rms(total) = 0.16986E-01    rms(broyden)= 0.16986E-01
  rms(prec ) = 0.23446E-01
  weight for this iteration     100.00

 eigenvalues of (default mixing * dielectric matrix)
  average eigenvalue GAMMA=   1.3309
  2.8179  1.8887  1.7088  0.8964  0.8964  0.8869  0.8869  0.6649

 Free energy of the ion-electron system (eV)
  ---------------------------------------------------
  alpha Z        PSCENC =       784.57699423
  Ewald energy   TEWEN  =    250961.65080958
  -Hartree energ DENC   =   -298842.88169617
  -exchange      EXHF   =         0.00000000
  -V(xc)+E(xc)   XCENC  =      2487.78010962
  PAW double counting   =     59018.18517914   -58850.06245917
  entropy T*S    EENTRO =        -0.00000000
  eigenvalues    EBANDS =    -12296.44523906
  atomic energy  EATOM  =     56210.72393729
  Solvation  Ediel_sol  =         0.00000000
  ---------------------------------------------------
  free energy    TOTEN  =      -526.47236454 eV

  energy without entropy =     -526.47236454  energy(sigma->0) =     -526.47236454


--------------------------------------------------------------------------------------------------------




--------------------------------------- Iteration      1(  14)  ---------------------------------------


    POTLOK:  cpu time    0.3867: real time    0.3980
    SETDIJ:  cpu time    0.4371: real time    0.4371
     EDDAV:  cpu time   59.2833: real time   59.2863
       DOS:  cpu time    0.0005: real time    0.0005
    CHARGE:  cpu time    3.9583: real time    3.9584
    MIXING:  cpu time    0.0134: real time    0.0134
    --------------------------------------------
      LOOP:  cpu time   64.0793: real time   64.0938

 eigenvalue-minimisations  :  5376
 total energy-change (2. order) : 0.1564326E-02  (-0.5955118E-03)
 number of electron     640.0000004 magnetization 
 augmentation part       69.7009425 magnetization 

 Broyden mixing:
  rms(total) = 0.16842E-01    rms(broyden)= 0.16842E-01
  rms(prec ) = 0.20150E-01
  weight for this iteration     100.00

 eigenvalues of (default mixing * dielectric matrix)
  average eigenvalue GAMMA=   1.3375
  2.6109  2.6109  1.7180  0.9528  0.9528  0.9011  0.9011  0.6951  0.6951

 Free energy of the ion-electron system (eV)
  ---------------------------------------------------
  alpha Z        PSCENC =       784.57699423
  Ewald energy   TEWEN  =    250961.65080958
  -Hartree energ DENC   =   -298868.48723372
  -exchange      EXHF   =         0.00000000
  -V(xc)+E(xc)   XCENC  =      2487.94410534
  PAW double counting   =     59025.21909188   -58857.11773747
  entropy T*S    EENTRO =        -0.00000000
  eigenvalues    EBANDS =    -12270.98076733
  atomic energy  EATOM  =     56210.72393729
  Solvation  Ediel_sol  =         0.00000000
  ---------------------------------------------------
  free energy    TOTEN  =      -526.47080021 eV

  energy without entropy =     -526.47080021  energy(sigma->0) =     -526.47080021


--------------------------------------------------------------------------------------------------------




--------------------------------------- Iteration      1(  15)  ---------------------------------------


    POTLOK:  cpu time    0.3892: real time    0.3997
    SETDIJ:  cpu time    0.4372: real time    0.4372
     EDDAV:  cpu time   60.0881: real time   60.0903
       DOS:  cpu time    0.0005: real time    0.0005
    CHARGE:  cpu time    3.9571: real time    3.9573
    MIXING:  cpu time    0.0132: real time    0.0132
    --------------------------------------------
      LOOP:  cpu time   64.8854: real time   64.8982

 eigenvalue-minimisations  :  5464
 total energy-change (2. order) :-0.1529585E-02  (-0.2136198E-03)
 number of electron     640.0000004 magnetization 
 augmentation part       69.7016242 magnetization 

 Broyden mixing:
  rms(total) = 0.10395E-01    rms(broyden)= 0.10395E-01
  rms(prec ) = 0.13110E-01
  weight for this iteration     100.00

 eigenvalues of (default mixing * dielectric matrix)
  average eigenvalue GAMMA=   1.3460
  2.9186  2.6959  1.3614  1.3614  0.9520  0.9520  0.8587  0.8587  0.8635  0.6381

 Free energy of the ion-electron system (eV)
  ---------------------------------------------------
  alpha Z        PSCENC =       784.57699423
  Ewald energy   TEWEN  =    250961.65080958
  -Hartree energ DENC   =   -298883.88949538
  -exchange      EXHF   =         0.00000000
  -V(xc)+E(xc)   XCENC  =      2488.01371238
  PAW double counting   =     58993.06058434   -58824.84146007
  entropy T*S    EENTRO =        -0.00000000
  eigenvalues    EBANDS =    -12255.76741216
  atomic energy  EATOM  =     56210.72393729
  Solvation  Ediel_sol  =         0.00000000
  ---------------------------------------------------
  free energy    TOTEN  =      -526.47232980 eV

  energy without entropy =     -526.47232980  energy(sigma->0) =     -526.47232980


--------------------------------------------------------------------------------------------------------




--------------------------------------- Iteration      1(  16)  ---------------------------------------


    POTLOK:  cpu time    0.3947: real time    0.4054
    SETDIJ:  cpu time    0.4362: real time    0.4362
     EDDAV:  cpu time   65.2252: real time   65.2289
       DOS:  cpu time    0.0006: real time    0.0006
    CHARGE:  cpu time    3.9589: real time    3.9590
    MIXING:  cpu time    0.0143: real time    0.0143
    --------------------------------------------
      LOOP:  cpu time   70.0299: real time   70.0444

 eigenvalue-minimisations  :  6040
 total energy-change (2. order) :-0.1951226E-02  (-0.9792281E-04)
 number of electron     640.0000004 magnetization 
 augmentation part       69.6998579 magnetization 

 Broyden mixing:
  rms(total) = 0.60002E-02    rms(broyden)= 0.60001E-02
  rms(prec ) = 0.81480E-02
  weight for this iteration     100.00

 eigenvalues of (default mixing * dielectric matrix)
  average eigenvalue GAMMA=   1.4067
  3.4718  2.5207  2.0501  1.3758  0.9925  0.9710  0.9710  0.8800  0.8800  0.7132
  0.6480

 Free energy of the ion-electron system (eV)
  ---------------------------------------------------
  alpha Z        PSCENC =       784.57699423
  Ewald energy   TEWEN  =    250961.65080958
  -Hartree energ DENC   =   -298895.58597485
  -exchange      EXHF   =         0.00000000
  -V(xc)+E(xc)   XCENC  =      2488.06791018
  PAW double counting   =     58981.01488723   -58812.78170600
  entropy T*S    EENTRO =        -0.00000000
  eigenvalues    EBANDS =    -12244.14113869
  atomic energy  EATOM  =     56210.72393729
  Solvation  Ediel_sol  =         0.00000000
  ---------------------------------------------------
  free energy    TOTEN  =      -526.47428102 eV

  energy without entropy =     -526.47428102  energy(sigma->0) =     -526.47428102


--------------------------------------------------------------------------------------------------------




--------------------------------------- Iteration      1(  17)  ---------------------------------------


    POTLOK:  cpu time    0.3978: real time    0.4082
    SETDIJ:  cpu time    0.4369: real time    0.4370
     EDDAV:  cpu time   57.3275: real time   57.3302
       DOS:  cpu time    0.0006: real time    0.0006
    CHARGE:  cpu time    3.9514: real time    3.9516
    MIXING:  cpu time    0.0146: real time    0.0146
    --------------------------------------------
      LOOP:  cpu time   62.1288: real time   62.1421

 eigenvalue-minimisations  :  5152
 total energy-change (2. order) :-0.3453277E-02  (-0.7485282E-04)
 number of electron     640.0000004 magnetization 
 augmentation part       69.6999455 magnetization 

 Broyden mixing:
  rms(total) = 0.33549E-02    rms(broyden)= 0.33548E-02
  rms(prec ) = 0.47081E-02
  weight for this iteration     100.00

 eigenvalues of (default mixing * dielectric matrix)
  average eigenvalue GAMMA=   1.4739
  4.3362  2.7473  2.3388  1.3862  1.0309  0.9424  0.9424  0.8908  0.8908  0.7727
  0.7727  0.6353

 Free energy of the ion-electron system (eV)
  ---------------------------------------------------
  alpha Z        PSCENC =       784.57699423
  Ewald energy   TEWEN  =    250961.65080958
  -Hartree energ DENC   =   -298908.49978241
  -exchange      EXHF   =         0.00000000
  -V(xc)+E(xc)   XCENC  =      2488.10752533
  PAW double counting   =     58977.84993257   -58809.66034876
  entropy T*S    EENTRO =        -0.00000000
  eigenvalues    EBANDS =    -12231.22680212
  atomic energy  EATOM  =     56210.72393729
  Solvation  Ediel_sol  =         0.00000000
  ---------------------------------------------------
  free energy    TOTEN  =      -526.47773430 eV

  energy without entropy =     -526.47773430  energy(sigma->0) =     -526.47773430


--------------------------------------------------------------------------------------------------------




--------------------------------------- Iteration      1(  18)  ---------------------------------------


    POTLOK:  cpu time    0.3936: real time    0.4038
    SETDIJ:  cpu time    0.4372: real time    0.4373
     EDDAV:  cpu time   55.7323: real time   55.7358
       DOS:  cpu time    0.0007: real time    0.0007
    CHARGE:  cpu time    3.9595: real time    3.9597
    MIXING:  cpu time    0.0146: real time    0.0146
    --------------------------------------------
      LOOP:  cpu time   60.5379: real time   60.5519

 eigenvalue-minimisations  :  4976
 total energy-change (2. order) :-0.2102863E-02  (-0.2819347E-04)
 number of electron     640.0000004 magnetization 
 augmentation part       69.7006364 magnetization 

 Broyden mixing:
  rms(total) = 0.22796E-02    rms(broyden)= 0.22796E-02
  rms(prec ) = 0.29974E-02
  weight for this iteration     100.00

 eigenvalues of (default mixing * dielectric matrix)
  average eigenvalue GAMMA=   1.4870
  4.7168  2.7499  2.2930  1.5738  1.0640  1.0640  0.9476  0.9476  0.9030  0.9030
  0.8502  0.6840  0.6343

 Free energy of the ion-electron system (eV)
  ---------------------------------------------------
  alpha Z        PSCENC =       784.57699423
  Ewald energy   TEWEN  =    250961.65080958
  -Hartree energ DENC   =   -298916.63721061
  -exchange      EXHF   =         0.00000000
  -V(xc)+E(xc)   XCENC  =      2488.12926563
  PAW double counting   =     58973.91957701   -58805.74331230
  entropy T*S    EENTRO =        -0.00000000
  eigenvalues    EBANDS =    -12223.09989799
  atomic energy  EATOM  =     56210.72393729
  Solvation  Ediel_sol  =         0.00000000
  ---------------------------------------------------
  free energy    TOTEN  =      -526.47983716 eV

  energy without entropy =     -526.47983716  energy(sigma->0) =     -526.47983716


--------------------------------------------------------------------------------------------------------




--------------------------------------- Iteration      1(  19)  ---------------------------------------


    POTLOK:  cpu time    0.3953: real time    0.4045
    SETDIJ:  cpu time    0.4368: real time    0.4368
     EDDAV:  cpu time   55.7847: real time   55.7868
       DOS:  cpu time    0.0005: real time    0.0005
    CHARGE:  cpu time    3.9528: real time    3.9530
    MIXING:  cpu time    0.0141: real time    0.0141
    --------------------------------------------
      LOOP:  cpu time   60.5843: real time   60.5958

 eigenvalue-minimisations  :  4976
 total energy-change (2. order) :-0.9864563E-03  (-0.1035228E-04)
 number of electron     640.0000004 magnetization 
 augmentation part       69.7002967 magnetization 

 Broyden mixing:
  rms(total) = 0.15067E-02    rms(broyden)= 0.15066E-02
  rms(prec ) = 0.20704E-02
  weight for this iteration     100.00

 eigenvalues of (default mixing * dielectric matrix)
  average eigenvalue GAMMA=   1.5512
  5.3895  2.9244  2.1454  2.1454  1.1839  1.1839  0.9826  0.9826  0.8911  0.8911
  0.8416  0.8416  0.6894  0.6246

 Free energy of the ion-electron system (eV)
  ---------------------------------------------------
  alpha Z        PSCENC =       784.57699423
  Ewald energy   TEWEN  =    250961.65080958
  -Hartree energ DENC   =   -298919.73091257
  -exchange      EXHF   =         0.00000000
  -V(xc)+E(xc)   XCENC  =      2488.13920514
  PAW double counting   =     58973.82996723   -58805.65302446
  entropy T*S    EENTRO =        -0.00000000
  eigenvalues    EBANDS =    -12220.01780006
  atomic energy  EATOM  =     56210.72393729
  Solvation  Ediel_sol  =         0.00000000
  ---------------------------------------------------
  free energy    TOTEN  =      -526.48082362 eV

  energy without entropy =     -526.48082362  energy(sigma->0) =     -526.48082362


--------------------------------------------------------------------------------------------------------




--------------------------------------- Iteration      1(  20)  ---------------------------------------


    POTLOK:  cpu time    0.3953: real time    0.4042
    SETDIJ:  cpu time    0.4365: real time    0.4365
     EDDAV:  cpu time   51.4724: real time   51.4744
       DOS:  cpu time    0.0006: real time    0.0005
    CHARGE:  cpu time    3.9632: real time    3.9633
    MIXING:  cpu time    0.0149: real time    0.0149
    --------------------------------------------
      LOOP:  cpu time   56.2829: real time   56.2939

 eigenvalue-minimisations  :  4496
 total energy-change (2. order) :-0.1124061E-02  (-0.3010947E-05)
 number of electron     640.0000004 magnetization 
 augmentation part       69.7001063 magnetization 

 Broyden mixing:
  rms(total) = 0.10929E-02    rms(broyden)= 0.10928E-02
  rms(prec ) = 0.13966E-02
  weight for this iteration     100.00

 eigenvalues of (default mixing * dielectric matrix)
  average eigenvalue GAMMA=   1.5836
  6.0397  3.0740  2.4070  2.1337  1.2766  1.0254  1.0254  0.9981  0.9981  0.8820
  0.8820  0.9673  0.7355  0.6902  0.6195

 Free energy of the ion-electron system (eV)
  ---------------------------------------------------
  alpha Z        PSCENC =       784.57699423
  Ewald energy   TEWEN  =    250961.65080958
  -Hartree energ DENC   =   -298922.56941890
  -exchange      EXHF   =         0.00000000
  -V(xc)+E(xc)   XCENC  =      2488.14345073
  PAW double counting   =     58973.94995914   -58805.77343205
  entropy T*S    EENTRO =        -0.00000000
  eigenvalues    EBANDS =    -12217.18424769
  atomic energy  EATOM  =     56210.72393729
  Solvation  Ediel_sol  =         0.00000000
  ---------------------------------------------------
  free energy    TOTEN  =      -526.48194768 eV

  energy without entropy =     -526.48194768  energy(sigma->0) =     -526.48194768


--------------------------------------------------------------------------------------------------------




--------------------------------------- Iteration      1(  21)  ---------------------------------------


    POTLOK:  cpu time    0.3972: real time    0.4045
    SETDIJ:  cpu time    0.4366: real time    0.4366
     EDDAV:  cpu time   46.3405: real time   46.3462
       DOS:  cpu time    0.0006: real time    0.0006
    CHARGE:  cpu time    3.9507: real time    3.9509
    MIXING:  cpu time    0.0148: real time    0.0148
    --------------------------------------------
      LOOP:  cpu time   51.1404: real time   51.1535

 eigenvalue-minimisations  :  3928
 total energy-change (2. order) :-0.5237158E-03  (-0.1281693E-05)
 number of electron     640.0000004 magnetization 
 augmentation part       69.7002320 magnetization 

 Broyden mixing:
  rms(total) = 0.74559E-03    rms(broyden)= 0.74545E-03
  rms(prec ) = 0.96510E-03
  weight for this iteration     100.00

 eigenvalues of (default mixing * dielectric matrix)
  average eigenvalue GAMMA=   1.5876
  6.4125  2.9966  2.4836  1.7146  1.7146  1.2336  1.2336  1.0060  1.0060  0.8890
  0.8890  0.8759  0.8259  0.8259  0.6743  0.6206

 Free energy of the ion-electron system (eV)
  ---------------------------------------------------
  alpha Z        PSCENC =       784.57699423
  Ewald energy   TEWEN  =    250961.65080958
  -Hartree energ DENC   =   -298923.82016735
  -exchange      EXHF   =         0.00000000
  -V(xc)+E(xc)   XCENC  =      2488.14334886
  PAW double counting   =     58974.79176451   -58806.61706353
[...]
    -6.896993340 11.945942880  0.000000000     0.000000000  0.083710429  0.000000000
     0.000000000  0.000000000 27.810221070     0.000000000  0.000000000  0.035958003

  length of vectors
    13.793986680 13.793986676 27.810221070     0.083710429  0.083710429  0.035958003


 FORCES acting on ions
    electron-ion (+dipol)            ewald-force                    non-local-force                 convergence-correction
 -----------------------------------------------------------------------------------------------
   -.230E+02 -.447E+02 -.102E+04   0.233E+02 0.458E+02 0.101E+04   0.685E+00 -.745E-01 0.448E+01   0.153E-04 0.358E-04 0.200E-04
   0.180E+02 -.113E+02 -.105E+04   -.180E+02 0.107E+02 0.105E+04   -.674E+00 0.361E+00 0.358E+01   0.183E-04 -.807E-05 0.750E-05
   -.207E+02 0.656E+01 -.108E+04   0.210E+02 -.619E+01 0.108E+04   0.719E-01 -.734E-01 0.411E+01   0.386E-05 0.331E-04 -.236E-04
   -.163E+02 0.252E+02 -.109E+04   0.174E+02 -.258E+02 0.109E+04   -.240E+00 -.356E+00 0.374E+01   0.270E-04 -.257E-04 0.204E-04
   -.515E+01 0.437E+01 -.117E+04   0.573E+01 -.376E+01 0.116E+04   -.318E+00 -.961E+00 0.403E+01   -.325E-05 -.117E-04 -.169E-04
   0.258E+02 0.192E+02 -.102E+04   -.263E+02 -.193E+02 0.101E+04   -.203E+00 -.169E+00 0.414E+01   -.179E-04 0.108E-04 0.236E-04
   0.759E+01 0.152E+02 -.111E+04   -.724E+01 -.154E+02 0.110E+04   -.175E+00 -.305E+00 0.385E+01   0.939E-05 -.899E-05 -.369E-05
   -.344E+01 0.249E+02 -.106E+04   0.204E+01 -.249E+02 0.106E+04   0.495E+00 -.351E+00 0.358E+01   -.350E-04 -.328E-05 -.783E-05
   0.625E+02 -.860E+01 -.108E+04   -.634E+02 0.898E+01 0.107E+04   -.528E+00 -.217E+00 0.439E+01   -.385E-04 -.327E-05 0.463E-04
   0.153E+02 0.353E+02 -.102E+04   -.163E+02 -.350E+02 0.101E+04   -.193E+00 -.952E+00 0.439E+01   -.212E-04 -.648E-05 0.219E-04
   0.439E+01 -.100E+02 -.104E+04   -.410E+01 0.987E+01 0.104E+04   0.941E-01 -.269E-01 0.432E+01   -.173E-04 -.169E-04 0.384E-04
   -.189E+02 0.365E+02 -.111E+04   0.196E+02 -.373E+02 0.111E+04   0.913E-01 -.768E-01 0.494E+01   0.175E-04 -.876E-05 0.216E-04
   -.192E+01 -.221E+01 -.111E+04   0.276E+01 0.161E+01 0.111E+04   -.740E+00 0.366E+00 0.381E+01   0.174E-04 -.990E-05 0.195E-04
   -.204E+02 -.176E+02 -.113E+04   0.205E+02 0.177E+02 0.113E+04   0.140E+00 0.106E+00 0.353E+01   -.206E-05 0.101E-04 0.108E-04
   -.259E+01 0.177E+02 -.105E+04   0.254E+01 -.174E+02 0.104E+04   -.618E-01 -.437E+00 0.448E+01   0.975E-05 0.126E-04 0.244E-04
   0.109E+02 -.141E+02 -.104E+04   -.112E+02 0.141E+02 0.103E+04   0.431E+00 0.527E+00 0.467E+01   -.141E-04 0.151E-06 0.442E-04
   0.291E+01 -.210E+02 0.109E+04   -.332E+01 0.222E+02 -.109E+04   -.225E-01 -.502E+00 -.351E+01   0.335E-04 0.268E-04 -.253E-04
   0.432E+02 0.235E+02 0.112E+04   -.426E+02 -.240E+02 -.112E+04   -.670E+00 -.347E+00 -.468E+01   0.118E-04 -.138E-04 -.293E-04
   -.198E+02 -.946E+01 0.103E+04   0.204E+02 0.992E+01 -.103E+04   -.237E+00 0.191E+00 -.360E+01   -.111E-05 0.178E-04 -.340E-04
   -.129E+02 0.295E+02 0.109E+04   0.140E+02 -.296E+02 -.108E+04   -.615E+00 -.185E+00 -.464E+01   0.103E-04 -.563E-05 0.254E-05
   -.163E+02 -.301E+02 0.991E+03   0.162E+02 0.312E+02 -.987E+03   0.110E+00 -.496E-01 -.478E+01   -.313E-04 0.106E-05 -.213E-04
   -.293E+01 0.129E+01 0.104E+04   0.248E+01 -.189E+01 -.104E+04   -.838E-01 0.438E+00 -.403E+01   -.335E-05 -.203E-04 -.150E-04
   0.414E+02 -.343E+02 0.103E+04   -.412E+02 0.341E+02 -.103E+04   -.367E+00 0.515E+00 -.414E+01   0.550E-05 -.131E-04 -.289E-04
   -.152E+02 0.137E+02 0.108E+04   0.156E+02 -.151E+02 -.108E+04   -.197E+00 0.766E+00 -.400E+01   -.228E-04 -.238E-04 -.140E-04
   -.207E+02 0.285E+02 0.101E+04   0.208E+02 -.289E+02 -.101E+04   0.335E+00 -.464E+00 -.470E+01   0.158E-04 -.128E-04 -.458E-04
   0.809E+01 0.460E+01 0.115E+04   -.828E+01 -.455E+01 -.115E+04   -.178E+00 -.222E+00 -.372E+01   -.307E-04 0.445E-05 -.349E-04
   -.203E+02 -.217E+01 0.113E+04   0.191E+02 0.233E+01 -.113E+04   0.705E+00 -.345E+00 -.496E+01   -.172E-04 -.180E-04 -.274E-04
   0.461E+01 0.800E+01 0.114E+04   -.529E+01 -.850E+01 -.114E+04   0.482E+00 -.654E-01 -.408E+01   -.126E-04 -.674E-05 0.182E-05
   0.272E+02 -.330E+02 0.109E+04   -.271E+02 0.337E+02 -.108E+04   -.302E+00 0.706E-01 -.444E+01   -.675E-05 0.402E-04 -.320E-04
   -.377E+02 -.910E+01 0.991E+03   0.386E+02 0.934E+01 -.987E+03   -.128E+00 0.677E-01 -.422E+01   0.302E-04 -.155E-04 -.592E-04
   0.386E+02 0.284E+02 0.102E+04   -.387E+02 -.285E+02 -.102E+04   -.708E+00 -.357E+00 -.398E+01   0.202E-04 0.239E-04 -.370E-04
   0.290E+02 0.274E+02 0.116E+04   -.295E+02 -.278E+02 -.116E+04   -.561E-01 0.591E-01 -.484E+01   0.303E-04 -.103E-04 -.440E-05
   0.299E+02 -.403E+02 0.144E+04   -.299E+02 0.402E+02 -.144E+04   -.319E+00 0.557E+00 0.213E+01   0.100E-04 0.552E-05 0.877E-05
   0.534E+01 0.456E+02 0.146E+04   -.538E+01 -.452E+02 -.147E+04   0.604E-01 -.155E+01 0.233E+01   -.144E-07 0.411E-05 0.138E-04
   -.196E+02 -.539E+01 0.145E+04   0.195E+02 0.511E+01 -.145E+04   0.492E+00 0.729E+00 0.173E+01   0.694E-05 -.354E-05 0.892E-05
   -.346E+01 0.221E+02 0.149E+04   0.345E+01 -.219E+02 -.149E+04   0.293E-02 -.111E+01 0.195E+01   0.132E-04 0.123E-04 0.568E-05
   -.356E+02 -.858E+01 0.145E+04   0.355E+02 0.867E+01 -.145E+04   0.105E+01 -.303E+00 0.159E+01   -.865E-05 -.382E-05 -.161E-05
   0.144E+02 0.803E+01 0.145E+04   -.142E+02 -.779E+01 -.146E+04   -.824E+00 -.901E+00 0.216E+01   -.242E-05 -.223E-05 0.712E-05
   -.730E+01 0.581E+01 0.145E+04   0.729E+01 -.582E+01 -.146E+04   0.169E+00 -.136E+00 0.286E+01   -.915E-05 -.124E-04 0.285E-04
   -.206E+02 -.390E+00 0.146E+04   0.207E+02 0.447E+00 -.146E+04   0.184E+00 -.660E-01 0.226E+01   -.133E-04 0.926E-06 0.147E-04
   0.193E+01 0.513E+00 0.144E+04   -.195E+01 -.858E+00 -.144E+04   0.832E-01 0.751E+00 0.245E+01   -.484E-05 0.393E-05 0.964E-05
   -.227E+02 -.101E+02 0.145E+04   0.224E+02 0.996E+01 -.146E+04   0.128E+01 0.507E+00 0.180E+01   -.385E-05 -.475E-05 0.475E-05
   -.429E+01 -.145E+02 0.144E+04   0.411E+01 0.142E+02 -.144E+04   0.520E+00 0.736E+00 0.187E+01   -.739E-05 -.209E-04 0.291E-04
   0.102E+02 -.127E+02 0.145E+04   -.102E+02 0.128E+02 -.145E+04   -.148E+00 -.924E-01 0.252E+01   -.549E-05 0.836E-05 0.332E-04
   -.400E+01 0.565E+01 0.143E+04   0.392E+01 -.547E+01 -.143E+04   0.157E+00 -.813E+00 0.183E+01   0.319E-05 0.841E-05 0.163E-04
   -.537E+00 0.107E+02 0.144E+04   0.689E+00 -.106E+02 -.144E+04   -.446E+00 -.416E+00 0.191E+01   0.907E-05 -.429E-07 0.168E-05
   0.435E+01 0.107E+02 0.148E+04   -.431E+01 -.109E+02 -.148E+04   -.102E+00 0.314E+00 0.299E+01   0.984E-05 -.838E-05 0.153E-04
   0.122E+02 0.151E+02 0.148E+04   -.122E+02 -.148E+02 -.148E+04   -.687E-01 -.103E+01 0.237E+01   0.800E-05 0.158E-04 0.256E-04
   0.679E+01 -.234E+02 -.147E+04   -.682E+01 0.233E+02 0.147E+04   -.124E+00 0.375E+00 -.222E+01   -.718E-05 -.274E-05 -.104E-04
   -.224E+02 0.281E+01 -.144E+04   0.223E+02 -.277E+01 0.144E+04   0.378E+00 -.177E+00 -.253E+01   0.467E-05 0.360E-06 -.670E-05
   -.422E+01 -.491E+01 -.145E+04   0.401E+01 0.473E+01 0.145E+04   0.516E+00 0.484E+00 -.287E+01   0.156E-04 -.259E-05 -.789E-05
   -.734E+01 0.206E+02 -.144E+04   0.731E+01 -.204E+02 0.144E+04   0.261E+00 -.671E+00 -.258E+01   -.372E-05 0.113E-04 -.158E-04
   -.178E+02 -.241E+02 -.146E+04   0.177E+02 0.238E+02 0.147E+04   0.604E+00 0.968E+00 -.253E+01   0.161E-05 -.611E-05 -.861E-05
   -.119E+02 -.109E+02 -.147E+04   0.119E+02 0.111E+02 0.147E+04   0.753E-01 -.397E+00 -.263E+01   -.618E-05 0.175E-04 -.247E-05
   0.546E+01 -.774E+01 -.142E+04   -.535E+01 0.749E+01 0.143E+04   -.231E+00 0.592E+00 -.175E+01   0.855E-05 -.219E-05 0.133E-04
   -.211E+02 -.311E+01 -.146E+04   0.209E+02 0.299E+01 0.147E+04   0.585E+00 0.462E+00 -.199E+01   0.480E-05 -.307E-05 0.604E-05
   -.129E+02 0.202E+02 -.147E+04   0.128E+02 -.199E+02 0.147E+04   0.527E+00 -.989E+00 -.199E+01   -.273E-05 -.190E-05 -.375E-07
   0.231E+02 -.736E+01 -.145E+04   -.231E+02 0.725E+01 0.146E+04   -.115E+00 0.510E+00 -.207E+01   -.909E-05 -.681E-05 -.136E-04
   -.427E-01 -.663E+01 -.145E+04   -.672E-01 0.651E+01 0.145E+04   0.386E+00 0.326E+00 -.229E+01   -.162E-04 0.184E-05 0.380E-05
   0.139E+02 -.297E+01 -.143E+04   -.137E+02 0.291E+01 0.143E+04   -.443E+00 0.133E+00 -.138E+01   -.270E-06 -.832E-05 0.135E-04
   0.929E+01 0.230E+02 -.148E+04   -.910E+01 -.229E+02 0.148E+04   -.458E+00 -.527E+00 -.286E+01   0.609E-05 0.878E-06 -.324E-05
   -.653E+01 -.151E+02 -.145E+04   0.668E+01 0.151E+02 0.146E+04   -.310E+00 0.155E+00 -.279E+01   0.119E-04 -.767E-05 -.140E-04
   0.719E+01 -.352E+01 -.147E+04   -.715E+01 0.362E+01 0.147E+04   -.156E+00 -.179E+00 -.300E+01   -.752E-05 0.813E-05 -.154E-04
   0.218E+02 0.125E+02 -.146E+04   -.216E+02 -.126E+02 0.146E+04   -.733E+00 0.842E-01 -.212E+01   -.571E-07 0.217E-05 -.327E-05
   0.527E+01 0.495E+01 0.190E+02   -.515E+01 -.490E+01 -.189E+02   -.463E+00 -.240E+00 -.315E+00   0.263E-05 0.506E-05 -.463E-05
   0.638E+00 -.236E+02 0.199E+02   -.492E+00 0.234E+02 -.199E+02   -.779E+00 0.738E+00 -.169E-01   0.290E-05 0.128E-06 -.910E-05
   -.592E+01 0.257E+01 -.197E+02   0.596E+01 -.281E+01 0.195E+02   -.323E+00 0.783E+00 0.572E+00   0.573E-05 0.731E-06 -.865E-05
   -.797E+01 -.151E+02 -.182E+02   0.778E+01 0.150E+02 0.185E+02   0.511E+00 0.228E+00 -.116E+01   0.558E-05 0.738E-05 -.205E-05
   0.129E+01 -.150E+02 -.272E+02   -.136E+01 0.145E+02 0.273E+02   0.439E+00 0.113E+01 -.711E+00   -.315E-06 -.143E-05 -.478E-05
   0.160E+02 0.249E+01 0.738E+01   -.160E+02 -.269E+01 -.746E+01   -.973E-01 0.700E+00 0.388E+00   -.791E-05 -.440E-05 -.770E-05
   0.104E+02 -.164E+02 0.215E+01   -.103E+02 0.163E+02 -.237E+01   -.780E+00 0.125E+00 0.552E+00   0.194E-05 0.334E-05 -.369E-05
   -.475E+01 0.509E+00 0.190E+02   0.465E+01 -.727E+00 -.193E+02   0.413E+00 0.533E+00 0.100E+01   -.333E-05 0.184E-05 -.990E-05
   0.917E+01 0.815E+01 -.550E+01   -.898E+01 -.817E+01 0.550E+01   -.794E+00 -.112E+00 -.139E+00   -.229E-05 0.223E-05 -.538E-05
   -.246E+02 -.866E+01 -.271E+02   0.240E+02 0.822E+01 0.274E+02   0.144E+01 0.106E+01 -.836E+00   0.444E-05 -.145E-05 -.475E-05
   -.495E+01 0.151E+01 0.212E+02   0.507E+01 -.138E+01 -.212E+02   -.499E+00 -.400E+00 0.382E+00   0.683E-06 0.513E-05 -.431E-05
   0.117E+02 -.123E+02 -.295E+01   -.115E+02 0.122E+02 0.298E+01   -.899E+00 0.402E+00 -.238E+00   -.277E-05 -.285E-05 -.183E-05
   0.936E+01 0.603E+01 -.187E+02   -.915E+01 -.596E+01 0.189E+02   -.629E+00 -.244E+00 -.618E+00   -.590E-06 0.241E-05 -.341E-05
   -.142E+02 -.337E+02 -.221E+02   0.139E+02 0.335E+02 0.223E+02   0.109E+01 0.164E+01 -.402E+00   0.110E-05 -.698E-05 -.616E-05
   -.320E+02 -.279E+01 0.487E+01   0.317E+02 0.283E+01 -.463E+01   0.154E+01 0.547E-01 -.113E+01   -.327E-05 0.187E-05 -.651E-05
   0.565E+01 -.462E+01 0.254E+02   -.570E+01 0.444E+01 -.251E+02   0.315E+00 0.602E+00 -.811E+00   -.166E-05 -.251E-05 -.182E-05
 -----------------------------------------------------------------------------------------------
   -.284E+00 -.227E+01 0.864E+01   -.284E-13 -.142E-12 -.809E-11   0.281E+00 0.227E+01 -.865E+01   0.932E-05 -.119E-04 -.852E-04
 
 
 POSITION                                       TOTAL-FORCE (eV/Angst)
 -----------------------------------------------------------------------------------
     -0.08142      1.87111     15.07289         0.959679      1.068179      0.519866
     -1.55616      4.95512     15.14931        -0.581876     -0.244853      0.160429
     -3.49447      7.93160     15.15178         0.348432      0.298292      0.442879
     -5.26983     11.04290     15.19818         0.853370     -0.914146     -0.518554
      3.38307      2.04373     15.27254         0.266736     -0.348545     -0.403692
      1.88458      4.97502     15.05613        -0.633819     -0.274901      0.524117
     -0.02834      8.01252     15.22230         0.175911     -0.514791     -0.980043
     -1.72136     10.92310     15.15084        -0.909784     -0.335436      0.264288
      6.93213      1.95544     15.14586        -1.410910      0.158358      0.531887
      5.27934      5.00810     15.05161        -1.174513     -0.594270      1.019767
      3.44305      7.99379     15.09246         0.385360     -0.176470     -0.156054
      1.67247     11.04130     15.18010         0.711789     -0.816086     -0.106852
     10.43174      1.99109     15.20781         0.092556     -0.229430      0.198285
      8.59746      4.93095     15.25236         0.255969      0.242723     -0.216834
      6.89299      7.95888     15.09319        -0.109584     -0.113253      0.541011
      5.19188     10.84324     15.08128         0.071335      0.570130      0.123632
      1.75268      0.94544     12.56117        -0.431557      0.691780      1.622001
      0.11173      4.09150     12.61683        -0.104251     -0.802024     -0.219207
     -1.70864      6.91785     12.67202         0.298580      0.648553      0.068947
     -3.52190      9.95722     12.61389         0.501064     -0.264422      0.848168
      5.08134      0.85875     12.77867         0.093465      1.028552     -0.325428
      3.51934      3.92493     12.67756        -0.537874     -0.164747      0.394452
      1.78549      7.01107     12.71130        -0.224268      0.266663     -0.465285
     -0.01344      9.98193     12.64133         0.223560     -0.579272      0.042591
      8.58682      1.08166     12.79520         0.448199     -0.929048     -1.280739
      6.93905      3.96308     12.55395        -0.369292     -0.173874      0.857588
      5.24778      6.99898     12.61474        -0.440073     -0.183906     -0.075292
      3.44921     10.06847     12.55747        -0.194207     -0.562724      0.723614
     12.09484      0.95092     12.65325        -0.234827      0.747947      0.046002
     10.31004      3.95879     12.76526         0.766342      0.308310     -0.050401
      8.72677      6.99973     12.69749        -0.817219     -0.509528      0.259003
      6.97148      9.95449     12.54493        -0.559100     -0.299129      0.612833
      0.03287      1.97543     10.98849        -0.328053      0.468114     -0.069574
     -1.65417      5.25713     10.86791         0.018525     -1.156846      0.286715
     -3.54641      7.89822     11.01203         0.394737      0.448733     -0.314923
     -5.18650     11.08686     10.87198        -0.001674     -0.896993     -0.094666
      3.27511      2.04728     11.00766         0.934494     -0.206472     -0.442201
      1.89038      5.17275     10.97785        -0.629093     -0.657379      0.039158
     -0.04053      8.10867     10.87286         0.158567     -0.146835      0.674858
     -1.83821     10.95727     10.96487         0.206373     -0.008876      0.132794
      6.81558      1.83624     11.01719         0.064050      0.405347      0.257834
      5.07002      4.83444     10.98829         0.932066      0.394432     -0.271876
      3.43187      7.94298     11.02629         0.345992      0.501842     -0.263028
      1.75957     11.03645     10.92822        -0.133162     -0.012362      0.396538
     10.30200      2.17708     11.07052         0.077634     -0.629753     -0.248426
      8.67549      5.03708     11.05229        -0.294148     -0.366252     -0.185275
      6.91130      7.92825     10.78141        -0.062542      0.161213      0.777331
      5.18215     11.14135     10.85416        -0.063348     -0.690630      0.266466
      1.66527      0.94734     16.89283        -0.154704      0.279180     -0.177022
      0.00920      3.99337     16.84645         0.293964     -0.135615     -0.425877
     -1.80683      6.87535     16.91905         0.308157      0.303907     -0.643908
     -3.54121      9.98594     16.84645         0.231319     -0.536841     -0.355139
      5.00701      0.75988     16.94184         0.452248      0.672496     -0.371846
      3.43207      4.01718     16.93519         0.051117     -0.207414     -0.557494
      1.75486      6.89697     16.70165        -0.111594      0.340778      0.405053
     -0.09702      9.86122     16.86832         0.385085      0.340730      0.063873
      8.54571      1.11699     16.86002         0.398179     -0.711530      0.118122
      6.88565      3.86314     16.83038        -0.180375      0.398495      0.001248
      5.11094      6.90045     16.79446         0.276475      0.198891     -0.132123
      3.49646      9.95626     16.69662        -0.251020      0.074736      0.680323
     12.13891      1.04633     16.96721        -0.269100     -0.354498     -0.710036
     10.39449      3.93308     16.92541        -0.159829      0.137181     -0.569317
      8.61736      6.92631     16.96782        -0.114411     -0.081731     -0.784771
      6.96742      9.88621     16.81929        -0.598202      0.003821      0.000443
     -6.87381     11.90875     13.86817        -0.338863     -0.190315     -0.228411
     -1.66070      2.92534     13.91099        -0.632993      0.487714      0.028256
     10.36946      5.88171     13.90790        -0.291440      0.540751      0.376034
      8.55333      8.89744     13.93848         0.320743      0.096261     -0.852049
     -3.51667     11.77738     13.94108         0.367706      0.647159     -0.530284
      1.75211      2.92096     13.85691        -0.105150      0.504306      0.305346
      0.10860      5.95942     13.86017        -0.626765      0.029496      0.339514
     -1.77111      8.89644     13.83597         0.307376      0.315857      0.692777
      0.03775     11.92712     13.95834        -0.606223     -0.136937     -0.133908
      5.03351      2.82633     13.99246         0.872792      0.610649     -0.509145
      3.54609      6.01272     13.83797        -0.383995     -0.278360      0.329610
      1.77261      8.99879     13.91795        -0.664315      0.299120     -0.203016
     10.41166      0.03513     13.96238        -0.409909     -0.174199     -0.417733
      8.51858      2.87832     13.96925         0.823958      1.397574     -0.286789
      6.83257      5.91639     13.94712         1.200513      0.093717     -0.888544
      5.19164      8.93055     13.87463         0.269647      0.428707     -0.507884
 -----------------------------------------------------------------------------------
    total drift:                               -0.002787     -0.000237     -0.002519


--------------------------------------------------------------------------------------------------------



  FREE ENERGIE OF THE ION-ELECTRON SYSTEM (eV)
  ---------------------------------------------------
  free  energy   TOTEN  =      -526.48370697 eV

  energy  without entropy=     -526.48370697  energy(sigma->0) =     -526.48370697
 


--------------------------------------------------------------------------------------------------------


    POTLOK:  cpu time    0.8315: real time    0.8360


--------------------------------------------------------------------------------------------------------


     LOOP+:  cpu time 1914.7553: real time 1915.3509
    4ORBIT:  cpu time    0.0000: real time    0.0000

 total amount of memory used by VASP MPI-rank0   253934. kBytes
=======================================================================

   base      :      30000. kBytes
   nonlr-proj:      18750. kBytes
   fftplans  :      72602. kBytes
   grid      :      41267. kBytes
   one-center:        108. kBytes
   wavefun   :      91207. kBytes
 
  
  
 General timing and accounting informations for this job:
 ========================================================
  
                  Total CPU time used (sec):     1945.262
                            User time (sec):     1939.686
                          System time (sec):        5.576
                         Elapsed time (sec):     1945.960
  
                   Maximum memory used (kb):      465176.
                   Average memory used (kb):           0.
  
                          Minor page faults:       457341
                          Major page faults:            0
                 Voluntary context switches:         2029
