 running on   48 total cores
 distrk:  each k-point on   48 cores,    1 groups
 distr:  one band on   12 cores,    4 groups
 using from now: INCAR     
 vasp.5.4.4.18Apr17-6-g9f103f2a35 (build Mar 16 2023 09:39:13) complex          
  
 POSCAR found type information on POSCAR  Ca Si O 
 POSCAR found :  3 types and     135 ions
 scaLAPACK is switched off
 LDA part: xc-table for Pade appr. of Perdew
 generate k-points for:    2    2    2
 POSCAR, INCAR and KPOINTS ok, starting setup
 FFT: planning ...
 WAVECAR not read
 entering main loop
       N       E                     dE             d eps       ncg     rms          rms(c)
DAV:   1     0.102620660312E+05    0.10262E+05   -0.49391E+05  8320   0.192E+03
DAV:   2     0.148878169147E+03   -0.10113E+05   -0.97216E+04  9480   0.535E+02
DAV:   3    -0.966740201692E+03   -0.11156E+04   -0.11076E+04  9504   0.180E+02
DAV:   4    -0.102446320141E+04   -0.57723E+02   -0.57519E+02 12064   0.345E+01
DAV:   5    -0.102839896256E+04   -0.39358E+01   -0.39336E+01 13672   0.766E+00    0.849E+01
DAV:   6    -0.903004788796E+03    0.12539E+03   -0.51038E+02 10120   0.364E+01    0.353E+01
DAV:   7    -0.904900990212E+03   -0.18962E+01   -0.64264E+01 10728   0.128E+01    0.160E+01
DAV:   8    -0.904217916552E+03    0.68307E+00   -0.97716E+00 10984   0.585E+00    0.699E+00
DAV:   9    -0.904020196523E+03    0.19772E+00   -0.19742E+00 10240   0.304E+00    0.190E+00
DAV:  10    -0.904077767948E+03   -0.57571E-01   -0.87164E-01 11624   0.165E+00    0.154E+00
DAV:  11    -0.904075347811E+03    0.24201E-02   -0.13447E-01 10768   0.681E-01    0.742E-01
DAV:  12    -0.904075022273E+03    0.32554E-03   -0.29302E-02 11072   0.318E-01    0.175E-01
DAV:  13    -0.904075538459E+03   -0.51619E-03   -0.53868E-03 12104   0.153E-01    0.104E-01
DAV:  14    -0.904075625275E+03   -0.86816E-04   -0.13889E-03 11192   0.599E-02    0.827E-02
DAV:  15    -0.904075604006E+03    0.21269E-04   -0.20764E-04 11320   0.237E-02    0.519E-02
DAV:  16    -0.904075590413E+03    0.13593E-04   -0.66885E-05 10184   0.190E-02    0.933E-03
DAV:  17    -0.904075590424E+03   -0.10579E-07   -0.28116E-05 11768   0.919E-03    0.572E-03
DAV:  18    -0.904075590097E+03    0.32649E-06   -0.34541E-06  7232   0.314E-03
   1 F= -.90407559E+03 E0= -.90407559E+03  d E =-.472380E-20
