 running on   52 total cores
 distrk:  each k-point on   52 cores,    1 groups
 distr:  one band on   13 cores,    4 groups
 using from now: INCAR     
 vasp.5.4.4.18Apr17-6-g9f103f2a35 (build Oct 31 2019 15:01:46) complex          
  
 POSCAR found type information on POSCAR  Ca Si O 
 POSCAR found :  3 types and     135 ions
 scaLAPACK is switched off
 LDA part: xc-table for Pade appr. of Perdew
 generate k-points for:    2    2    2
 POSCAR, INCAR and KPOINTS ok, starting setup
 FFT: planning ...
 WAVECAR not read
 entering main loop
       N       E                     dE             d eps       ncg     rms          rms(c)
DAV:   1     0.921861948178E+04    0.92186E+04   -0.46175E+05  8320   0.174E+03
DAV:   2     0.636166222397E+02   -0.91550E+04   -0.88803E+04 10296   0.452E+02
DAV:   3    -0.978729280460E+03   -0.10423E+04   -0.10330E+04 10320   0.153E+02
DAV:   4    -0.102830691533E+04   -0.49578E+02   -0.49313E+02 11368   0.321E+01
DAV:   5    -0.103482650605E+04   -0.65196E+01   -0.65159E+01 14840   0.713E+00    0.853E+01
DAV:   6    -0.868738920858E+03    0.16609E+03   -0.85883E+02 10064   0.436E+01    0.444E+01
DAV:   7    -0.876870413251E+03   -0.81315E+01   -0.12654E+02 11040   0.182E+01    0.298E+01
DAV:   8    -0.863750296065E+03    0.13120E+02   -0.34735E+01 12720   0.115E+01    0.175E+01
DAV:   9    -0.863069964121E+03    0.68033E+00   -0.28330E+01 10848   0.903E+00    0.218E+01
DAV:  10    -0.861178650315E+03    0.18913E+01   -0.86629E+00 10736   0.486E+00    0.660E+00
DAV:  11    -0.860681205709E+03    0.49744E+00   -0.24612E+00 10672   0.275E+00    0.703E+00
DAV:  12    -0.860563531147E+03    0.11767E+00   -0.21037E+00 11392   0.171E+00    0.442E+00
DAV:  13    -0.860314047838E+03    0.24948E+00   -0.64540E-01 11496   0.132E+00    0.307E+00
DAV:  14    -0.860256419316E+03    0.57629E-01   -0.45873E-01 10928   0.908E-01    0.263E+00
DAV:  15    -0.860196835099E+03    0.59584E-01   -0.24954E-01 11016   0.825E-01    0.366E+00
DAV:  16    -0.860154271883E+03    0.42563E-01   -0.89925E-02 10416   0.436E-01    0.153E+00
DAV:  17    -0.860148046436E+03    0.62254E-02   -0.86023E-02 10496   0.448E-01    0.873E-01
DAV:  18    -0.860150409190E+03   -0.23628E-02   -0.63019E-02 10424   0.276E-01    0.787E-01
DAV:  19    -0.860151161067E+03   -0.75188E-03   -0.28323E-02 10320   0.151E-01    0.632E-01
DAV:  20    -0.860151795280E+03   -0.63421E-03   -0.17001E-02 10328   0.131E-01    0.516E-01
DAV:  21    -0.860151921958E+03   -0.12668E-03   -0.56210E-03 10176   0.770E-02    0.212E-01
DAV:  22    -0.860152862174E+03   -0.94022E-03   -0.36987E-03  9696   0.638E-02    0.351E-01
DAV:  23    -0.860152820731E+03    0.41443E-04   -0.16146E-03 10416   0.431E-02    0.281E-01
DAV:  24    -0.860152738518E+03    0.82213E-04   -0.14517E-03 10816   0.318E-02    0.644E-02
DAV:  25    -0.860152824041E+03   -0.85523E-04   -0.12392E-04  9128   0.185E-02    0.474E-02
DAV:  26    -0.860152843170E+03   -0.19129E-04   -0.82248E-05 10168   0.109E-02    0.173E-02
DAV:  27    -0.860152852410E+03   -0.92400E-05   -0.21217E-05  9184   0.584E-03    0.126E-02
DAV:  28    -0.860152855800E+03   -0.33902E-05   -0.10381E-05  7968   0.382E-03    0.136E-02
DAV:  29    -0.860152856761E+03   -0.96088E-06   -0.61968E-06  6752   0.247E-03
   1 F= -.86015286E+03 E0= -.86013325E+03  d E =-.392203E-01
