135
Time=99999.99999996 pbc="T T T" Lattice="10.56489661 0.00000000 0.00000000 0.00000000 10.56489661 0.00000000 0.00000000 0.00000000 10.56489661" energy=-801.94088308 virial="522.36745165 -4.86257046 -20.21762504 -4.86257046 519.71384156 -24.13385810 -20.21762504 -24.13385810 582.87704546" stress="0.49230279 -0.00412354 -0.01714488 -0.00412354 0.49005248 -0.02046591 -0.01714488 -0.02046591 0.54361591" Properties=species:S:1:pos:R:3
Ca 8.99201413 6.61152261 4.04807862
Ca 1.00274387 9.09608538 3.55266949
Ca 9.04265467 3.52095432 3.93237231
Ca 0.05003227 2.74710823 9.72684713
Ca 8.23612269 9.06059391 1.92972703
Ca 3.33565173 9.21390968 4.15772806
Ca 3.72561534 1.40011008 8.11886888
Ca 5.04816373 4.44857031 8.25613116
Ca 6.13528018 3.68402534 3.71971422
Ca 2.66352570 6.84061457 1.18905033
Ca 8.49260924 0.28653972 4.96532920
Ca 8.43278872 6.95848173 6.68011306
Ca 6.84762922 1.63835427 2.02443540
Ca 5.53648497 9.90338022 2.94521127
Ca 3.57617173 4.19689679 2.72432929
Ca 0.49118157 3.72036379 2.07780435
Ca 9.46676820 10.50398316 10.46161755
Ca 2.81002142 6.04930710 5.29223655
Ca 2.22183341 6.14493726 8.26829046
Ca 10.35435813 5.26041550 9.01506874
Ca 5.30163552 4.63206189 0.31453667
Ca 6.43509124 1.44216644 6.40820778
Ca 0.39194099 8.16542603 8.92054769
Ca 6.67918644 8.56186295 5.51433486
Ca 3.46955302 3.16040838 5.37563031
Ca 3.13522499 9.31302550 0.98787597
Ca 3.53720857 8.08246672 6.39405468
Si 1.69919006 3.63825250 7.32862362
Si 0.05610252 9.14169835 5.96997158
Si 0.30099869 5.34053634 5.77126993
Si 1.29853608 5.85927740 3.24050411
Si 8.18922833 3.82721743 10.52236362
Si 0.59204078 1.05586941 6.33365321
Si 8.19331822 7.61878070 9.87922082
Si 4.10348311 0.77946135 4.97975898
Si 4.66386908 2.09565225 0.43243396
Si 6.50449336 9.40651207 8.00788159
Si 9.76418884 2.83136953 6.67332943
Si 3.55815638 8.46342125 8.94927626
Si 2.36703423 1.50485743 2.99546906
Si 7.08524967 1.49407658 8.74892923
Si 2.92883385 4.52429041 10.15714359
Si 5.76733455 5.17531337 6.33569724
Si 10.49735009 7.34458578 1.21349523
Si 8.51541138 5.94020483 1.80014788
Si 5.42650689 7.17420312 9.44346432
Si 8.88358460 9.81087119 7.92200344
Si 1.53538547 10.44113121 8.51567965
Si 5.79228393 7.33179082 1.79673493
Si 5.30211277 6.56013687 3.86411958
Si 6.14458018 9.87752426 10.49172167
Si 7.67905354 3.88114010 6.53851731
Si 2.41688486 1.32679356 0.30050375
Si 9.99082514 1.09547960 2.36879965
O 7.76542139 9.53523548 6.63978585
O 8.08187854 0.35890227 8.13139635
O 8.08337220 2.29180655 6.01232836
O 1.84321178 1.54088813 8.97840858
O 10.43498536 2.27278903 5.41144673
O 4.66826288 5.12845016 4.58588452
O 10.38292391 10.40576152 5.13107626
O 1.63327699 4.08527011 9.12364117
O 2.31668744 7.63106819 9.66099904
O 4.55692974 0.82198490 1.56921778
O 8.50698979 2.13196215 9.73983746
O 8.72366983 3.84634488 7.63499220
O 2.68543126 0.39243272 5.13902275
O 4.32976440 7.84746135 2.85283226
O 0.16943859 6.45078090 6.96259530
O 1.16155710 10.23365839 6.85619451
O 9.64942325 8.26652438 0.14525810
O 9.97365863 10.13902699 2.49623627
O 9.58132642 8.41639753 4.61371501
O 0.88672769 6.17404790 1.88971416
O 9.51504457 1.88876972 1.29943319
O 9.06469521 6.89516546 8.38386441
O 5.69846273 0.07926259 8.99126841
O 8.48700376 6.13234425 0.09557361
O 4.58599619 7.54451505 4.85818566
O 1.38395061 2.43380405 0.60080435
O 5.00769273 3.01655810 1.97773536
O 1.92089737 4.80129527 6.39476060
O 5.40273863 9.66904100 6.86942947
O 7.43694012 9.84863625 3.54238510
O 4.35875658 1.70330565 5.99666730
O 3.45236055 3.27070465 7.56492497
O 5.22657199 5.69156339 2.34464045
O 7.46180757 10.40578800 0.40021834
O 4.19694132 7.39296325 8.13190077
O 10.07435836 1.31271359 7.54958173
O 2.32108159 0.05783159 2.31620348
O 1.94160828 4.59750961 3.76793385
O 9.89702525 8.45835841 7.16689323
O 6.86993810 5.02308949 7.74224010
O 4.62479492 8.92750592 9.80040079
O 9.50902289 5.00038285 2.61891373
O 6.28183054 6.48354225 6.14962873
O 10.19568820 10.05184796 8.71553866
O 6.69384468 8.27249160 10.11366133
O 4.07097228 3.21998207 9.81346597
O 0.61851250 6.33115089 4.49603216
O 3.78342141 1.62459795 3.69669703
O 2.87145488 9.48374941 8.14558729
O 7.35224551 4.56913247 9.79675998
O 6.67732186 7.66172951 8.19505228
O 8.27414290 9.08167448 9.31500724
O 7.26042338 3.64600215 1.59758142
O 2.64829480 7.18277014 3.45553596
O 1.42680351 8.20166974 5.86636283
O 0.85259910 6.57952131 10.47425780
O 1.91304295 2.24806230 6.60597529
O 7.10602593 7.10370697 1.63047434
O 9.83880922 4.11499922 0.37504297
O 6.13101117 3.68429966 5.73770989
O 3.84966508 5.73188566 6.93590339
O 2.79774232 2.64179226 1.97873228
O 5.04529822 10.01575350 4.85918463
O 2.79925236 4.75664936 1.00112680
O 1.26605054 8.79371793 1.47457782
O 5.89381381 8.83724513 1.34834713
O 0.83023181 1.61831897 3.19250796
O 8.52708471 1.32844388 3.14677998
O 5.95103151 1.69053788 10.23072595
O 4.82123490 6.80029843 0.39868865
O 6.34265487 6.05949418 10.09055920
O 0.09364084 4.13239522 4.85931763
O 7.10773781 6.14561768 4.27568295
O 6.25743750 2.62452942 7.86478968
O 3.75553317 0.67614921 10.02998821
O 9.34667720 7.54317918 2.26579220
O 0.20476887 3.93683094 7.56941834
O 3.88412118 5.63407665 9.43942143
O 6.31706849 1.79995594 4.53459336
O 1.33837722 10.45674918 10.43906403
O 8.33773746 4.75308156 5.32564973
135
Time=199999.99999918 pbc="T T T" Lattice="10.56489661 0.00000000 0.00000000 0.00000000 10.56489661 0.00000000 0.00000000 0.00000000 10.56489661" energy=-819.24728204 virial="475.11253938 -0.26147515 -18.10176158 -0.26147515 435.48042550 29.38354196 -18.10176158 29.38354196 462.19986098" stress="0.45222985 -0.00022174 -0.01535059 -0.00022174 0.41862116 0.02491773 -0.01535059 0.02491773 0.44127968" Properties=species:S:1:pos:R:3
Ca 8.67006437 4.90299289 8.14969140
Ca 3.12314770 8.16496010 4.31814466
Ca 9.15928650 8.33741270 0.09071741
Ca 6.78102670 4.28617422 4.92592928
Ca 6.00743608 3.76751775 1.95612501
Ca 3.36414772 0.77835270 8.18630416
Ca 0.14502857 1.41736902 9.90821311
Ca 0.31146094 4.21850930 7.88914764
Ca 1.46565253 10.14934400 1.09021955
Ca 5.82919649 6.87891875 1.81400935
Ca 6.81278057 9.85778535 3.59904642
Ca 6.64865843 7.21917199 8.91999353
Ca 2.49628044 2.94842486 8.91640652
Ca 8.26433829 6.51242657 3.32126456
Ca 5.40414584 1.12719194 1.13880638
Ca 4.57995579 10.38526793 3.04643327
Ca 4.63932182 7.40377510 6.97610768
Ca 3.61835948 2.56308990 3.89961477
Ca 8.07224405 0.16664204 9.13157329
Ca 9.93267683 8.23809686 8.36236341
Ca 8.85704822 3.43835839 2.35778012
Ca 7.38837175 9.86744004 6.84754466
Ca 4.13433119 4.90030558 6.73557802
Ca 0.86616604 0.10162290 3.93183521
Ca 5.33036797 2.21486759 5.95092663
Ca 3.32358075 8.61848116 1.29895214
Ca 9.93529622 1.35721854 5.99152830
Si 8.29886606 1.93639845 4.56153625
Si 6.53758130 8.90242555 0.41755468
Si 5.87345553 7.24771342 4.88304682
Si 1.89689566 3.22756578 6.07789517
Si 4.66694320 10.13464548 5.93829676
Si 1.08884466 3.87426317 1.06821357
Si 7.73990758 2.49220662 7.68702555
Si 1.99328999 9.84616918 6.53619171
Si 1.61482766 9.29688029 8.94578324
Si 0.98920498 3.73093589 3.69362972
Si 5.65554741 3.81599291 9.16239472
Si 7.97415092 2.59082685 10.25197218
Si 1.95138064 6.91894831 7.36735528
Si 3.83202568 4.64915145 0.60585054
Si 9.75500728 4.29406972 5.38822577
Si 1.31877661 6.16340046 10.10381600
Si 10.11712243 8.49999647 2.86704695
Si 8.38092404 5.40232887 10.55221708
Si 1.01374362 6.27600637 4.87063639
Si 2.83932092 1.87024758 1.18268465
Si 4.26373209 5.43116594 3.48727067
Si 8.74906946 0.43128142 1.84657879
Si 4.14625428 6.62175184 9.86592122
Si 7.73882504 6.91920454 6.31246717
Si 10.16958725 8.41771351 5.62849370
Si 4.87442517 9.99103227 9.32321381
Si 1.05133067 6.57312590 2.12571524
O 7.26548457 7.29155663 0.16244068
O 5.75469014 9.18258631 8.22050807
O 7.90252667 8.88739812 8.84971254
O 7.14436192 4.75141042 9.87401487
O 9.30765329 3.72625018 0.16788306
O 7.22635238 0.68636076 2.18773876
O 0.66688282 6.57623534 8.66448090
O 5.38414330 0.81651597 7.52688935
O 4.24812256 2.20399287 2.19139351
O 2.77032214 6.91452861 5.87604249
O 1.52701053 0.13662648 8.18976200
O 1.39723001 7.45533573 0.54377967
O 0.37019246 7.00640903 6.46320097
O 6.54463835 5.90958538 6.42782633
O 2.40473034 5.12479836 9.54757251
O 1.87898620 1.23342815 10.42778061
O 8.64815717 8.02957833 5.72726878
O 8.64069330 4.67185438 3.84057658
O 1.50011363 0.51846281 5.61385509
O 9.08259697 5.98980202 5.82242557
O 5.21530281 5.24641034 0.18725386
O 4.91318849 8.63703324 4.65313512
O 1.04382133 2.28557020 7.27046654
O 2.42320465 4.47171726 3.35640665
O 4.17856330 3.09983891 10.21233246
O 10.07333235 6.81016962 1.89824646
O 4.20531173 4.89486819 2.04027231
O 3.34998815 2.55467512 6.36682193
O 6.99230467 2.55803065 0.78118337
O 7.79834314 5.43896755 1.52736277
O 9.04019312 3.40619787 6.44632706
O 4.36467595 0.94418626 9.81055806
O 10.02716339 2.74514716 4.43857295
O 0.76901186 5.37776128 1.05204140
O 8.62579946 1.10461230 0.37710322
O 8.77744050 2.95530602 8.77180683
O 4.86747395 7.91540724 9.99391181
O 2.52891487 3.58628056 1.06826656
O 9.43302300 1.45783129 2.90090163
O 6.80544594 7.94581158 3.71287109
O 3.44366525 9.23163459 6.94147788
O 3.06252851 7.51591769 8.64100560
O 7.02250117 1.94666534 9.18861541
O 0.65098052 2.75414602 2.09741428
O 1.97232238 6.40088418 3.39510622
O 0.88004923 4.51421076 5.71066659
O 0.27668832 9.47304181 9.77427821
O 5.49110679 8.99448189 1.86216937
O 4.27299098 6.53955144 4.77614085
O 9.83417285 9.30850527 4.06079026
O 9.75843948 6.30565500 10.31606258
O 2.02915958 5.15862804 7.18015242
O 8.44795871 1.03582523 7.56516534
O 10.33719891 7.16533649 4.12521934
O 9.89341710 9.82169543 1.62915505
O 3.02795976 9.31806921 9.63831025
O 3.66317877 0.17338372 4.95240994
O 4.77946512 4.05168586 4.77017597
O 3.15623111 6.30962439 0.58563232
O 1.67168581 2.47887903 4.74602674
O 8.58623498 6.74759442 7.76403092
O 3.57471597 0.11218893 1.14461781
O 6.98906577 2.52795579 3.58709984
O 6.61711589 4.13567505 7.68190079
O 10.08374876 9.58655597 6.54231600
O 3.90472162 7.03210817 2.62032503
O 1.36451196 8.52203112 7.58463258
O 7.96350462 8.89939809 1.76396695
O 5.10616663 5.96400225 8.44763835
O 6.08536058 5.81018610 3.57296615
O 1.04787645 3.62133982 10.06427572
O 4.10795636 3.66821346 8.19625028
O 6.04898389 0.43763999 5.34708573
O 2.27927497 1.52484589 2.93463424
O 0.21821136 5.03765830 3.77292955
O 1.32558440 8.94458734 5.14576658
O 1.10137284 8.65810287 2.49986362
O 7.42496763 2.21854788 6.07475225
O 8.68679877 0.24991826 4.71497804
O 6.44047963 7.92867101 6.14992419
O 6.30597588 10.42523169 10.42489222
135
Time=299999.99999840 pbc="T T T" Lattice="10.56489661 0.00000000 0.00000000 0.00000000 10.56489661 0.00000000 0.00000000 0.00000000 10.56489661" energy=-811.70365949 virial="550.65998318 49.48342965 -3.39093246 49.48342965 474.75382494 3.57438671 -3.39093246 3.57438671 538.26766629" stress="0.51629532 0.04196276 -0.00287557 0.04196276 0.45192565 0.00303114 -0.00287557 0.00303114 0.50578643" Properties=species:S:1:pos:R:3
Ca 1.03413219 8.15187628 1.84345411
Ca 6.54457832 2.00843341 6.54074998
Ca 4.46656840 0.63127178 5.15424169
Ca 8.36394006 1.93025862 8.15153837
Ca 8.96670244 8.01194427 10.15061422
Ca 1.00829653 3.08775411 8.95586939
Ca 3.65252057 3.36896053 0.37417482
Ca 8.56476794 7.60448702 4.63255988
Ca 7.34675743 0.10152374 9.59541697
Ca 6.56122597 3.85650791 3.54094399
Ca 1.80963267 0.56574254 6.90585356
Ca 8.62772170 5.11081698 6.33991237
Ca 10.41417170 1.76122962 1.73353773
Ca 4.13006543 6.17607650 8.23277712
Ca 8.17287213 0.44515338 1.17768753
Ca 1.49628803 5.47129689 7.25741223
Ca 4.77595836 10.01172884 0.74647019
Ca 0.54363970 7.04202511 4.73912101
Ca 5.86777741 7.86737669 5.35302160
Ca 9.84065654 8.46590910 7.74878738
Ca 8.97861288 5.95077919 2.08878848
Ca 5.61563954 6.64848253 2.92287677
Ca 0.36991358 4.21925607 0.83990586
Ca 10.55451856 10.49667063 4.45021382
Ca 8.80962378 2.99872052 4.31129076
Ca 3.40222119 2.84407765 6.89813700
Ca 6.98117500 7.20578988 0.00084917
Si 9.35218115 8.89521977 2.74040319
Si 1.36390502 6.22326916 9.80376051
Si 4.85219194 1.67608615 9.14173356
Si 8.13792968 3.84693814 0.36661020
Si 1.87721009 9.23779036 9.03648606
Si 2.14481309 5.71693551 2.86947279
Si 8.99047143 5.12047392 8.79337335
Si 3.94474603 7.17291082 0.74221276
Si 10.51875985 10.41413398 10.06042253
Si 6.03503587 4.13649379 8.47279249
Si 5.97998262 4.61062788 0.79005860
Si 2.22649091 1.40580537 0.02233879
Si 0.21246314 4.73154180 4.07878330
Si 4.85390361 9.43386218 7.94017747
Si 7.19973204 7.09466079 7.67746662
Si 4.19203718 9.14574971 3.35095587
Si 2.54776867 8.88869095 5.79472367
Si 2.94480850 0.55769520 2.59631795
Si 7.44186438 0.52763023 3.93012057
Si 0.08536336 2.96779425 6.60882319
Si 1.41814533 2.19281429 4.21917796
Si 7.00543528 8.91995347 2.57235530
Si 3.56159596 6.63299594 5.18725803
Si 5.81799098 1.58394228 1.84278514
Si 7.74807423 9.74438403 6.29859761
Si 5.22878616 4.91497967 5.67717681
Si 4.10659544 3.51376913 3.56191463
O 4.30471302 2.31038766 2.47241203
O 4.59346292 5.02714326 3.92625986
O 9.11452256 5.15931756 4.15697646
O 7.95748739 7.63591276 2.73561422
O 10.34085155 6.60702476 6.18267110
O 2.50576892 6.81685187 1.77640016
O 9.64120369 1.29797874 10.16228192
O 7.96633932 0.89448619 5.28409713
O 4.88933635 8.08855672 1.73757268
O 2.24178709 6.61857302 8.83954580
O 1.88729839 4.74977430 9.65840630
O 10.35808201 4.44794825 8.07795271
O 7.07177505 5.19607605 1.65081912
O 1.52486901 3.07912942 6.71948555
O 2.53258695 9.48888012 2.57309205
O 5.02767581 6.85131016 10.10338600
O 9.15846714 3.10311450 6.20444083
O 8.00107956 9.69134294 3.33462142
O 1.63595952 1.26895732 2.87798602
O 1.23002469 0.26693753 9.07355144
O 0.02526300 3.17715545 3.62012039
O 8.58831265 6.45553151 8.09766920
O 0.03730294 6.37905673 0.79170227
O 8.79194828 1.22439439 2.94248408
O 2.50386767 7.16135042 6.26630270
O 9.02454474 3.53130383 1.86273140
O 6.20200714 9.65960752 6.20591919
O 4.30347313 1.19362512 7.61767332
O 3.02021401 4.25994612 2.27020325
O 6.30912360 4.22327914 10.12455053
O 5.94035044 8.73513783 3.59035920
O 0.05948918 6.21652371 9.11697280
O 2.73408650 7.92217699 10.46324730
O 5.34786160 8.01429376 7.70132387
O 3.77286458 9.65048821 6.79418632
O 2.32326441 5.80440436 4.49870083
O 5.64517612 0.02360349 8.63786987
O 9.08564814 9.84811011 9.12749765
O 6.29320612 5.90297878 8.05424992
O 4.47455186 5.24512016 0.67414013
O 3.78401425 9.24813543 4.92144971
O 1.87457687 2.62636950 1.20825498
O 4.89729982 6.53657097 5.99251097
O 8.05858762 0.21719618 7.38808218
O 0.63763355 8.85791558 9.64556420
O 9.14615194 3.50071156 9.81646802
O 5.19382305 1.50213978 0.24204416
O 10.23353030 1.80926709 7.62394106
O 1.11222583 9.20467279 7.11050215
O 10.25742206 7.61790263 3.09076717
O 3.65291460 4.89170739 6.60663528
O 1.08353087 10.54141082 0.79766589
O 3.70886199 9.28517759 9.22927553
O 3.32298613 0.64947232 0.93987160
O 2.49099393 0.40242265 4.78284245
O 8.36626878 5.59870704 0.02949402
O 6.64726842 2.11800041 8.84573160
O 4.12143741 7.29233650 3.86893375
O 4.23042772 3.72769001 8.76382281
O 9.28685706 9.39824287 5.53716635
O 0.19063014 2.09927266 5.08785454
O 4.50913271 0.14502227 3.03054520
O 2.66984087 3.20803357 4.58795809
O 4.64119173 2.95232512 4.92079672
O 7.33410430 2.18803400 0.21267869
O 7.55510480 8.19914150 8.73948444
O 6.22450155 1.71000357 4.09552632
O 6.70848543 5.71139252 4.60999317
O 6.34873650 10.52132869 2.20263972
O 7.31049091 1.92207971 2.06646745
O 9.43252667 9.08597737 1.14871858
O 0.19849423 4.67660404 5.65566032
O 5.86452642 4.03427714 6.76131770
O 1.52114682 8.97771966 4.65828329
O 7.78909643 7.89357834 6.33354535
O 5.52391205 3.50902989 1.98378032
O 0.57724764 5.53687696 2.71161137
O 7.91819075 4.34354004 8.24630111
O 0.02944682 9.93911307 2.75526772
O 3.11250496 1.95768284 9.27271051
O 7.27882467 8.91626081 0.71065639
135
Time=400000.00000008 pbc="T T T" Lattice="10.56489661 0.00000000 0.00000000 0.00000000 10.56489661 0.00000000 0.00000000 0.00000000 10.56489661" energy=-812.17819336 virial="460.44911375 39.88598814 35.30752280 39.88598814 483.56790012 36.05078790 35.30752280 36.05078790 589.63768425" stress="0.43979502 0.03382397 0.02994136 0.03382397 0.45940013 0.03057166 0.02994136 0.03057166 0.54934904" Properties=species:S:1:pos:R:3
Ca 5.07312585 5.34088298 9.71429847
Ca 6.99734589 9.80846532 0.92292349
Ca 9.07425210 3.57067504 5.21894082
Ca 7.39947166 9.09086856 3.73854477
Ca 0.57307915 4.68379979 5.88232512
Ca 4.24302799 1.85012124 0.31086469
Ca 8.77463271 3.68380496 2.47426106
Ca 3.68053815 3.28036377 3.30124200
Ca 7.14167257 10.37302072 6.44217768
Ca 4.46520961 10.42291704 6.29422858
Ca 9.70295333 1.69450076 0.33542984
Ca 2.39515587 1.26063330 8.75888978
Ca 10.53085067 5.00425094 10.24473066
Ca 5.73823573 2.57827902 2.04117059
Ca 5.55862246 7.11857377 7.13086351
Ca 5.72301405 4.76282814 6.43903103
Ca 9.91114507 7.96530383 5.81880526
Ca 0.64894724 9.30682231 9.90314353
Ca 4.63907981 7.94894973 4.35997249
Ca 7.26043785 8.24491456 8.99079705
Ca 2.79232100 7.07529058 10.08898687
Ca 4.37613629 8.55200640 1.35680098
Ca 9.85837456 6.24297154 2.65588833
Ca 1.57064935 8.54562224 4.37585394
Ca 0.68718124 1.79602906 2.68923914
Ca 4.79347502 2.15519886 8.10409506
Ca 9.32380991 10.07862250 7.85896297
Si 4.29441698 9.54976239 9.35974878
Si 7.80197961 6.19214583 4.83916057
Si 3.21974765 5.75784680 7.01298831
Si 2.78235796 0.27427489 3.82905044
Si 10.49873877 7.12548546 8.32182094
Si 5.24393115 0.07576908 3.88602443
Si 7.42433051 6.19024708 1.63776395
Si 2.13493480 9.09389776 7.18089356
Si 2.01779571 7.35386677 2.18422692
Si 7.15167405 3.26580845 9.71808712
Si 2.90377190 2.61506716 5.85372530
Si 0.43739468 1.35768812 6.78265665
Si 8.36792359 2.95705649 7.38059643
Si 6.23976350 2.39693646 5.02316224
Si 8.85990937 5.80107055 7.41025878
Si 10.08625459 0.12156224 4.39744901
Si 7.05469538 0.94491104 9.52836204
Si 1.78365851 2.92867252 0.05270929
Si 2.79941794 5.46106686 4.67964934
Si 0.93906216 4.31877901 2.20639220
Si 9.99234147 9.44148086 2.61525580
Si 2.57357889 4.47595217 9.05985864
Si 8.00456955 5.39050583 10.05852270
Si 5.74494043 5.16148335 3.70123498
Si 8.00693882 1.17011632 3.23725247
Si 4.60417283 5.47665438 1.70430244
Si 2.38806188 9.85480389 1.42031194
O 1.57583134 1.15979044 10.56433077
O 10.41654981 6.24816611 7.11010915
O 5.86063866 9.94657199 9.50588794
O 8.09297024 7.12026437 3.25095987
O 1.98333009 6.87532964 3.73895235
O 0.10421085 3.27410836 1.15494486
O 2.60860019 9.02201672 8.71168156
O 0.07610957 10.30855704 5.81686598
O 9.36242114 6.06663950 4.89055838
O 4.59038324 1.92830934 5.86683426
O 1.64261578 2.95116061 7.10320229
O 2.71779818 9.12047853 2.79580890
O 4.60285340 1.29578919 3.40050058
O 2.50125079 4.87486502 10.44913179
O 9.15954052 1.51569780 6.45235522
O 8.47574602 2.00123964 9.08391050
O 6.36213928 0.86951552 4.92027452
O 6.01603573 4.49740467 2.33363643
O 4.08345715 3.98756094 1.37296322
O 10.36366755 4.40390176 3.59977387
O 2.53321202 8.63260173 0.54362454
O 5.85247211 9.20934655 7.32633454
O 4.87149857 9.36385027 3.09490822
O 3.80147374 10.13085170 4.68617140
O 5.34994204 6.14835238 0.65592188
O 0.63151568 7.25212322 9.76516507
O 4.00581600 6.04322960 5.65815334
O 4.13581964 6.25520329 8.11024838
O 6.79012078 0.41071410 2.92742585
O 1.98477222 5.98093290 6.08359791
O 8.81040581 3.93670705 10.34974694
O 4.34323595 0.29724609 8.22858260
O 6.73034503 0.92434841 8.02951021
O 6.07159481 9.24748691 5.10851977
O 2.80060069 0.84670718 2.35830889
O 9.40690096 8.20399855 8.97291882
O 2.02620771 4.58664233 3.46474834
O 10.42066003 2.32066504 4.33957667
O 8.94479355 5.83178029 9.02483784
O 8.80372785 5.28127290 1.31655477
O 6.41272044 4.15588996 0.42426647
O 0.50640686 7.95145001 2.36585920
O 5.88698711 6.22781521 4.96550830
O 6.62479165 5.86990844 8.67672885
O 3.58210055 10.28490519 0.01622133
O 5.97218094 6.55362397 2.62753493
O 7.81268431 2.48005042 4.07280344
O 5.88092192 2.27648157 9.43766726
O 0.82157174 8.23557906 7.20387814
O 7.03283053 3.67048989 8.26754877
O 9.62444778 0.56704035 2.84251985
O 7.54085007 4.81109360 3.97307833
O 4.72494230 7.97399081 9.68591392
O 9.81387514 9.08678410 4.12951705
O 8.34468972 1.90538839 1.81973184
O 0.54633145 10.18567428 1.45197853
O 6.75832381 1.40186997 0.58274467
O 9.75283665 3.90372428 7.54380650
O 3.48445245 6.50570694 1.82499789
O 7.97439768 4.79193445 6.48977786
O 8.52625286 0.10720457 4.62076637
O 3.61252260 3.99533828 7.73394650
O 0.43708964 0.35410758 8.22791369
O 3.32994143 2.90788583 9.68019646
O 2.70008458 1.49227960 4.71690468
O 1.68775315 5.67422842 8.27391892
O 8.53337464 9.02113562 1.91857912
O 6.96851030 2.97730201 6.22337563
O 0.94252192 3.13316453 9.28420010
O 2.20778526 0.28220851 6.72419707
O 1.16745175 5.76518005 1.25116888
O 3.38428926 3.95092824 5.47605451
O 2.34975495 2.93793084 1.78173392
O 5.40161506 3.51777282 4.37979877
O 9.41262060 7.52198361 0.40355047
O 1.21478587 10.50018834 3.89479553
O 7.95085925 6.99570101 6.69246530
O 3.98030411 5.31035730 3.37618793
O 3.56998198 8.39040009 6.75381665
O 7.25210532 6.76569794 0.25498945
O 8.23160472 10.50370164 10.14090864
135
Time=500000.00000301 pbc="T T T" Lattice="10.56489661 0.00000000 0.00000000 0.00000000 10.56489661 0.00000000 0.00000000 0.00000000 10.56489661" energy=-817.98638333 virial="469.28050442 20.84572926 -32.46150249 20.84572926 542.70066519 -35.11473957 -32.46150249 -35.11473957 467.76100371" stress="0.44728418 0.01767752 -0.02752789 0.01767752 0.50954568 -0.02977787 -0.02752789 -0.02977787 0.44599562" Properties=species:S:1:pos:R:3
Ca 0.93079266 6.02740791 3.43314176
Ca 3.59668042 7.40365073 2.73178001
Ca 0.30261575 2.25520094 4.18766005
Ca 9.71016034 8.14821417 2.10822003
Ca 5.08876990 7.90118641 7.44989526
Ca 3.11457303 1.09970402 3.51354961
Ca 3.17240812 3.95160105 5.08179297
Ca 2.00720338 2.22206995 1.66024131
Ca 6.68765767 0.06941280 0.77728572
Ca 4.52895691 1.94624548 6.45071224
Ca 3.04761311 7.95718185 0.00872017
Ca 8.18090089 1.55217469 1.22395799
Ca 9.21785221 1.64610536 7.59865513
Ca 7.75643585 8.00133691 5.16413896
Ca 9.12958258 5.67279522 4.15694702
Ca 9.77803801 3.60999631 6.55183611
Ca 8.65414060 7.76402673 8.00759934
Ca 8.30768627 6.96255796 0.57533575
Ca 5.55129311 1.68636624 2.67796386
Ca 8.96989232 9.43329331 9.95986442
Ca 9.85593610 9.53556486 5.96946308
Ca 6.58500088 8.64658455 2.66113240
Ca 9.96551924 2.17547099 10.30897085
Ca 5.20607867 5.97418359 5.53756606
Ca 3.98861377 10.38496750 8.75048497
Ca 7.35299164 3.80446010 9.16657904
Ca 2.28405023 5.75498740 7.81500750
Si 2.03905462 2.96504408 8.45061795
Si 9.97544001 4.69262272 1.48794083
Si 4.60082474 9.65585538 4.92557663
Si 6.50568389 0.16560985 5.69207054
Si 4.54554136 4.16434266 8.22987390
Si 0.63864500 0.13765573 9.13387380
Si 0.64599586 6.76920405 10.42689421
Si 5.64963194 5.81653358 0.01074832
Si 3.49037038 4.41302212 2.69322168
Si 7.45820251 5.51875586 6.58175564
Si 2.76505150 4.81392708 0.26607793
Si 8.19360844 2.41902800 4.22559931
Si 6.52176797 6.09140446 2.72763305
Si 2.79977402 7.87571885 5.89298363
Si 1.81522296 9.13670160 3.86494174
Si 7.17174208 0.23970757 8.51493031
Si 9.60477075 5.04803142 8.90183027
Si 3.82455575 10.31471430 0.98237044
Si 4.87058488 2.28321866 10.22634261
Si 0.03118671 6.32547901 6.02095546
Si 6.62425542 3.77470396 1.75682565
Si 8.61386059 0.04744410 3.25346708
Si 5.99949708 8.26739646 9.97410653
Si 1.69869544 0.79062732 6.30054244
Si 6.57559205 3.17703683 6.19724034
Si 1.68899625 8.76624213 8.28550574
Si 0.68791897 10.44240645 1.54914152
O 10.19904570 8.97927284 8.30381247
O 2.91440991 6.29130623 6.20982983
O 1.97865484 9.94486190 9.53521077
O 6.17290384 9.76610303 4.36039897
O 5.34427409 2.71152676 8.67684083
O 9.07812950 5.47591962 6.12422014
O 10.00619818 6.30965926 1.96426547
O 9.20246157 0.90311146 4.47921182
O 7.00220375 5.00433702 5.12018846
O 4.45659775 9.35638387 10.39280816
O 6.65710129 6.90657434 9.53604311
O 3.18566070 4.18841523 9.20192017
O 6.83572157 7.06414684 6.94377277
O 1.59250525 7.92112131 4.63270966
O 9.32561946 3.53205202 8.88272058
O 7.18088818 0.74658736 2.64962532
O 10.34465338 6.11487000 8.11643016
O 2.40698433 0.34683714 1.29035705
O 4.79254697 9.92017652 2.23187241
O 5.29805678 9.93119653 6.54094002
O 5.26647048 7.40866849 0.94213942
O 5.06366753 3.39365692 5.58103508
O 1.62087544 5.62276343 10.35945201
O 7.82564767 7.01259204 2.72587898
O 9.24766034 3.60235902 4.57000988
O 7.27542046 8.81193422 0.41260610
O 7.91005332 9.82481517 6.15260613
O 10.09860262 7.76351302 10.49073773
O 2.74862390 5.62627292 1.66509632
O 10.49309714 1.22087676 2.14636910
O 6.45874851 2.46764292 0.42804712
O 9.89453473 5.47756530 0.00202995
O 7.23963376 1.58409120 5.03225428
O 6.19258789 4.03316499 7.56789680
O 9.60097958 7.52284012 5.70443714
O 3.19634359 1.64713045 9.90722873
O 6.17688379 7.23174957 4.00030631
O 1.39948423 7.70844014 6.52667991
O 3.34989389 8.35041263 7.92927630
O 7.23436021 5.08012349 0.68965968
O 0.89953402 1.65090736 8.70116226
O 4.53492743 1.21865611 0.81493137
O 5.36209672 5.31515899 1.74787272
O 2.47849190 1.31069552 7.50873557
O 0.25843753 9.61030983 2.83034921
O 1.52770226 7.34132663 1.32489410
O 3.83079512 6.11631060 10.02158389
O 0.60143911 5.10873371 5.18083156
O 3.68243837 3.74467472 1.05355110
O 7.80098424 2.76995619 2.80337655
O 3.38143241 9.61560208 3.74713452
O 0.67118386 3.66857993 0.41092817
O 9.11180853 10.17433023 1.68311933
O 4.47630780 8.06087025 5.08778764
O 6.03870782 0.77315400 9.54159042
O 1.25372689 10.04700727 7.16778438
O 1.37464249 7.60062984 9.37003646
O 2.25870396 2.10878506 5.56787641
O 8.04898135 3.04679565 7.00183867
O 8.61418363 1.05901973 9.72087712
O 6.26240686 9.19596101 8.67320988
O 5.45741379 3.61002024 3.23330608
O 8.03605600 5.49838984 8.37875494
O 0.00207244 1.43198921 6.19177041
O 10.41643014 0.06721966 0.02436484
O 8.28088347 10.06489452 7.80529026
O 7.64158032 4.72386654 2.77610473
O 3.05587777 9.43031286 5.98811654
O 0.29478595 3.99391655 2.86783787
O 4.65342007 0.82816180 4.59044274
O 0.91316366 3.85038496 8.07582847
O 2.91559009 3.03232709 3.15533285
O 8.79255073 9.27783433 3.98895724
O 2.71389756 9.26323217 1.43129824
O 5.29348216 4.57663792 9.65859103
O 8.94747981 3.58380937 1.05930142
O 4.44375872 5.46742119 7.49638144
O 3.76188642 5.47333569 3.90734618
O 3.05443228 3.46318271 7.34176885
O 1.21528652 10.51073096 4.73606076
O 6.06861813 1.13844298 6.94207217
135
Time=600000.00000594 pbc="T T T" Lattice="10.56489661 0.00000000 0.00000000 0.00000000 10.56489661 0.00000000 0.00000000 0.00000000 10.56489661" energy=-820.50713189 virial="487.06676707 42.51871228 23.40862954 42.51871228 425.69733960 24.64582853 23.40862954 24.64582853 454.89450922" stress="0.46236723 0.03605656 0.01985090 0.03605656 0.41032495 0.02090007 0.01985090 0.02090007 0.43508462" Properties=species:S:1:pos:R:3
Ca 0.90732934 2.46770485 10.17807970
Ca 2.41721832 5.08797621 8.70896538
Ca 10.55476490 8.26382846 8.16273556
Ca 6.06282747 4.44556087 1.89853970
Ca 6.24672771 8.48736083 6.08191839
Ca 2.75914750 9.81677755 2.83339104
Ca 4.24649255 0.53368030 5.38215086
Ca 2.74301444 4.31243079 4.38174032
Ca 8.64553013 7.01844807 5.69752377
Ca 7.08358523 0.54048484 0.59144076
Ca 2.79494791 8.41631476 5.28379393
Ca 8.64098557 10.18674678 8.13729271
Ca 1.15826992 6.51947040 6.70175518
Ca 8.83025419 8.30995964 3.61956767
Ca 2.17539114 10.35718043 6.94758429
Ca 1.68815630 3.02075575 2.29039903
Ca 0.09877736 5.87359088 10.39390268
Ca 4.27495054 9.59258442 0.63960298
Ca 5.80283154 9.49899803 8.40845000
Ca 2.78797107 0.79465293 9.08496560
Ca 8.59853071 2.31560316 9.32490734
Ca 6.69514845 4.22289084 9.74576323
Ca 3.28607229 6.36896245 2.89631655
Ca 2.13389582 8.22616885 9.72198529
Ca 6.36242073 7.79608118 1.14025854
Ca 6.95926417 1.35916769 2.83427444
Ca 9.71080996 0.94206841 2.27988403
Si 10.27835886 9.67653867 5.17340512
Si 3.94186793 5.67430567 5.91398924
Si 1.24338651 1.43485111 4.59090105
Si 4.42522767 2.48524644 2.26518587
Si 9.01277169 3.76053344 0.83860179
Si 4.07161920 2.84563190 7.66600279
Si 0.90740985 6.74342598 3.09592211
Si 9.02172906 8.14634015 10.55704141
Si 8.34796432 3.09796469 4.29240931
Si 1.72088602 2.93535001 7.20817774
Si 6.57901903 1.81379118 7.42638960
Si 0.09532699 10.36365550 10.38760053
Si 8.89279145 4.42049592 7.32569402
Si 10.01859732 1.23507136 6.87205058
Si 7.67184058 0.27983860 5.36679635
Si 5.39580326 3.08672715 4.78087117
Si 6.10900593 6.50643302 4.05095158
Si 5.73444970 9.70361768 3.38930266
Si 4.88017112 6.03591295 9.49647933
Si 10.47858233 4.40253883 5.14689697
Si 7.41941034 7.21220938 8.62520993
Si 4.92285762 1.77192450 10.33831541
Si 2.89635167 5.32143815 0.71017196
Si 8.75349562 5.40716816 2.43175761
Si 3.82184378 8.41166398 7.94352262
Si 0.52754420 8.65251070 1.89317315
Si 6.60713820 4.81492366 6.31785972
O 5.68690613 2.64616185 1.15803111
O 8.09216297 3.89022571 2.81829394
O 7.88808720 5.48011236 1.05205068
O 5.63230604 0.21389106 10.23947640
O 3.86783882 2.50250679 5.23386661
O 1.22392630 10.39476157 9.32484334
O 4.72622307 4.90747227 8.80229708
O 0.82856558 5.71019551 4.86262985
O 1.59453851 5.18292995 2.35582534
O 7.74206711 2.80671036 0.99111105
O 0.94795001 6.39344877 8.55042322
O 5.67813294 2.60043606 6.43119132
O 0.93674663 3.37716182 4.51909417
O 3.42316923 2.19845485 0.55198674
O 5.11136215 4.55969304 6.65339077
O 5.99711951 7.35397583 8.00101392
O 8.77581956 9.50624687 5.75398101
O 10.26820038 4.56295788 1.56077284
O 10.56273338 1.02285689 5.33691296
O 5.30884812 6.35625358 2.63768581
O 4.57832927 4.90303725 0.25907882
O 0.78042506 1.68176992 3.15657180
O 6.97945598 1.17827199 8.91938479
O 3.69406994 9.71617009 8.97169972
O 6.47458471 8.36210214 4.00970752
O 6.71322478 3.94875988 4.84775075
O 9.87620897 5.74150844 7.02389297
O 7.49060917 9.55576147 2.31535566
O 0.47610622 1.74213951 8.12881445
O 9.78939895 9.50353143 1.41436630
O 5.49287786 2.95079237 3.31164603
O 1.91256103 10.35296242 4.80338238
O 8.96577108 6.90758960 9.52618499
O 1.89310695 7.86709301 3.60415494
O 9.25985133 4.13688840 9.60364668
O 6.46318307 6.28585854 5.80424221
O 8.59235363 1.25064081 7.04118543
O 1.88768054 8.98344328 1.20118231
O 4.75998818 7.28613343 5.29533871
O 1.18804753 0.69616589 1.05642380
O 6.19884099 10.54924458 4.54903462