<?xml version="1.0" encoding="ISO-8859-1"?>
<modeling>
 <generator>
  <i name="program" type="string">vasp </i>
  <i name="version" type="string">5.4.4.18Apr17-6-g9f103f2a35  </i>
  <i name="subversion" type="string">(build Oct 31 2019 15:01:46) complex            parallel </i>
  <i name="platform" type="string">LinuxIFC </i>
  <i name="date" type="string">2024 04 30 </i>
  <i name="time" type="string">12:43:05 </i>
 </generator>
 <incar>
  <i type="int" name="ISTART">     0</i>
  <i type="string" name="PREC">anormal</i>
  <i type="logical" name="ADDGRID"> T  </i>
  <i type="int" name="IBRION">    -1</i>
  <i name="EDIFF">      0.00000100</i>
  <i name="EDIFFG">     -0.01000000</i>
  <i type="int" name="NSW">     1</i>
  <i type="int" name="ISIF">     2</i>
  <i type="int" name="ISYM">     2</i>
  <i name="ENCUT">    600.00000000</i>
  <i name="POTIM">      1.00000000</i>
  <i type="string" name="LREAL"> Auto.</i>
  <i type="int" name="ISMEAR">     0</i>
  <i name="SIGMA">      0.05000000</i>
  <i name="KSPACING">      0.25000000</i>
  <i type="logical" name="LWAVE"> F  </i>
  <i type="logical" name="LCHARG"> F  </i>
  <i type="logical" name="LSCALAPACK"> F  </i>
  <v type="int" name="KPOINT_BSE">    -1     0     0     0</v>
 </incar>
 <structure name="primitive_cell" >
  <crystal>
   <varray name="basis" >
    <v>      13.79398668       0.00000000       0.00000000 </v>
    <v>      -6.89699334      11.94594288       0.00000000 </v>
    <v>       0.00000000       0.00000000      27.81022107 </v>
   </varray>
   <i name="volume">   4582.62876984 </i>
   <varray name="rec_basis" >
    <v>       0.07249536       0.04185521       0.00000000 </v>
    <v>       0.00000000       0.08371043       0.00000000 </v>
    <v>       0.00000000       0.00000000       0.03595800 </v>
   </varray>
  </crystal>
  <varray name="positions" >
   <v>       0.08660907       0.15599815      -0.45098644 </v>
   <v>       0.00319744       0.01015365      -0.49832988 </v>
   <v>       0.25097640       0.24695328      -0.49487271 </v>
   <v>       0.16352771       0.07699723      -0.39036946 </v>
   <v>       0.00234665       0.24801636       0.49737464 </v>
   <v>      -0.08094061       0.08538938      -0.39406780 </v>
   <v>       0.16761222       0.33048562      -0.39461307 </v>
   <v>       0.15621140       0.08837965       0.45573512 </v>
   <v>       0.08798850      -0.07842612      -0.45947404 </v>
   <v>      -0.08623563       0.07859507       0.45702887 </v>
   <v>       0.16352342       0.32888334       0.45629531 </v>
   <v>       0.33978587       0.17258291      -0.45576710 </v>
   <v>      -0.16856117      -0.07863851      -0.45317740 </v>
   <v>      -0.15254076       0.17511480      -0.45927988 </v>
   <v>       0.33271938       0.42272901      -0.45548767 </v>
   <v>       0.09348487       0.41866841      -0.45469078 </v>
   <v>       0.24715912      -0.01274602      -0.49461426 </v>
   <v>       0.40935051       0.32223636      -0.39827994 </v>
   <v>      -0.23926479      -0.01073072       0.49724611 </v>
   <v>       0.08788928       0.18643601       0.39920903 </v>
   <v>      -0.10449092      -0.16650365      -0.38852685 </v>
   <v>       0.25404585      -0.49148779      -0.49868092 </v>
   <v>      -0.08376483       0.33578150      -0.39331269 </v>
   <v>       0.40338116       0.32629945       0.45813459 </v>
   <v>      -0.09247614      -0.16311577       0.45325976 </v>
   <v>      -0.08429468       0.32841973       0.45508961 </v>
   <v>       0.16978877      -0.15830895      -0.39408167 </v>
   <v>       0.31409074       0.15977244       0.39618789 </v>
   <v>       0.00514571      -0.24946210      -0.49949725 </v>
   <v>       0.49985422       0.24971577      -0.49934531 </v>
   <v>      -0.24001588      -0.25623958       0.49486149 </v>
   <v>       0.32839996       0.40470578       0.39533392 </v>
   <v>      -0.49643863       0.49895484      -0.49594609 </v>
   <v>       0.42249281       0.07948944      -0.39451408 </v>
   <v>       0.41276601      -0.42979758      -0.39038942 </v>
   <v>       0.07365111      -0.09918690       0.39487227 </v>
   <v>      -0.15554588      -0.07315068       0.38972733 </v>
   <v>       0.00634258       0.49965681      -0.49681414 </v>
   <v>       0.39417255       0.07259009       0.45423287 </v>
   <v>      -0.25295804       0.24529966       0.49555908 </v>
   <v>      -0.33774438       0.07863386      -0.39657430 </v>
   <v>      -0.34389681      -0.16982927      -0.38977009 </v>
   <v>       0.10237297       0.41900026       0.39101906 </v>
   <v>      -0.16345724       0.18110032       0.39198662 </v>
   <v>       0.17787327      -0.40748474      -0.39417162 </v>
   <v>       0.16139155      -0.16780839       0.45193555 </v>
   <v>       0.33051131      -0.08396498      -0.45302757 </v>
   <v>      -0.16087879      -0.33049972      -0.45645151 </v>
   <v>      -0.42432905       0.40651419      -0.45752665 </v>
   <v>      -0.33168572      -0.17020013       0.45566689 </v>
   <v>       0.41534060      -0.42126279       0.45738881 </v>
   <v>      -0.41551196      -0.08044801      -0.46240204 </v>
   <v>       0.16375811      -0.41343353       0.45615549 </v>
   <v>      -0.33933587       0.08826505       0.45401236 </v>
   <v>      -0.16338856       0.42206372      -0.45278924 </v>
   <v>       0.34186120      -0.32624256      -0.45067375 </v>
   <v>      -0.40482166      -0.32933227      -0.44980790 </v>
   <v>       0.08945095      -0.33207585      -0.45284757 </v>
   <v>      -0.41550452       0.16976810      -0.45982596 </v>
   <v>      -0.07204079      -0.40641858      -0.39748053 </v>
   <v>       0.25239333      -0.24999938      -0.49560586 </v>
   <v>       0.31337175      -0.09349901       0.39359710 </v>
   <v>      -0.49992411       0.00023825      -0.49993751 </v>
   <v>      -0.49437885      -0.24835224       0.49850034 </v>
   <v>      -0.41797232       0.41069657       0.39437363 </v>
   <v>      -0.16208544      -0.33607807       0.39230915 </v>
   <v>      -0.33176000      -0.42636203      -0.39425605 </v>
   <v>      -0.41040917      -0.06504928       0.39265795 </v>
   <v>      -0.32409473       0.33392030      -0.39525119 </v>
   <v>       0.32553806      -0.33866698       0.39564679 </v>
   <v>      -0.08174155      -0.42340962       0.45592668 </v>
   <v>      -0.33402286      -0.42372635       0.45409985 </v>
   <v>      -0.16251101       0.43138034       0.39191056 </v>
   <v>      -0.32461774       0.34021130       0.45254520 </v>
   <v>       0.42250480      -0.15233944      -0.39332967 </v>
   <v>      -0.42191880       0.16166747       0.39476843 </v>
   <v>      -0.24918294       0.49751619       0.49828710 </v>
   <v>       0.07578948      -0.34317087       0.39533332 </v>
   <v>      -0.41401526      -0.32607037       0.39062378 </v>
   <v>       0.42206368      -0.17103857       0.45407359 </v>
  </varray>
 </structure>
 <varray name="primitive_index" >
  <v type="int" >        1 </v>
  <v type="int" >       65 </v>
  <v type="int" >       70 </v>
  <v type="int" >       49 </v>
  <v type="int" >       66 </v>
  <v type="int" >       61 </v>
  <v type="int" >       50 </v>
  <v type="int" >       17 </v>
  <v type="int" >        4 </v>
  <v type="int" >       29 </v>
  <v type="int" >       18 </v>
  <v type="int" >        5 </v>
  <v type="int" >       16 </v>
  <v type="int" >       13 </v>
  <v type="int" >        6 </v>
  <v type="int" >        2 </v>
  <v type="int" >       69 </v>
  <v type="int" >       54 </v>
  <v type="int" >       77 </v>
  <v type="int" >       33 </v>
  <v type="int" >       64 </v>
  <v type="int" >       71 </v>
  <v type="int" >       62 </v>
  <v type="int" >       22 </v>
  <v type="int" >       32 </v>
  <v type="int" >       30 </v>
  <v type="int" >       52 </v>
  <v type="int" >       37 </v>
  <v type="int" >       68 </v>
  <v type="int" >       74 </v>
  <v type="int" >       80 </v>
  <v type="int" >       38 </v>
  <v type="int" >       75 </v>
  <v type="int" >       53 </v>
  <v type="int" >       55 </v>
  <v type="int" >       36 </v>
  <v type="int" >       48 </v>
  <v type="int" >       67 </v>
  <v type="int" >       21 </v>
  <v type="int" >       78 </v>
  <v type="int" >       57 </v>
  <v type="int" >       60 </v>
  <v type="int" >       34 </v>
  <v type="int" >       45 </v>
  <v type="int" >       51 </v>
  <v type="int" >       20 </v>
  <v type="int" >        8 </v>
  <v type="int" >       15 </v>
  <v type="int" >       10 </v>
  <v type="int" >       28 </v>
  <v type="int" >       23 </v>
  <v type="int" >       12 </v>
  <v type="int" >       19 </v>
  <v type="int" >       25 </v>
  <v type="int" >       14 </v>
  <v type="int" >        7 </v>
  <v type="int" >       11 </v>
  <v type="int" >        3 </v>
  <v type="int" >        9 </v>
  <v type="int" >       63 </v>
  <v type="int" >       72 </v>
  <v type="int" >       40 </v>
  <v type="int" >       73 </v>
  <v type="int" >       76 </v>
  <v type="int" >       42 </v>
  <v type="int" >       47 </v>
  <v type="int" >       59 </v>
  <v type="int" >       44 </v>
  <v type="int" >       58 </v>
  <v type="int" >       39 </v>
  <v type="int" >       31 </v>
  <v type="int" >       27 </v>
  <v type="int" >       46 </v>
  <v type="int" >       26 </v>
  <v type="int" >       56 </v>
  <v type="int" >       41 </v>
  <v type="int" >       79 </v>
  <v type="int" >       35 </v>
  <v type="int" >       43 </v>
  <v type="int" >       24 </v>
 </varray>
 <kpoints>
  <generation param="Gamma">
   <v type="int" name="divisions">       3        3        1 </v>
   <v name="usershift">      0.00000000       0.00000000       0.00000000 </v>
   <v name="genvec1">      0.33333333      -0.00000000       0.00000000 </v>
   <v name="genvec2">      0.00000000       0.33333333       0.00000000 </v>
   <v name="genvec3">      0.00000000       0.00000000       1.00000000 </v>
   <v name="shift">      0.00000000       0.00000000       0.00000000 </v>
  </generation>
  <varray name="kpointlist" >
   <v>       0.00000000       0.00000000       0.00000000 </v>
   <v>       0.33333333      -0.00000000       0.00000000 </v>
   <v>       0.00000000       0.33333333       0.00000000 </v>
   <v>       0.33333333       0.33333333       0.00000000 </v>
   <v>      -0.33333333       0.33333333       0.00000000 </v>
  </varray>
  <varray name="weights" >
   <v>       0.11111111 </v>
   <v>       0.22222222 </v>
   <v>       0.22222222 </v>
   <v>       0.22222222 </v>
   <v>       0.22222222 </v>
  </varray>
 </kpoints>
 <parameters>
  <separator name="general" >
   <i type="string" name="SYSTEM">unknown system</i>
   <i type="logical" name="LCOMPAT"> F  </i>
  </separator>
  <separator name="electronic" >
   <i type="string" name="PREC">anorma</i>
   <i name="ENMAX">    600.00000000</i>
   <i name="ENAUG">    644.87300000</i>
   <i name="EDIFF">      0.00000100</i>
   <i type="int" name="IALGO">    38</i>
   <i type="int" name="IWAVPR">    10</i>
   <i type="int" name="NBANDS">   384</i>
   <i name="NELECT">    640.00000000</i>
   <i type="int" name="TURBO">     0</i>
   <i type="int" name="IRESTART">     0</i>
   <i type="int" name="NREBOOT">     0</i>
   <i type="int" name="NMIN">     0</i>
   <i name="EREF">      0.00000000</i>
   <separator name="electronic smearing" >
    <i type="int" name="ISMEAR">     0</i>
    <i name="SIGMA">      0.05000000</i>
    <i name="KSPACING">      0.25000000</i>
    <i type="logical" name="KGAMMA"> T  </i>
   </separator>
   <separator name="electronic projectors" >
    <i type="logical" name="LREAL"> T  </i>
    <v name="ROPT">     -0.00025000     -0.00025000     -0.00025000</v>
    <i type="int" name="LMAXPAW">  -100</i>
    <i type="int" name="LMAXMIX">     2</i>
    <i type="logical" name="NLSPLINE"> F  </i>
   </separator>
   <separator name="electronic startup" >
    <i type="int" name="ISTART">     0</i>
    <i type="int" name="ICHARG">     2</i>
    <i type="int" name="INIWAV">     1</i>
   </separator>
   <separator name="electronic spin" >
    <i type="int" name="ISPIN">     1</i>
    <i type="logical" name="LNONCOLLINEAR"> F  </i>
    <v name="MAGMOM">      1.00000000      1.00000000      1.00000000      1.00000000      1.00000000      1.00000000      1.00000000      1.00000000      1.00000000      1.00000000      1.00000000      1.00000000      1.00000000      1.00000000      1.00000000      1.00000000      1.00000000      1.00000000      1.00000000      1.00000000
      1.00000000      1.00000000      1.00000000      1.00000000      1.00000000      1.00000000      1.00000000      1.00000000      1.00000000      1.00000000      1.00000000      1.00000000      1.00000000      1.00000000      1.00000000      1.00000000      1.00000000      1.00000000      1.00000000      1.00000000
      1.00000000      1.00000000      1.00000000      1.00000000      1.00000000      1.00000000      1.00000000      1.00000000      1.00000000      1.00000000      1.00000000      1.00000000      1.00000000      1.00000000      1.00000000      1.00000000      1.00000000      1.00000000      1.00000000      1.00000000
      1.00000000      1.00000000      1.00000000      1.00000000      1.00000000      1.00000000      1.00000000      1.00000000      1.00000000      1.00000000      1.00000000      1.00000000      1.00000000      1.00000000      1.00000000      1.00000000      1.00000000      1.00000000      1.00000000      1.00000000
</v>
    <i name="NUPDOWN">     -1.00000000</i>
    <i type="logical" name="LSORBIT"> F  </i>
    <v name="SAXIS">      0.00000000      0.00000000      1.00000000</v>
    <i type="logical" name="LSPIRAL"> F  </i>
    <v name="QSPIRAL">      0.00000000      0.00000000      0.00000000</v>
    <i type="logical" name="LZEROZ"> F  </i>
   </separator>
   <separator name="electronic exchange-correlation" >
    <i type="logical" name="LASPH"> F  </i>
    <i type="logical" name="LMETAGGA"> F  </i>
   </separator>
   <separator name="electronic convergence" >
    <i type="int" name="NELM">    60</i>
    <i type="int" name="NELMDL">    -5</i>
    <i type="int" name="NELMIN">     2</i>
    <i name="ENINI">    600.00000000</i>
    <separator name="electronic convergence detail" >
     <i type="logical" name="LDIAG"> T  </i>
     <i type="logical" name="LSUBROT"> F  </i>
     <i name="WEIMIN">      0.00000000</i>
     <i name="EBREAK">      0.00000000</i>
     <i name="DEPER">      0.30000000</i>
     <i type="int" name="NRMM">     4</i>
     <i name="TIME">      0.40000000</i>
    </separator>
   </separator>
   <separator name="electronic mixer" >
    <i name="AMIX">      0.40000000</i>
    <i name="BMIX">      1.00000000</i>
    <i name="AMIN">      0.10000000</i>
    <i name="AMIX_MAG">      1.60000000</i>
    <i name="BMIX_MAG">      1.00000000</i>
    <separator name="electronic mixer details" >
     <i type="int" name="IMIX">     4</i>
     <i type="logical" name="MIXFIRST"> F  </i>
     <i type="int" name="MAXMIX">   -45</i>
     <i name="WC">    100.00000000</i>
     <i type="int" name="INIMIX">     1</i>
     <i type="int" name="MIXPRE">     1</i>
     <i type="int" name="MREMOVE">     5</i>
    </separator>
   </separator>
   <separator name="electronic dipolcorrection" >
    <i type="logical" name="LDIPOL"> F  </i>
    <i type="logical" name="LMONO"> F  </i>
    <i type="int" name="IDIPOL">     0</i>
    <i name="EPSILON">      1.00000000</i>
    <v name="DIPOL">   -100.00000000   -100.00000000   -100.00000000</v>
    <i name="EFIELD">      0.00000000</i>
   </separator>
  </separator>
  <separator name="grids" >
   <i type="int" name="NGX">   112</i>
   <i type="int" name="NGY">   112</i>
   <i type="int" name="NGZ">   224</i>
   <i type="int" name="NGXF">   224</i>
   <i type="int" name="NGYF">   224</i>
   <i type="int" name="NGZF">   448</i>
   <i type="logical" name="ADDGRID"> T  </i>
  </separator>
  <separator name="ionic" >
   <i type="int" name="NSW">     1</i>
   <i type="int" name="IBRION">    -1</i>
   <i type="int" name="MDALGO">     0</i>
   <i type="int" name="ISIF">     2</i>
   <i name="PSTRESS">      0.00000000</i>
   <i name="EDIFFG">     -0.01000000</i>
   <i type="int" name="NFREE">     0</i>
   <i name="POTIM">      1.00000000</i>
   <i name="SMASS">     -3.00000000</i>
   <i name="SCALEE">      1.00000000</i>
  </separator>
  <separator name="ionic md" >
   <i name="TEBEG">      0.00010000</i>
   <i name="TEEND">      0.00010000</i>
   <i type="int" name="NBLOCK">     1</i>
   <i type="int" name="KBLOCK">     1</i>
   <i type="int" name="NPACO">   256</i>
   <i name="APACO">     16.00000000</i>
  </separator>
  <separator name="symmetry" >
   <i type="int" name="ISYM">     2</i>
   <i name="SYMPREC">      0.00001000</i>
  </separator>
  <separator name="dos" >
   <i type="int" name="LORBIT">     0</i>
   <v name="RWIGS">     -1.00000000     -1.00000000     -1.00000000</v>
   <i type="int" name="NEDOS">   301</i>
   <i name="EMIN">     10.00000000</i>
   <i name="EMAX">    -10.00000000</i>
   <i name="EFERMI">      0.00000000</i>
  </separator>
  <separator name="writing" >
   <i type="int" name="NWRITE">     2</i>
   <i type="logical" name="LWAVE"> F  </i>
   <i type="logical" name="LDOWNSAMPLE"> F  </i>
   <i type="logical" name="LCHARG"> F  </i>
   <i type="logical" name="LPARD"> F  </i>
   <i type="logical" name="LVTOT"> F  </i>
   <i type="logical" name="LVHAR"> F  </i>
   <i type="logical" name="LELF"> F  </i>
   <i type="logical" name="LOPTICS"> F  </i>
   <v name="STM">      0.00000000      0.00000000      0.00000000      0.00000000      0.00000000      0.00000000      0.00000000</v>
  </separator>
  <separator name="performance" >
   <i type="int" name="NPAR">     4</i>
   <i type="int" name="NSIM">     4</i>
   <i type="int" name="NBLK">    -1</i>
   <i type="logical" name="LPLANE"> T  </i>
   <i type="logical" name="LSCALAPACK"> F  </i>
   <i type="logical" name="LSCAAWARE"> F  </i>
   <i type="logical" name="LSCALU"> F  </i>
   <i type="logical" name="LASYNC"> F  </i>
   <i type="logical" name="LORBITALREAL"> F  </i>
  </separator>
  <separator name="miscellaneous" >
   <i type="int" name="IDIOT">     3</i>
   <i type="int" name="ISPECIAL">     0</i>
   <i type="logical" name="LMUSIC"> F  </i>
   <v name="POMASS">     44.95600000     35.45300000     12.01100000</v>
   <v name="DARWINR">      0.00000000      0.00000000      0.00000000</v>
   <v name="DARWINV">      1.00000000      1.00000000      1.00000000</v>
   <i type="logical" name="LCORR"> T  </i>
  </separator>
  <i type="logical" name="GGA_COMPAT"> T  </i>
  <i type="logical" name="LBERRY"> F  </i>
  <i type="int" name="ICORELEVEL">     0</i>
  <i type="logical" name="LDAU"> F  </i>
  <i type="int" name="I_CONSTRAINED_M">     0</i>
  <separator name="electronic exchange-correlation" >
   <i type="string" name="GGA">--</i>
   <i type="int" name="VOSKOWN">     0</i>
   <i type="logical" name="LHFCALC"> F  </i>
   <i type="string" name="PRECFOCK"></i>
   <i type="logical" name="LSYMGRAD"> F  </i>
   <i type="logical" name="LHFONE"> F  </i>
   <i type="logical" name="LRHFCALC"> F  </i>
   <i type="logical" name="LTHOMAS"> F  </i>
   <i type="logical" name="LMODELHF"> F  </i>
   <i name="ENCUT4O">     -1.00000000</i>
   <i type="int" name="EXXOEP">     0</i>
   <i type="int" name="FOURORBIT">     0</i>
   <i name="AEXX">      0.00000000</i>
   <i name="HFALPHA">      0.00000000</i>
   <i name="MCALPHA">      0.00000000</i>
   <i name="ALDAX">      1.00000000</i>
   <i name="AGGAX">      1.00000000</i>
   <i name="ALDAC">      1.00000000</i>
   <i name="AGGAC">      1.00000000</i>
   <i type="int" name="NKREDX">     1</i>
   <i type="int" name="NKREDY">     1</i>
   <i type="int" name="NKREDZ">     1</i>
   <i type="logical" name="SHIFTRED"> F  </i>
   <i type="logical" name="ODDONLY"> F  </i>
   <i type="logical" name="EVENONLY"> F  </i>
   <i type="int" name="LMAXFOCK">     0</i>
   <i type="int" name="NMAXFOCKAE">     0</i>
   <i type="logical" name="LFOCKAEDFT"> F  </i>
   <i name="HFSCREEN">      0.00000000</i>
   <i name="HFSCREENC">      0.00000000</i>
   <i type="int" name="NBANDSGWLOW">     0</i>
  </separator>
  <separator name="vdW DFT" >
   <i type="logical" name="LUSE_VDW"> F  </i>
   <i name="Zab_VDW">     -0.84910000</i>
   <i name="PARAM1">      0.12340000</i>
   <i name="PARAM2">      1.00000000</i>
   <i name="PARAM3">      0.00000000</i>
  </separator>
  <separator name="model GW" >
   <i type="int" name="MODEL_GW">     0</i>
   <i name="MODEL_EPS0">     34.36971577</i>
   <i name="MODEL_ALPHA">      1.00000000</i>
  </separator>
  <separator name="linear response parameters" >
   <i type="logical" name="LEPSILON"> F  </i>
   <i type="logical" name="LRPA"> F  </i>
   <i type="logical" name="LNABLA"> F  </i>
   <i type="logical" name="LVEL"> F  </i>
   <i type="int" name="KINTER">     0</i>
   <i name="CSHIFT">      0.10000000</i>
   <i name="OMEGAMAX">     -1.00000000</i>
   <i name="DEG_THRESHOLD">      0.00200000</i>
   <i name="RTIME">     -0.10000000</i>
   <i name="WPLASMAI">      0.00000000</i>
   <v name="DFIELD">      0.00000000      0.00000000      0.00000000</v>
   <v name="WPLASMA">      0.00000000      0.00000000      0.00000000      0.00000000      0.00000000      0.00000000      0.00000000      0.00000000      0.00000000</v>
  </separator>
  <separator name="orbital magnetization" >
   <i type="logical" name="NUCIND"> F  </i>
   <v name="MAGPOS">      0.00000000      0.00000000      0.00000000</v>
   <i type="logical" name="LNICSALL"> T  </i>
   <i type="logical" name="ORBITALMAG"> F  </i>
   <i type="logical" name="LMAGBLOCH"> F  </i>
   <i type="logical" name="LCHIMAG"> F  </i>
   <i type="logical" name="LGAUGE"> T  </i>
   <i type="int" name="MAGATOM">     0</i>
   <v name="MAGDIPOL">      0.00000000      0.00000000      0.00000000</v>
   <v name="AVECCONST">      0.00000000      0.00000000      0.00000000</v>
  </separator>
  <separator name="response functions" >
   <i type="logical" name="LADDER"> F  </i>
   <i type="logical" name="LRPAFORCE"> F  </i>
   <i type="logical" name="LFXC"> F  </i>
   <i type="logical" name="LHARTREE"> T  </i>
   <i type="int" name="IBSE">     0</i>
   <v type="int" name="KPOINT">    -1     0     0     0</v>
   <i type="logical" name="LTCTE"> F  </i>
   <i type="logical" name="LTETE"> F  </i>
   <i type="logical" name="LTRIPLET"> F  </i>
   <i type="logical" name="LFXCEPS"> F  </i>
   <i type="logical" name="LFXHEG"> F  </i>
   <i type="int" name="NATURALO">     2</i>
   <i type="logical" name="L2ORDER"> F  </i>
   <i type="logical" name="LMP2LT"> F  </i>
   <i type="logical" name="LUSEW"> F  </i>
   <i name="ENCUTGW">     -2.00000000</i>
   <i name="ENCUTGWSOFT">     -2.00000000</i>
   <i name="ENCUTLF">     -1.00000000</i>
   <i type="int" name="LMAXMP2">    -1</i>
   <i name="SCISSOR">      0.00000000</i>
   <i type="int" name="NOMEGA">     0</i>
   <i type="int" name="NOMEGAR">     0</i>
   <i type="int" name="NBANDSGW">    -1</i>
   <i type="int" name="NBANDSO">    -1</i>
   <i type="int" name="NBANDSV">    -1</i>
   <i type="int" name="NELM">     1</i>
   <i type="int" name="NELMHF">     1</i>
   <i type="int" name="DIM">     3</i>
   <i type="int" name="ANTIRES">     0</i>
   <i name="OMEGAMAX">    -30.00000000</i>
   <i name="OMEGAMIN">    -30.00000000</i>
   <i name="OMEGATL">   -200.00000000</i>
   <i type="int" name="OMEGAGRID">   140</i>
   <i name="CSHIFT">     -0.10000000</i>
   <i type="logical" name="SELFENERGY"> F  </i>
   <i type="logical" name="LSPECTRAL"> F  </i>
   <i type="logical" name="LSPECTRALGW"> F  </i>
   <i type="logical" name="LSINGLES"> F  </i>
   <i type="logical" name="LFERMIGW"> F  </i>
   <i type="logical" name="ODDONLYGW"> F  </i>
   <i type="logical" name="EVENONLYGW"> F  </i>
   <i type="int" name="NKREDLFX">     1</i>
   <i type="int" name="NKREDLFY">     1</i>
   <i type="int" name="NKREDLFZ">     1</i>
   <i type="int" name="MAXMEM">  2800</i>
   <i type="int" name="TELESCOPE">     0</i>
   <i type="int" name="TAUPAR">     1</i>
   <i type="int" name="OMEGAPAR">    -1</i>
   <i name="LAMBDA">      1.00000000</i>
  </separator>
  <separator name="External order field" >
   <i name="OFIELD_KAPPA">      0.00000000</i>
   <v name="OFIELD_K">      0.00000000      0.00000000      0.00000000</v>
   <i name="OFIELD_Q6_NEAR">      0.00000000</i>
   <i name="OFIELD_Q6_FAR">      0.00000000</i>
   <i name="OFIELD_A">      0.00000000</i>
  </separator>
 </parameters>
 <atominfo>
  <atoms>      80 </atoms>
  <types>       3 </types>
  <array name="atoms" >
   <dimension dim="1">ion</dimension>
   <field type="string">element</field>
   <field type="int">atomtype</field>
   <set>
    <rc><c>Sc</c><c>   1</c></rc>
    <rc><c>Sc</c><c>   1</c></rc>
    <rc><c>Sc</c><c>   1</c></rc>
    <rc><c>Sc</c><c>   1</c></rc>
    <rc><c>Sc</c><c>   1</c></rc>
    <rc><c>Sc</c><c>   1</c></rc>
    <rc><c>Sc</c><c>   1</c></rc>
    <rc><c>Sc</c><c>   1</c></rc>
    <rc><c>Sc</c><c>   1</c></rc>
    <rc><c>Sc</c><c>   1</c></rc>
    <rc><c>Sc</c><c>   1</c></rc>
    <rc><c>Sc</c><c>   1</c></rc>
    <rc><c>Sc</c><c>   1</c></rc>
    <rc><c>Sc</c><c>   1</c></rc>
    <rc><c>Sc</c><c>   1</c></rc>
    <rc><c>Sc</c><c>   1</c></rc>
    <rc><c>Sc</c><c>   1</c></rc>
    <rc><c>Sc</c><c>   1</c></rc>
    <rc><c>Sc</c><c>   1</c></rc>
    <rc><c>Sc</c><c>   1</c></rc>
    <rc><c>Sc</c><c>   1</c></rc>
    <rc><c>Sc</c><c>   1</c></rc>
    <rc><c>Sc</c><c>   1</c></rc>
    <rc><c>Sc</c><c>   1</c></rc>
    <rc><c>Sc</c><c>   1</c></rc>
    <rc><c>Sc</c><c>   1</c></rc>
    <rc><c>Sc</c><c>   1</c></rc>
    <rc><c>Sc</c><c>   1</c></rc>
    <rc><c>Sc</c><c>   1</c></rc>
    <rc><c>Sc</c><c>   1</c></rc>
    <rc><c>Sc</c><c>   1</c></rc>
    <rc><c>Sc</c><c>   1</c></rc>
    <rc><c>Cl</c><c>   2</c></rc>
    <rc><c>Cl</c><c>   2</c></rc>
    <rc><c>Cl</c><c>   2</c></rc>
    <rc><c>Cl</c><c>   2</c></rc>
    <rc><c>Cl</c><c>   2</c></rc>
    <rc><c>Cl</c><c>   2</c></rc>
    <rc><c>Cl</c><c>   2</c></rc>
    <rc><c>Cl</c><c>   2</c></rc>
    <rc><c>Cl</c><c>   2</c></rc>
    <rc><c>Cl</c><c>   2</c></rc>
    <rc><c>Cl</c><c>   2</c></rc>
    <rc><c>Cl</c><c>   2</c></rc>
    <rc><c>Cl</c><c>   2</c></rc>
    <rc><c>Cl</c><c>   2</c></rc>
    <rc><c>Cl</c><c>   2</c></rc>
    <rc><c>Cl</c><c>   2</c></rc>
    <rc><c>Cl</c><c>   2</c></rc>
    <rc><c>Cl</c><c>   2</c></rc>
    <rc><c>Cl</c><c>   2</c></rc>
    <rc><c>Cl</c><c>   2</c></rc>
    <rc><c>Cl</c><c>   2</c></rc>
    <rc><c>Cl</c><c>   2</c></rc>
    <rc><c>Cl</c><c>   2</c></rc>
    <rc><c>Cl</c><c>   2</c></rc>
    <rc><c>Cl</c><c>   2</c></rc>
    <rc><c>Cl</c><c>   2</c></rc>
    <rc><c>Cl</c><c>   2</c></rc>
    <rc><c>Cl</c><c>   2</c></rc>
    <rc><c>Cl</c><c>   2</c></rc>
    <rc><c>Cl</c><c>   2</c></rc>
    <rc><c>Cl</c><c>   2</c></rc>
    <rc><c>Cl</c><c>   2</c></rc>
    <rc><c>C </c><c>   3</c></rc>
    <rc><c>C </c><c>   3</c></rc>
    <rc><c>C </c><c>   3</c></rc>
    <rc><c>C </c><c>   3</c></rc>
    <rc><c>C </c><c>   3</c></rc>
    <rc><c>C </c><c>   3</c></rc>
    <rc><c>C </c><c>   3</c></rc>
    <rc><c>C </c><c>   3</c></rc>
    <rc><c>C </c><c>   3</c></rc>
    <rc><c>C </c><c>   3</c></rc>
    <rc><c>C </c><c>   3</c></rc>
    <rc><c>C </c><c>   3</c></rc>
    <rc><c>C </c><c>   3</c></rc>
    <rc><c>C </c><c>   3</c></rc>
    <rc><c>C </c><c>   3</c></rc>
    <rc><c>C </c><c>   3</c></rc>
   </set>
  </array>
  <array name="atomtypes" >
   <dimension dim="1">type</dimension>
   <field type="int">atomspertype</field>
   <field type="string">element</field>
   <field>mass</field>
   <field>valence</field>
   <field type="string">pseudopotential</field>
   <set>
    <rc><c>  32</c><c>Sc</c><c>     44.95600000</c><c>     11.00000000</c><c>  PAW_PBE Sc_sv 07Sep2000               </c></rc>
    <rc><c>  32</c><c>Cl</c><c>     35.45300000</c><c>      7.00000000</c><c>  PAW_PBE Cl 06Sep2000                  </c></rc>
    <rc><c>  16</c><c>C </c><c>     12.01100000</c><c>      4.00000000</c><c>  PAW_PBE C 08Apr2002                   </c></rc>
   </set>
  </array>
 </atominfo>
 <structure name="initialpos" >
  <crystal>
   <varray name="basis" >
    <v>      13.79398668       0.00000000       0.00000000 </v>
    <v>      -6.89699334      11.94594288       0.00000000 </v>
    <v>       0.00000000       0.00000000      27.81022107 </v>
   </varray>
   <i name="volume">   4582.62876984 </i>
   <varray name="rec_basis" >
    <v>       0.07249536       0.04185521       0.00000000 </v>
    <v>       0.00000000       0.08371043       0.00000000 </v>
    <v>       0.00000000       0.00000000       0.03595800 </v>
   </varray>
  </crystal>
  <varray name="positions" >
   <v>       0.08660907       0.15599815       0.54901356 </v>
   <v>       0.09348487       0.41866841       0.54530922 </v>
   <v>       0.08945095       0.66792415       0.54715243 </v>
   <v>       0.08798850       0.92157388       0.54052596 </v>
   <v>       0.33978587       0.17258291       0.54423290 </v>
   <v>       0.33271938       0.42272901       0.54451233 </v>
   <v>       0.34186120       0.67375744       0.54932625 </v>
   <v>       0.33051131       0.91603502       0.54697243 </v>
   <v>       0.58449548       0.16976810       0.54017404 </v>
   <v>       0.57567095       0.40651419       0.54247335 </v>
   <v>       0.59517834       0.67066773       0.55019210 </v>
   <v>       0.58448804       0.91955199       0.53759796 </v>
   <v>       0.84745924       0.17511480       0.54072012 </v>
   <v>       0.83661144       0.42206372       0.54721076 </v>
   <v>       0.83912121       0.66950028       0.54354849 </v>
   <v>       0.83143883       0.92136149       0.54682260 </v>
   <v>       0.15621140       0.08837965       0.45573512 </v>
   <v>       0.16352342       0.32888334       0.45629531 </v>
   <v>       0.16375811       0.58656647       0.45615549 </v>
   <v>       0.16139155       0.83219161       0.45193555 </v>
   <v>       0.39417255       0.07259009       0.45423287 </v>
   <v>       0.40338116       0.32629945       0.45813459 </v>
   <v>       0.41534060       0.57873721       0.45738881 </v>
   <v>       0.42206368       0.82896143       0.45407359 </v>
   <v>       0.66066413       0.08826505       0.45401236 </v>
   <v>       0.67538226       0.34021130       0.45254520 </v>
   <v>       0.66597714       0.57627365       0.45409985 </v>
   <v>       0.66831428       0.82979987       0.45566689 </v>
   <v>       0.91376437       0.07859507       0.45702887 </v>
   <v>       0.91570532       0.32841973       0.45508961 </v>
   <v>       0.91825845       0.57659038       0.45592668 </v>
   <v>       0.90752386       0.83688423       0.45325976 </v>
   <v>       0.08788928       0.18643601       0.39920903 </v>
   <v>       0.10237297       0.41900026       0.39101906 </v>
   <v>       0.07578948       0.65682913       0.39533332 </v>
   <v>       0.07365111       0.90081310       0.39487227 </v>
   <v>       0.31409074       0.15977244       0.39618789 </v>
   <v>       0.32839996       0.40470578       0.39533392 </v>
   <v>       0.32553806       0.66133302       0.39564679 </v>
   <v>       0.31337175       0.90650099       0.39359710 </v>
   <v>       0.57808120       0.16166747       0.39476843 </v>
   <v>       0.58202768       0.41069657       0.39437363 </v>
   <v>       0.58598474       0.67392963       0.39062378 </v>
   <v>       0.58959083       0.93495072       0.39265795 </v>
   <v>       0.83654276       0.18110032       0.39198662 </v>
   <v>       0.83748899       0.43138034       0.39191056 </v>
   <v>       0.83791456       0.66392193       0.39230915 </v>
   <v>       0.84445412       0.92684932       0.38972733 </v>
   <v>       0.16352771       0.07699723       0.60963054 </v>
   <v>       0.16761222       0.33048562       0.60538693 </v>
   <v>       0.17787327       0.59251526       0.60582838 </v>
   <v>       0.16978877       0.84169105       0.60591833 </v>
   <v>       0.42249281       0.07948944       0.60548592 </v>
   <v>       0.40935051       0.32223636       0.60172006 </v>
   <v>       0.41276601       0.57020242       0.60961058 </v>
   <v>       0.42250480       0.84766056       0.60667033 </v>
   <v>       0.66225562       0.07863386       0.60342570 </v>
   <v>       0.67590527       0.33392030       0.60474881 </v>
   <v>       0.66824000       0.57363797       0.60574395 </v>
   <v>       0.65610319       0.83017073       0.61022991 </v>
   <v>       0.91905939       0.08538938       0.60593220 </v>
   <v>       0.91623517       0.33578150       0.60668731 </v>
   <v>       0.92795921       0.59358142       0.60251947 </v>
   <v>       0.89550908       0.83349635       0.61147315 </v>
   <v>       0.00319744       0.01015365       0.50167012 </v>
   <v>       0.00234665       0.24801636       0.49737464 </v>
   <v>       0.00634258       0.49965681       0.50318586 </v>
   <v>       0.00514571       0.75053790       0.50050275 </v>
   <v>       0.24715912       0.98725398       0.50538574 </v>
   <v>       0.25097640       0.24695328       0.50512729 </v>
   <v>       0.25404585       0.50851221       0.50131908 </v>
   <v>       0.25239333       0.75000062       0.50439414 </v>
   <v>       0.50007589       0.00023825       0.50006249 </v>
   <v>       0.49985422       0.24971577       0.50065469 </v>
   <v>       0.50356137       0.49895484       0.50405391 </v>
   <v>       0.50562115       0.75164776       0.49850034 </v>
   <v>       0.76073521       0.98926928       0.49724611 </v>
   <v>       0.74704196       0.24529966       0.49555908 </v>
   <v>       0.75081706       0.49751619       0.49828710 </v>
   <v>       0.75998412       0.74376042       0.49486149 </v>
  </varray>
  <varray name="velocities" >
   <v>       0.00000000       0.00000000       0.00000000 </v>
   <v>       0.00000000       0.00000000       0.00000000 </v>
   <v>       0.00000000       0.00000000       0.00000000 </v>
   <v>       0.00000000       0.00000000       0.00000000 </v>
   <v>       0.00000000       0.00000000       0.00000000 </v>
   <v>       0.00000000       0.00000000       0.00000000 </v>
   <v>       0.00000000       0.00000000       0.00000000 </v>
   <v>       0.00000000       0.00000000       0.00000000 </v>
   <v>       0.00000000       0.00000000       0.00000000 </v>
   <v>       0.00000000       0.00000000       0.00000000 </v>
   <v>       0.00000000       0.00000000       0.00000000 </v>
   <v>       0.00000000       0.00000000       0.00000000 </v>
   <v>       0.00000000       0.00000000       0.00000000 </v>
   <v>       0.00000000       0.00000000       0.00000000 </v>
   <v>       0.00000000       0.00000000       0.00000000 </v>
   <v>       0.00000000       0.00000000       0.00000000 </v>
   <v>       0.00000000       0.00000000       0.00000000 </v>
   <v>       0.00000000       0.00000000       0.00000000 </v>
   <v>       0.00000000       0.00000000       0.00000000 </v>
   <v>       0.00000000       0.00000000       0.00000000 </v>
   <v>       0.00000000       0.00000000       0.00000000 </v>
   <v>       0.00000000       0.00000000       0.00000000 </v>
   <v>       0.00000000       0.00000000       0.00000000 </v>
   <v>       0.00000000       0.00000000       0.00000000 </v>
   <v>       0.00000000       0.00000000       0.00000000 </v>
   <v>       0.00000000       0.00000000       0.00000000 </v>
   <v>       0.00000000       0.00000000       0.00000000 </v>
   <v>       0.00000000       0.00000000       0.00000000 </v>
   <v>       0.00000000       0.00000000       0.00000000 </v>
   <v>       0.00000000       0.00000000       0.00000000 </v>
   <v>       0.00000000       0.00000000       0.00000000 </v>
   <v>       0.00000000       0.00000000       0.00000000 </v>
   <v>       0.00000000       0.00000000       0.00000000 </v>
   <v>       0.00000000       0.00000000       0.00000000 </v>
   <v>       0.00000000       0.00000000       0.00000000 </v>
   <v>       0.00000000       0.00000000       0.00000000 </v>
   <v>       0.00000000       0.00000000       0.00000000 </v>
   <v>       0.00000000       0.00000000       0.00000000 </v>
   <v>       0.00000000       0.00000000       0.00000000 </v>
   <v>       0.00000000       0.00000000       0.00000000 </v>
   <v>       0.00000000       0.00000000       0.00000000 </v>
   <v>       0.00000000       0.00000000       0.00000000 </v>
   <v>       0.00000000       0.00000000       0.00000000 </v>
   <v>       0.00000000       0.00000000       0.00000000 </v>
   <v>       0.00000000       0.00000000       0.00000000 </v>
   <v>       0.00000000       0.00000000       0.00000000 </v>
   <v>       0.00000000       0.00000000       0.00000000 </v>
   <v>       0.00000000       0.00000000       0.00000000 </v>
   <v>       0.00000000       0.00000000       0.00000000 </v>
   <v>       0.00000000       0.00000000       0.00000000 </v>
   <v>       0.00000000       0.00000000       0.00000000 </v>
   <v>       0.00000000       0.00000000       0.00000000 </v>
   <v>       0.00000000       0.00000000       0.00000000 </v>
   <v>       0.00000000       0.00000000       0.00000000 </v>
   <v>       0.00000000       0.00000000       0.00000000 </v>
   <v>       0.00000000       0.00000000       0.00000000 </v>
   <v>       0.00000000       0.00000000       0.00000000 </v>
   <v>       0.00000000       0.00000000       0.00000000 </v>
   <v>       0.00000000       0.00000000       0.00000000 </v>
   <v>       0.00000000       0.00000000       0.00000000 </v>
   <v>       0.00000000       0.00000000       0.00000000 </v>
   <v>       0.00000000       0.00000000       0.00000000 </v>
   <v>       0.00000000       0.00000000       0.00000000 </v>
   <v>       0.00000000       0.00000000       0.00000000 </v>
   <v>       0.00000000       0.00000000       0.00000000 </v>
   <v>       0.00000000       0.00000000       0.00000000 </v>
   <v>       0.00000000       0.00000000       0.00000000 </v>
   <v>       0.00000000       0.00000000       0.00000000 </v>
   <v>       0.00000000       0.00000000       0.00000000 </v>
   <v>       0.00000000       0.00000000       0.00000000 </v>
   <v>       0.00000000       0.00000000       0.00000000 </v>
   <v>       0.00000000       0.00000000       0.00000000 </v>
   <v>       0.00000000       0.00000000       0.00000000 </v>
   <v>       0.00000000       0.00000000       0.00000000 </v>
   <v>       0.00000000       0.00000000       0.00000000 </v>
   <v>       0.00000000       0.00000000       0.00000000 </v>
   <v>       0.00000000       0.00000000       0.00000000 </v>
   <v>       0.00000000       0.00000000       0.00000000 </v>
   <v>       0.00000000       0.00000000       0.00000000 </v>
   <v>       0.00000000       0.00000000       0.00000000 </v>
  </varray>
 </structure>
 <calculation>
  <scstep>
   <time name="dav">   50.03   50.04</time>
   <time name="total">   50.87   50.89</time>
   <energy>
    <i name="alphaZ">    784.57699423 </i>
    <i name="ewald"> 250939.77624351 </i>
    <i name="hartreedc">-298613.13497801 </i>
    <i name="XCdc">   2501.74051504 </i>
    <i name="pawpsdc">  43679.68029659 </i>
    <i name="pawaedc"> -43417.33247688 </i>
    <i name="eentropy">     -0.05492148 </i>
    <i name="bandstr">     90.30716768 </i>
    <i name="atom">  56210.72393729 </i>
    <i name="e_fr_energy">  12176.28277797 </i>
    <i name="e_wo_entrp">  12176.33769944 </i>
    <i name="e_0_energy">  12176.31023871 </i>
   </energy>
  </scstep>
  <scstep>
   <time name="dav">   56.79   56.81</time>
   <time name="total">   56.79   56.81</time>
   <energy>
    <i name="e_fr_energy">   1742.10008372 </i>
    <i name="e_wo_entrp">   1742.15741565 </i>
    <i name="e_0_energy">   1742.12874968 </i>
   </energy>
  </scstep>
  <scstep>
   <time name="dav">   70.93   70.95</time>
   <time name="total">   70.93   70.95</time>
   <energy>
    <i name="e_fr_energy">   -402.77404049 </i>
    <i name="e_wo_entrp">   -402.77404045 </i>
    <i name="e_0_energy">   -402.77404047 </i>
   </energy>
  </scstep>
  <scstep>
   <time name="dav">   64.74   64.76</time>
   <time name="total">   64.74   64.76</time>
   <energy>
    <i name="e_fr_energy">   -642.91792554 </i>
    <i name="e_wo_entrp">   -642.91792554 </i>
    <i name="e_0_energy">   -642.91792554 </i>
   </energy>
  </scstep>
  <scstep>
   <time name="dav">   64.62   64.64</time>
   <time name="total">   68.53   68.55</time>
   <energy>
    <i name="e_fr_energy">   -653.60295212 </i>
    <i name="e_wo_entrp">   -653.60295212 </i>
    <i name="e_0_energy">   -653.60295212 </i>
   </energy>
  </scstep>
  <scstep>
   <time name="dav">   62.63   62.64</time>
   <time name="total">   67.36   67.39</time>
   <energy>
    <i name="e_fr_energy">   -523.27260973 </i>
    <i name="e_wo_entrp">   -523.27260973 </i>
    <i name="e_0_energy">   -523.27260973 </i>
   </energy>
  </scstep>
  <scstep>
   <time name="dav">   63.21   63.23</time>
   <time name="total">   67.92   67.94</time>
   <energy>
    <i name="e_fr_energy">   -527.84569132 </i>
    <i name="e_wo_entrp">   -527.84569132 </i>
    <i name="e_0_energy">   -527.84569132 </i>
   </energy>
  </scstep>
  <scstep>
   <time name="dav">   62.38   62.39</time>
   <time name="total">   67.09   67.11</time>
   <energy>
    <i name="e_fr_energy">   -525.67382363 </i>
    <i name="e_wo_entrp">   -525.67382363 </i>
    <i name="e_0_energy">   -525.67382363 </i>
   </energy>
  </scstep>
  <scstep>
   <time name="dav">   58.69   58.70</time>
   <time name="total">   63.40   63.42</time>
   <energy>
    <i name="e_fr_energy">   -525.17271680 </i>
    <i name="e_wo_entrp">   -525.17271680 </i>
    <i name="e_0_energy">   -525.17271680 </i>
   </energy>
  </scstep>
  <scstep>
   <time name="dav">   61.60   61.62</time>
   <time name="total">   66.31   66.33</time>
   <energy>
    <i name="e_fr_energy">   -525.05097049 </i>
    <i name="e_wo_entrp">   -525.05097049 </i>
    <i name="e_0_energy">   -525.05097049 </i>
   </energy>
  </scstep>
  <scstep>
   <time name="dav">   62.45   62.46</time>
   <time name="total">   67.14   67.16</time>
   <energy>
    <i name="e_fr_energy">   -525.03076531 </i>
    <i name="e_wo_entrp">   -525.03076531 </i>
    <i name="e_0_energy">   -525.03076531 </i>
   </energy>
  </scstep>
  <scstep>
   <time name="dav">   63.74   63.75</time>
   <time name="total">   68.44   68.46</time>
   <energy>
    <i name="e_fr_energy">   -525.01903339 </i>
    <i name="e_wo_entrp">   -525.01903339 </i>
    <i name="e_0_energy">   -525.01903339 </i>
   </energy>
  </scstep>
  <scstep>
   <time name="dav">   59.62   59.63</time>
   <time name="total">   64.32   64.34</time>
   <energy>
    <i name="e_fr_energy">   -525.01656079 </i>
    <i name="e_wo_entrp">   -525.01656079 </i>
    <i name="e_0_energy">   -525.01656079 </i>
   </energy>
  </scstep>
  <scstep>
   <time name="dav">   58.77   58.78</time>
   <time name="total">   63.47   63.49</time>
   <energy>
    <i name="e_fr_energy">   -525.01474831 </i>
    <i name="e_wo_entrp">   -525.01474831 </i>
    <i name="e_0_energy">   -525.01474831 </i>
   </energy>
  </scstep>
  <scstep>
   <time name="dav">   59.56   59.57</time>
   <time name="total">   64.27   64.29</time>
   <energy>
    <i name="e_fr_energy">   -525.01601413 </i>
    <i name="e_wo_entrp">   -525.01601413 </i>
    <i name="e_0_energy">   -525.01601413 </i>
   </energy>
  </scstep>
  <scstep>
   <time name="dav">   62.51   62.53</time>
   <time name="total">   67.22   67.24</time>
   <energy>
    <i name="e_fr_energy">   -525.01783507 </i>
    <i name="e_wo_entrp">   -525.01783507 </i>
    <i name="e_0_energy">   -525.01783507 </i>
   </energy>
  </scstep>
  <scstep>
   <time name="dav">   58.16   58.17</time>
   <time name="total">   62.87   62.89</time>
   <energy>
    <i name="e_fr_energy">   -525.02085044 </i>
    <i name="e_wo_entrp">   -525.02085044 </i>
    <i name="e_0_energy">   -525.02085044 </i>
   </energy>
  </scstep>
  <scstep>
   <time name="dav">   54.68   54.69</time>
   <time name="total">   59.40   59.42</time>
   <energy>
    <i name="e_fr_energy">   -525.02333804 </i>
    <i name="e_wo_entrp">   -525.02333804 </i>
    <i name="e_0_energy">   -525.02333804 </i>
   </energy>
  </scstep>
  <scstep>
   <time name="dav">   54.62   54.63</time>
   <time name="total">   59.33   59.35</time>
   <energy>
    <i name="e_fr_energy">   -525.02440598 </i>
    <i name="e_wo_entrp">   -525.02440598 </i>
    <i name="e_0_energy">   -525.02440598 </i>
   </energy>
  </scstep>
  <scstep>
   <time name="dav">   50.34   50.35</time>
   <time name="total">   55.05   55.07</time>
   <energy>
    <i name="e_fr_energy">   -525.02562835 </i>
    <i name="e_wo_entrp">   -525.02562835 </i>
    <i name="e_0_energy">   -525.02562835 </i>
   </energy>
  </scstep>
  <scstep>
   <time name="dav">   48.62   48.63</time>
   <time name="total">   53.33   53.35</time>
   <energy>
    <i name="e_fr_energy">   -525.02609667 </i>
    <i name="e_wo_entrp">   -525.02609667 </i>
    <i name="e_0_energy">   -525.02609667 </i>
   </energy>
  </scstep>
  <scstep>
   <time name="dav">   45.05   45.06</time>
   <time name="total">   49.75   49.77</time>
   <energy>
    <i name="e_fr_energy">   -525.02636872 </i>
    <i name="e_wo_entrp">   -525.02636872 </i>
    <i name="e_0_energy">   -525.02636872 </i>
   </energy>
  </scstep>
  <scstep>
   <time name="dav">   43.02   43.03</time>
   <time name="total">   47.75   47.77</time>
   <energy>
    <i name="e_fr_energy">   -525.02687447 </i>
    <i name="e_wo_entrp">   -525.02687447 </i>
    <i name="e_0_energy">   -525.02687447 </i>
   </energy>
  </scstep>
  <scstep>
   <time name="dav">   40.53   40.54</time>
   <time name="total">   45.25   45.28</time>
   <energy>
    <i name="e_fr_energy">   -525.02716492 </i>
    <i name="e_wo_entrp">   -525.02716492 </i>
    <i name="e_0_energy">   -525.02716492 </i>
   </energy>
  </scstep>
  <scstep>
   <time name="dav">   39.20   39.21</time>
   <time name="total">   43.91   43.93</time>
   <energy>
    <i name="e_fr_energy">   -525.02724092 </i>
    <i name="e_wo_entrp">   -525.02724092 </i>
    <i name="e_0_energy">   -525.02724092 </i>
   </energy>
  </scstep>
  <scstep>
   <time name="dav">   41.23   41.24</time>
   <time name="total">   45.96   45.98</time>
   <energy>
    <i name="e_fr_energy">   -525.02734412 </i>
    <i name="e_wo_entrp">   -525.02734412 </i>
    <i name="e_0_energy">   -525.02734412 </i>
   </energy>
  </scstep>
  <scstep>
   <time name="dav">   35.33   35.34</time>
   <time name="total">   40.06   40.08</time>
   <energy>
    <i name="e_fr_energy">   -525.02735843 </i>
    <i name="e_wo_entrp">   -525.02735843 </i>
    <i name="e_0_energy">   -525.02735843 </i>
   </energy>
  </scstep>
  <scstep>
   <time name="dav">   33.45   33.46</time>
   <time name="total">   38.16   38.18</time>
   <energy>
    <i name="e_fr_energy">   -525.02736345 </i>
    <i name="e_wo_entrp">   -525.02736345 </i>
    <i name="e_0_energy">   -525.02736345 </i>
   </energy>
  </scstep>
  <scstep>
   <time name="dav">   35.15   35.16</time>
   <time name="total">   39.86   39.88</time>
   <energy>
    <i name="e_fr_energy">   -525.02737661 </i>
    <i name="e_wo_entrp">   -525.02737661 </i>
    <i name="e_0_energy">   -525.02737661 </i>
   </energy>
  </scstep>
  <scstep>
   <time name="dav">   36.59   36.60</time>
   <time name="total">   41.30   41.33</time>
   <energy>
    <i name="e_fr_energy">   -525.02738870 </i>
    <i name="e_wo_entrp">   -525.02738870 </i>
    <i name="e_0_energy">   -525.02738870 </i>
   </energy>
  </scstep>
  <scstep>
   <time name="dav">   33.45   33.46</time>
   <time name="total">   38.19   38.21</time>
   <energy>
    <i name="e_fr_energy">   -525.02739170 </i>
    <i name="e_wo_entrp">   -525.02739170 </i>
    <i name="e_0_energy">   -525.02739170 </i>
   </energy>
  </scstep>
  <scstep>
   <time name="dav">   33.14   33.15</time>
   <time name="total">   37.89   37.90</time>
   <energy>
    <i name="e_fr_energy">   -525.02739312 </i>
    <i name="e_wo_entrp">   -525.02739312 </i>
    <i name="e_0_energy">   -525.02739312 </i>
   </energy>
  </scstep>
  <scstep>
   <time name="dav">   32.51   32.52</time>
   <time name="total">   33.33   33.34</time>
   <energy>
    <i name="alphaZ">    784.57699423 </i>
    <i name="ewald"> 250939.77624351 </i>
    <i name="hartreedc">-298899.73883847 </i>
    <i name="XCdc">   2488.79348071 </i>
    <i name="pawpsdc">  59246.18657190 </i>
    <i name="pawaedc"> -59078.08643171 </i>
    <i name="eentropy">     -0.00000000 </i>
    <i name="bandstr"> -12217.25935133 </i>
    <i name="atom">  56210.72393729 </i>
    <i name="e_fr_energy">   -525.02739388 </i>
    <i name="e_wo_entrp">   -525.02739388 </i>
    <i name="e_0_energy">   -525.02739388 </i>
   </energy>
  </scstep>
  <structure>
   <crystal>
    <varray name="basis" >
     <v>      13.79398668       0.00000000       0.00000000 </v>
     <v>      -6.89699334      11.94594288       0.00000000 </v>
     <v>       0.00000000       0.00000000      27.81022107 </v>
    </varray>
    <i name="volume">   4582.62876984 </i>
    <varray name="rec_basis" >
     <v>       0.07249536       0.04185521       0.00000000 </v>
     <v>       0.00000000       0.08371043       0.00000000 </v>
     <v>       0.00000000       0.00000000       0.03595800 </v>
    </varray>
   </crystal>
   <varray name="positions" >
    <v>       0.08660907       0.15599815       0.54901356 </v>
    <v>       0.09348487       0.41866841       0.54530922 </v>
    <v>       0.08945095       0.66792415       0.54715243 </v>
    <v>       0.08798850       0.92157388       0.54052596 </v>
    <v>       0.33978587       0.17258291       0.54423290 </v>
    <v>       0.33271938       0.42272901       0.54451233 </v>
    <v>       0.34186120       0.67375744       0.54932625 </v>
    <v>       0.33051131       0.91603502       0.54697243 </v>
    <v>       0.58449548       0.16976810       0.54017404 </v>
    <v>       0.57567095       0.40651419       0.54247335 </v>
    <v>       0.59517834       0.67066773       0.55019210 </v>
    <v>       0.58448804       0.91955199       0.53759796 </v>
    <v>       0.84745924       0.17511480       0.54072012 </v>
    <v>       0.83661144       0.42206372       0.54721076 </v>
    <v>       0.83912121       0.66950028       0.54354849 </v>
    <v>       0.83143883       0.92136149       0.54682260 </v>
    <v>       0.15621140       0.08837965       0.45573512 </v>
    <v>       0.16352342       0.32888334       0.45629531 </v>
    <v>       0.16375811       0.58656647       0.45615549 </v>
    <v>       0.16139155       0.83219161       0.45193555 </v>
    <v>       0.39417255       0.07259009       0.45423287 </v>
    <v>       0.40338116       0.32629945       0.45813459 </v>
    <v>       0.41534060       0.57873721       0.45738881 </v>
    <v>       0.42206368       0.82896143       0.45407359 </v>
    <v>       0.66066413       0.08826505       0.45401236 </v>
    <v>       0.67538226       0.34021130       0.45254520 </v>
    <v>       0.66597714       0.57627365       0.45409985 </v>
    <v>       0.66831428       0.82979987       0.45566689 </v>
    <v>       0.91376437       0.07859507       0.45702887 </v>
    <v>       0.91570532       0.32841973       0.45508961 </v>
    <v>       0.91825845       0.57659038       0.45592668 </v>
    <v>       0.90752386       0.83688423       0.45325976 </v>
    <v>       0.08788928       0.18643601       0.39920903 </v>
    <v>       0.10237297       0.41900026       0.39101906 </v>
    <v>       0.07578948       0.65682913       0.39533332 </v>
    <v>       0.07365111       0.90081310       0.39487227 </v>
    <v>       0.31409074       0.15977244       0.39618789 </v>
    <v>       0.32839996       0.40470578       0.39533392 </v>
    <v>       0.32553806       0.66133302       0.39564679 </v>
    <v>       0.31337175       0.90650099       0.39359710 </v>
    <v>       0.57808120       0.16166747       0.39476843 </v>
    <v>       0.58202768       0.41069657       0.39437363 </v>
    <v>       0.58598474       0.67392963       0.39062378 </v>
    <v>       0.58959083       0.93495072       0.39265795 </v>
    <v>       0.83654276       0.18110032       0.39198662 </v>
    <v>       0.83748899       0.43138034       0.39191056 </v>
    <v>       0.83791456       0.66392193       0.39230915 </v>
    <v>       0.84445412       0.92684932       0.38972733 </v>
    <v>       0.16352771       0.07699723       0.60963054 </v>
    <v>       0.16761222       0.33048562       0.60538693 </v>
    <v>       0.17787327       0.59251526       0.60582838 </v>
    <v>       0.16978877       0.84169105       0.60591833 </v>
    <v>       0.42249281       0.07948944       0.60548592 </v>
    <v>       0.40935051       0.32223636       0.60172006 </v>
    <v>       0.41276601       0.57020242       0.60961058 </v>
    <v>       0.42250480       0.84766056       0.60667033 </v>
    <v>       0.66225562       0.07863386       0.60342570 </v>
    <v>       0.67590527       0.33392030       0.60474881 </v>
    <v>       0.66824000       0.57363797       0.60574395 </v>
    <v>       0.65610319       0.83017073       0.61022991 </v>
    <v>       0.91905939       0.08538938       0.60593220 </v>
    <v>       0.91623517       0.33578150       0.60668731 </v>
    <v>       0.92795921       0.59358142       0.60251947 </v>
    <v>       0.89550908       0.83349635       0.61147315 </v>
    <v>       0.00319744       0.01015365       0.50167012 </v>
    <v>       0.00234665       0.24801636       0.49737464 </v>
    <v>       0.00634258       0.49965681       0.50318586 </v>
    <v>       0.00514571       0.75053790       0.50050275 </v>
    <v>       0.24715912       0.98725398       0.50538574 </v>
    <v>       0.25097640       0.24695328       0.50512729 </v>
    <v>       0.25404585       0.50851221       0.50131908 </v>
    <v>       0.25239333       0.75000062       0.50439414 </v>
    <v>       0.50007589       0.00023825       0.50006249 </v>
    <v>       0.49985422       0.24971577       0.50065469 </v>
    <v>       0.50356137       0.49895484       0.50405391 </v>
    <v>       0.50562115       0.75164776       0.49850034 </v>
    <v>       0.76073521       0.98926928       0.49724611 </v>
    <v>       0.74704196       0.24529966       0.49555908 </v>
    <v>       0.75081706       0.49751619       0.49828710 </v>
    <v>       0.75998412       0.74376042       0.49486149 </v>
   </varray>
  </structure>
  <varray name="forces" >
   <v>      -0.55169879       0.97111989      -0.04621023 </v>
   <v>      -0.92305262       0.19238085      -0.06960744 </v>
   <v>      -0.03146770       0.66606170      -0.88189124 </v>
   <v>      -0.15860197      -1.17785923       1.35482551 </v>
   <v>       0.10127155      -1.51000887       0.52813697 </v>
   <v>       0.51145881      -0.31686008       0.51254539 </v>
   <v>      -0.44824394       0.10826656      -0.81443631 </v>
   <v>       0.54305512      -0.19049010      -0.40468633 </v>
   <v>       0.10306581      -0.67396930       0.90630678 </v>
   <v>       0.64195369       0.88493279       0.57810561 </v>
   <v>      -0.45803405      -0.82483511      -0.80063769 </v>
   <v>       0.05448272       0.19235993       1.84386316 </v>
   <v>      -1.04036257      -0.64700977       1.15480932 </v>
   <v>       0.29672397      -0.24444475      -0.69999026 </v>
   <v>      -0.02238225       0.30242437      -0.17792562 </v>
   <v>       0.59801852      -0.45642120       0.22898136 </v>
   <v>       0.49811909      -0.48011618       0.26877884 </v>
   <v>      -0.25849453       1.47673752       0.89877989 </v>
   <v>       0.78856700      -0.19490223       0.56603220 </v>
   <v>      -0.05926802      -0.83915539       1.83837794 </v>
   <v>       1.47265161       0.33203064       0.39069275 </v>
   <v>       1.06061450       0.63277184      -0.43683414 </v>
   <v>       0.15757699       0.63224215      -0.25877066 </v>
   <v>      -0.97675847       0.18741058       0.23069075 </v>
   <v>       0.38692284      -0.09593836      -0.57998928 </v>
   <v>      -0.40109589      -0.56203782       0.20820728 </v>
   <v>       0.06317223       0.57096426       0.00805100 </v>
   <v>       0.10706311      -0.08260958      -0.75676029 </v>
   <v>       0.08485770       0.70553213      -0.88807380 </v>
   <v>       0.23294849       0.75966009      -0.26558159 </v>
   <v>      -0.41692616       0.91767724       0.49721249 </v>
   <v>       1.39175794      -0.73851811      -0.14247034 </v>
   <v>       0.17456505      -1.83261267      -1.18745747 </v>
   <v>      -0.86699857       0.10881393       0.69253518 </v>
   <v>       0.29378565       0.29171275      -0.13509462 </v>
   <v>      -0.31532294       0.93699645      -0.20459074 </v>
   <v>       0.52957055       0.08236825      -0.10520810 </v>
   <v>       0.28705213       0.67940867       0.23258843 </v>
   <v>       0.48174055       0.34455657       0.08272742 </v>
   <v>       0.95130177       0.48908209      -0.20273311 </v>
   <v>      -0.51460069       0.28672608       0.00014500 </v>
   <v>      -0.38090555       0.00856197       0.10957432 </v>
   <v>      -0.00018207      -0.38567841       0.64401747 </v>
   <v>       0.17470417      -0.98378107       0.15954740 </v>
   <v>       0.17886423      -0.48877324       0.25029225 </v>
   <v>       0.35458564      -0.87423000       0.14464943 </v>
   <v>      -0.43098676       0.13404120       0.50845473 </v>
   <v>      -0.26957396      -0.09265872       0.42253788 </v>
   <v>       0.12122585       0.04083880      -0.47005884 </v>
   <v>      -0.09133333       0.08360224       0.06085486 </v>
   <v>      -0.11660097      -0.48053340       0.34721774 </v>
   <v>      -0.27466328      -0.34514076       0.04621875 </v>
   <v>      -0.32417465       0.61431263      -0.21975286 </v>
   <v>       0.16638729       0.71634706       0.82248645 </v>
   <v>       0.13282295       0.62676660      -0.32511483 </v>
   <v>       0.46814661      -0.71910774      -0.24956866 </v>
   <v>       0.46115651       0.32505477      -0.72756953 </v>
   <v>      -0.46474011      -0.14908933      -0.14415016 </v>
   <v>      -0.08752677       0.15655359      -0.22761576 </v>
   <v>       0.16065529       0.07895152      -0.80312915 </v>
   <v>      -0.34345039       0.09807040      -0.12888215 </v>
   <v>       0.38710422      -0.16637434      -0.45523452 </v>
   <v>      -0.41902852      -0.42387260       0.68567922 </v>
   <v>       0.73305827      -0.25465922      -0.81919255 </v>
   <v>       0.28635109      -0.86602052      -0.43472531 </v>
   <v>      -0.47982924       0.41088941       0.69490819 </v>
   <v>      -0.47217812      -0.17883870      -0.54241042 </v>
   <v>      -0.50184959       0.03113923      -0.07007658 </v>
   <v>      -0.43289383       1.39318227      -1.89929484 </v>
   <v>      -0.43967623      -0.07029295      -1.21204782 </v>
   <v>       0.57373914      -0.82330491       0.17616968 </v>
   <v>       0.45321541      -0.27447642      -0.82944219 </v>
   <v>       0.11469718      -0.04520033      -0.83940876 </v>
   <v>      -0.65094517      -0.35039490      -0.56569607 </v>
   <v>      -0.73515962       0.07423469      -0.87949960 </v>
   <v>       0.03678218      -0.11712345       0.25172751 </v>
   <v>      -1.54257918       0.65046973       0.56835111 </v>
   <v>       0.61893263       0.69777189       0.52358523 </v>
   <v>       0.26342065      -0.12829323       0.18847989 </v>
   <v>      -1.59656022       0.19260763       1.27467451 </v>
  </varray>
  <varray name="stress" >
   <v>       1.70357522      -0.40434677      -2.12388739 </v>
   <v>      -0.40434681       2.74184531      -0.93021638 </v>
   <v>      -2.12388736      -0.93021637      -4.74488114 </v>
  </varray>
  <energy>
   <i name="e_fr_energy">   -525.02739388 </i>
   <i name="e_wo_entrp">   -525.02739388 </i>
   <i name="e_0_energy">     -0.00000000 </i>
  </energy>
  <time name="totalsc"> 1897.78 1898.46</time>
  <eigenvalues>
   <array>
    <dimension dim="1">band</dimension>
    <dimension dim="2">kpoint</dimension>
    <dimension dim="3">spin</dimension>
    <field>eigene</field>
    <field>occ</field>
    <set>
     <set comment="spin 1">
      <set comment="kpoint 1">
       <r>  -52.0811    1.0000 </r>
       <r>  -51.7908    1.0000 </r>
       <r>  -51.7712    1.0000 </r>
       <r>  -51.6959    1.0000 </r>
       <r>  -51.6879    1.0000 </r>
       <r>  -51.6594    1.0000 </r>
       <r>  -51.6067    1.0000 </r>
       <r>  -51.5965    1.0000 </r>
       <r>  -51.5940    1.0000 </r>
       <r>  -51.5696    1.0000 </r>
       <r>  -51.5657    1.0000 </r>
       <r>  -51.5311    1.0000 </r>
       <r>  -51.5307    1.0000 </r>
       <r>  -51.5075    1.0000 </r>
       <r>  -51.4921    1.0000 </r>
       <r>  -51.4899    1.0000 </r>
       <r>  -51.4819    1.0000 </r>
       <r>  -51.4553    1.0000 </r>
       <r>  -51.4404    1.0000 </r>
       <r>  -51.4240    1.0000 </r>
       <r>  -51.4093    1.0000 </r>
       <r>  -51.3988    1.0000 </r>
       <r>  -51.3739    1.0000 </r>
       <r>  -51.3498    1.0000 </r>
       <r>  -51.3216    1.0000 </r>
       <r>  -51.3192    1.0000 </r>
       <r>  -51.2279    1.0000 </r>
       <r>  -51.2260    1.0000 </r>
       <r>  -51.2184    1.0000 </r>
       <r>  -51.1879    1.0000 </r>
       <r>  -51.1613    1.0000 </r>
       <r>  -51.0385    1.0000 </r>
       <r>  -30.7387    1.0000 </r>
       <r>  -30.7135    1.0000 </r>
       <r>  -30.6715    1.0000 </r>
       <r>  -30.5395    1.0000 </r>
       <r>  -30.4978    1.0000 </r>
       <r>  -30.4804    1.0000 </r>
       <r>  -30.4550    1.0000 </r>
       <r>  -30.4496    1.0000 </r>
       <r>  -30.4214    1.0000 </r>
       <r>  -30.4151    1.0000 </r>
       <r>  -30.3871    1.0000 </r>
       <r>  -30.3816    1.0000 </r>
       <r>  -30.3775    1.0000 </r>
       <r>  -30.3633    1.0000 </r>
       <r>  -30.3531    1.0000 </r>
       <r>  -30.3493    1.0000 </r>
       <r>  -30.3447    1.0000 </r>
       <r>  -30.3340    1.0000 </r>
       <r>  -30.3229    1.0000 </r>
       <r>  -30.3166    1.0000 </r>
       <r>  -30.3081    1.0000 </r>
       <r>  -30.3018    1.0000 </r>
       <r>  -30.2956    1.0000 </r>
       <r>  -30.2944    1.0000 </r>
       <r>  -30.2783    1.0000 </r>
       <r>  -30.2714    1.0000 </r>
       <r>  -30.2584    1.0000 </r>
       <r>  -30.2456    1.0000 </r>
       <r>  -30.2431    1.0000 </r>
       <r>  -30.2327    1.0000 </r>
       <r>  -30.2261    1.0000 </r>
       <r>  -30.2225    1.0000 </r>
       <r>  -30.2168    1.0000 </r>
       <r>  -30.2103    1.0000 </r>
       <r>  -30.2051    1.0000 </r>
       <r>  -30.2039    1.0000 </r>
       <r>  -30.2006    1.0000 </r>
       <r>  -30.1885    1.0000 </r>
       <r>  -30.1848    1.0000 </r>
       <r>  -30.1795    1.0000 </r>
       <r>  -30.1711    1.0000 </r>
       <r>  -30.1696    1.0000 </r>
       <r>  -30.1655    1.0000 </r>
       <r>  -30.1600    1.0000 </r>
       <r>  -30.1568    1.0000 </r>
       <r>  -30.1446    1.0000 </r>
       <r>  -30.1425    1.0000 </r>
       <r>  -30.1397    1.0000 </r>
       <r>  -30.1361    1.0000 </r>
       <r>  -30.1319    1.0000 </r>
       <r>  -30.1274    1.0000 </r>
       <r>  -30.1207    1.0000 </r>
       <r>  -30.1134    1.0000 </r>
       <r>  -30.1093    1.0000 </r>
       <r>  -30.1050    1.0000 </r>
       <r>  -30.1030    1.0000 </r>
       <r>  -30.0943    1.0000 </r>
       <r>  -30.0780    1.0000 </r>
       <r>  -30.0683    1.0000 </r>
       <r>  -30.0637    1.0000 </r>
       <r>  -30.0610    1.0000 </r>
       <r>  -30.0575    1.0000 </r>
       <r>  -30.0458    1.0000 </r>
       <r>  -30.0385    1.0000 </r>
       <r>  -30.0297    1.0000 </r>
       <r>  -30.0284    1.0000 </r>
       <r>  -30.0215    1.0000 </r>
       <r>  -30.0116    1.0000 </r>
       <r>  -30.0053    1.0000 </r>
       <r>  -29.9953    1.0000 </r>
       <r>  -29.9866    1.0000 </r>
       <r>  -29.9784    1.0000 </r>
       <r>  -29.9738    1.0000 </r>
       <r>  -29.9610    1.0000 </r>
       <r>  -29.9496    1.0000 </r>
       <r>  -29.9490    1.0000 </r>
       <r>  -29.9363    1.0000 </r>
       <r>  -29.9171    1.0000 </r>
       <r>  -29.8945    1.0000 </r>
       <r>  -29.8887    1.0000 </r>
       <r>  -29.8856    1.0000 </r>
       <r>  -29.8745    1.0000 </r>
       <r>  -29.8743    1.0000 </r>
       <r>  -29.8696    1.0000 </r>
       <r>  -29.8617    1.0000 </r>
       <r>  -29.8579    1.0000 </r>
       <r>  -29.8481    1.0000 </r>
       <r>  -29.8452    1.0000 </r>
       <r>  -29.8405    1.0000 </r>
       <r>  -29.8265    1.0000 </r>
       <r>  -29.8046    1.0000 </r>
       <r>  -29.7923    1.0000 </r>
       <r>  -29.7765    1.0000 </r>
       <r>  -29.7227    1.0000 </r>
       <r>  -29.6891    1.0000 </r>
       <r>  -29.6798    1.0000 </r>
       <r>  -18.7637    1.0000 </r>
       <r>  -18.5225    1.0000 </r>
       <r>  -18.4652    1.0000 </r>
       <r>  -18.4284    1.0000 </r>
       <r>  -18.3614    1.0000 </r>
       <r>  -18.2540    1.0000 </r>
       <r>  -18.2493    1.0000 </r>
       <r>  -18.2119    1.0000 </r>
       <r>  -18.1965    1.0000 </r>
       <r>  -18.1600    1.0000 </r>
       <r>  -18.1392    1.0000 </r>
       <r>  -18.0989    1.0000 </r>
       <r>  -18.0662    1.0000 </r>
       <r>  -18.0566    1.0000 </r>
       <r>  -18.0476    1.0000 </r>
       <r>  -17.9789    1.0000 </r>
       <r>  -17.9676    1.0000 </r>
       <r>  -17.9509    1.0000 </r>
       <r>  -17.9347    1.0000 </r>
       <r>  -17.9190    1.0000 </r>
       <r>  -17.8545    1.0000 </r>
       <r>  -17.8381    1.0000 </r>
       <r>  -17.8003    1.0000 </r>
       <r>  -17.7597    1.0000 </r>
       <r>  -17.7560    1.0000 </r>
       <r>  -17.6878    1.0000 </r>
       <r>  -17.6775    1.0000 </r>
       <r>  -17.5716    1.0000 </r>
       <r>  -17.5606    1.0000 </r>
       <r>  -17.5532    1.0000 </r>
       <r>  -17.4055    1.0000 </r>
       <r>  -17.3777    1.0000 </r>
       <r>  -11.8595    1.0000 </r>
       <r>  -11.5209    1.0000 </r>
       <r>  -11.4900    1.0000 </r>
       <r>  -11.4189    1.0000 </r>
       <r>  -11.4096    1.0000 </r>
       <r>  -11.3491    1.0000 </r>
       <r>  -11.3191    1.0000 </r>
       <r>  -11.0662    1.0000 </r>
       <r>  -11.0225    1.0000 </r>
       <r>  -10.9965    1.0000 </r>
       <r>  -10.9534    1.0000 </r>
       <r>  -10.9245    1.0000 </r>
       <r>  -10.8887    1.0000 </r>
       <r>  -10.8612    1.0000 </r>
       <r>  -10.7608    1.0000 </r>
       <r>  -10.6767    1.0000 </r>
       <r>   -8.1063    1.0000 </r>
       <r>   -8.0221    1.0000 </r>
       <r>   -7.9667    1.0000 </r>
       <r>   -7.7923    1.0000 </r>
       <r>   -7.7763    1.0000 </r>
       <r>   -7.7464    1.0000 </r>
       <r>   -7.6871    1.0000 </r>
       <r>   -7.5851    1.0000 </r>
       <r>   -7.5096    1.0000 </r>
       <r>   -7.4557    1.0000 </r>
       <r>   -7.4257    1.0000 </r>
       <r>   -7.4089    1.0000 </r>
       <r>   -7.3950    1.0000 </r>
       <r>   -7.3803    1.0000 </r>
       <r>   -7.3533    1.0000 </r>
       <r>   -7.3186    1.0000 </r>
       <r>   -7.3068    1.0000 </r>
       <r>   -7.2699    1.0000 </r>
       <r>   -7.2546    1.0000 </r>
       <r>   -7.2007    1.0000 </r>
       <r>   -7.1699    1.0000 </r>
       <r>   -7.0610    1.0000 </r>
       <r>   -7.0365    1.0000 </r>
       <r>   -7.0188    1.0000 </r>
       <r>   -6.9668    1.0000 </r>
       <r>   -6.9484    1.0000 </r>
       <r>   -6.9247    1.0000 </r>
       <r>   -6.9036    1.0000 </r>
       <r>   -6.8849    1.0000 </r>
       <r>   -6.8740    1.0000 </r>
       <r>   -6.8161    1.0000 </r>
       <r>   -6.7996    1.0000 </r>
       <r>   -6.7901    1.0000 </r>
       <r>   -6.7800    1.0000 </r>
       <r>   -6.7417    1.0000 </r>
       <r>   -6.7266    1.0000 </r>
       <r>   -6.7190    1.0000 </r>
       <r>   -6.6902    1.0000 </r>
       <r>   -6.6843    1.0000 </r>
       <r>   -6.6806    1.0000 </r>
       <r>   -6.6517    1.0000 </r>
       <r>   -6.6391    1.0000 </r>
       <r>   -6.6355    1.0000 </r>
       <r>   -6.6244    1.0000 </r>
       <r>   -6.5897    1.0000 </r>
       <r>   -6.5837    1.0000 </r>
       <r>   -6.5794    1.0000 </r>
       <r>   -6.5697    1.0000 </r>
       <r>   -6.5336    1.0000 </r>
       <r>   -6.5279    1.0000 </r>
       <r>   -6.5192    1.0000 </r>
       <r>   -6.5035    1.0000 </r>
       <r>   -6.4819    1.0000 </r>
       <r>   -6.4737    1.0000 </r>
       <r>   -6.4467    1.0000 </r>
       <r>   -6.4409    1.0000 </r>
       <r>   -6.4302    1.0000 </r>
       <r>   -6.4210    1.0000 </r>
       <r>   -6.3962    1.0000 </r>
       <r>   -6.3867    1.0000 </r>
       <r>   -6.3797    1.0000 </r>
       <r>   -6.3674    1.0000 </r>
       <r>   -6.3531    1.0000 </r>
       <r>   -6.3404    1.0000 </r>
       <r>   -6.3058    1.0000 </r>
       <r>   -6.2926    1.0000 </r>
       <r>   -6.2838    1.0000 </r>
       <r>   -6.2551    1.0000 </r>
       <r>   -6.2203    1.0000 </r>
       <r>   -6.1932    1.0000 </r>
       <r>   -6.1627    1.0000 </r>
       <r>   -6.1434    1.0000 </r>
       <r>   -6.1419    1.0000 </r>
       <r>   -6.0971    1.0000 </r>
       <r>   -5.8709    1.0000 </r>
       <r>   -5.8000    1.0000 </r>
       <r>   -5.7528    1.0000 </r>
       <r>   -5.7427    1.0000 </r>
       <r>   -5.6908    1.0000 </r>
       <r>   -5.6820    1.0000 </r>
       <r>   -5.6098    1.0000 </r>
       <r>   -5.5841    1.0000 </r>
       <r>   -5.5655    1.0000 </r>
       <r>   -5.5322    1.0000 </r>
       <r>   -5.5215    1.0000 </r>
       <r>   -5.4573    1.0000 </r>
       <r>   -5.4465    1.0000 </r>
       <r>   -5.3929    1.0000 </r>
       <r>   -5.3369    1.0000 </r>
       <r>   -5.2669    1.0000 </r>
       <r>   -5.2615    1.0000 </r>
       <r>   -5.1955    1.0000 </r>
       <r>   -5.1716    1.0000 </r>
       <r>   -5.1024    1.0000 </r>
       <r>   -5.0563    1.0000 </r>
       <r>   -4.9846    1.0000 </r>
       <r>   -4.9432    1.0000 </r>
       <r>   -4.8776    1.0000 </r>
       <r>   -4.8477    1.0000 </r>
       <r>   -4.7215    1.0000 </r>
       <r>   -4.6723    1.0000 </r>
       <r>   -4.6530    1.0000 </r>
       <r>   -4.6033    1.0000 </r>
       <r>   -4.5749    1.0000 </r>
       <r>   -4.5372    1.0000 </r>
       <r>   -4.2743    1.0000 </r>
       <r>   -4.2497    1.0000 </r>
       <r>   -4.2101    1.0000 </r>
       <r>   -4.2073    1.0000 </r>
       <r>   -4.1809    1.0000 </r>
       <r>   -4.1683    1.0000 </r>
       <r>   -4.1604    1.0000 </r>
       <r>   -4.1019    1.0000 </r>
       <r>   -4.0517    1.0000 </r>
       <r>   -4.0306    1.0000 </r>
       <r>   -4.0236    1.0000 </r>
       <r>   -4.0087    1.0000 </r>
       <r>   -3.9886    1.0000 </r>
       <r>   -3.9400    1.0000 </r>
       <r>   -3.9296    1.0000 </r>
       <r>   -3.9089    1.0000 </r>
       <r>   -3.8679    1.0000 </r>
       <r>   -3.8358    1.0000 </r>
       <r>   -3.8125    1.0000 </r>
       <r>   -3.7829    1.0000 </r>
       <r>   -3.7663    1.0000 </r>
       <r>   -3.7389    1.0000 </r>
       <r>   -3.6914    1.0000 </r>
       <r>   -3.6781    1.0000 </r>
       <r>   -3.6451    1.0000 </r>
       <r>   -3.5496    1.0000 </r>
       <r>   -3.5043    1.0000 </r>
       <r>   -3.4669    1.0000 </r>
       <r>   -3.4526    1.0000 </r>
       <r>   -3.4203    1.0000 </r>
       <r>   -3.3797    1.0000 </r>
       <r>   -3.3346    1.0000 </r>
       <r>   -3.2718    1.0000 </r>
       <r>   -3.2704    1.0000 </r>
       <r>   -3.2325    1.0000 </r>
       <r>   -3.2051    1.0000 </r>
       <r>   -3.1355    1.0000 </r>
       <r>   -2.9480    1.0000 </r>
       <r>   -2.9356    1.0000 </r>
       <r>   -2.1377    0.0000 </r>
       <r>   -2.1294    0.0000 </r>
       <r>   -2.1066    0.0000 </r>
       <r>   -1.5873    0.0000 </r>
       <r>   -1.5256    0.0000 </r>
       <r>   -1.5140    0.0000 </r>
       <r>   -1.4640    0.0000 </r>
       <r>   -1.4004    0.0000 </r>
       <r>   -1.3823    0.0000 </r>
       <r>   -0.8722    0.0000 </r>
       <r>   -0.7236    0.0000 </r>
       <r>   -0.6944    0.0000 </r>
       <r>   -0.6753    0.0000 </r>
       <r>   -0.6357    0.0000 </r>
       <r>   -0.6227    0.0000 </r>
       <r>   -0.5963    0.0000 </r>
       <r>   -0.5684    0.0000 </r>
       <r>   -0.5414    0.0000 </r>
       <r>   -0.5012    0.0000 </r>
       <r>   -0.4464    0.0000 </r>
       <r>   -0.4410    0.0000 </r>
       <r>   -0.4114    0.0000 </r>
       <r>   -0.3683    0.0000 </r>
       <r>   -0.3263    0.0000 </r>
       <r>   -0.0841    0.0000 </r>
       <r>    0.0026    0.0000 </r>
       <r>    0.0211    0.0000 </r>
       <r>    0.0344    0.0000 </r>
       <r>    0.0662    0.0000 </r>
       <r>    0.1323    0.0000 </r>
       <r>    0.1473    0.0000 </r>
       <r>    0.1674    0.0000 </r>
       <r>    0.1925    0.0000 </r>
       <r>    0.2005    0.0000 </r>
       <r>    0.2123    0.0000 </r>
       <r>    0.3336    0.0000 </r>
       <r>    0.3925    0.0000 </r>
       <r>    0.4706    0.0000 </r>
       <r>    0.4958    0.0000 </r>
       <r>    0.5218    0.0000 </r>
       <r>    0.5547    0.0000 </r>
       <r>    0.5581    0.0000 </r>
       <r>    0.5864    0.0000 </r>
       <r>    0.6205    0.0000 </r>
       <r>    0.6319    0.0000 </r>
       <r>    0.6644    0.0000 </r>
       <r>    0.6908    0.0000 </r>
       <r>    0.7089    0.0000 </r>
       <r>    0.7232    0.0000 </r>
       <r>    0.7422    0.0000 </r>
       <r>    0.7744    0.0000 </r>
       <r>    0.7799    0.0000 </r>
       <r>    0.8082    0.0000 </r>
       <r>    0.8181    0.0000 </r>
       <r>    0.8357    0.0000 </r>
       <r>    0.8486    0.0000 </r>
       <r>    0.8583    0.0000 </r>
       <r>    0.8748    0.0000 </r>
       <r>    0.8917    0.0000 </r>
       <r>    0.9081    0.0000 </r>
       <r>    0.9171    0.0000 </r>
       <r>    0.9324    0.0000 </r>
       <r>    0.9545    0.0000 </r>
       <r>    0.9850    0.0000 </r>
      </set>
      <set comment="kpoint 2">
       <r>  -52.0811    1.0000 </r>
       <r>  -51.7908    1.0000 </r>
       <r>  -51.7712    1.0000 </r>
       <r>  -51.6959    1.0000 </r>
       <r>  -51.6879    1.0000 </r>
       <r>  -51.6594    1.0000 </r>
       <r>  -51.6067    1.0000 </r>
       <r>  -51.5965    1.0000 </r>
       <r>  -51.5940    1.0000 </r>
       <r>  -51.5696    1.0000 </r>
       <r>  -51.5658    1.0000 </r>
       <r>  -51.5310    1.0000 </r>
       <r>  -51.5308    1.0000 </r>
       <r>  -51.5075    1.0000 </r>
       <r>  -51.4921    1.0000 </r>
       <r>  -51.4899    1.0000 </r>
       <r>  -51.4819    1.0000 </r>
       <r>  -51.4553    1.0000 </r>
       <r>  -51.4404    1.0000 </r>
       <r>  -51.4240    1.0000 </r>
       <r>  -51.4093    1.0000 </r>
       <r>  -51.3988    1.0000 </r>
       <r>  -51.3739    1.0000 </r>
       <r>  -51.3498    1.0000 </r>
       <r>  -51.3216    1.0000 </r>
       <r>  -51.3192    1.0000 </r>
       <r>  -51.2279    1.0000 </r>
       <r>  -51.2260    1.0000 </r>
       <r>  -51.2184    1.0000 </r>
       <r>  -51.1879    1.0000 </r>
       <r>  -51.1613    1.0000 </r>
       <r>  -51.0385    1.0000 </r>
       <r>  -30.7386    1.0000 </r>
       <r>  -30.7134    1.0000 </r>
       <r>  -30.6715    1.0000 </r>
       <r>  -30.5393    1.0000 </r>
       <r>  -30.4977    1.0000 </r>
       <r>  -30.4804    1.0000 </r>
       <r>  -30.4543    1.0000 </r>
       <r>  -30.4496    1.0000 </r>
       <r>  -30.4219    1.0000 </r>
       <r>  -30.4150    1.0000 </r>
       <r>  -30.3857    1.0000 </r>
       <r>  -30.3807    1.0000 </r>
       <r>  -30.3784    1.0000 </r>
       <r>  -30.3632    1.0000 </r>
       <r>  -30.3545    1.0000 </r>
       <r>  -30.3491    1.0000 </r>
       <r>  -30.3425    1.0000 </r>
       <r>  -30.3346    1.0000 </r>
       <r>  -30.3226    1.0000 </r>
       <r>  -30.3181    1.0000 </r>
       <r>  -30.3084    1.0000 </r>
       <r>  -30.2986    1.0000 </r>
       <r>  -30.2963    1.0000 </r>
       <r>  -30.2943    1.0000 </r>
       <r>  -30.2808    1.0000 </r>
       <r>  -30.2715    1.0000 </r>
       <r>  -30.2631    1.0000 </r>
       <r>  -30.2495    1.0000 </r>
       <r>  -30.2438    1.0000 </r>
       <r>  -30.2341    1.0000 </r>
       <r>  -30.2275    1.0000 </r>
       <r>  -30.2212    1.0000 </r>
       <r>  -30.2171    1.0000 </r>
       <r>  -30.2131    1.0000 </r>
       <r>  -30.2058    1.0000 </r>
       <r>  -30.2034    1.0000 </r>
       <r>  -30.1919    1.0000 </r>
       <r>  -30.1860    1.0000 </r>
       <r>  -30.1827    1.0000 </r>
       <r>  -30.1785    1.0000 </r>
       <r>  -30.1714    1.0000 </r>
       <r>  -30.1696    1.0000 </r>
       <r>  -30.1668    1.0000 </r>
       <r>  -30.1613    1.0000 </r>
       <r>  -30.1556    1.0000 </r>
       <r>  -30.1459    1.0000 </r>
       <r>  -30.1439    1.0000 </r>
       <r>  -30.1398    1.0000 </r>
       <r>  -30.1346    1.0000 </r>
       <r>  -30.1313    1.0000 </r>
       <r>  -30.1267    1.0000 </r>
       <r>  -30.1210    1.0000 </r>
       <r>  -30.1127    1.0000 </r>
       <r>  -30.1070    1.0000 </r>
       <r>  -30.1061    1.0000 </r>
       <r>  -30.1020    1.0000 </r>
       <r>  -30.0935    1.0000 </r>
       <r>  -30.0786    1.0000 </r>
       <r>  -30.0694    1.0000 </r>
       <r>  -30.0632    1.0000 </r>
       <r>  -30.0611    1.0000 </r>
       <r>  -30.0571    1.0000 </r>
       <r>  -30.0466    1.0000 </r>
       <r>  -30.0375    1.0000 </r>
       <r>  -30.0296    1.0000 </r>
       <r>  -30.0285    1.0000 </r>
       <r>  -30.0223    1.0000 </r>
       <r>  -30.0110    1.0000 </r>
       <r>  -30.0063    1.0000 </r>
       <r>  -29.9949    1.0000 </r>
       <r>  -29.9873    1.0000 </r>
       <r>  -29.9784    1.0000 </r>
       <r>  -29.9735    1.0000 </r>
       <r>  -29.9612    1.0000 </r>
       <r>  -29.9510    1.0000 </r>
       <r>  -29.9495    1.0000 </r>
       <r>  -29.9358    1.0000 </r>
       <r>  -29.9186    1.0000 </r>
       <r>  -29.8936    1.0000 </r>
       <r>  -29.8885    1.0000 </r>
       <r>  -29.8856    1.0000 </r>
       <r>  -29.8747    1.0000 </r>
       <r>  -29.8734    1.0000 </r>
       <r>  -29.8706    1.0000 </r>
       <r>  -29.8602    1.0000 </r>
       <r>  -29.8584    1.0000 </r>
       <r>  -29.8469    1.0000 </r>
       <r>  -29.8439    1.0000 </r>
       <r>  -29.8412    1.0000 </r>
       <r>  -29.8269    1.0000 </r>
       <r>  -29.8048    1.0000 </r>
       <r>  -29.7925    1.0000 </r>
       <r>  -29.7768    1.0000 </r>
       <r>  -29.7228    1.0000 </r>
       <r>  -29.6894    1.0000 </r>
       <r>  -29.6799    1.0000 </r>
       <r>  -18.7618    1.0000 </r>
       <r>  -18.5223    1.0000 </r>
       <r>  -18.4487    1.0000 </r>
       <r>  -18.4302    1.0000 </r>
       <r>  -18.3830    1.0000 </r>
       <r>  -18.2676    1.0000 </r>
       <r>  -18.2583    1.0000 </r>
       <r>  -18.2395    1.0000 </r>
       <r>  -18.1950    1.0000 </r>
       <r>  -18.1409    1.0000 </r>
       <r>  -18.1059    1.0000 </r>
       <r>  -18.0939    1.0000 </r>
       <r>  -18.0467    1.0000 </r>
       <r>  -18.0419    1.0000 </r>
       <r>  -18.0267    1.0000 </r>
       <r>  -18.0067    1.0000 </r>
       <r>  -17.9741    1.0000 </r>
       <r>  -17.9675    1.0000 </r>
       <r>  -17.9307    1.0000 </r>
       <r>  -17.9290    1.0000 </r>
       <r>  -17.8659    1.0000 </r>
       <r>  -17.8311    1.0000 </r>
       <r>  -17.7988    1.0000 </r>
       <r>  -17.7601    1.0000 </r>
       <r>  -17.7511    1.0000 </r>
       <r>  -17.6919    1.0000 </r>
       <r>  -17.6762    1.0000 </r>
       <r>  -17.5774    1.0000 </r>
       <r>  -17.5618    1.0000 </r>
[...]
       <r>   -32.5527     0.0000    64.0000 </r>
       <r>   -32.3581     0.0000    64.0000 </r>
       <r>   -32.1636     0.0000    64.0000 </r>
       <r>   -31.9690     0.0000    64.0000 </r>
       <r>   -31.7744     0.0000    64.0000 </r>
       <r>   -31.5798     0.0000    64.0000 </r>
       <r>   -31.3853     0.0000    64.0000 </r>
       <r>   -31.1907     0.0000    64.0000 </r>
       <r>   -30.9961     0.0000    64.0000 </r>
       <r>   -30.8015     0.4540    64.0883 </r>
       <r>   -30.6069    30.3176    69.9874 </r>
       <r>   -30.4124    68.4371    83.3036 </r>
       <r>   -30.2178   239.8625   129.9751 </r>
       <r>   -30.0232   336.1689   195.3855 </r>
       <r>   -29.8286   230.5528   240.2455 </r>
       <r>   -29.6341    79.2986   255.6751 </r>
       <r>   -29.4395     1.6699   256.0000 </r>
       <r>   -29.2449     0.0000   256.0000 </r>
       <r>   -29.0503     0.0000   256.0000 </r>
       <r>   -28.8558     0.0000   256.0000 </r>
       <r>   -28.6612     0.0000   256.0000 </r>
       <r>   -28.4666     0.0000   256.0000 </r>
       <r>   -28.2720     0.0000   256.0000 </r>
       <r>   -28.0775     0.0000   256.0000 </r>
       <r>   -27.8829     0.0000   256.0000 </r>
       <r>   -27.6883     0.0000   256.0000 </r>
       <r>   -27.4937     0.0000   256.0000 </r>
       <r>   -27.2992     0.0000   256.0000 </r>
       <r>   -27.1046     0.0000   256.0000 </r>
       <r>   -26.9100     0.0000   256.0000 </r>
       <r>   -26.7154     0.0000   256.0000 </r>
       <r>   -26.5209     0.0000   256.0000 </r>
       <r>   -26.3263     0.0000   256.0000 </r>
       <r>   -26.1317     0.0000   256.0000 </r>
       <r>   -25.9371     0.0000   256.0000 </r>
       <r>   -25.7425     0.0000   256.0000 </r>
       <r>   -25.5480     0.0000   256.0000 </r>
       <r>   -25.3534     0.0000   256.0000 </r>
       <r>   -25.1588     0.0000   256.0000 </r>
       <r>   -24.9642     0.0000   256.0000 </r>
       <r>   -24.7697     0.0000   256.0000 </r>
       <r>   -24.5751     0.0000   256.0000 </r>
       <r>   -24.3805     0.0000   256.0000 </r>
       <r>   -24.1859     0.0000   256.0000 </r>
       <r>   -23.9914     0.0000   256.0000 </r>
       <r>   -23.7968     0.0000   256.0000 </r>
       <r>   -23.6022     0.0000   256.0000 </r>
       <r>   -23.4076     0.0000   256.0000 </r>
       <r>   -23.2131     0.0000   256.0000 </r>
       <r>   -23.0185     0.0000   256.0000 </r>
       <r>   -22.8239     0.0000   256.0000 </r>
       <r>   -22.6293     0.0000   256.0000 </r>
       <r>   -22.4348     0.0000   256.0000 </r>
       <r>   -22.2402     0.0000   256.0000 </r>
       <r>   -22.0456     0.0000   256.0000 </r>
       <r>   -21.8510     0.0000   256.0000 </r>
       <r>   -21.6565     0.0000   256.0000 </r>
       <r>   -21.4619     0.0000   256.0000 </r>
       <r>   -21.2673     0.0000   256.0000 </r>
       <r>   -21.0727     0.0000   256.0000 </r>
       <r>   -20.8782     0.0000   256.0000 </r>
       <r>   -20.6836     0.0000   256.0000 </r>
       <r>   -20.4890     0.0000   256.0000 </r>
       <r>   -20.2944     0.0000   256.0000 </r>
       <r>   -20.0998     0.0000   256.0000 </r>
       <r>   -19.9053     0.0000   256.0000 </r>
       <r>   -19.7107     0.0000   256.0000 </r>
       <r>   -19.5161     0.0000   256.0000 </r>
       <r>   -19.3215     0.0000   256.0000 </r>
       <r>   -19.1270     0.0000   256.0000 </r>
       <r>   -18.9324     0.0000   256.0000 </r>
       <r>   -18.7378     7.6413   257.4868 </r>
       <r>   -18.5432     6.0875   258.6713 </r>
       <r>   -18.3487    35.6841   265.6146 </r>
       <r>   -18.1541    49.3720   275.2212 </r>
       <r>   -17.9595    78.1003   290.4176 </r>
       <r>   -17.7649    66.1482   303.2885 </r>
       <r>   -17.5704    46.9033   312.4147 </r>
       <r>   -17.3758    31.8422   318.6104 </r>
       <r>   -17.1812     7.1415   320.0000 </r>
       <r>   -16.9866     0.0000   320.0000 </r>
       <r>   -16.7921     0.0000   320.0000 </r>
       <r>   -16.5975     0.0000   320.0000 </r>
       <r>   -16.4029     0.0000   320.0000 </r>
       <r>   -16.2083     0.0000   320.0000 </r>
       <r>   -16.0138     0.0000   320.0000 </r>
       <r>   -15.8192     0.0000   320.0000 </r>
       <r>   -15.6246     0.0000   320.0000 </r>
       <r>   -15.4300     0.0000   320.0000 </r>
       <r>   -15.2354     0.0000   320.0000 </r>
       <r>   -15.0409     0.0000   320.0000 </r>
       <r>   -14.8463     0.0000   320.0000 </r>
       <r>   -14.6517     0.0000   320.0000 </r>
       <r>   -14.4571     0.0000   320.0000 </r>
       <r>   -14.2626     0.0000   320.0000 </r>
       <r>   -14.0680     0.0000   320.0000 </r>
       <r>   -13.8734     0.0000   320.0000 </r>
       <r>   -13.6788     0.0000   320.0000 </r>
       <r>   -13.4843     0.0000   320.0000 </r>
       <r>   -13.2897     0.0000   320.0000 </r>
       <r>   -13.0951     0.0000   320.0000 </r>
       <r>   -12.9005     0.0000   320.0000 </r>
       <r>   -12.7060     0.0000   320.0000 </r>
       <r>   -12.5114     0.0000   320.0000 </r>
       <r>   -12.3168     0.0000   320.0000 </r>
       <r>   -12.1222     0.0000   320.0000 </r>
       <r>   -11.9277     0.0369   320.0072 </r>
       <r>   -11.7331    10.1939   321.9907 </r>
       <r>   -11.5385    13.9516   324.7053 </r>
       <r>   -11.3439    20.5503   328.7039 </r>
       <r>   -11.1494    28.5915   334.2671 </r>
       <r>   -10.9548    40.4638   342.1404 </r>
       <r>   -10.7602    34.0481   348.7653 </r>
       <r>   -10.5656    16.5928   351.9939 </r>
       <r>   -10.3711     0.0313   352.0000 </r>
       <r>   -10.1765     0.0000   352.0000 </r>
       <r>    -9.9819     0.0000   352.0000 </r>
       <r>    -9.7873     0.0000   352.0000 </r>
       <r>    -9.5927     0.0000   352.0000 </r>
       <r>    -9.3982     0.0000   352.0000 </r>
       <r>    -9.2036     0.0000   352.0000 </r>
       <r>    -9.0090     0.0000   352.0000 </r>
       <r>    -8.8144     0.0000   352.0000 </r>
       <r>    -8.6199     0.0000   352.0000 </r>
       <r>    -8.4253     0.0000   352.0000 </r>
       <r>    -8.2307     0.0002   352.0000 </r>
       <r>    -8.0361     6.9574   353.3538 </r>
       <r>    -7.8416    20.6820   357.3780 </r>
       <r>    -7.6470    37.0485   364.5868 </r>
       <r>    -7.4524    52.8009   374.8605 </r>
       <r>    -7.2578    69.4237   388.3687 </r>
       <r>    -7.0633    60.5511   400.1505 </r>
       <r>    -6.8687    73.9665   414.5426 </r>
       <r>    -6.6741   106.2458   435.2155 </r>
       <r>    -6.4795   106.4816   455.9342 </r>
       <r>    -6.2850    92.9233   474.0149 </r>
       <r>    -6.0904    81.8984   489.9503 </r>
       <r>    -5.8958    48.4971   499.3867 </r>
       <r>    -5.7012    62.4648   511.5409 </r>
       <r>    -5.5067    63.9072   523.9757 </r>
       <r>    -5.3121    39.1577   531.5948 </r>
       <r>    -5.1175    42.8438   539.9312 </r>
       <r>    -4.9229    25.2202   544.8384 </r>
       <r>    -4.7283    34.0983   551.4731 </r>
       <r>    -4.5338    44.8280   560.1956 </r>
       <r>    -4.3392    29.6170   565.9583 </r>
       <r>    -4.1446    38.1050   573.3727 </r>
       <r>    -3.9500    54.5781   583.9922 </r>
       <r>    -3.7555    84.6861   600.4701 </r>
       <r>    -3.5609    72.5472   614.5861 </r>
       <r>    -3.3663    69.7676   628.1612 </r>
       <r>    -3.1717    35.9536   635.1569 </r>
       <r>    -2.9772    19.1422   638.8815 </r>
       <r>    -2.7826     5.7485   640.0000 </r>
       <r>    -2.5880     0.0000   640.0000 </r>
       <r>    -2.3934     0.0000   640.0000 </r>
       <r>    -2.1989     0.0814   640.0158 </r>
       <r>    -2.0043     9.7048   641.9042 </r>
       <r>    -1.8097    16.7914   645.1714 </r>
       <r>    -1.6151    16.9978   648.4787 </r>
       <r>    -1.4206    18.3045   652.0403 </r>
       <r>    -1.2260    22.9058   656.4973 </r>
       <r>    -1.0314    29.1897   662.1769 </r>
       <r>    -0.8368    16.8055   665.4468 </r>
       <r>    -0.6423    26.3977   670.5832 </r>
       <r>    -0.4477    35.7032   677.5302 </r>
       <r>    -0.2531    33.1346   683.9774 </r>
       <r>    -0.0585    35.4443   690.8740 </r>
       <r>     0.1361    31.6494   697.0322 </r>
       <r>     0.3306    40.1895   704.8521 </r>
       <r>     0.5252    62.6176   717.0360 </r>
       <r>     0.7198   103.6963   737.2128 </r>
       <r>     0.9144   124.4144   761.4208 </r>
       <r>     1.1089    33.8116   767.9997 </r>
       <r>     1.3035     0.0013   768.0000 </r>
       <r>     1.4981     0.0000   768.0000 </r>
       <r>     1.6927     0.0000   768.0000 </r>
       <r>     1.8872     0.0000   768.0000 </r>
       <r>     2.0818     0.0000   768.0000 </r>
       <r>     2.2764     0.0000   768.0000 </r>
       <r>     2.4710     0.0000   768.0000 </r>
       <r>     2.6655     0.0000   768.0000 </r>
       <r>     2.8601     0.0000   768.0000 </r>
       <r>     3.0547     0.0000   768.0000 </r>
       <r>     3.2493     0.0000   768.0000 </r>
       <r>     3.4438     0.0000   768.0000 </r>
       <r>     3.6384     0.0000   768.0000 </r>
      </set>
     </set>
    </array>
   </total>
  </dos>
 </calculation>
 <structure name="finalpos" >
  <crystal>
   <varray name="basis" >
    <v>      13.79398668       0.00000000       0.00000000 </v>
    <v>      -6.89699334      11.94594288       0.00000000 </v>
    <v>       0.00000000       0.00000000      27.81022107 </v>
   </varray>
   <i name="volume">   4582.62876984 </i>
   <varray name="rec_basis" >
    <v>       0.07249536       0.04185521       0.00000000 </v>
    <v>       0.00000000       0.08371043       0.00000000 </v>
    <v>       0.00000000       0.00000000       0.03595800 </v>
   </varray>
  </crystal>
  <varray name="positions" >
   <v>       0.08660907       0.15599815       0.54901356 </v>
   <v>       0.09348487       0.41866841       0.54530922 </v>
   <v>       0.08945095       0.66792415       0.54715243 </v>
   <v>       0.08798850       0.92157388       0.54052596 </v>
   <v>       0.33978587       0.17258291       0.54423290 </v>
   <v>       0.33271938       0.42272901       0.54451233 </v>
   <v>       0.34186120       0.67375744       0.54932625 </v>
   <v>       0.33051131       0.91603502       0.54697243 </v>
   <v>       0.58449548       0.16976810       0.54017404 </v>
   <v>       0.57567095       0.40651419       0.54247335 </v>
   <v>       0.59517834       0.67066773       0.55019210 </v>
   <v>       0.58448804       0.91955199       0.53759796 </v>
   <v>       0.84745924       0.17511480       0.54072012 </v>
   <v>       0.83661144       0.42206372       0.54721076 </v>
   <v>       0.83912121       0.66950028       0.54354849 </v>
   <v>       0.83143883       0.92136149       0.54682260 </v>
   <v>       0.15621140       0.08837965       0.45573512 </v>
   <v>       0.16352342       0.32888334       0.45629531 </v>
   <v>       0.16375811       0.58656647       0.45615549 </v>
   <v>       0.16139155       0.83219161       0.45193555 </v>
   <v>       0.39417255       0.07259009       0.45423287 </v>
   <v>       0.40338116       0.32629945       0.45813459 </v>
   <v>       0.41534060       0.57873721       0.45738881 </v>
   <v>       0.42206368       0.82896143       0.45407359 </v>
   <v>       0.66066413       0.08826505       0.45401236 </v>
   <v>       0.67538226       0.34021130       0.45254520 </v>
   <v>       0.66597714       0.57627365       0.45409985 </v>
   <v>       0.66831428       0.82979987       0.45566689 </v>
   <v>       0.91376437       0.07859507       0.45702887 </v>
   <v>       0.91570532       0.32841973       0.45508961 </v>
   <v>       0.91825845       0.57659038       0.45592668 </v>
   <v>       0.90752386       0.83688423       0.45325976 </v>
   <v>       0.08788928       0.18643601       0.39920903 </v>
   <v>       0.10237297       0.41900026       0.39101906 </v>
   <v>       0.07578948       0.65682913       0.39533332 </v>
   <v>       0.07365111       0.90081310       0.39487227 </v>
   <v>       0.31409074       0.15977244       0.39618789 </v>
   <v>       0.32839996       0.40470578       0.39533392 </v>
   <v>       0.32553806       0.66133302       0.39564679 </v>
   <v>       0.31337175       0.90650099       0.39359710 </v>
   <v>       0.57808120       0.16166747       0.39476843 </v>
   <v>       0.58202768       0.41069657       0.39437363 </v>
   <v>       0.58598474       0.67392963       0.39062378 </v>
   <v>       0.58959083       0.93495072       0.39265795 </v>
   <v>       0.83654276       0.18110032       0.39198662 </v>
   <v>       0.83748899       0.43138034       0.39191056 </v>
   <v>       0.83791456       0.66392193       0.39230915 </v>
   <v>       0.84445412       0.92684932       0.38972733 </v>
   <v>       0.16352771       0.07699723       0.60963054 </v>
   <v>       0.16761222       0.33048562       0.60538693 </v>
   <v>       0.17787327       0.59251526       0.60582838 </v>
   <v>       0.16978877       0.84169105       0.60591833 </v>
   <v>       0.42249281       0.07948944       0.60548592 </v>
   <v>       0.40935051       0.32223636       0.60172006 </v>
   <v>       0.41276601       0.57020242       0.60961058 </v>
   <v>       0.42250480       0.84766056       0.60667033 </v>
   <v>       0.66225562       0.07863386       0.60342570 </v>
   <v>       0.67590527       0.33392030       0.60474881 </v>
   <v>       0.66824000       0.57363797       0.60574395 </v>
   <v>       0.65610319       0.83017073       0.61022991 </v>
   <v>       0.91905939       0.08538938       0.60593220 </v>
   <v>       0.91623517       0.33578150       0.60668731 </v>
   <v>       0.92795921       0.59358142       0.60251947 </v>
   <v>       0.89550908       0.83349635       0.61147315 </v>
   <v>       0.00319744       0.01015365       0.50167012 </v>
   <v>       0.00234665       0.24801636       0.49737464 </v>
   <v>       0.00634258       0.49965681       0.50318586 </v>
   <v>       0.00514571       0.75053790       0.50050275 </v>
   <v>       0.24715912       0.98725398       0.50538574 </v>
   <v>       0.25097640       0.24695328       0.50512729 </v>
   <v>       0.25404585       0.50851221       0.50131908 </v>
   <v>       0.25239333       0.75000062       0.50439414 </v>
   <v>       0.50007589       0.00023825       0.50006249 </v>
   <v>       0.49985422       0.24971577       0.50065469 </v>
   <v>       0.50356137       0.49895484       0.50405391 </v>
   <v>       0.50562115       0.75164776       0.49850034 </v>
   <v>       0.76073521       0.98926928       0.49724611 </v>
   <v>       0.74704196       0.24529966       0.49555908 </v>
   <v>       0.75081706       0.49751619       0.49828710 </v>
   <v>       0.75998412       0.74376042       0.49486149 </v>
  </varray>
  <varray name="velocities" >
   <v>       0.00000000       0.00000000       0.00000000 </v>
   <v>       0.00000000       0.00000000       0.00000000 </v>
   <v>       0.00000000       0.00000000       0.00000000 </v>
   <v>       0.00000000       0.00000000       0.00000000 </v>
   <v>       0.00000000       0.00000000       0.00000000 </v>
   <v>       0.00000000       0.00000000       0.00000000 </v>
   <v>       0.00000000       0.00000000       0.00000000 </v>
   <v>       0.00000000       0.00000000       0.00000000 </v>
   <v>       0.00000000       0.00000000       0.00000000 </v>
   <v>       0.00000000       0.00000000       0.00000000 </v>
   <v>       0.00000000       0.00000000       0.00000000 </v>
   <v>       0.00000000       0.00000000       0.00000000 </v>
   <v>       0.00000000       0.00000000       0.00000000 </v>
   <v>       0.00000000       0.00000000       0.00000000 </v>
   <v>       0.00000000       0.00000000       0.00000000 </v>
   <v>       0.00000000       0.00000000       0.00000000 </v>
   <v>       0.00000000       0.00000000       0.00000000 </v>
   <v>       0.00000000       0.00000000       0.00000000 </v>
   <v>       0.00000000       0.00000000       0.00000000 </v>
   <v>       0.00000000       0.00000000       0.00000000 </v>
   <v>       0.00000000       0.00000000       0.00000000 </v>
   <v>       0.00000000       0.00000000       0.00000000 </v>
   <v>       0.00000000       0.00000000       0.00000000 </v>
   <v>       0.00000000       0.00000000       0.00000000 </v>
   <v>       0.00000000       0.00000000       0.00000000 </v>
   <v>       0.00000000       0.00000000       0.00000000 </v>
   <v>       0.00000000       0.00000000       0.00000000 </v>
   <v>       0.00000000       0.00000000       0.00000000 </v>
   <v>       0.00000000       0.00000000       0.00000000 </v>
   <v>       0.00000000       0.00000000       0.00000000 </v>
   <v>       0.00000000       0.00000000       0.00000000 </v>
   <v>       0.00000000       0.00000000       0.00000000 </v>
   <v>       0.00000000       0.00000000       0.00000000 </v>
   <v>       0.00000000       0.00000000       0.00000000 </v>
   <v>       0.00000000       0.00000000       0.00000000 </v>
   <v>       0.00000000       0.00000000       0.00000000 </v>
   <v>       0.00000000       0.00000000       0.00000000 </v>
   <v>       0.00000000       0.00000000       0.00000000 </v>
   <v>       0.00000000       0.00000000       0.00000000 </v>
   <v>       0.00000000       0.00000000       0.00000000 </v>
   <v>       0.00000000       0.00000000       0.00000000 </v>
   <v>       0.00000000       0.00000000       0.00000000 </v>
   <v>       0.00000000       0.00000000       0.00000000 </v>
   <v>       0.00000000       0.00000000       0.00000000 </v>
   <v>       0.00000000       0.00000000       0.00000000 </v>
   <v>       0.00000000       0.00000000       0.00000000 </v>
   <v>       0.00000000       0.00000000       0.00000000 </v>
   <v>       0.00000000       0.00000000       0.00000000 </v>
   <v>       0.00000000       0.00000000       0.00000000 </v>
   <v>       0.00000000       0.00000000       0.00000000 </v>
   <v>       0.00000000       0.00000000       0.00000000 </v>
   <v>       0.00000000       0.00000000       0.00000000 </v>
   <v>       0.00000000       0.00000000       0.00000000 </v>
   <v>       0.00000000       0.00000000       0.00000000 </v>
   <v>       0.00000000       0.00000000       0.00000000 </v>
   <v>       0.00000000       0.00000000       0.00000000 </v>
   <v>       0.00000000       0.00000000       0.00000000 </v>
   <v>       0.00000000       0.00000000       0.00000000 </v>
   <v>       0.00000000       0.00000000       0.00000000 </v>
   <v>       0.00000000       0.00000000       0.00000000 </v>
   <v>       0.00000000       0.00000000       0.00000000 </v>
   <v>       0.00000000       0.00000000       0.00000000 </v>
   <v>       0.00000000       0.00000000       0.00000000 </v>
   <v>       0.00000000       0.00000000       0.00000000 </v>
   <v>       0.00000000       0.00000000       0.00000000 </v>
   <v>       0.00000000       0.00000000       0.00000000 </v>
   <v>       0.00000000       0.00000000       0.00000000 </v>
   <v>       0.00000000       0.00000000       0.00000000 </v>
   <v>       0.00000000       0.00000000       0.00000000 </v>
   <v>       0.00000000       0.00000000       0.00000000 </v>
   <v>       0.00000000       0.00000000       0.00000000 </v>
   <v>       0.00000000       0.00000000       0.00000000 </v>
   <v>       0.00000000       0.00000000       0.00000000 </v>
   <v>       0.00000000       0.00000000       0.00000000 </v>
   <v>       0.00000000       0.00000000       0.00000000 </v>
   <v>       0.00000000       0.00000000       0.00000000 </v>
   <v>       0.00000000       0.00000000       0.00000000 </v>
   <v>       0.00000000       0.00000000       0.00000000 </v>
   <v>       0.00000000       0.00000000       0.00000000 </v>
   <v>       0.00000000       0.00000000       0.00000000 </v>
  </varray>
 </structure>
</modeling>
