 vasp.5.4.4.18Apr17-6-g9f103f2a35 (build Oct 31 2019 15:01:46) complex          
  
 executed on             LinuxIFC date 2024.04.30  14:14:00
 running on   52 total cores
 distrk:  each k-point on   52 cores,    1 groups
 distr:  one band on NCORES_PER_BAND=  13 cores,    4 groups


--------------------------------------------------------------------------------------------------------


 INCAR:
 POTCAR:    PAW_PBE Sc_sv 07Sep2000               
 POTCAR:    PAW_PBE Cl 06Sep2000                  
 POTCAR:    PAW_PBE C 08Apr2002                   
 POTCAR:    PAW_PBE Sc_sv 07Sep2000               
   VRHFIN =Sc: 3p4s3d                                                           
   LEXCH  = PE                                                                  
   EATOM  =  1273.2868 eV,   93.5839 Ry                                         
                                                                                
   TITEL  = PAW_PBE Sc_sv 07Sep2000                                             
   LULTRA =        F    use ultrasoft PP ?                                      
   IUNSCR =        1    unscreen: 0-lin 1-nonlin 2-no                           
   RPACOR =    2.200    partial core radius                                     
   POMASS =   44.956; ZVAL   =   11.000    mass and valenz                      
   RCORE  =    2.500    outmost cutoff radius                                   
   RWIGS  =    2.700; RWIGS  =    1.429    wigner-seitz radius (au A)           
   ENMAX  =  222.660; ENMIN  =  166.995 eV                                      
   RCLOC  =    1.805    cutoff for local pot                                    
   LCOR   =        T    correct aug charges                                     
   LPAW   =        T    paw PP                                                  
   EAUG   =  443.063                                                            
   RMAX   =    2.551    core radius for proj-oper                               
   RAUG   =    1.300    factor for augmentation sphere                          
   RDEP   =    2.650    radius for radial grids                                 
   RDEPT  =    2.038    core radius for aug-charge                              
                                                                                
   Atomic configuration                                                         
    8 entries                                                                   
     n  l   j            E        occ.                                          
     1  0  0.50     -4394.2533   2.0000                                         
     2  0  0.50      -471.0040   2.0000                                         
     2  1  1.50      -384.9788   6.0000                                         
     3  0  0.50       -52.1410   2.0000                                         
     4  0  0.50        -3.5584   1.0000                                         
     3  1  1.50       -30.8841   6.0000                                         
     3  2  2.50        -1.3655   2.0000                                         
     4  3  2.50        -1.3606   0.0000                                         
   Description                                                                  
     l       E           TYP  RCUT    TYP  RCUT                                 
     0    -52.1409870     23  1.800                                             
     0     -3.5583698     23  2.500                                             
     1    -30.8840697     23  2.300                                             
     1      4.0817478     23  2.300                                             
     2     -1.3655397     23  2.500                                             
     2      0.3564476     23  2.500                                             
  local pseudopotential read in
  partial core-charges read in
  partial kinetic energy density read in
  atomic valenz-charges read in
  non local Contribution for L=           0  read in
    real space projection operators read in
  non local Contribution for L=           0  read in
    real space projection operators read in
  non local Contribution for L=           1  read in
    real space projection operators read in
  non local Contribution for L=           1  read in
    real space projection operators read in
  non local Contribution for L=           2  read in
    real space projection operators read in
  non local Contribution for L=           2  read in
    real space projection operators read in
    PAW grid and wavefunctions read in
 
   number of l-projection  operators is LMAX  =           6
   number of lm-projection operators is LMMAX =          18
 
 POTCAR:    PAW_PBE Cl 06Sep2000                  
   VRHFIN =Cl: s2p5                                                             
   LEXCH  = PE                                                                  
   EATOM  =   409.7259 eV,   30.1140 Ry                                         
                                                                                
   TITEL  = PAW_PBE Cl 06Sep2000                                                
   LULTRA =        F    use ultrasoft PP ?                                      
   IUNSCR =        1    unscreen: 0-lin 1-nonlin 2-no                           
   RPACOR =    1.500    partial core radius                                     
   POMASS =   35.453; ZVAL   =    7.000    mass and valenz                      
   RCORE  =    1.900    outmost cutoff radius                                   
   RWIGS  =    2.100; RWIGS  =    1.111    wigner-seitz radius (au A)           
   ENMAX  =  262.472; ENMIN  =  196.854 eV                                      
   ICORE  =        2    local potential                                         
   LCOR   =        T    correct aug charges                                     
   LPAW   =        T    paw PP                                                  
   EAUG   =  356.192                                                            
   DEXC   =    0.000                                                            
   RMAX   =    1.945    core radius for proj-oper                               
   RAUG   =    1.300    factor for augmentation sphere                          
   RDEP   =    2.020    radius for radial grids                                 
   RDEPT  =    1.678    core radius for aug-charge                              
                                                                                
   Atomic configuration                                                         
    6 entries                                                                   
     n  l   j            E        occ.                                          
     1  0  0.50     -2751.1850   2.0000                                         
     2  0  0.50      -252.6861   2.0000                                         
     2  1  1.50      -191.6157   6.0000                                         
     3  0  0.50       -20.6916   2.0000                                         
     3  1  0.50        -8.5949   5.0000                                         
     3  2  1.50        -8.1635   0.0000                                         
   Description                                                                  
     l       E           TYP  RCUT    TYP  RCUT                                 
     0    -20.6915656     23  1.900                                             
     0    -22.0521482     23  1.900                                             
     1     -8.5948577     23  1.900                                             
     1     -5.3847331     23  1.900                                             
     2     -8.1634956     23  1.900                                             
  local pseudopotential read in
  partial core-charges read in
  partial kinetic energy density read in
  atomic valenz-charges read in
  non local Contribution for L=           0  read in
    real space projection operators read in
  non local Contribution for L=           0  read in
    real space projection operators read in
  non local Contribution for L=           1  read in
    real space projection operators read in
  non local Contribution for L=           1  read in
    real space projection operators read in
    PAW grid and wavefunctions read in
 
   number of l-projection  operators is LMAX  =           4
   number of lm-projection operators is LMMAX =           8
 
 POTCAR:    PAW_PBE C 08Apr2002                   
   VRHFIN =C: s2p2                                                              
   LEXCH  = PE                                                                  
   EATOM  =   147.1560 eV,   10.8157 Ry                                         
                                                                                
   TITEL  = PAW_PBE C 08Apr2002                                                 
   LULTRA =        F    use ultrasoft PP ?                                      
   IUNSCR =        1    unscreen: 0-lin 1-nonlin 2-no                           
   RPACOR =    1.200    partial core radius                                     
   POMASS =   12.011; ZVAL   =    4.000    mass and valenz                      
   RCORE  =    1.500    outmost cutoff radius                                   
   RWIGS  =    1.630; RWIGS  =    0.863    wigner-seitz radius (au A)           
   ENMAX  =  400.000; ENMIN  =  300.000 eV                                      
   ICORE  =        2    local potential                                         
   LCOR   =        T    correct aug charges                                     
   LPAW   =        T    paw PP                                                  
   EAUG   =  644.873                                                            
   DEXC   =    0.000                                                            
   RMAX   =    1.529    core radius for proj-oper                               
   RAUG   =    1.300    factor for augmentation sphere                          
   RDEP   =    1.501    radius for radial grids                                 
   RDEPT  =    1.300    core radius for aug-charge                              
                                                                                
   Atomic configuration                                                         
    4 entries                                                                   
     n  l   j            E        occ.                                          
     1  0  0.50      -273.3789   2.0000                                         
     2  0  0.50       -13.7508   2.0000                                         
     2  1  0.50        -5.2854   2.0000                                         
     3  2  1.50        -5.4423   0.0000                                         
   Description                                                                  
     l       E           TYP  RCUT    TYP  RCUT                                 
     0    -13.7508458     23  1.200                                             
     0     -8.2022199     23  1.200                                             
     1     -5.2854383     23  1.500                                             
     1     34.0145650     23  1.500                                             
     2     -5.4423304      7  1.500                                             
  local pseudopotential read in
  partial core-charges read in
  partial kinetic energy density read in
  atomic valenz-charges read in
  non local Contribution for L=           0  read in
    real space projection operators read in
  non local Contribution for L=           0  read in
    real space projection operators read in
  non local Contribution for L=           1  read in
    real space projection operators read in
  non local Contribution for L=           1  read in
    real space projection operators read in
    PAW grid and wavefunctions read in
 
   number of l-projection  operators is LMAX  =           4
   number of lm-projection operators is LMMAX =           8
 
 Optimization of the real space projectors (new method)

 maximal supplied QI-value         = 15.12
 optimisation between [QCUT,QGAM] = [ 12.55, 25.10] = [ 44.09,176.36] Ry 
 Optimized for a Real-space Cutoff    1.56 Angstroem

   l    n(q)    QCUT    max X(q) W(low)/X(q) W(high)/X(q)  e(spline) 
   0     12    12.548     2.962    0.12E-05    0.11E-06    0.46E-07
   0     12    12.548    26.414    0.30E-04    0.15E-05    0.76E-07
   1     11    12.548     3.969    0.45E-05    0.12E-05    0.60E-07
   1     11    12.548     5.137    0.15E-04    0.18E-04    0.36E-06
   2     11    12.548   143.970    0.20E-03    0.19E-03    0.76E-06
   2     11    12.548   121.201    0.20E-03    0.19E-03    0.76E-06
 Optimization of the real space projectors (new method)

 maximal supplied QI-value         = 19.84
 optimisation between [QCUT,QGAM] = [ 12.50, 25.00] = [ 43.76,175.03] Ry 
 Optimized for a Real-space Cutoff    1.20 Angstroem

   l    n(q)    QCUT    max X(q) W(low)/X(q) W(high)/X(q)  e(spline) 
   0      9    12.501   168.010    0.44E-04    0.61E-04    0.77E-07
   0      9    12.501   164.674    0.43E-04    0.60E-04    0.75E-07
   1      8    12.501    69.222    0.11E-03    0.13E-03    0.91E-07
   1      8    12.501    56.786    0.11E-03    0.13E-03    0.90E-07
 Optimization of the real space projectors (new method)

 maximal supplied QI-value         = 25.13
 optimisation between [QCUT,QGAM] = [ 12.32, 24.88] = [ 42.47,173.37] Ry 
 Optimized for a Real-space Cutoff    1.16 Angstroem

   l    n(q)    QCUT    max X(q) W(low)/X(q) W(high)/X(q)  e(spline) 
   0      9    12.315   115.676    0.19E-03    0.80E-05    0.34E-06
   0      9    12.315    87.132    0.19E-03    0.82E-05    0.34E-06
   1      8    12.315     4.429    0.18E-03    0.13E-03    0.22E-06
   1      8    12.315     2.733    0.14E-03    0.10E-03    0.18E-06
  PAW_PBE Sc_sv 07Sep2000               :
 energy of atom  1       EATOM=-1273.2868
 kinetic energy error for atom=    0.0014 (will be added to EATOM!!)
  PAW_PBE Cl 06Sep2000                  :
 energy of atom  2       EATOM= -409.7259
 kinetic energy error for atom=    0.0013 (will be added to EATOM!!)
  PAW_PBE C 08Apr2002                   :
 energy of atom  3       EATOM= -147.1560
 kinetic energy error for atom=    0.0057 (will be added to EATOM!!)
 
 
 POSCAR: Sc Cl  C                                
  positions in cartesian coordinates
  No initial velocities read in
 exchange correlation table for  LEXCH =        8
   RHO(1)=    0.500       N(1)  =     2000
   RHO(2)=  100.500       N(2)  =     4000
 


--------------------------------------------------------------------------------------------------------


 ion  position               nearest neighbor table
   1  0.105  0.164  0.540-  65 2.23  70 2.23  49 2.49  66 2.63  61 2.66  50 2.75  17 2.96  29 3.23
                            18 3.23   5 3.24
   2  0.076  0.409  0.544-  67 2.31  66 2.39  71 2.41  62 2.47  51 2.60  50 2.74  30 3.12  19 3.33
                            18 3.36
   3  0.076  0.662  0.544-  67 2.30  68 2.34  72 2.43  51 2.59  63 2.71  52 2.77  31 3.08   4 3.26
                            19 3.28  20 3.28   7 3.33  15 3.42
   4  0.089  0.905  0.540-  68 2.13  69 2.25  52 2.51  65 2.55  49 2.65  64 2.80  20 3.10  17 3.20
                             3 3.26   8 3.30  32 3.40  15 3.40
   5  0.341  0.166  0.539-  74 2.08  70 2.30  69 2.38  54 2.43  49 2.72  21 3.01  53 3.03  22 3.10
                            17 3.15   9 3.17   1 3.24   8 3.42
   6  0.346  0.426  0.542-  71 2.22  75 2.36  70 2.44  54 2.62  55 2.71  50 2.76  23 3.08  22 3.13
                            10 3.25  11 3.31  18 3.37
   7  0.320  0.667  0.542-  72 2.14  71 2.35  51 2.48  76 2.58  56 2.69  55 2.72  19 3.03  23 3.13
                            24 3.17   8 3.33   3 3.33
   8  0.333  0.915  0.546-  73 2.28  69 2.30  72 2.50  52 2.52  56 2.73  53 2.83  21 3.08  24 3.11
                            12 3.29   4 3.30  20 3.32   7 3.33   9 3.37   5 3.42
   9  0.570  0.166  0.550-  74 2.26  73 2.32  78 2.51  53 2.60  58 2.62  57 2.64  21 3.14   5 3.17
                            25 3.30  14 3.32  26 3.34   8 3.37
  10  0.581  0.425  0.548-  75 2.29  79 2.44  54 2.47  59 2.54  58 2.56  74 2.58  22 3.12  27 3.16
                             6 3.25  26 3.36  11 3.42  15 3.43
  11  0.578  0.672  0.548-  76 2.17  75 2.38  80 2.50  55 2.58  60 2.59  59 2.67  23 3.11   6 3.31
                            28 3.33  27 3.33  12 3.41  10 3.42
  12  0.573  0.917  0.546-  73 2.25  76 2.41  77 2.44  56 2.53  57 2.72  60 2.73  24 3.06  25 3.20
                             8 3.29  13 3.30  28 3.30  11 3.41
  13  0.816  0.152  0.545-  77 2.19  78 2.34  57 2.42  66 2.61  61 2.70  62 2.86  25 2.96  12 3.30
                            30 3.30  16 3.32  29 3.33  14 3.40
  14  0.817  0.399  0.545-  78 2.18  79 2.45  67 2.47  58 2.51  62 2.64  63 2.65  26 3.11  31 3.17
                            30 3.23   9 3.32  13 3.40
  15  0.832  0.670  0.547-  80 2.37  79 2.41  68 2.42  59 2.61  63 2.64  64 2.68  27 3.08  31 3.18
                            32 3.37   4 3.40   3 3.42  10 3.43
  16  0.838  0.923  0.545-  80 2.31  65 2.39  77 2.45  61 2.54  64 2.70  60 2.73  32 3.22  28 3.25
                            29 3.25  13 3.32
  17  0.167  0.081  0.454-  65 2.29  70 2.37  69 2.42  37 2.54  33 2.57  36 2.57   1 2.96   5 3.15
                             4 3.20  29 3.35
  18  0.167  0.330  0.449-  66 2.37  33 2.42  70 2.45  71 2.47  38 2.53  34 2.69   1 3.23  29 3.30
                             2 3.36   6 3.37
  19  0.175  0.588  0.452-  72 2.19  71 2.48  39 2.52  67 2.53  34 2.57  35 2.61   7 3.03   3 3.28
                             2 3.33  23 3.38  20 3.39
  20  0.166  0.829  0.450-  69 2.35  68 2.39  72 2.42  40 2.50  36 2.50  35 2.64   4 3.10   3 3.28
                             8 3.32  19 3.39  21 3.42
  21  0.417  0.073  0.458-  73 2.21  69 2.29  74 2.31  41 2.43  37 2.57  40 2.61   5 3.01   8 3.08
                             9 3.14  24 3.19  25 3.38  20 3.42
  22  0.430  0.340  0.457-  70 2.30  74 2.33  75 2.35  42 2.47  38 2.68  37 2.85   5 3.10  10 3.12
                             6 3.13  26 3.31  27 3.40
  23  0.423  0.595  0.459-  76 2.18  75 2.37  71 2.38  39 2.53  38 2.63  43 2.91   6 3.08  11 3.11
                             7 3.13  19 3.38  28 3.39
  24  0.422  0.845  0.457-  73 2.30  72 2.38  40 2.44  44 2.51  76 2.51  39 2.68  12 3.06   8 3.11
                             7 3.17  21 3.19  25 3.40  28 3.42
  25  0.670  0.089  0.459-  77 2.21  78 2.24  73 2.42  45 2.64  44 2.71  41 2.73  13 2.96  12 3.20
                             9 3.30  21 3.38  30 3.38  24 3.40  26 3.40  28 3.42
  26  0.666  0.334  0.454-  79 2.36  78 2.36  41 2.42  74 2.47  46 2.58  42 2.64  14 3.11  22 3.31
                            31 3.33   9 3.34  10 3.36  25 3.40  27 3.41
  27  0.676  0.586  0.458-  79 2.16  75 2.23  80 2.38  47 2.45  42 2.63  43 2.75  15 3.08  10 3.16
                            31 3.28  32 3.30  11 3.33  22 3.40  26 3.41
  28  0.668  0.841  0.453-  76 2.28  77 2.31  80 2.41  44 2.55  43 2.61  48 2.62  16 3.25  32 3.26
                            12 3.30  11 3.33  23 3.39  25 3.42  24 3.42
  29  0.929  0.090  0.452-  66 2.20  65 2.26  33 2.50  77 2.56  48 2.66  45 2.78   1 3.23  16 3.25
                            18 3.30  32 3.33  13 3.33  17 3.35  30 3.41
  30  0.918  0.332  0.455-  66 2.23  67 2.37  78 2.41  34 2.52  45 2.69  46 2.78   2 3.12  14 3.23
                            13 3.30  25 3.38  29 3.41  31 3.42
  31  0.908  0.574  0.460-  79 2.20  67 2.31  68 2.41  47 2.70  46 2.75  35 2.75   3 3.08  14 3.17
                            15 3.18  27 3.28  26 3.33  30 3.42
  32  0.902  0.836  0.449-  80 2.26  48 2.45  65 2.47  36 2.50  68 2.59  47 2.61  16 3.22  28 3.26
                            27 3.30  29 3.33  15 3.37   4 3.40
  33  0.090  0.170  0.395-  18 2.42  29 2.50  17 2.57
  34  0.073  0.422  0.394-  30 2.52  19 2.57  18 2.69
  35  0.076  0.655  0.392-  19 2.61  20 2.64  31 2.75
  36  0.074  0.909  0.399-  20 2.50  32 2.50  17 2.57
  37  0.332  0.148  0.396-  17 2.54  21 2.57  22 2.85
  38  0.341  0.428  0.397-  18 2.53  23 2.63  22 2.68
  39  0.342  0.669  0.397-  19 2.52  23 2.53  24 2.68
  40  0.335  0.907  0.398-  24 2.44  20 2.50  21 2.61
  41  0.569  0.174  0.402-  26 2.42  21 2.43  25 2.73
  42  0.580  0.423  0.396-  22 2.47  27 2.63  26 2.64
  43  0.607  0.682  0.390-  28 2.61  27 2.75  23 2.91
  44  0.576  0.915  0.396-  24 2.51  28 2.55  25 2.71
  45  0.823  0.165  0.390-  25 2.64  30 2.69  29 2.78
  46  0.822  0.412  0.390-  26 2.58  31 2.75  30 2.78
  47  0.820  0.656  0.396-  27 2.45  32 2.61  31 2.70
  48  0.832  0.920  0.391-  32 2.45  28 2.62  29 2.66
  49  0.166  0.075  0.601-   1 2.49   4 2.65   5 2.72
  50  0.172  0.330  0.608-   2 2.74   1 2.75   6 2.76
  51  0.166  0.581  0.601-   7 2.48   3 2.59   2 2.60
  52  0.175  0.845  0.605-   4 2.51   8 2.52   3 2.77
  53  0.425  0.078  0.619-   9 2.60   8 2.83   5 3.03
  54  0.411  0.316  0.598-   5 2.43  10 2.47   6 2.62
  55  0.412  0.592  0.608-  11 2.58   6 2.71   7 2.72
  56  0.420  0.827  0.609-  12 2.53   7 2.69   8 2.73
  57  0.675  0.096  0.607-  13 2.42   9 2.64  12 2.72
  58  0.663  0.341  0.606-  14 2.51  10 2.56   9 2.62
  59  0.667  0.586  0.608-  10 2.54  15 2.61  11 2.67
  60  0.666  0.836  0.609-  11 2.59  12 2.73  16 2.73
  61  0.935  0.090  0.601-  16 2.54   1 2.66  13 2.70
  62  0.927  0.343  0.606-   2 2.47  14 2.64  13 2.86
  63  0.902  0.570  0.606-  15 2.64  14 2.65   3 2.71
  64  0.921  0.839  0.610-  15 2.68  16 2.70   4 2.80
  65  0.005  0.009  0.497-   1 2.23  29 2.26  17 2.29  16 2.39  32 2.47   4 2.55
  66  0.998  0.248  0.493-  29 2.20  30 2.23  18 2.37   2 2.39  13 2.61   1 2.63
  67  0.997  0.497  0.502-   3 2.30  31 2.31   2 2.31  30 2.37  14 2.47  19 2.53
  68  0.002  0.754  0.499-   4 2.13   3 2.34  20 2.39  31 2.41  15 2.42  32 2.59
  69  0.250  0.990  0.498-   4 2.25  21 2.29   8 2.30  20 2.35   5 2.38  17 2.42
  70  0.262  0.252  0.497-   1 2.23  22 2.30   5 2.30  17 2.37   6 2.44  18 2.45
  71  0.253  0.494  0.503-   6 2.22   7 2.35  23 2.38   2 2.41  18 2.47  19 2.48
  72  0.247  0.739  0.497-   7 2.14  19 2.19  24 2.38  20 2.42   3 2.43   8 2.50
  73  0.498  0.003  0.504-  21 2.21  12 2.25   8 2.28  24 2.30   9 2.32  25 2.42
  74  0.491  0.239  0.501-   5 2.08   9 2.26  21 2.31  22 2.33  26 2.47  10 2.58
  75  0.514  0.511  0.498-  27 2.23  10 2.29  22 2.35   6 2.36  23 2.37  11 2.38
  76  0.512  0.749  0.500-  11 2.17  23 2.18  28 2.28  12 2.41  24 2.51   7 2.58
  77  0.744  0.003  0.498-  13 2.19  25 2.21  28 2.31  12 2.44  16 2.45  29 2.56
  78  0.747  0.249  0.501-  14 2.18  25 2.24  13 2.34  26 2.36  30 2.41   9 2.51
  79  0.748  0.503  0.498-  27 2.16  31 2.20  26 2.36  15 2.41  10 2.44  14 2.45
  80  0.755  0.760  0.501-  32 2.26  16 2.31  15 2.37  27 2.38  28 2.41  11 2.50
 
  LATTYP: Found a hexagonal cell.
 ALAT       =    13.7939866762
 C/A-ratio  =     2.0161119278
  
  Lattice vectors:
  
 A1 = (  13.7939866800,   0.0000000000,   0.0000000000)
 A2 = (  -6.8969933400,  11.9459428800,   0.0000000000)
 A3 = (   0.0000000000,   0.0000000000,  27.8102210700)


Analysis of symmetry for initial positions (statically):
=====================================================================
 Subroutine PRICEL returns:
 Original cell was already a primitive cell.
 

 Routine SETGRP: Setting up the symmetry group for a 
 hexagonal supercell.


 Subroutine GETGRP returns: Found  1 space group operations
 (whereof  1 operations were pure point group operations)
 out of a pool of 24 trial point group operations.


The static configuration has the point symmetry C_1 .


Analysis of symmetry for dynamics (positions and initial velocities):
=====================================================================
 Subroutine PRICEL returns:
 Original cell was already a primitive cell.
 

 Routine SETGRP: Setting up the symmetry group for a 
 hexagonal supercell.


 Subroutine GETGRP returns: Found  1 space group operations
 (whereof  1 operations were pure point group operations)
 out of a pool of 24 trial point group operations.


The dynamic configuration has the point symmetry C_1 .


 Subroutine INISYM returns: Found  1 space group operations
 (whereof  1 operations are pure point group operations),
 and found     1 'primitive' translations

 
 

Automatic generation of k-mesh.
 generate k-points for:    3    3    1
Space group operators:
 irot       det(A)        alpha          n_x          n_y          n_z        tau_x        tau_y        tau_z
    1     1.000000     0.000000     1.000000     0.000000     0.000000     0.000000     0.000000     0.000000
 
 Subroutine IBZKPT returns following result:
 ===========================================
 
 Found      5 irreducible k-points:
 
 Following reciprocal coordinates:
            Coordinates               Weight
  0.000000  0.000000  0.000000      1.000000
  0.333333 -0.000000  0.000000      2.000000
  0.000000  0.333333  0.000000      2.000000
  0.333333  0.333333  0.000000      2.000000
 -0.333333  0.333333  0.000000      2.000000
 
 Following cartesian coordinates:
            Coordinates               Weight
  0.000000  0.000000  0.000000      1.000000
  0.024165  0.013952  0.000000      2.000000
  0.000000  0.027903  0.000000      2.000000
  0.024165  0.041855  0.000000      2.000000
 -0.024165  0.013952  0.000000      2.000000
 


--------------------------------------------------------------------------------------------------------




 Dimension of arrays:
   k-points           NKPTS =      5   k-points in BZ     NKDIM =      5   number of bands    NBANDS=    384
   number of dos      NEDOS =    301   number of ions     NIONS =     80
   non local maximal  LDIM  =      6   non local SUM 2l+1 LMDIM =     18
   total plane-waves  NPLWV = ******
   max r-space proj   IRMAX =   9806   max aug-charges    IRDMAX= 216835
   dimension x,y,z NGX =   112 NGY =  112 NGZ =  224
   dimension x,y,z NGXF=   224 NGYF=  224 NGZF=  448
   support grid    NGXF=   448 NGYF=  448 NGZF=  896
   ions per type =              32  32  16
   NGX,Y,Z   is equivalent  to a cutoff of  13.50, 13.50, 13.39 a.u.
   NGXF,Y,Z  is equivalent  to a cutoff of  27.00, 27.00, 26.78 a.u.

 SYSTEM =  unknown system                          
 POSCAR =  Sc Cl  C                                

 Startparameter for this run:
   NWRITE =      2    write-flag & timer
   PREC   = anorma    normal or accurate (medium, high low for compatibility)
   ISTART =      0    job   : 0-new  1-cont  2-samecut
   ICHARG =      2    charge: 1-file 2-atom 10-const
   ISPIN  =      1    spin polarized calculation?
   LNONCOLLINEAR =      F non collinear calculations
   LSORBIT =      F    spin-orbit coupling
   INIWAV =      1    electr: 0-lowe 1-rand  2-diag
   LASPH  =      F    aspherical Exc in radial PAW
   METAGGA=      F    non-selfconsistent MetaGGA calc.

 Electronic Relaxation 1
   ENCUT  =  600.0 eV  44.10 Ry    6.64 a.u.  27.55 27.55 55.54*2*pi/ulx,y,z
   ENINI  =  600.0     initial cutoff
   ENAUG  =  644.9 eV  augmentation charge cutoff
   NELM   =     60;   NELMIN=  2; NELMDL= -5     # of ELM steps 
   EDIFF  = 0.1E-05   stopping-criterion for ELM
   LREAL  =      T    real-space projection
   NLSPLINE    = F    spline interpolate recip. space projectors
   LCOMPAT=      F    compatible to vasp.4.4
   GGA_COMPAT  = T    GGA compatible to vasp.4.4-vasp.4.6
   LMAXPAW     = -100 max onsite density
   LMAXMIX     =    2 max onsite mixed and CHGCAR
   VOSKOWN=      0    Vosko Wilk Nusair interpolation
   ROPT   =   -0.00025  -0.00025  -0.00025
 Ionic relaxation
   EDIFFG = -.1E-01   stopping-criterion for IOM
   NSW    =      1    number of steps for IOM
   NBLOCK =      1;   KBLOCK =      1    inner block; outer block 
   IBRION =     -1    ionic relax: 0-MD 1-quasi-New 2-CG
   NFREE  =      0    steps in history (QN), initial steepest desc. (CG)
   ISIF   =      2    stress and relaxation
   IWAVPR =     10    prediction:  0-non 1-charg 2-wave 3-comb
   ISYM   =      2    0-nonsym 1-usesym 2-fastsym
   LCORR  =      T    Harris-Foulkes like correction to forces

   POTIM  = 1.0000    time-step for ionic-motion
   TEIN   =    0.0    initial temperature
   TEBEG  =    0.0;   TEEND  =   0.0 temperature during run
   SMASS  =  -3.00    Nose mass-parameter (am)
   estimated Nose-frequenzy (Omega)   =  0.10E-29 period in steps =****** mass=  -0.435E-26a.u.
   SCALEE = 1.0000    scale energy and forces
   NPACO  =    256;   APACO  = 16.0  distance and # of slots for P.C.
   PSTRESS=    0.0 pullay stress

  Mass of Ions in am
   POMASS =  44.96 35.45 12.01
  Ionic Valenz
   ZVAL   =  11.00  7.00  4.00
  Atomic Wigner-Seitz radii
   RWIGS  =  -1.00 -1.00 -1.00
  virtual crystal weights 
   VCA    =   1.00  1.00  1.00
   NELECT =     640.0000    total number of electrons
   NUPDOWN=      -1.0000    fix difference up-down

 DOS related values:
   EMIN   =  10.00;   EMAX   =-10.00  energy-range for DOS
   EFERMI =   0.00
   ISMEAR =     0;   SIGMA  =   0.05  broadening in eV -4-tet -1-fermi 0-gaus

 Electronic relaxation 2 (details)
   IALGO  =     38    algorithm
   LDIAG  =      T    sub-space diagonalisation (order eigenvalues)
   LSUBROT=      F    optimize rotation matrix (better conditioning)
   TURBO    =      0    0=normal 1=particle mesh
   IRESTART =      0    0=no restart 2=restart with 2 vectors
   NREBOOT  =      0    no. of reboots
   NMIN     =      0    reboot dimension
   EREF     =   0.00    reference energy to select bands
   IMIX   =      4    mixing-type and parameters
     AMIX     =   0.40;   BMIX     =  1.00
     AMIX_MAG =   1.60;   BMIX_MAG =  1.00
     AMIN     =   0.10
     WC   =   100.;   INIMIX=   1;  MIXPRE=   1;  MAXMIX= -45

 Intra band minimization:
   WEIMIN = 0.0000     energy-eigenvalue tresh-hold
   EBREAK =  0.65E-09  absolut break condition
   DEPER  =   0.30     relativ break condition  

   TIME   =   0.40     timestep for ELM

  volume/ion in A,a.u.               =      57.28       386.56
  Fermi-wavevector in a.u.,A,eV,Ry     =   0.849369  1.605075  9.815628  0.721428
  Thomas-Fermi vector in A             =   1.965179
 
 Write flags
   LWAVE        =      F    write WAVECAR
   LDOWNSAMPLE  =      F    k-point downsampling of WAVECAR
   LCHARG       =      F    write CHGCAR
   LVTOT        =      F    write LOCPOT, total local potential
   LVHAR        =      F    write LOCPOT, Hartree potential only
   LELF         =      F    write electronic localiz. function (ELF)
   LORBIT       =      0    0 simple, 1 ext, 2 COOP (PROOUT), +10 PAW based schemes


 Dipole corrections
   LMONO  =      F    monopole corrections only (constant potential shift)
   LDIPOL =      F    correct potential (dipole corrections)
   IDIPOL =      0    1-x, 2-y, 3-z, 4-all directions 
   EPSILON=  1.0000000 bulk dielectric constant

 Exchange correlation treatment:
   GGA     =    --    GGA type
   LEXCH   =     8    internal setting for exchange type
   VOSKOWN=      0    Vosko Wilk Nusair interpolation
   LHFCALC =     F    Hartree Fock is set to
   LHFONE  =     F    Hartree Fock one center treatment
   AEXX    =    0.0000 exact exchange contribution

 Linear response parameters
   LEPSILON=     F    determine dielectric tensor
   LRPA    =     F    only Hartree local field effects (RPA)
   LNABLA  =     F    use nabla operator in PAW spheres
   LVEL    =     F    velocity operator in full k-point grid
   LINTERFAST=   F  fast interpolation
   KINTER  =     0    interpolate to denser k-point grid
   CSHIFT  =0.1000    complex shift for real part using Kramers Kronig
   OMEGAMAX=  -1.0    maximum frequency
   DEG_THRESHOLD= 0.2000000E-02 threshold for treating states as degnerate
   RTIME   =   -0.100 relaxation time in fs
  (WPLASMAI=    0.000 imaginary part of plasma frequency in eV, 0.658/RTIME)
   DFIELD  = 0.0000000 0.0000000 0.0000000 field for delta impulse in time
 
 Orbital magnetization related:
   ORBITALMAG=     F  switch on orbital magnetization
   LCHIMAG   =     F  perturbation theory with respect to B field
   DQ        =  0.001000  dq finite difference perturbation B field
   LLRAUG    =     F  two centre corrections for induced B field



--------------------------------------------------------------------------------------------------------


 Static calculation
 charge density and potential will be updated during run
 non-spin polarized calculation
 Variant of blocked Davidson
 Davidson routine will perform the subspace rotation
 perform sub-space diagonalisation
    after iterative eigenvector-optimisation
 modified Broyden-mixing scheme, WC =      100.0
 initial mixing is a Kerker type mixing with AMIX =  0.4000 and BMIX =      1.0000
 Hartree-type preconditioning will be used
 using additional bands           64
 real space projection scheme for non local part
 use partial core corrections
 calculate Harris-corrections to forces 
   (improved forces if not selfconsistent)
 use gradient corrections 
 use of overlap-Matrix (Vanderbilt PP)
 Gauss-broadening in eV      SIGMA  =   0.05


--------------------------------------------------------------------------------------------------------


  energy-cutoff  :      600.00
  volume of cell :     4582.63
      direct lattice vectors                 reciprocal lattice vectors
    13.793986680  0.000000000  0.000000000     0.072495358  0.041855214  0.000000000
    -6.896993340 11.945942880  0.000000000     0.000000000  0.083710429  0.000000000
     0.000000000  0.000000000 27.810221070     0.000000000  0.000000000  0.035958003

  length of vectors
    13.793986680 13.793986676 27.810221070     0.083710429  0.083710429  0.035958003


 
 k-points in units of 2pi/SCALE and weight: read from INCAR                         
   0.00000000  0.00000000  0.00000000       0.111
   0.02416512  0.01395174  0.00000000       0.222
   0.00000000  0.02790348  0.00000000       0.222
   0.02416512  0.04185521  0.00000000       0.222
  -0.02416512  0.01395174  0.00000000       0.222
 
 k-points in reciprocal lattice and weights: read from INCAR                         
   0.00000000  0.00000000  0.00000000       0.111
   0.33333333 -0.00000000  0.00000000       0.222
   0.00000000  0.33333333  0.00000000       0.222
   0.33333333  0.33333333  0.00000000       0.222
  -0.33333333  0.33333333  0.00000000       0.222
 
 position of ions in fractional coordinates (direct lattice) 
   0.10520073  0.16387899  0.53989457
   0.07572900  0.40881650  0.54437679
   0.07608164  0.66245514  0.54391174
   0.08895792  0.90452470  0.54024406
   0.34139573  0.16597783  0.53890549
   0.34557814  0.42609299  0.54224807
   0.31968812  0.66685917  0.54164677
   0.33297041  0.91452858  0.54558573
   0.56997590  0.16558293  0.54974435
   0.58062165  0.42515522  0.54813969
   0.57778972  0.67197788  0.54826423
   0.57279475  0.91691766  0.54642909
   0.81568379  0.15179589  0.54482846
   0.81681519  0.39907758  0.54529301
   0.83249118  0.67017982  0.54665041
   0.83808366  0.92332759  0.54469303
   0.16744831  0.08124688  0.45368901
   0.16714777  0.32958634  0.44859008
   0.17464988  0.58780911  0.45247213
   0.16597756  0.82930290  0.45014665
   0.41719040  0.07314596  0.45836137
   0.42982397  0.34049507  0.45659019
   0.42306919  0.59473102  0.45852323
   0.42239186  0.84472786  0.45723835
   0.66999324  0.08938482  0.45870523
   0.66640429  0.33418016  0.45402324
   0.67644132  0.58645719  0.45840278
   0.66835218  0.84113229  0.45332672
   0.92889820  0.09005167  0.45231357
   0.91784626  0.33159597  0.45498211
   0.90837026  0.57449621  0.45958536
   0.90176682  0.83614161  0.44911330
   0.09005487  0.16979570  0.39510497
   0.07339564  0.42230152  0.39410246
   0.07586047  0.65467772  0.39180740
   0.07416809  0.90879143  0.39869626
   0.33230327  0.14765891  0.39647113
   0.34083248  0.42752816  0.39708174
   0.34192444  0.66929606  0.39704320
   0.33506756  0.90663003  0.39752360
   0.56890748  0.17396807  0.40156688
   0.58048039  0.42294724  0.39565323
   0.60692839  0.68189864  0.38978541
   0.57646068  0.91535551  0.39610183
   0.82270661  0.16467405  0.39009441
   0.82225965  0.41226846  0.38963353
   0.82032652  0.65643684  0.39567928
   0.83248222  0.92002181  0.39068629
   0.16598406  0.07454533  0.60148642
   0.17235333  0.33020799  0.60765276
   0.16567879  0.58135752  0.60149268
   0.17461033  0.84481229  0.60534167
   0.42494876  0.07809773  0.61907928
   0.41087685  0.31589263  0.59769243
   0.41232869  0.59217825  0.60787949
   0.41980919  0.82701085  0.60914839
   0.67517261  0.09573947  0.60688325
   0.66304837  0.34069668  0.60615675
   0.66687563  0.58593854  0.60776172
   0.66649400  0.83584258  0.60934216
   0.93491106  0.08991979  0.60118418
   0.92720047  0.34319038  0.60625927
   0.90242635  0.56959146  0.60645041
   0.92098923  0.83899492  0.60999623
   0.00501283  0.00866618  0.49704537
   0.99787698  0.24780349  0.49311017
   0.99731835  0.49689948  0.50191080
   0.00203078  0.75410540  0.49932047
   0.25014920  0.99017129  0.49849493
   0.26175826  0.25209163  0.49663719
   0.25280579  0.49418944  0.50255746
   0.24665518  0.73920041  0.49658382
   0.49755003  0.00262009  0.50433011
   0.49124267  0.23861917  0.50111817
   0.51441211  0.51096247  0.49847965
   0.51236577  0.74923237  0.49993458
   0.74357442  0.00321580  0.49841116
   0.74652022  0.24902602  0.50073908
   0.74790146  0.50255364  0.49817611
   0.75548209  0.75964522  0.50060775
 
 position of ions in cartesian coordinates  (Angst):
   0.32086509  1.95768909 15.01458745
  -1.77499981  4.88369857 15.13923883
  -3.51947960  7.91365131 15.12630576
  -5.01141641 10.80540038 15.02430686
   3.56446019  1.98276173 14.98708072
   1.82813969  5.09008255 15.08003875
  -0.18954952  7.96626152 15.06331655
  -1.71450812 10.92490618 15.17285979
   6.72021561  1.97804424 15.28851199
   5.07679467  5.07887992 15.24388608
   3.33539683  8.02740933 15.24734936
   1.57714812 10.95344600 15.19631384
  10.20459613  1.81334498 15.15179992
   8.51470249  4.76735792 15.16471916
   6.86114651  8.00592985 15.20246885
   5.19233065 11.03001866 15.14803361
   1.74942055  0.97057064 12.61719175
   0.03247931  3.93721954 12.47538936
  -1.64499736  7.02193401 12.58335010
  -3.43020425  9.90680505 12.51867782
   5.25023166  0.87379746 12.74713114
   3.58059390  4.06753461 12.69787414
   1.73395489  7.10462284 12.75163228
   0.00038532 10.09107079 12.71589967
   8.62539131  1.06778592 12.75669385
   6.88753362  3.99209708 12.62648666
   5.28603113  7.00578414 12.74828255
   3.41795725 10.04811834 12.60711627
  12.19212364  1.07575214 12.57894024
  10.37374388  3.96122651 12.65315299
   8.56775071  6.86289886 12.78117048
   6.67209648  9.98849986 12.48994023
   0.07113596  2.02836968 10.98795663
  -1.90019224  5.04478979 10.96007648
  -3.46888955  7.82074268 10.89625029
  -5.24485481 10.85637049 11.08783108
   3.56538436  1.76392486 11.02594975
   1.75277976  5.10722701 11.04293089
   0.10037075  7.99537250 11.04185916
  -1.63110378 10.83055057 11.05521917
   6.64764554  2.07821268 11.16766374
   5.09007455  5.05250354 11.00320387
   3.66891179  8.14592219 10.84001830
   1.63849006 10.93478459 11.01567950
  10.21264829  1.96718674 10.84861170
   8.49882582  4.92493548 10.83579459
   6.78813256  7.84175699 11.00392838
   5.13786429 10.99052801 10.86507207
   1.77544332  0.89051420 16.72747025
   0.09999724  3.94464576 16.89895766
  -1.72424788  6.94486369 16.72764434
  -3.41809219 10.09207934 16.83468560
   5.32309799  0.93295102 17.21673173
   3.48892044  3.77363532 16.62195873
   1.60340708  7.07412754 16.90526308
   0.08695406  9.87942439 16.94055141
   8.65300742  1.14369828 16.87755723
   6.79629757  4.06994310 16.85735311
   5.15765932  6.99958837 16.90198768
   3.42880865  9.98492775 16.94594015
  12.27597447  1.07417672 16.71906500
  10.42280913  4.09973270 16.86020422
   8.51958846  6.80430708 16.86552005
   6.91757071 10.02258542 16.96413009
   0.00937636  0.10352572 13.82294168
  12.05560282  2.96024628 13.71350291
  10.32988368  5.93593283 13.95825038
  -5.17304735  9.00850006 13.88621257
  -3.37865002 11.82852962 13.86325410
   1.87201558  3.01147225 13.81158993
   0.07877839  5.90355888 13.97623404
  -1.69590202  8.83044589 13.81010578
   6.84512773  0.03129948 14.02553183
   5.13043994  2.85053100 13.93620708
   3.57168902  6.10392853 13.86282920
   1.90011590  8.95028713 13.90329123
  10.23467634  0.03841572 13.86092450
   8.57995912  2.97485065 13.92566454
   6.85043361  6.00347711 13.85438770
   5.18184193  9.07467840 13.92201229
 


--------------------------------------------------------------------------------------------------------


 k-point  1 :   0.0000 0.0000 0.0000  plane waves:  153003
 k-point  2 :   0.3333-0.0000 0.0000  plane waves:  152954
 k-point  3 :   0.0000 0.3333 0.0000  plane waves:  152954
 k-point  4 :   0.3333 0.3333 0.0000  plane waves:  152898
 k-point  5 :  -0.3333 0.3333 0.0000  plane waves:  152954

 maximum and minimum number of plane-waves per node :     11814    11730

 maximum number of plane-waves:    153003
 maximum index in each direction: 
   IXMAX=   27   IYMAX=   27   IZMAX=   55
   IXMIN=  -27   IYMIN=  -27   IZMIN=  -55


 real space projection operators:
  total allocation   :      55021.12 KBytes
  max/ min on nodes  :       4466.09       3876.80


 parallel 3D FFT for wavefunctions:
    minimum data exchange during FFTs selected (reduces bandwidth)
 parallel 3D FFT for charge:
    minimum data exchange during FFTs selected (reduces bandwidth)


 total amount of memory used by VASP MPI-rank0   253928. kBytes
=======================================================================

   base      :      30000. kBytes
   nonlr-proj:      18744. kBytes
   fftplans  :      72602. kBytes
   grid      :      41267. kBytes
   one-center:        108. kBytes
   wavefun   :      91207. kBytes
 
     INWAV:  cpu time    0.0000: real time    0.0000
 Broyden mixing: mesh for mixing (old mesh)
   NGX = 55   NGY = 55   NGZ =111
  (NGX  =224   NGY  =224   NGZ  =448)
  gives a total of 335775 points

 initial charge density was supplied:
 charge density of overlapping atoms calculated
 number of electron     640.0000000 magnetization 
 keeping initial charge density in first step


--------------------------------------------------------------------------------------------------------


 Maximum index for non-local projection operator          945
 Maximum index for augmentation-charges         5375 (set IRDMAX)


--------------------------------------------------------------------------------------------------------


 First call to EWALD:  gamma=   0.107
 Maximum number of real-space cells 4x 4x 2
 Maximum number of reciprocal cells 2x 2x 4

    FEWALD:  cpu time    0.0028: real time    0.0028


--------------------------------------- Iteration      1(   1)  ---------------------------------------


    POTLOK:  cpu time    0.4111: real time    0.4158
    SETDIJ:  cpu time    0.4229: real time    0.4230
     EDDAV:  cpu time   50.5541: real time   50.5556
       DOS:  cpu time    0.0017: real time    0.0017
    --------------------------------------------
      LOOP:  cpu time   51.3898: real time   51.3961

 eigenvalue-minimisations  :  4440
 total energy-change (2. order) : 0.1223322E+05  (-0.2678117E+05)
 number of electron     640.0000000 magnetization 
 augmentation part      640.0000000 magnetization 

 Free energy of the ion-electron system (eV)
  ---------------------------------------------------
  alpha Z        PSCENC =       784.57699423
  Ewald energy   TEWEN  =    251489.28292867
  -Hartree energ DENC   =   -299151.45068941
  -exchange      EXHF   =         0.00000000
  -V(xc)+E(xc)   XCENC  =      2502.40563488
  PAW double counting   =     43679.68029659   -43417.33247688
  entropy T*S    EENTRO =        -0.06420915
  eigenvalues    EBANDS =       135.40170322
  atomic energy  EATOM  =     56210.72393729
  Solvation  Ediel_sol  =         0.00000000
  ---------------------------------------------------
  free energy    TOTEN  =     12233.22411943 eV

  energy without entropy =    12233.28832858  energy(sigma->0) =    12233.25622401


--------------------------------------------------------------------------------------------------------




--------------------------------------- Iteration      1(   2)  ---------------------------------------


     EDDAV:  cpu time   57.6466: real time   57.6638
       DOS:  cpu time    0.0012: real time    0.0012
    --------------------------------------------
      LOOP:  cpu time   57.6478: real time   57.6650

 eigenvalue-minimisations  :  5264
 total energy-change (2. order) :-0.1049711E+05  (-0.1023372E+05)
 number of electron     640.0000000 magnetization 
 augmentation part      640.0000000 magnetization 

 Free energy of the ion-electron system (eV)
  ---------------------------------------------------
  alpha Z        PSCENC =       784.57699423
  Ewald energy   TEWEN  =    251489.28292867
  -Hartree energ DENC   =   -299151.45068941
  -exchange      EXHF   =         0.00000000
  -V(xc)+E(xc)   XCENC  =      2502.40563488
  PAW double counting   =     43679.68029659   -43417.33247688
  entropy T*S    EENTRO =        -0.03758964
  eigenvalues    EBANDS =    -10361.73441860
  atomic energy  EATOM  =     56210.72393729
  Solvation  Ediel_sol  =         0.00000000
  ---------------------------------------------------
  free energy    TOTEN  =      1736.11461712 eV

  energy without entropy =     1736.15220676  energy(sigma->0) =     1736.13341194


--------------------------------------------------------------------------------------------------------




--------------------------------------- Iteration      1(   3)  ---------------------------------------


     EDDAV:  cpu time   71.2775: real time   71.2839
       DOS:  cpu time    0.0010: real time    0.0010
    --------------------------------------------
      LOOP:  cpu time   71.2785: real time   71.2849

 eigenvalue-minimisations  :  6800
 total energy-change (2. order) :-0.2141059E+04  (-0.2052928E+04)
 number of electron     640.0000000 magnetization 
 augmentation part      640.0000000 magnetization 

 Free energy of the ion-electron system (eV)
  ---------------------------------------------------
  alpha Z        PSCENC =       784.57699423
  Ewald energy   TEWEN  =    251489.28292867
  -Hartree energ DENC   =   -299151.45068941
  -exchange      EXHF   =         0.00000000
  -V(xc)+E(xc)   XCENC  =      2502.40563488
  PAW double counting   =     43679.68029659   -43417.33247688
  entropy T*S    EENTRO =        -0.00045601
  eigenvalues    EBANDS =    -12502.83092545
  atomic energy  EATOM  =     56210.72393729
  Solvation  Ediel_sol  =         0.00000000
  ---------------------------------------------------
  free energy    TOTEN  =      -404.94475609 eV

  energy without entropy =     -404.94430008  energy(sigma->0) =     -404.94452809


--------------------------------------------------------------------------------------------------------




--------------------------------------- Iteration      1(   4)  ---------------------------------------


     EDDAV:  cpu time   64.9974: real time   65.0061
       DOS:  cpu time    0.0004: real time    0.0004
    --------------------------------------------
      LOOP:  cpu time   64.9978: real time   65.0065

 eigenvalue-minimisations  :  6088
 total energy-change (2. order) :-0.2372340E+03  (-0.2325777E+03)
 number of electron     640.0000000 magnetization 
 augmentation part      640.0000000 magnetization 

 Free energy of the ion-electron system (eV)
  ---------------------------------------------------
  alpha Z        PSCENC =       784.57699423
  Ewald energy   TEWEN  =    251489.28292867
  -Hartree energ DENC   =   -299151.45068941
  -exchange      EXHF   =         0.00000000
  -V(xc)+E(xc)   XCENC  =      2502.40563488
  PAW double counting   =     43679.68029659   -43417.33247688
  entropy T*S    EENTRO =        -0.00000000
  eigenvalues    EBANDS =    -12740.06533489
  atomic energy  EATOM  =     56210.72393729
  Solvation  Ediel_sol  =         0.00000000
  ---------------------------------------------------
  free energy    TOTEN  =      -642.17870953 eV

  energy without entropy =     -642.17870953  energy(sigma->0) =     -642.17870953


--------------------------------------------------------------------------------------------------------




--------------------------------------- Iteration      1(   5)  ---------------------------------------


     EDDAV:  cpu time   64.9274: real time   64.9361
       DOS:  cpu time    0.0006: real time    0.0006
    CHARGE:  cpu time    3.8909: real time    3.8910
    MIXING:  cpu time    0.0159: real time    0.0160
    --------------------------------------------
      LOOP:  cpu time   68.8348: real time   68.8437

 eigenvalue-minimisations  :  6080
 total energy-change (2. order) :-0.1055624E+02  (-0.1050040E+02)
 number of electron     640.0000003 magnetization 
 augmentation part       59.2027093 magnetization 

 Broyden mixing:
  rms(total) = 0.69598E+01    rms(broyden)= 0.69596E+01
  rms(prec ) = 0.73222E+01
  weight for this iteration     100.00

 Free energy of the ion-electron system (eV)
  ---------------------------------------------------
  alpha Z        PSCENC =       784.57699423
  Ewald energy   TEWEN  =    251489.28292867
  -Hartree energ DENC   =   -299151.45068941
  -exchange      EXHF   =         0.00000000
  -V(xc)+E(xc)   XCENC  =      2502.40563488
  PAW double counting   =     43679.68029659   -43417.33247688
  entropy T*S    EENTRO =        -0.00000000
  eigenvalues    EBANDS =    -12750.62157279
  atomic energy  EATOM  =     56210.72393729
  Solvation  Ediel_sol  =         0.00000000
  ---------------------------------------------------
  free energy    TOTEN  =      -652.73494743 eV

  energy without entropy =     -652.73494743  energy(sigma->0) =     -652.73494743


--------------------------------------------------------------------------------------------------------




--------------------------------------- Iteration      1(   6)  ---------------------------------------


    POTLOK:  cpu time    0.3856: real time    0.3942
    SETDIJ:  cpu time    0.4181: real time    0.4181
     EDDAV:  cpu time   63.0001: real time   63.0015
       DOS:  cpu time    0.0008: real time    0.0007
    CHARGE:  cpu time    3.8916: real time    3.8917
    MIXING:  cpu time    0.0146: real time    0.0146
    --------------------------------------------
      LOOP:  cpu time   67.7107: real time   67.7207

 eigenvalue-minimisations  :  5832
 total energy-change (2. order) : 0.1307448E+03  (-0.6992974E+02)
 number of electron     640.0000004 magnetization 
 augmentation part       70.0872346 magnetization 

 Broyden mixing:
  rms(total) = 0.30634E+01    rms(broyden)= 0.30632E+01
  rms(prec ) = 0.30962E+01
  weight for this iteration     100.00

 eigenvalues of (default mixing * dielectric matrix)
  average eigenvalue GAMMA=   0.9494
  0.9494

 Free energy of the ion-electron system (eV)
  ---------------------------------------------------
  alpha Z        PSCENC =       784.57699423
  Ewald energy   TEWEN  =    251489.28292867
  -Hartree energ DENC   =   -298953.69695744
  -exchange      EXHF   =         0.00000000
  -V(xc)+E(xc)   XCENC  =      2492.12288640
  PAW double counting   =     49224.93490005   -49017.18421067
  entropy T*S    EENTRO =        -0.00000000
  eigenvalues    EBANDS =    -12752.75059377
  atomic energy  EATOM  =     56210.72393729
  Solvation  Ediel_sol  =         0.00000000
  ---------------------------------------------------
  free energy    TOTEN  =      -521.99011524 eV

  energy without entropy =     -521.99011524  energy(sigma->0) =     -521.99011524


--------------------------------------------------------------------------------------------------------




--------------------------------------- Iteration      1(   7)  ---------------------------------------


    POTLOK:  cpu time    0.3853: real time    0.3927
    SETDIJ:  cpu time    0.4199: real time    0.4199
     EDDAV:  cpu time   63.6153: real time   63.6165
       DOS:  cpu time    0.0006: real time    0.0006
    CHARGE:  cpu time    3.8871: real time    3.8871
    MIXING:  cpu time    0.0138: real time    0.0138
    --------------------------------------------
      LOOP:  cpu time   68.3220: real time   68.3307

 eigenvalue-minimisations  :  5904
 total energy-change (2. order) :-0.5071910E+01  (-0.8997954E+01)
 number of electron     640.0000004 magnetization 
 augmentation part       69.5276564 magnetization 

 Broyden mixing:
  rms(total) = 0.15468E+01    rms(broyden)= 0.15467E+01
  rms(prec ) = 0.15830E+01
  weight for this iteration     100.00

 eigenvalues of (default mixing * dielectric matrix)
  average eigenvalue GAMMA=   0.9903
  0.9903  0.9903

 Free energy of the ion-electron system (eV)
  ---------------------------------------------------
  alpha Z        PSCENC =       784.57699423
  Ewald energy   TEWEN  =    251489.28292867
  -Hartree energ DENC   =   -299051.42335817
  -exchange      EXHF   =         0.00000000
  -V(xc)+E(xc)   XCENC  =      2488.09220584
  PAW double counting   =     54263.45761694   -54069.90552676
  entropy T*S    EENTRO =        -0.00000000
  eigenvalues    EBANDS =    -12641.86682341
  atomic energy  EATOM  =     56210.72393729
  Solvation  Ediel_sol  =         0.00000000
  ---------------------------------------------------
  free energy    TOTEN  =      -527.06202537 eV

  energy without entropy =     -527.06202537  energy(sigma->0) =     -527.06202537


--------------------------------------------------------------------------------------------------------




--------------------------------------- Iteration      1(   8)  ---------------------------------------


    POTLOK:  cpu time    0.3845: real time    0.3930
    SETDIJ:  cpu time    0.4178: real time    0.4178
     EDDAV:  cpu time   62.7657: real time   62.7661
       DOS:  cpu time    0.0006: real time    0.0006
    CHARGE:  cpu time    3.8997: real time    3.8998
    MIXING:  cpu time    0.0140: real time    0.0140
    --------------------------------------------
      LOOP:  cpu time   67.4823: real time   67.4914

 eigenvalue-minimisations  :  5808
 total energy-change (2. order) : 0.2284402E+01  (-0.9970636E+00)
 number of electron     640.0000004 magnetization 
 augmentation part       69.2539365 magnetization 

 Broyden mixing:
  rms(total) = 0.94682E+00    rms(broyden)= 0.94682E+00
  rms(prec ) = 0.96251E+00
  weight for this iteration     100.00

 eigenvalues of (default mixing * dielectric matrix)
  average eigenvalue GAMMA=   1.4147
  2.5118  0.8662  0.8662

 Free energy of the ion-electron system (eV)
  ---------------------------------------------------
  alpha Z        PSCENC =       784.57699423
  Ewald energy   TEWEN  =    251489.28292867
  -Hartree energ DENC   =   -299116.41648919
  -exchange      EXHF   =         0.00000000
  -V(xc)+E(xc)   XCENC  =      2488.15095919
  PAW double counting   =     56156.15957362   -55973.01567625
  entropy T*S    EENTRO =        -0.00000000
  eigenvalues    EBANDS =    -12564.23985102
  atomic energy  EATOM  =     56210.72393729
  Solvation  Ediel_sol  =         0.00000000
  ---------------------------------------------------
  free energy    TOTEN  =      -524.77762348 eV

  energy without entropy =     -524.77762348  energy(sigma->0) =     -524.77762348


--------------------------------------------------------------------------------------------------------




--------------------------------------- Iteration      1(   9)  ---------------------------------------


    POTLOK:  cpu time    0.3857: real time    0.3939
    SETDIJ:  cpu time    0.4177: real time    0.4177
     EDDAV:  cpu time   58.5215: real time   58.5239
       DOS:  cpu time    0.0006: real time    0.0006
    CHARGE:  cpu time    3.8929: real time    3.8930
    MIXING:  cpu time    0.0136: real time    0.0136
    --------------------------------------------
      LOOP:  cpu time   63.2319: real time   63.2427

 eigenvalue-minimisations  :  5328
 total energy-change (2. order) : 0.5218962E+00  (-0.3917618E+00)
 number of electron     640.0000004 magnetization 
 augmentation part       69.9819699 magnetization 

 Broyden mixing:
  rms(total) = 0.29721E+00    rms(broyden)= 0.29719E+00
  rms(prec ) = 0.31067E+00
  weight for this iteration     100.00

 eigenvalues of (default mixing * dielectric matrix)
  average eigenvalue GAMMA=   1.2182
  2.1589  0.8578  0.8578  0.9982

 Free energy of the ion-electron system (eV)
  ---------------------------------------------------
  alpha Z        PSCENC =       784.57699423
  Ewald energy   TEWEN  =    251489.28292867
  -Hartree energ DENC   =   -299239.23000007
  -exchange      EXHF   =         0.00000000
  -V(xc)+E(xc)   XCENC  =      2487.66083310
  PAW double counting   =     59918.30794661   -59752.16277700
  entropy T*S    EENTRO =        -0.00000000
  eigenvalues    EBANDS =    -12423.41559011
  atomic energy  EATOM  =     56210.72393729
  Solvation  Ediel_sol  =         0.00000000
  ---------------------------------------------------
  free energy    TOTEN  =      -524.25572728 eV

  energy without entropy =     -524.25572728  energy(sigma->0) =     -524.25572728


--------------------------------------------------------------------------------------------------------




--------------------------------------- Iteration      1(  10)  ---------------------------------------


    POTLOK:  cpu time    0.3848: real time    0.3933
    SETDIJ:  cpu time    0.4178: real time    0.4179
     EDDAV:  cpu time   61.7189: real time   61.7206
       DOS:  cpu time    0.0007: real time    0.0007
    CHARGE:  cpu time    3.8725: real time    3.8727
    MIXING:  cpu time    0.0143: real time    0.0143
    --------------------------------------------
      LOOP:  cpu time   66.4090: real time   66.4193

 eigenvalue-minimisations  :  5688
 total energy-change (2. order) : 0.1346467E+00  (-0.5782653E-01)
 number of electron     640.0000004 magnetization 
 augmentation part       69.7892319 magnetization 

 Broyden mixing:
  rms(total) = 0.17046E+00    rms(broyden)= 0.17046E+00
  rms(prec ) = 0.17751E+00
  weight for this iteration     100.00

 eigenvalues of (default mixing * dielectric matrix)
  average eigenvalue GAMMA=   1.2198
  2.1975  1.3979  0.9094  0.9094  0.6846

 Free energy of the ion-electron system (eV)
  ---------------------------------------------------
  alpha Z        PSCENC =       784.57699423
  Ewald energy   TEWEN  =    251489.28292867
  -Hartree energ DENC   =   -299267.81783004
  -exchange      EXHF   =         0.00000000
  -V(xc)+E(xc)   XCENC  =      2488.25948422
  PAW double counting   =     59423.11387747   -59254.79777536
  entropy T*S    EENTRO =        -0.00000000
  eigenvalues    EBANDS =    -12397.46269707
  atomic energy  EATOM  =     56210.72393729
  Solvation  Ediel_sol  =         0.00000000
  ---------------------------------------------------
  free energy    TOTEN  =      -524.12108060 eV

  energy without entropy =     -524.12108060  energy(sigma->0) =     -524.12108060


--------------------------------------------------------------------------------------------------------




--------------------------------------- Iteration      1(  11)  ---------------------------------------


    POTLOK:  cpu time    0.3857: real time    0.3939
    SETDIJ:  cpu time    0.4178: real time    0.4178
     EDDAV:  cpu time   61.7374: real time   61.7379
       DOS:  cpu time    0.0006: real time    0.0006
    CHARGE:  cpu time    3.8901: real time    3.8902
    MIXING:  cpu time    0.0143: real time    0.0143
    --------------------------------------------
      LOOP:  cpu time   66.4460: real time   66.4547

 eigenvalue-minimisations  :  5696
 total energy-change (2. order) : 0.2001062E-01  (-0.2375410E-01)
 number of electron     640.0000004 magnetization 
 augmentation part       69.7400892 magnetization 

 Broyden mixing:
  rms(total) = 0.72982E-01    rms(broyden)= 0.72981E-01
  rms(prec ) = 0.79275E-01
  weight for this iteration     100.00

 eigenvalues of (default mixing * dielectric matrix)
  average eigenvalue GAMMA=   1.2602
  2.4371  1.7446  0.8914  0.8914  0.7985  0.7985

 Free energy of the ion-electron system (eV)
  ---------------------------------------------------
  alpha Z        PSCENC =       784.57699423
  Ewald energy   TEWEN  =    251489.28292867
  -Hartree energ DENC   =   -299316.18238105
  -exchange      EXHF   =         0.00000000
  -V(xc)+E(xc)   XCENC  =      2488.81871789
  PAW double counting   =     59562.72285197   -59394.70270855
  entropy T*S    EENTRO =        -0.00000000
  eigenvalues    EBANDS =    -12349.34141042
  atomic energy  EATOM  =     56210.72393729
  Solvation  Ediel_sol  =         0.00000000
  ---------------------------------------------------
  free energy    TOTEN  =      -524.10106998 eV

  energy without entropy =     -524.10106998  energy(sigma->0) =     -524.10106998


--------------------------------------------------------------------------------------------------------




--------------------------------------- Iteration      1(  12)  ---------------------------------------


    POTLOK:  cpu time    0.3912: real time    0.4025
    SETDIJ:  cpu time    0.4189: real time    0.4210
     EDDAV:  cpu time   64.2285: real time   64.2291
       DOS:  cpu time    0.0006: real time    0.0006
    CHARGE:  cpu time    3.9039: real time    3.9039
    MIXING:  cpu time    0.0150: real time    0.0150
    --------------------------------------------
      LOOP:  cpu time   68.9580: real time   68.9721

 eigenvalue-minimisations  :  5976
 total energy-change (2. order) : 0.1261133E-01  (-0.3427090E-02)
 number of electron     640.0000004 magnetization 
 augmentation part       69.7281490 magnetization 

 Broyden mixing:
  rms(total) = 0.31146E-01    rms(broyden)= 0.31145E-01
  rms(prec ) = 0.37912E-01
  weight for this iteration     100.00

 eigenvalues of (default mixing * dielectric matrix)
  average eigenvalue GAMMA=   1.2588
  2.2214  2.2214  0.9287  0.9287  0.9021  0.9021  0.7071

 Free energy of the ion-electron system (eV)
  ---------------------------------------------------
  alpha Z        PSCENC =       784.57699423
  Ewald energy   TEWEN  =    251489.28292867
  -Hartree energ DENC   =   -299348.84440197
  -exchange      EXHF   =         0.00000000
  -V(xc)+E(xc)   XCENC  =      2489.21444523
  PAW double counting   =     59631.74542246   -59463.85973034
  entropy T*S    EENTRO =        -0.00000000
  eigenvalues    EBANDS =    -12316.92805420
  atomic energy  EATOM  =     56210.72393729
  Solvation  Ediel_sol  =         0.00000000
  ---------------------------------------------------
  free energy    TOTEN  =      -524.08845864 eV

  energy without entropy =     -524.08845864  energy(sigma->0) =     -524.08845864


--------------------------------------------------------------------------------------------------------




--------------------------------------- Iteration      1(  13)  ---------------------------------------


    POTLOK:  cpu time    0.3838: real time    0.3933
    SETDIJ:  cpu time    0.4184: real time    0.4185
     EDDAV:  cpu time   59.0576: real time   59.0598
       DOS:  cpu time    0.0006: real time    0.0006
    CHARGE:  cpu time    3.8855: real time    3.8855
    MIXING:  cpu time    0.0183: real time    0.0183
    --------------------------------------------
      LOOP:  cpu time   63.7643: real time   63.7761

 eigenvalue-minimisations  :  5392
 total energy-change (2. order) : 0.3115649E-02  (-0.1069352E-02)
 number of electron     640.0000004 magnetization 
 augmentation part       69.7329186 magnetization 

 Broyden mixing:
  rms(total) = 0.19281E-01    rms(broyden)= 0.19281E-01
  rms(prec ) = 0.25633E-01
  weight for this iteration     100.00

 eigenvalues of (default mixing * dielectric matrix)
  average eigenvalue GAMMA=   1.2872
  2.6596  1.9729  1.4047  0.9137  0.9137  0.8846  0.8846  0.6636

 Free energy of the ion-electron system (eV)
  ---------------------------------------------------
  alpha Z        PSCENC =       784.57699423
  Ewald energy   TEWEN  =    251489.28292867
  -Hartree energ DENC   =   -299370.09280121
  -exchange      EXHF   =         0.00000000
  -V(xc)+E(xc)   XCENC  =      2489.40407371
  PAW double counting   =     59602.73902411   -59434.73326610
  entropy T*S    EENTRO =        -0.00000000
  eigenvalues    EBANDS =    -12295.98623369
  atomic energy  EATOM  =     56210.72393729
  Solvation  Ediel_sol  =         0.00000000
  ---------------------------------------------------
  free energy    TOTEN  =      -524.08534299 eV

  energy without entropy =     -524.08534299  energy(sigma->0) =     -524.08534299


--------------------------------------------------------------------------------------------------------




--------------------------------------- Iteration      1(  14)  ---------------------------------------


    POTLOK:  cpu time    0.3827: real time    0.3909
    SETDIJ:  cpu time    0.4195: real time    0.4195
     EDDAV:  cpu time   59.4810: real time   59.4834
       DOS:  cpu time    0.0005: real time    0.0005
    CHARGE:  cpu time    3.8972: real time    3.8973
    MIXING:  cpu time    0.0186: real time    0.0186
    --------------------------------------------
      LOOP:  cpu time   64.1995: real time   64.2102

 eigenvalue-minimisations  :  5440
 total energy-change (2. order) : 0.1642896E-02  (-0.5732376E-03)
 number of electron     640.0000004 magnetization 
 augmentation part       69.7436956 magnetization 

 Broyden mixing:
  rms(total) = 0.16350E-01    rms(broyden)= 0.16350E-01
  rms(prec ) = 0.20334E-01
  weight for this iteration     100.00

 eigenvalues of (default mixing * dielectric matrix)
  average eigenvalue GAMMA=   1.3196
  2.5518  2.5518  1.6917  0.9428  0.9428  0.8733  0.8733  0.7246  0.7246

 Free energy of the ion-electron system (eV)
  ---------------------------------------------------
  alpha Z        PSCENC =       784.57699423
  Ewald energy   TEWEN  =    251489.28292867
  -Hartree energ DENC   =   -299392.70524580
  -exchange      EXHF   =         0.00000000
  -V(xc)+E(xc)   XCENC  =      2489.54796126
  PAW double counting   =     59606.34674158   -59438.38358377
  entropy T*S    EENTRO =        -0.00000000
  eigenvalues    EBANDS =    -12273.47343355
  atomic energy  EATOM  =     56210.72393729
  Solvation  Ediel_sol  =         0.00000000
  ---------------------------------------------------
  free energy    TOTEN  =      -524.08370010 eV

  energy without entropy =     -524.08370010  energy(sigma->0) =     -524.08370010


--------------------------------------------------------------------------------------------------------




--------------------------------------- Iteration      1(  15)  ---------------------------------------


    POTLOK:  cpu time    0.3841: real time    0.3928
    SETDIJ:  cpu time    0.4182: real time    0.4182
     EDDAV:  cpu time   60.1799: real time   60.1810
       DOS:  cpu time    0.0006: real time    0.0006
    CHARGE:  cpu time    3.8901: real time    3.8902
    MIXING:  cpu time    0.0190: real time    0.0190
    --------------------------------------------
      LOOP:  cpu time   64.8919: real time   64.9017

 eigenvalue-minimisations  :  5512
 total energy-change (2. order) :-0.1288122E-02  (-0.2355973E-03)
 number of electron     640.0000004 magnetization 
 augmentation part       69.7477872 magnetization 

 Broyden mixing:
  rms(total) = 0.10523E-01    rms(broyden)= 0.10523E-01
  rms(prec ) = 0.13633E-01
  weight for this iteration     100.00

 eigenvalues of (default mixing * dielectric matrix)
  average eigenvalue GAMMA=   1.3403
  2.7946  2.7946  1.3814  1.3553  0.9182  0.9182  0.8724  0.8724  0.8585  0.6373

 Free energy of the ion-electron system (eV)
  ---------------------------------------------------
  alpha Z        PSCENC =       784.57699423
  Ewald energy   TEWEN  =    251489.28292867
  -Hartree energ DENC   =   -299410.64365910
  -exchange      EXHF   =         0.00000000
  -V(xc)+E(xc)   XCENC  =      2489.63558361
  PAW double counting   =     59571.92642490   -59403.86185781
  entropy T*S    EENTRO =        -0.00000000
  eigenvalues    EBANDS =    -12255.72534000
  atomic energy  EATOM  =     56210.72393729
  Solvation  Ediel_sol  =         0.00000000
  ---------------------------------------------------
  free energy    TOTEN  =      -524.08498822 eV

  energy without entropy =     -524.08498822  energy(sigma->0) =     -524.08498822


--------------------------------------------------------------------------------------------------------




--------------------------------------- Iteration      1(  16)  ---------------------------------------


    POTLOK:  cpu time    0.3855: real time    0.3944
    SETDIJ:  cpu time    0.4185: real time    0.4185
     EDDAV:  cpu time   61.4499: real time   61.4542
       DOS:  cpu time    0.0006: real time    0.0006
    CHARGE:  cpu time    3.8911: real time    3.8912
    MIXING:  cpu time    0.0172: real time    0.0172
    --------------------------------------------
      LOOP:  cpu time   66.1628: real time   66.1760

 eigenvalue-minimisations  :  5664
 total energy-change (2. order) :-0.1754021E-02  (-0.1121252E-03)
 number of electron     640.0000004 magnetization 
 augmentation part       69.7458997 magnetization 

 Broyden mixing:
  rms(total) = 0.58758E-02    rms(broyden)= 0.58757E-02
  rms(prec ) = 0.82898E-02
  weight for this iteration     100.00

 eigenvalues of (default mixing * dielectric matrix)
  average eigenvalue GAMMA=   1.3739
  3.3282  2.5486  1.9010  1.3453  0.9372  0.9372  0.9043  0.9043  0.9570  0.7132
  0.6371

 Free energy of the ion-electron system (eV)
  ---------------------------------------------------
  alpha Z        PSCENC =       784.57699423
  Ewald energy   TEWEN  =    251489.28292867
  -Hartree energ DENC   =   -299423.98056277
  -exchange      EXHF   =         0.00000000
  -V(xc)+E(xc)   XCENC  =      2489.70155929
  PAW double counting   =     59560.15311350   -59392.07426231
  entropy T*S    EENTRO =        -0.00000000
  eigenvalues    EBANDS =    -12242.47045013
  atomic energy  EATOM  =     56210.72393729
  Solvation  Ediel_sol  =         0.00000000
  ---------------------------------------------------
  free energy    TOTEN  =      -524.08674224 eV

  energy without entropy =     -524.08674224  energy(sigma->0) =     -524.08674224


--------------------------------------------------------------------------------------------------------




--------------------------------------- Iteration      1(  17)  ---------------------------------------


    POTLOK:  cpu time    0.3870: real time    0.3959
    SETDIJ:  cpu time    0.4186: real time    0.4186
     EDDAV:  cpu time   59.7595: real time   59.7632
       DOS:  cpu time    0.0006: real time    0.0006
    CHARGE:  cpu time    3.8870: real time    3.8871
    MIXING:  cpu time    0.0180: real time    0.0180
    --------------------------------------------
      LOOP:  cpu time   64.4706: real time   64.4834

 eigenvalue-minimisations  :  5472
 total energy-change (2. order) :-0.2951947E-02  (-0.8483080E-04)
 number of electron     640.0000004 magnetization 
 augmentation part       69.7444949 magnetization 

 Broyden mixing:
  rms(total) = 0.38281E-02    rms(broyden)= 0.38279E-02
  rms(prec ) = 0.54008E-02
  weight for this iteration     100.00

 eigenvalues of (default mixing * dielectric matrix)
  average eigenvalue GAMMA=   1.4352
  4.0655  2.6371  2.3477  1.3325  1.0712  0.9124  0.9124  0.9044  0.9044  0.7561
  0.7561  0.6223

 Free energy of the ion-electron system (eV)
  ---------------------------------------------------
  alpha Z        PSCENC =       784.57699423
  Ewald energy   TEWEN  =    251489.28292867
  -Hartree energ DENC   =   -299435.70789669
  -exchange      EXHF   =         0.00000000
  -V(xc)+E(xc)   XCENC  =      2489.74304798
  PAW double counting   =     59558.94941929   -59390.90481961
  entropy T*S    EENTRO =        -0.00000000
  eigenvalues    EBANDS =    -12230.75330535
  atomic energy  EATOM  =     56210.72393729
  Solvation  Ediel_sol  =         0.00000000
  ---------------------------------------------------
  free energy    TOTEN  =      -524.08969419 eV

  energy without entropy =     -524.08969419  energy(sigma->0) =     -524.08969419


--------------------------------------------------------------------------------------------------------




--------------------------------------- Iteration      1(  18)  ---------------------------------------


    POTLOK:  cpu time    0.3892: real time    0.3990
    SETDIJ:  cpu time    0.4184: real time    0.4184
     EDDAV:  cpu time   54.9432: real time   54.9435
       DOS:  cpu time    0.0005: real time    0.0005
    CHARGE:  cpu time    3.8845: real time    3.8846
    MIXING:  cpu time    0.0184: real time    0.0184
    --------------------------------------------
      LOOP:  cpu time   59.6543: real time   59.6645

 eigenvalue-minimisations  :  4928
 total energy-change (2. order) :-0.2533605E-02  (-0.2680548E-04)
 number of electron     640.0000004 magnetization 
 augmentation part       69.7451303 magnetization 

 Broyden mixing:
  rms(total) = 0.25599E-02    rms(broyden)= 0.25598E-02
  rms(prec ) = 0.33989E-02
  weight for this iteration     100.00

 eigenvalues of (default mixing * dielectric matrix)
  average eigenvalue GAMMA=   1.4405
  4.3480  2.5780  2.3853  1.4840  1.0029  1.0029  0.9384  0.9384  1.0157  0.8668
  0.8668  0.6852  0.6144

 Free energy of the ion-electron system (eV)
  ---------------------------------------------------
  alpha Z        PSCENC =       784.57699423
  Ewald energy   TEWEN  =    251489.28292867
  -Hartree energ DENC   =   -299444.65798601
  -exchange      EXHF   =         0.00000000
  -V(xc)+E(xc)   XCENC  =      2489.76782658
  PAW double counting   =     59555.00463867   -59386.97425062
  entropy T*S    EENTRO =        -0.00000000
  eigenvalues    EBANDS =    -12221.81631660
  atomic energy  EATOM  =     56210.72393729
  Solvation  Ediel_sol  =         0.00000000
  ---------------------------------------------------
  free energy    TOTEN  =      -524.09222780 eV

  energy without entropy =     -524.09222780  energy(sigma->0) =     -524.09222780


--------------------------------------------------------------------------------------------------------




--------------------------------------- Iteration      1(  19)  ---------------------------------------


    POTLOK:  cpu time    0.3902: real time    0.3948
    SETDIJ:  cpu time    0.4180: real time    0.4180
     EDDAV:  cpu time   54.8406: real time   54.8410
       DOS:  cpu time    0.0006: real time    0.0006
    CHARGE:  cpu time    3.8852: real time    3.8853
    MIXING:  cpu time    0.0176: real time    0.0176
    --------------------------------------------
      LOOP:  cpu time   59.5522: real time   59.5573

 eigenvalue-minimisations  :  4912
 total energy-change (2. order) :-0.1074877E-02  (-0.1316877E-04)
 number of electron     640.0000004 magnetization 
 augmentation part       69.7452033 magnetization 

 Broyden mixing:
  rms(total) = 0.15627E-02    rms(broyden)= 0.15626E-02
  rms(prec ) = 0.22543E-02
  weight for this iteration     100.00

 eigenvalues of (default mixing * dielectric matrix)
  average eigenvalue GAMMA=   1.5254
  5.1858  2.8052  2.2541  2.0279  1.1605  1.1605  0.9673  0.9673  0.9155  0.9155
  0.8445  0.8445  0.6930  0.6136

 Free energy of the ion-electron system (eV)
  ---------------------------------------------------
  alpha Z        PSCENC =       784.57699423
  Ewald energy   TEWEN  =    251489.28292867
  -Hartree energ DENC   =   -299448.16218803
  -exchange      EXHF   =         0.00000000
  -V(xc)+E(xc)   XCENC  =      2489.77814608
  PAW double counting   =     59555.07631906   -59387.04898015
  entropy T*S    EENTRO =        -0.00000000
  eigenvalues    EBANDS =    -12218.32045981
  atomic energy  EATOM  =     56210.72393729
  Solvation  Ediel_sol  =         0.00000000
  ---------------------------------------------------
  free energy    TOTEN  =      -524.09330267 eV

  energy without entropy =     -524.09330267  energy(sigma->0) =     -524.09330267


--------------------------------------------------------------------------------------------------------




--------------------------------------- Iteration      1(  20)  ---------------------------------------


    POTLOK:  cpu time    0.3925: real time    0.4004
    SETDIJ:  cpu time    0.4181: real time    0.4181
     EDDAV:  cpu time   48.9154: real time   48.9171
       DOS:  cpu time    0.0006: real time    0.0005
    CHARGE:  cpu time    3.8822: real time    3.8822
    MIXING:  cpu time    0.0166: real time    0.0166
    --------------------------------------------
      LOOP:  cpu time   53.6254: real time   53.6351

 eigenvalue-minimisations  :  4240
 total energy-change (2. order) :-0.1274365E-02  (-0.6609463E-05)
 number of electron     640.0000004 magnetization 
 augmentation part       69.7448757 magnetization 

 Broyden mixing:
  rms(total) = 0.10142E-02    rms(broyden)= 0.10141E-02
  rms(prec ) = 0.13816E-02
  weight for this iteration     100.00

 eigenvalues of (default mixing * dielectric matrix)
  average eigenvalue GAMMA=   1.5727
  6.0391  2.9737  2.3456  2.2201  1.1821  1.1821  0.9815  0.9815  0.9128  0.9128
  0.8987  0.8987  0.7703  0.6840  0.6073

 Free energy of the ion-electron system (eV)
  ---------------------------------------------------
  alpha Z        PSCENC =       784.57699423
  Ewald energy   TEWEN  =    251489.28292867
  -Hartree energ DENC   =   -299452.21724016
  -exchange      EXHF   =         0.00000000
  -V(xc)+E(xc)   XCENC  =      2489.78539685
  PAW double counting   =     59553.89470381   -59385.86433941
  entropy T*S    EENTRO =        -0.00000000
  eigenvalues    EBANDS =    -12214.27695833
  atomic energy  EATOM  =     56210.72393729
  Solvation  Ediel_sol  =         0.00000000
  ---------------------------------------------------
  free energy    TOTEN  =      -524.09457704 eV

  energy without entropy =     -524.09457704  energy(sigma->0) =     -524.09457704


--------------------------------------------------------------------------------------------------------




--------------------------------------- Iteration      1(  21)  ---------------------------------------


    POTLOK:  cpu time    0.3935: real time    0.3988
    SETDIJ:  cpu time    0.4175: real time    0.4175
     EDDAV:  cpu time   49.4233: real time   49.4237
       DOS:  cpu time    0.0007: real time    0.0007
    CHARGE:  cpu time    3.8888: real time    3.8888
    MIXING:  cpu time    0.0173: real time    0.0173
    --------------------------------------------
      LOOP:  cpu time   54.1410: real time   54.1468

 eigenvalue-minimisations  :  4296
 total energy-change (2. order) :-0.5197994E-03  (-0.1955951E-05)
 number of electron     640.0000004 magnetization 
 augmentation part       69.7449431 magnetization 

 Broyden mixing:
  rms(total) = 0.73491E-03    rms(broyden)= 0.73474E-03
  rms(prec ) = 0.99308E-03
  weight for this iteration     100.00

 eigenvalues of (default mixing * dielectric matrix)
  average eigenvalue GAMMA=   1.5593
  6.3311  2.9855  2.4477  1.9639  1.3006  1.1395  1.1395  0.9820  0.9820  0.9115
  0.9115  0.9393  0.8132  0.8132  0.6787  0.6093

 Free energy of the ion-electron system (eV)
  ---------------------------------------------------
  alpha Z        PSCENC =       784.57699423
  Ewald energy   TEWEN  =    251489.28292867
  -Hartree energ DENC   =   -299453.70809501
  -exchange      EXHF   =         0.00000000
[...]
    -6.896993340 11.945942880  0.000000000     0.000000000  0.083710429  0.000000000
     0.000000000  0.000000000 27.810221070     0.000000000  0.000000000  0.035958003

  length of vectors
    13.793986680 13.793986676 27.810221070     0.083710429  0.083710429  0.035958003


 FORCES acting on ions
    electron-ion (+dipol)            ewald-force                    non-local-force                 convergence-correction
 -----------------------------------------------------------------------------------------------
   0.803E+02 -.570E+02 -.100E+04   -.812E+02 0.568E+02 0.997E+03   -.903E+00 0.721E+00 0.378E+01   -.305E-05 0.278E-04 0.166E-04
   -.447E+02 0.434E+02 -.105E+04   0.450E+02 -.433E+02 0.104E+04   0.650E+00 -.138E+00 0.395E+01   0.643E-05 -.329E-04 -.275E-05
   0.160E+02 0.821E+01 -.108E+04   -.162E+02 -.978E+01 0.107E+04   0.290E+00 0.114E+01 0.468E+01   0.209E-04 -.219E-04 0.377E-04
   0.791E+02 -.744E+00 -.987E+03   -.794E+02 0.124E+01 0.983E+03   -.104E+01 0.682E+00 0.424E+01   0.304E-04 0.313E-04 0.311E-04
   0.522E+02 0.397E+02 -.992E+03   -.538E+02 -.395E+02 0.989E+03   0.396E-01 -.111E+01 0.490E+01   -.299E-04 -.114E-04 0.451E-04
   0.572E+02 0.190E+02 -.104E+04   -.596E+02 -.193E+02 0.104E+04   0.107E+01 -.447E+00 0.459E+01   -.247E-05 -.140E-04 0.202E-04
   -.305E+02 0.254E+02 -.102E+04   0.309E+02 -.272E+02 0.102E+04   0.104E+01 0.104E+01 0.395E+01   0.114E-04 -.123E-05 0.434E-04
   0.185E+02 0.359E+02 -.113E+04   -.194E+02 -.354E+02 0.112E+04   0.525E+00 -.570E+00 0.414E+01   0.196E-04 0.349E-04 -.254E-04
   -.337E+02 -.223E+02 -.118E+04   0.334E+02 0.221E+02 0.118E+04   0.957E+00 0.423E+00 0.392E+01   0.369E-04 -.387E-04 0.168E-04
   -.159E+02 -.129E+02 -.114E+04   0.163E+02 0.139E+02 0.113E+04   0.354E+00 -.976E+00 0.368E+01   0.207E-04 0.241E-04 0.326E-04
   -.333E+02 -.114E+02 -.115E+04   0.334E+02 0.124E+02 0.115E+04   0.725E+00 -.549E+00 0.409E+01   0.775E-05 0.800E-05 -.380E-05
   -.614E+02 0.152E+02 -.112E+04   0.625E+02 -.158E+02 0.112E+04   0.394E+00 0.382E+00 0.418E+01   -.810E-04 -.931E-05 0.162E-04
   -.104E+03 -.504E+02 -.109E+04   0.105E+03 0.507E+02 0.109E+04   0.944E+00 0.115E+01 0.437E+01   -.129E-04 0.926E-04 0.452E-04
   -.442E+02 -.326E+02 -.108E+04   0.456E+02 0.336E+02 0.107E+04   -.295E+00 0.470E+00 0.414E+01   -.215E-04 -.135E-04 0.872E-05
   -.185E+02 -.370E+02 -.112E+04   0.189E+02 0.382E+02 0.112E+04   -.112E+00 -.453E+00 0.382E+01   -.416E-04 -.225E-04 0.981E-05
   -.623E+01 -.379E+01 -.108E+04   0.687E+01 0.326E+01 0.108E+04   -.422E+00 0.165E+00 0.391E+01   0.440E-04 -.648E-04 0.951E-05
   -.244E+01 -.163E+01 0.111E+04   0.301E+01 0.178E+01 -.111E+04   0.632E-01 -.221E+00 -.421E+01   0.222E-04 0.140E-04 -.124E-04
   0.856E+01 -.511E+02 0.116E+04   -.861E+01 0.520E+02 -.116E+04   -.978E-01 0.215E+00 -.404E+01   -.138E-04 -.213E-04 -.342E-05
   0.166E+02 0.607E+02 0.111E+04   -.173E+02 -.610E+02 -.111E+04   -.172E+00 -.635E+00 -.387E+01   0.926E-05 -.146E-04 -.197E-04
   0.303E+02 0.467E+02 0.118E+04   -.307E+02 -.473E+02 -.117E+04   0.981E-01 0.154E-01 -.435E+01   0.311E-04 0.382E-04 -.293E-04
   0.163E+02 -.669E+01 0.104E+04   -.179E+02 0.766E+01 -.103E+04   0.527E+00 -.214E+00 -.440E+01   0.311E-04 -.529E-04 -.240E-04
   0.441E+02 0.191E+01 0.108E+04   -.454E+02 -.257E+01 -.108E+04   0.439E+00 0.166E+00 -.453E+01   -.421E-04 0.763E-05 -.329E-04
   -.139E+02 0.303E+02 0.103E+04   0.145E+02 -.308E+02 -.102E+04   -.129E-01 -.249E+00 -.460E+01   -.267E-05 0.178E-04 -.966E-05
   -.309E+02 0.458E+02 0.102E+04   0.312E+02 -.471E+02 -.101E+04   0.130E+00 -.475E-01 -.335E+01   0.431E-05 0.277E-04 0.388E-05
   -.161E+02 -.864E+01 0.104E+04   0.174E+02 0.904E+01 -.103E+04   -.149E+01 -.676E+00 -.498E+01   -.911E-04 0.438E-04 -.264E-04
   -.148E+02 -.154E+02 0.108E+04   0.154E+02 0.156E+02 -.107E+04   -.559E+00 0.960E-01 -.337E+01   0.215E-04 0.632E-05 -.183E-04
   0.439E+02 -.247E+02 0.989E+03   -.451E+02 0.249E+02 -.985E+03   -.212E+00 0.242E+00 -.403E+01   0.325E-04 0.179E-06 -.999E-05
   -.108E+02 -.211E+00 0.108E+04   0.105E+02 -.764E+00 -.108E+04   0.302E+00 0.297E+00 -.418E+01   0.151E-04 -.748E-04 -.282E-04
   0.542E+02 0.372E+01 0.110E+04   -.544E+02 -.247E+01 -.109E+04   -.930E+00 -.132E+01 -.482E+01   0.347E-04 0.566E-04 -.309E-04
   0.379E+01 -.778E+01 0.106E+04   -.271E+01 0.777E+01 -.105E+04   -.132E+01 -.126E+00 -.426E+01   0.156E-04 -.278E-04 -.983E-05
   -.451E+02 -.253E+02 0.984E+03   0.456E+02 0.255E+02 -.981E+03   0.417E-01 0.211E+00 -.490E+01   -.338E-04 -.335E-04 -.817E-05
   -.436E+02 0.121E+02 0.114E+04   0.439E+02 -.123E+02 -.114E+04   0.756E+00 -.242E+00 -.390E+01   -.466E-04 -.177E-04 0.107E-04
   -.925E+01 -.215E+01 0.148E+04   0.926E+01 0.220E+01 -.148E+04   0.980E-01 -.451E+00 0.774E+00   0.516E-05 0.199E-05 -.168E-04
   -.130E+02 0.361E+01 0.144E+04   0.126E+02 -.341E+01 -.145E+04   0.116E+01 -.528E+00 0.192E+01   0.714E-05 -.462E-05 0.738E-05
   0.214E+02 0.587E+01 0.145E+04   -.216E+02 -.622E+01 -.146E+04   0.352E-01 0.823E+00 0.259E+01   0.860E-05 0.876E-05 0.514E-05
   -.372E+01 0.626E+01 0.143E+04   0.380E+01 -.626E+01 -.143E+04   0.183E+00 0.238E+00 0.105E+01   0.110E-04 0.113E-04 -.183E-04
   0.145E+02 -.296E+02 0.145E+04   -.143E+02 0.295E+02 -.145E+04   -.660E+00 0.606E+00 0.186E+01   -.223E-05 -.449E-05 -.154E-04
   -.773E+01 -.364E+01 0.143E+04   0.786E+01 0.391E+01 -.143E+04   0.600E-01 -.489E+00 0.190E+01   0.157E-05 -.897E-05 0.554E-05
   -.929E+01 0.865E+01 0.145E+04   0.950E+01 -.874E+01 -.145E+04   -.320E+00 0.183E+00 0.183E+01   -.656E-06 0.184E-05 -.275E-05
   0.103E+02 -.268E+01 0.147E+04   -.101E+02 0.266E+01 -.147E+04   -.383E+00 0.406E+00 0.119E+01   -.532E-05 0.646E-05 -.667E-05
   -.244E+02 0.929E+01 0.143E+04   0.242E+02 -.918E+01 -.143E+04   0.138E+01 -.662E+00 0.823E+00   -.227E-05 -.458E-05 -.108E-05
   0.120E+02 -.722E+00 0.146E+04   -.122E+02 0.830E+00 -.146E+04   0.525E+00 -.297E+00 0.188E+01   -.553E-05 -.683E-05 0.184E-04
   0.263E+02 0.294E+02 0.146E+04   -.260E+02 -.293E+02 -.146E+04   -.117E+01 -.390E+00 0.291E+01   0.227E-05 0.568E-05 0.678E-05
   -.589E+01 -.181E+02 0.145E+04   0.587E+01 0.180E+02 -.146E+04   0.110E+00 0.574E+00 0.198E+01   -.804E-05 -.122E-05 -.125E-05
   -.136E+01 0.111E+01 0.147E+04   0.115E+01 -.111E+01 -.147E+04   0.332E+00 0.163E-01 0.286E+01   0.138E-05 0.220E-05 -.666E-06
   -.191E+02 -.533E+01 0.147E+04   0.192E+02 0.538E+01 -.147E+04   0.940E-01 0.239E-01 0.298E+01   -.399E-05 -.708E-05 0.236E-04
   -.427E+02 -.373E+01 0.145E+04   0.425E+02 0.342E+01 -.145E+04   0.119E+01 0.853E+00 0.177E+01   -.790E-05 0.150E-05 0.521E-05
   0.144E+02 -.261E+02 0.149E+04   -.144E+02 0.259E+02 -.149E+04   -.738E-01 0.651E+00 0.181E+01   0.218E-05 -.383E-05 -.391E-05
   0.801E+01 -.480E+00 -.143E+04   -.822E+01 0.471E+00 0.143E+04   0.586E+00 0.243E+00 -.217E+01   0.228E-05 0.739E-05 -.138E-04
   0.856E+01 0.346E+01 -.143E+04   -.861E+01 -.362E+01 0.143E+04   0.121E+00 0.296E+00 -.319E+01   0.496E-05 0.401E-05 -.703E-05
   0.102E+02 0.162E+02 -.143E+04   -.100E+02 -.163E+02 0.143E+04   -.472E+00 0.254E+00 -.176E+01   0.169E-05 -.758E-05 0.609E-05
   0.142E+02 0.334E+02 -.146E+04   -.143E+02 -.330E+02 0.146E+04   0.168E+00 -.118E+01 -.208E+01   -.504E-05 -.101E-05 -.973E-05
   0.317E+02 0.567E+01 -.152E+04   -.317E+02 -.570E+01 0.153E+04   -.154E+00 0.868E-01 -.354E+01   0.276E-05 0.114E-04 -.166E-04
   0.430E+02 -.628E+01 -.142E+04   -.431E+02 0.595E+01 0.143E+04   -.135E+00 0.117E+01 -.888E+00   -.454E-05 -.131E-07 0.110E-04
   0.129E+02 0.297E+02 -.146E+04   -.132E+02 -.295E+02 0.146E+04   0.747E+00 -.698E+00 -.270E+01   0.353E-06 -.387E-05 0.392E-05
   0.955E+01 0.189E+02 -.148E+04   -.930E+01 -.191E+02 0.148E+04   -.773E+00 0.391E+00 -.277E+01   0.863E-05 -.583E-05 -.140E-04
   -.234E+02 0.373E+01 -.147E+04   0.237E+02 -.355E+01 0.148E+04   -.563E+00 -.746E+00 -.176E+01   -.785E-05 0.120E-04 -.970E-05
   -.709E+01 -.720E+01 -.147E+04   0.720E+01 0.739E+01 0.147E+04   -.499E-01 -.623E+00 -.194E+01   0.372E-05 0.867E-05 -.753E-07
   0.573E+01 -.182E+02 -.147E+04   -.560E+01 0.183E+02 0.147E+04   -.300E+00 -.961E-01 -.228E+01   0.219E-05 -.785E-05 0.189E-05
   -.228E+02 -.221E+02 -.146E+04   0.228E+02 0.221E+02 0.146E+04   0.533E-01 0.350E+00 -.283E+01   -.193E-05 -.134E-04 -.313E-05
   0.396E+00 -.303E+02 -.140E+04   -.461E-01 0.305E+02 0.140E+04   -.103E+01 -.126E+00 -.228E+01   0.508E-05 0.813E-05 -.877E-05
   -.166E+02 0.205E+02 -.144E+04   0.169E+02 -.202E+02 0.145E+04   -.729E+00 -.921E+00 -.219E+01   -.494E-05 0.406E-05 -.269E-05
   -.213E+02 -.175E+02 -.144E+04   0.212E+02 0.172E+02 0.144E+04   0.345E+00 0.934E+00 -.265E+01   -.464E-05 -.118E-04 0.872E-05
   -.439E+01 -.100E+02 -.145E+04   0.446E+01 0.103E+02 0.146E+04   -.995E-01 -.579E+00 -.319E+01   -.234E-05 -.506E-05 -.949E-05
   0.512E+01 0.328E+02 0.164E+01   -.529E+01 -.324E+02 -.150E+01   0.200E+00 -.105E+01 -.539E+00   0.935E-06 0.302E-05 0.249E-05
   -.895E+01 -.121E+01 0.109E+02   0.880E+01 0.125E+01 -.112E+02   0.504E+00 0.511E+00 0.774E+00   0.388E-05 0.614E-05 0.490E-06
   -.884E+01 0.364E+01 -.160E+02   0.887E+01 -.354E+01 0.162E+02   -.353E+00 -.105E+00 -.580E+00   0.723E-06 -.441E-05 0.462E-05
   0.222E+02 0.151E+02 0.265E+02   -.222E+02 -.148E+02 -.265E+02   0.154E+00 -.167E+01 -.345E-01   -.734E-06 -.871E-07 0.248E-05
   0.191E+02 -.167E+00 0.129E+02   -.191E+02 -.904E-02 -.128E+02   0.192E+00 0.859E-01 -.862E-01   -.273E-06 0.115E-05 0.701E-06
   0.205E+02 -.271E+02 0.358E+02   -.203E+02 0.271E+02 -.358E+02   -.430E+00 -.289E+00 -.237E+00   -.110E-05 0.263E-05 0.109E-05
   0.201E+02 0.254E+02 -.192E+02   -.198E+02 -.258E+02 0.198E+02   -.521E+00 0.127E+01 -.154E+01   0.282E-06 -.423E-05 0.359E-05
   0.287E+02 -.129E+02 0.264E+02   -.287E+02 0.125E+02 -.267E+02   -.294E+00 0.179E+01 0.619E+00   0.117E-05 0.191E-05 -.231E-05
   -.225E+02 -.791E+01 -.423E+02   0.224E+02 0.803E+01 0.424E+02   0.350E+00 -.852E+00 -.178E+00   -.247E-06 0.208E-05 0.680E-06
   -.237E+02 -.384E+02 0.708E+01   0.236E+02 0.382E+02 -.737E+01   0.123E+01 0.147E+01 -.622E-01   -.288E-05 -.279E-06 0.384E-05
   0.156E+02 -.986E+01 0.218E+02   -.153E+02 0.102E+02 -.222E+02   -.110E+01 -.118E+01 0.162E+01   -.511E-06 -.395E-05 0.378E-05
   0.141E+02 -.134E+02 -.576E+01   -.133E+02 0.132E+02 0.570E+01   -.244E+01 0.125E+01 0.255E+00   -.163E-05 -.209E-05 0.156E-05
   -.348E+02 0.153E+02 0.117E+02   0.346E+02 -.152E+02 -.120E+02   0.474E+00 -.221E+00 0.861E+00   -.113E-05 0.102E-05 0.174E-06
   -.909E+01 -.389E+01 -.325E+01   0.923E+01 0.401E+01 0.309E+01   -.456E+00 -.344E+00 0.198E+00   -.394E-06 0.129E-05 0.212E-05
   -.109E+02 0.109E+02 -.119E+02   0.109E+02 -.108E+02 0.115E+02   0.264E+00 -.853E+00 0.146E+01   0.127E-05 -.224E-05 0.347E-05
   0.114E+02 0.242E+01 -.275E+02   -.113E+02 -.222E+01 0.275E+02   0.746E-01 -.279E+00 0.369E-01   0.216E-05 0.108E-05 0.264E-05
 -----------------------------------------------------------------------------------------------
   0.115E+00 0.711E+00 0.700E+01   -.270E-12 -.249E-13 0.172E-11   -.108E+00 -.709E+00 -.699E+01   -.197E-05 -.413E-04 0.255E-04
 
 
 POSITION                                       TOTAL-FORCE (eV/Angst)
 -----------------------------------------------------------------------------------
      0.32087      1.95769     15.01459        -1.752527      0.517388      0.951707
     -1.77500      4.88370     15.13924         0.926374     -0.014310     -0.510131
     -3.51948      7.91365     15.12631         0.055696     -0.435997     -0.076659
     -5.01142     10.80540     15.02431        -1.308720      1.178264      0.652103
      3.56446      1.98276     14.98708        -1.522612     -0.868972      1.076941
      1.82814      5.09008     15.08004        -1.340561     -0.747308      0.520764
     -0.18955      7.96626     15.06332         1.513351     -0.780683      1.038845
     -1.71451     10.92491     15.17286        -0.422078     -0.037295      0.422038
      6.72022      1.97804     15.28851         0.641121      0.146648     -0.140489
      5.07679      5.07888     15.24389         0.706747      0.036666     -0.856224
      3.33540      8.02741     15.24735         0.865180      0.393036     -0.186765
      1.57715     10.95345     15.19631         1.502588     -0.253514      0.336691
     10.20460      1.81334     15.15180         1.690313      1.416656     -0.166597
      8.51470      4.76736     15.16472         1.016794      1.478105      0.191288
      6.86115      8.00593     15.20247         0.225640      0.681130     -0.078779
      5.19233     11.03002     15.14803         0.223610     -0.367111     -0.053964
      1.74942      0.97057     12.61719         0.629170     -0.066943     -0.040682
      0.03248      3.93722     12.47539        -0.146533      1.151717      1.876545
     -1.64500      7.02193     12.58335        -0.804901     -0.901867      0.348463
     -3.43020      9.90681     12.51868        -0.392886     -0.597025      1.023710
      5.25023      0.87380     12.74713        -1.111951      0.753201     -0.281809
      3.58059      4.06753     12.69787        -0.849378     -0.491772     -0.566618
      1.73395      7.10462     12.75163         0.538778     -0.712715     -0.867499
      0.00039     10.09107     12.71590         0.400785     -1.425860      0.061576
      8.62539      1.06779     12.75669        -0.165243     -0.278627     -1.073785
      6.88753      3.99210     12.62649         0.031604      0.295936      0.777040
      5.28603      7.00578     12.74828        -1.434677      0.437084     -0.531579
      3.41796     10.04812     12.60712         0.035482     -0.677663      0.648874
     12.19212      1.07575     12.57894        -1.141093     -0.072073      0.597287
     10.37374      3.96123     12.65315        -0.242324     -0.133400      0.023293
      8.56775      6.86290     12.78117         0.581091      0.445282     -1.080726
      6.67210      9.98850     12.48994         1.134071     -0.429303      1.724879
      0.07114      2.02837     10.98796         0.112076     -0.400257     -1.148949
     -1.90019      5.04479     10.96008         0.740165     -0.325772     -0.216548
     -3.46889      7.82074     10.89625        -0.093395      0.464904      0.429969
     -5.24485     10.85637     11.08783         0.254565      0.236735     -1.046753
      3.56538      1.76392     11.02595        -0.456004      0.535083     -0.244277
      1.75278      5.10723     11.04293         0.187343     -0.220521     -0.247426
      0.10037      7.99537     11.04186        -0.102837      0.088473     -0.242586
     -1.63110     10.83055     11.05522        -0.197205      0.386038     -0.802529
      6.64765      2.07821     11.16766         1.136363     -0.553656     -1.174737
      5.09007      5.05250     11.00320         0.305684     -0.189582     -0.123794
      3.66891      8.14592     10.84002        -0.800092     -0.350498      0.759695
      1.63849     10.93478     11.01568         0.090332      0.478951     -0.122025
     10.21265      1.96719     10.84861         0.118875      0.023905      0.642742
      8.49883      4.92494     10.83579         0.111770      0.070323      0.812912
      6.78813      7.84176     11.00393         0.959478      0.540623     -0.243040
      5.13786     10.99053     10.86507        -0.115829      0.439534     -0.151984
      1.77544      0.89051     16.72747         0.375085      0.234434     -0.131660
      0.10000      3.94465     16.89896         0.067471      0.130783     -0.920349
     -1.72425      6.94486     16.72764        -0.304958      0.193197      0.316506
     -3.41809     10.09208     16.83469         0.076874     -0.811986     -0.050213
      5.32310      0.93295     17.21673        -0.184447      0.056524     -1.357694
      3.48892      3.77364     16.62196        -0.264356      0.839203      1.175095
      1.60341      7.07413     16.90526         0.473510     -0.525906     -0.539057
      0.08695      9.87942     16.94055        -0.516430      0.228466     -0.655511
      8.65301      1.14370     16.87756        -0.320519     -0.574793      0.253986
      6.79630      4.06994     16.85735         0.059455     -0.433386      0.123419
      5.15766      6.99959     16.90199        -0.163685     -0.032351     -0.123184
      3.42881      9.98493     16.94594         0.079094      0.284745     -0.591096
     12.27597      1.07418     16.71906        -0.684130      0.013461     -0.134272
     10.42281      4.09973     16.86020        -0.467068     -0.700493     -0.120139
      8.51959      6.80431     16.86552         0.265070      0.677820     -0.399136
      6.91757     10.02259     16.96413        -0.028686     -0.312118     -0.963717
      0.00938      0.10353     13.82294         0.022812     -0.652640     -0.391585
     12.05560      2.96025     13.71350         0.346704      0.551925      0.385014
     10.32988      5.93593     13.95825        -0.322231     -0.006010     -0.385834
     -5.17305      9.00850     13.88621         0.188131     -1.368353     -0.024631
     -3.37865     11.82853     13.86325         0.225906     -0.090329      0.022418
      1.87202      3.01147     13.81159        -0.244675     -0.238190     -0.204607
      0.07878      5.90356     13.97623        -0.276102      0.873930     -0.954708
     -1.69590      8.83045     13.81011        -0.245774      1.305991      0.362659
      6.84513      0.03130     14.02553         0.302452     -0.732240     -0.064453
      5.13044      2.85053     13.93621         1.136414      1.200728     -0.348651
      3.57169      6.10393     13.86283        -0.791049     -0.882587      1.152358
      1.90012      8.95029     13.90329        -1.617566      1.084798      0.192671
     10.23468      0.03842     13.86092         0.270886     -0.129575      0.571071
      8.57996      2.97485     13.92566        -0.322608     -0.225662      0.028407
      6.85043      6.00348     13.85439         0.293982     -0.745855      1.075225
      5.18184      9.07468     13.92201         0.236240     -0.076488      0.061258
 -----------------------------------------------------------------------------------
    total drift:                                0.006846      0.002040      0.007564


--------------------------------------------------------------------------------------------------------



  FREE ENERGIE OF THE ION-ELECTRON SYSTEM (eV)
  ---------------------------------------------------
  free  energy   TOTEN  =      -524.09645748 eV

  energy  without entropy=     -524.09645748  energy(sigma->0) =     -524.09645748
 


--------------------------------------------------------------------------------------------------------


    POTLOK:  cpu time    0.8122: real time    0.8122


--------------------------------------------------------------------------------------------------------


     LOOP+:  cpu time 1905.3571: real time 1905.6807
    4ORBIT:  cpu time    0.0000: real time    0.0000

 total amount of memory used by VASP MPI-rank0   253928. kBytes
=======================================================================

   base      :      30000. kBytes
   nonlr-proj:      18744. kBytes
   fftplans  :      72602. kBytes
   grid      :      41267. kBytes
   one-center:        108. kBytes
   wavefun   :      91207. kBytes
 
  
  
 General timing and accounting informations for this job:
 ========================================================
  
                  Total CPU time used (sec):     1935.949
                            User time (sec):     1930.742
                          System time (sec):        5.207
                         Elapsed time (sec):     1936.388
  
                   Maximum memory used (kb):      462192.
                   Average memory used (kb):           0.
  
                          Minor page faults:       168916
                          Major page faults:            0
                 Voluntary context switches:         1903
