 running on   52 total cores
 distrk:  each k-point on   52 cores,    1 groups
 distr:  one band on   13 cores,    4 groups
 using from now: INCAR     
 vasp.5.4.4.18Apr17-6-g9f103f2a35 (build Oct 31 2019 15:01:46) complex          
  
 POSCAR found type information on POSCAR  Ca Si O 
 POSCAR found :  3 types and     135 ions
 scaLAPACK is switched off
 LDA part: xc-table for Pade appr. of Perdew
 generate k-points for:    2    2    2
 POSCAR, INCAR and KPOINTS ok, starting setup
 FFT: planning ...
 WAVECAR not read
 entering main loop
       N       E                     dE             d eps       ncg     rms          rms(c)
DAV:   1     0.100177836247E+05    0.10018E+05   -0.48962E+05  8320   0.188E+03
DAV:   2     0.166937723931E+03   -0.98508E+04   -0.94883E+04  9528   0.516E+02
DAV:   3    -0.960949876898E+03   -0.11279E+04   -0.11184E+04 10296   0.175E+02
DAV:   4    -0.101538584891E+04   -0.54436E+02   -0.54231E+02 11664   0.343E+01
DAV:   5    -0.101989933568E+04   -0.45135E+01   -0.45109E+01 13696   0.798E+00    0.877E+01
DAV:   6    -0.871501949266E+03    0.14840E+03   -0.62705E+02  9840   0.401E+01    0.378E+01
DAV:   7    -0.873050368067E+03   -0.15484E+01   -0.71539E+01 10808   0.141E+01    0.176E+01
DAV:   8    -0.871894717701E+03    0.11557E+01   -0.10723E+01 11240   0.610E+00    0.797E+00
DAV:   9    -0.871617942284E+03    0.27678E+00   -0.24096E+00 10432   0.327E+00    0.227E+00
DAV:  10    -0.871682702658E+03   -0.64760E-01   -0.83758E-01 11712   0.161E+00    0.138E+00
DAV:  11    -0.871692933447E+03   -0.10231E-01   -0.12029E-01 11448   0.636E-01    0.737E-01
DAV:  12    -0.871697738774E+03   -0.48053E-02   -0.30570E-02 10576   0.326E-01    0.277E-01
DAV:  13    -0.871699431030E+03   -0.16923E-02   -0.71088E-03 11872   0.177E-01    0.110E-01
DAV:  14    -0.871699620249E+03   -0.18922E-03   -0.19129E-03 11384   0.764E-02    0.832E-02
DAV:  15    -0.871699652046E+03   -0.31797E-04   -0.36813E-04  9896   0.349E-02    0.432E-02
DAV:  16    -0.871699651839E+03    0.20680E-06   -0.12267E-04 10368   0.280E-02    0.126E-02
DAV:  17    -0.871699654488E+03   -0.26491E-05   -0.75544E-05 11904   0.158E-02    0.974E-03
DAV:  18    -0.871699654133E+03    0.35559E-06   -0.10711E-05  9240   0.529E-03    0.658E-03
DAV:  19    -0.871699652580E+03    0.15533E-05   -0.23518E-06  6136   0.384E-03    0.227E-03
DAV:  20    -0.871699652634E+03   -0.54904E-07   -0.13753E-06  5440   0.192E-03
   1 F= -.87169965E+03 E0= -.87169965E+03  d E =-.105375E-15
