 running on   52 total cores
 distrk:  each k-point on   52 cores,    1 groups
 distr:  one band on   13 cores,    4 groups
 using from now: INCAR     
 vasp.5.4.4.18Apr17-6-g9f103f2a35 (build Oct 31 2019 15:01:46) complex          
  
 POSCAR found type information on POSCAR  Sc Cl C 
 POSCAR found :  3 types and      80 ions
 scaLAPACK is switched off
 LDA part: xc-table for Pade appr. of Perdew
 generate k-points for:    3    3    1
 POSCAR, INCAR and KPOINTS ok, starting setup
 FFT: planning ...
 WAVECAR not read
 entering main loop
       N       E                     dE             d eps       ncg     rms          rms(c)
DAV:   1     0.122250866620E+05    0.12225E+05   -0.26792E+05  4440   0.152E+03
DAV:   2     0.172405655201E+04   -0.10501E+05   -0.10242E+05  5248   0.523E+02
DAV:   3    -0.408820027162E+03   -0.21329E+04   -0.20484E+04  6800   0.285E+02
DAV:   4    -0.642780031669E+03   -0.23396E+03   -0.22956E+03  6088   0.988E+01
DAV:   5    -0.653101832577E+03   -0.10322E+02   -0.10269E+02  6080   0.279E+01    0.694E+01
DAV:   6    -0.522241978138E+03    0.13086E+03   -0.69248E+02  5840   0.498E+01    0.310E+01
DAV:   7    -0.527657751721E+03   -0.54158E+01   -0.93649E+01  5864   0.233E+01    0.156E+01
DAV:   8    -0.525255937493E+03    0.24018E+01   -0.10363E+01  5848   0.768E+00    0.960E+00
DAV:   9    -0.524698343757E+03    0.55759E+00   -0.42501E+00  5232   0.403E+00    0.310E+00
DAV:  10    -0.524552189718E+03    0.14615E+00   -0.63222E-01  5640   0.220E+00    0.175E+00
DAV:  11    -0.524531415775E+03    0.20774E-01   -0.26321E-01  5720   0.964E-01    0.816E-01
DAV:  12    -0.524516411763E+03    0.15004E-01   -0.41930E-02  5976   0.562E-01    0.327E-01
DAV:  13    -0.524513324541E+03    0.30872E-02   -0.12270E-02  5424   0.298E-01    0.202E-01
DAV:  14    -0.524511308603E+03    0.20159E-02   -0.68313E-03  5512   0.177E-01    0.183E-01
DAV:  15    -0.524512893697E+03   -0.15851E-02   -0.31504E-03  5464   0.116E-01    0.117E-01
DAV:  16    -0.524514691135E+03   -0.17974E-02   -0.13314E-03  5832   0.713E-02    0.665E-02
DAV:  17    -0.524517702307E+03   -0.30112E-02   -0.98378E-04  5464   0.603E-02    0.411E-02
DAV:  18    -0.524520596565E+03   -0.28943E-02   -0.32251E-04  4896   0.367E-02    0.269E-02
DAV:  19    -0.524521743956E+03   -0.11474E-02   -0.14718E-04  4824   0.195E-02    0.164E-02
DAV:  20    -0.524523122486E+03   -0.13785E-02   -0.60015E-05  4296   0.127E-02    0.108E-02
DAV:  21    -0.524523654435E+03   -0.53195E-03   -0.18294E-05  4336   0.837E-03    0.731E-03
DAV:  22    -0.524524006892E+03   -0.35246E-03   -0.51651E-06  3944   0.446E-03    0.559E-03
DAV:  23    -0.524524584328E+03   -0.57744E-03   -0.12289E-05  3520   0.511E-03    0.300E-03
DAV:  24    -0.524524824345E+03   -0.24002E-03   -0.72597E-06  3816   0.366E-03    0.345E-03
DAV:  25    -0.524524895200E+03   -0.70855E-04   -0.89872E-07  2888   0.224E-03    0.237E-03
DAV:  26    -0.524524992630E+03   -0.97430E-04   -0.37947E-06  3480   0.266E-03    0.213E-03
DAV:  27    -0.524525013194E+03   -0.20564E-04   -0.33625E-07  2744   0.186E-03    0.171E-03
DAV:  28    -0.524525020845E+03   -0.76505E-05   -0.24176E-07  2504   0.149E-03    0.118E-03
DAV:  29    -0.524525027129E+03   -0.62842E-05   -0.19351E-07  2568   0.119E-03    0.763E-04
DAV:  30    -0.524525038438E+03   -0.11309E-04   -0.30677E-07  2736   0.128E-03    0.427E-04
DAV:  31    -0.524525046990E+03   -0.85516E-05   -0.37212E-07  2760   0.140E-03    0.552E-04
DAV:  32    -0.524525049347E+03   -0.23572E-05   -0.19043E-07  2504   0.116E-03    0.419E-04
DAV:  33    -0.524525049498E+03   -0.15064E-06   -0.10276E-07  2400   0.846E-04
   1 F= -.52452505E+03 E0= -.52452505E+03  d E =-.385178E-11
