 running on   52 total cores
 distrk:  each k-point on   52 cores,    1 groups
 distr:  one band on   13 cores,    4 groups
 using from now: INCAR     
 vasp.5.4.4.18Apr17-6-g9f103f2a35 (build Oct 31 2019 15:01:46) complex          
  
 POSCAR found type information on POSCAR  Sc Cl C 
 POSCAR found :  3 types and      80 ions
 scaLAPACK is switched off
 LDA part: xc-table for Pade appr. of Perdew
 generate k-points for:    3    3    1
 POSCAR, INCAR and KPOINTS ok, starting setup
 FFT: planning ...
 WAVECAR not read
 entering main loop
       N       E                     dE             d eps       ncg     rms          rms(c)
DAV:   1     0.121617591197E+05    0.12162E+05   -0.26779E+05  4416   0.152E+03
DAV:   2     0.172892931445E+04   -0.10433E+05   -0.10174E+05  5192   0.522E+02
DAV:   3    -0.405658178182E+03   -0.21346E+04   -0.20498E+04  6800   0.284E+02
DAV:   4    -0.641679272160E+03   -0.23602E+03   -0.23134E+03  6088   0.989E+01
DAV:   5    -0.652182193758E+03   -0.10503E+02   -0.10447E+02  6072   0.281E+01    0.685E+01
DAV:   6    -0.521250007083E+03    0.13093E+03   -0.70172E+02  5832   0.497E+01    0.308E+01
DAV:   7    -0.526493693759E+03   -0.52437E+01   -0.91845E+01  5904   0.233E+01    0.154E+01
DAV:   8    -0.524127357269E+03    0.23663E+01   -0.10253E+01  5744   0.752E+00    0.945E+00
DAV:   9    -0.523602200390E+03    0.52516E+00   -0.41873E+00  5352   0.409E+00    0.314E+00
DAV:  10    -0.523454232971E+03    0.14797E+00   -0.63241E-01  5600   0.228E+00    0.177E+00
DAV:  11    -0.523435323590E+03    0.18909E-01   -0.24783E-01  5664   0.940E-01    0.796E-01
DAV:  12    -0.523422700393E+03    0.12623E-01   -0.36848E-02  6032   0.538E-01    0.326E-01
DAV:  13    -0.523419656215E+03    0.30442E-02   -0.11108E-02  5520   0.293E-01    0.193E-01
DAV:  14    -0.523417994940E+03    0.16613E-02   -0.57019E-03  5432   0.168E-01    0.164E-01
DAV:  15    -0.523419306145E+03   -0.13112E-02   -0.25334E-03  5480   0.105E-01    0.106E-01
DAV:  16    -0.523420905771E+03   -0.15996E-02   -0.11057E-03  5760   0.671E-02    0.606E-02
DAV:  17    -0.523423560080E+03   -0.26543E-02   -0.81562E-04  5448   0.568E-02    0.404E-02
DAV:  18    -0.523426240823E+03   -0.26807E-02   -0.30815E-04  4904   0.356E-02    0.238E-02
DAV:  19    -0.523427293517E+03   -0.10527E-02   -0.12676E-04  4976   0.191E-02    0.152E-02
DAV:  20    -0.523428518710E+03   -0.12252E-02   -0.58702E-05  4144   0.122E-02    0.101E-02
DAV:  21    -0.523429071393E+03   -0.55268E-03   -0.20024E-05  4464   0.810E-03    0.712E-03
DAV:  22    -0.523429463727E+03   -0.39233E-03   -0.41016E-06  3672   0.432E-03    0.488E-03
DAV:  23    -0.523429979161E+03   -0.51543E-03   -0.12457E-05  3528   0.499E-03    0.318E-03
DAV:  24    -0.523430119703E+03   -0.14054E-03   -0.35858E-06  3744   0.326E-03    0.323E-03
DAV:  25    -0.523430200113E+03   -0.80410E-04   -0.11818E-06  2976   0.239E-03    0.191E-03
DAV:  26    -0.523430289931E+03   -0.89819E-04   -0.28814E-06  3360   0.239E-03    0.202E-03
DAV:  27    -0.523430301341E+03   -0.11410E-04   -0.24144E-07  2656   0.167E-03    0.160E-03
DAV:  28    -0.523430308109E+03   -0.67680E-05   -0.16359E-07  2504   0.133E-03    0.925E-04
DAV:  29    -0.523430319887E+03   -0.11777E-04   -0.26589E-07  2696   0.113E-03    0.371E-04
DAV:  30    -0.523430329245E+03   -0.93584E-05   -0.23786E-07  2656   0.145E-03    0.501E-04
DAV:  31    -0.523430334493E+03   -0.52484E-05   -0.26233E-07  2688   0.108E-03    0.463E-04
DAV:  32    -0.523430336281E+03   -0.17873E-05   -0.14866E-07  2432   0.112E-03    0.272E-04
DAV:  33    -0.523430336933E+03   -0.65208E-06   -0.10252E-07  2400   0.711E-04
   1 F= -.52343034E+03 E0= -.52343034E+03  d E =-.325045E-21
