<?xml version="1.0" encoding="ISO-8859-1"?>
<modeling>
 <generator>
  <i name="program" type="string">vasp </i>
  <i name="version" type="string">5.4.4.18Apr17-6-g9f103f2a35  </i>
  <i name="subversion" type="string">(build Oct 31 2019 15:01:46) complex            parallel </i>
  <i name="platform" type="string">LinuxIFC </i>
  <i name="date" type="string">2024 04 29 </i>
  <i name="time" type="string">23:41:37 </i>
 </generator>
 <incar>
  <i type="int" name="ISTART">     0</i>
  <i type="string" name="PREC">anormal</i>
  <i type="logical" name="ADDGRID"> T  </i>
  <i type="int" name="IBRION">    -1</i>
  <i name="EDIFF">      0.00000100</i>
  <i name="EDIFFG">     -0.01000000</i>
  <i type="int" name="NSW">     1</i>
  <i type="int" name="ISIF">     2</i>
  <i type="int" name="ISYM">     2</i>
  <i name="ENCUT">    600.00000000</i>
  <i name="POTIM">      1.00000000</i>
  <i type="string" name="LREAL"> Auto.</i>
  <i type="int" name="ISMEAR">     0</i>
  <i name="SIGMA">      0.05000000</i>
  <i name="KSPACING">      0.25000000</i>
  <i type="logical" name="LWAVE"> F  </i>
  <i type="logical" name="LCHARG"> F  </i>
  <i type="logical" name="LSCALAPACK"> F  </i>
  <v type="int" name="KPOINT_BSE">    -1     0     0     0</v>
 </incar>
 <structure name="primitive_cell" >
  <crystal>
   <varray name="basis" >
    <v>      13.79398668       0.00000000       0.00000000 </v>
    <v>      -6.89699334      11.94594288       0.00000000 </v>
    <v>       0.00000000       0.00000000      27.81022107 </v>
   </varray>
   <i name="volume">   4582.62876984 </i>
   <varray name="rec_basis" >
    <v>       0.07249536       0.04185521       0.00000000 </v>
    <v>       0.00000000       0.08371043       0.00000000 </v>
    <v>       0.00000000       0.00000000       0.03595800 </v>
   </varray>
  </crystal>
  <varray name="positions" >
   <v>       0.08898705       0.16696541      -0.45708261 </v>
   <v>       0.00886663       0.24997785       0.49713353 </v>
   <v>       0.26312256       0.25953296      -0.49866328 </v>
   <v>       0.00267610      -0.00908128       0.49854984 </v>
   <v>       0.15665429       0.07174584      -0.39585769 </v>
   <v>       0.16651999       0.34104318      -0.39985745 </v>
   <v>      -0.07763888       0.08507380      -0.39349978 </v>
   <v>       0.16263325       0.31945497       0.45494272 </v>
   <v>       0.17061083       0.07799873       0.45987324 </v>
   <v>      -0.08955369       0.07805961       0.45171860 </v>
   <v>      -0.16141507      -0.08211486      -0.45876175 </v>
   <v>       0.33970963       0.42079567      -0.45304695 </v>
   <v>       0.34188756       0.16734544      -0.45231466 </v>
   <v>       0.09220389      -0.08436527      -0.45230681 </v>
   <v>       0.09431515       0.42656284      -0.45028509 </v>
   <v>      -0.17098899       0.16944665      -0.45263594 </v>
   <v>       0.24367153      -0.00583266      -0.49780330 </v>
   <v>      -0.24228803       0.00258202      -0.49697095 </v>
   <v>       0.25313904      -0.49775740      -0.49409101 </v>
   <v>      -0.07104067      -0.15155625      -0.39359799 </v>
   <v>       0.07874112       0.16022268       0.39075286 </v>
   <v>      -0.08102625       0.32492923      -0.38753412 </v>
   <v>       0.42565531       0.33075240      -0.39404680 </v>
   <v>       0.41105210       0.33964830       0.45327302 </v>
   <v>      -0.07628479       0.33905886       0.45438412 </v>
   <v>      -0.07304282      -0.17286744       0.44948874 </v>
   <v>       0.33635775       0.42764595       0.40258638 </v>
   <v>       0.07542927       0.39217662       0.39162801 </v>
   <v>       0.31554296       0.15400360       0.39087770 </v>
   <v>       0.00996537      -0.24462497      -0.49927119 </v>
   <v>      -0.49149467       0.26296100      -0.49767881 </v>
   <v>       0.39650862       0.05917575      -0.39772258 </v>
   <v>      -0.24757202      -0.25436161      -0.49681306 </v>
   <v>       0.41876593      -0.43191806      -0.38979354 </v>
   <v>      -0.49565566      -0.48176649      -0.49717602 </v>
   <v>      -0.25041984       0.24955885      -0.49884393 </v>
   <v>      -0.00841395      -0.49770005       0.49806877 </v>
   <v>       0.16516667      -0.17333888      -0.39580749 </v>
   <v>       0.07116128      -0.09101071       0.38401671 </v>
   <v>       0.16595453      -0.15917477       0.45750508 </v>
   <v>       0.42241461       0.09139019       0.45673342 </v>
   <v>      -0.18316950      -0.08537406       0.38339782 </v>
   <v>      -0.18192574       0.17166107       0.38749471 </v>
   <v>       0.18097574      -0.39761009      -0.39418600 </v>
   <v>       0.16523953      -0.42221565       0.45469432 </v>
   <v>      -0.35031939       0.07901102      -0.39552848 </v>
   <v>       0.41845199      -0.41097370       0.45664202 </v>
   <v>      -0.35101429      -0.16651585      -0.38623776 </v>
   <v>      -0.33008797       0.08596581       0.45515398 </v>
   <v>      -0.42153206       0.41311952      -0.45195069 </v>
   <v>      -0.33686753      -0.17601468       0.45862954 </v>
   <v>       0.32759236      -0.08789225      -0.45632515 </v>
   <v>       0.34261465      -0.33358244      -0.45450234 </v>
   <v>      -0.16126451      -0.33339877      -0.45180587 </v>
   <v>      -0.41932769      -0.08270466      -0.45462048 </v>
   <v>      -0.16454010       0.42230555      -0.45720101 </v>
   <v>      -0.42268252       0.16605395      -0.45527482 </v>
   <v>      -0.40732566      -0.32946538      -0.45182698 </v>
   <v>       0.08751641      -0.33628346      -0.45472107 </v>
   <v>       0.32502062      -0.08388388       0.40255112 </v>
   <v>       0.49399180       0.00331531       0.49694619 </v>
   <v>       0.32730129      -0.34612274       0.39241810 </v>
   <v>       0.24644302      -0.25163293      -0.49669977 </v>
   <v>      -0.32101331      -0.40186119      -0.39166034 </v>
   <v>      -0.42239163       0.41911095       0.38698228 </v>
   <v>      -0.49702907      -0.24519666       0.49739069 </v>
   <v>      -0.08338996      -0.40745592      -0.38667622 </v>
   <v>      -0.16958727      -0.34044277       0.39244940 </v>
   <v>      -0.34710636       0.33394280       0.45076150 </v>
   <v>      -0.32822996       0.33503819      -0.39258809 </v>
   <v>      -0.15886182       0.43329410       0.39452897 </v>
   <v>      -0.42993388      -0.07288421       0.39252401 </v>
   <v>      -0.33277846      -0.41842544       0.45856279 </v>
   <v>      -0.08154373      -0.41765759       0.45134834 </v>
   <v>      -0.26246414       0.48787380      -0.49777418 </v>
   <v>       0.41706234      -0.18089922      -0.40003304 </v>
   <v>      -0.41329342      -0.32405375       0.39660887 </v>
   <v>      -0.39934356       0.18269704       0.39534288 </v>
   <v>       0.09581298      -0.33233823       0.39026873 </v>
   <v>       0.41287467      -0.16289599       0.45252276 </v>
  </varray>
 </structure>
 <varray name="primitive_index" >
  <v type="int" >        1 </v>
  <v type="int" >       66 </v>
  <v type="int" >       70 </v>
  <v type="int" >       65 </v>
  <v type="int" >       49 </v>
  <v type="int" >       50 </v>
  <v type="int" >       61 </v>
  <v type="int" >       18 </v>
  <v type="int" >       17 </v>
  <v type="int" >       29 </v>
  <v type="int" >       16 </v>
  <v type="int" >        6 </v>
  <v type="int" >        5 </v>
  <v type="int" >        4 </v>
  <v type="int" >        2 </v>
  <v type="int" >       13 </v>
  <v type="int" >       69 </v>
  <v type="int" >       77 </v>
  <v type="int" >       71 </v>
  <v type="int" >       64 </v>
  <v type="int" >       33 </v>
  <v type="int" >       62 </v>
  <v type="int" >       54 </v>
  <v type="int" >       22 </v>
  <v type="int" >       30 </v>
  <v type="int" >       32 </v>
  <v type="int" >       38 </v>
  <v type="int" >       34 </v>
  <v type="int" >       37 </v>
  <v type="int" >       68 </v>
  <v type="int" >       74 </v>
  <v type="int" >       53 </v>
  <v type="int" >       80 </v>
  <v type="int" >       55 </v>
  <v type="int" >       75 </v>
  <v type="int" >       78 </v>
  <v type="int" >       67 </v>
  <v type="int" >       52 </v>
  <v type="int" >       36 </v>
  <v type="int" >       20 </v>
  <v type="int" >       21 </v>
  <v type="int" >       48 </v>
  <v type="int" >       45 </v>
  <v type="int" >       51 </v>
  <v type="int" >       19 </v>
  <v type="int" >       57 </v>
  <v type="int" >       23 </v>
  <v type="int" >       60 </v>
  <v type="int" >       25 </v>
  <v type="int" >       10 </v>
  <v type="int" >       28 </v>
  <v type="int" >        8 </v>
  <v type="int" >        7 </v>
  <v type="int" >       15 </v>
  <v type="int" >       12 </v>
  <v type="int" >       14 </v>
  <v type="int" >        9 </v>
  <v type="int" >       11 </v>
  <v type="int" >        3 </v>
  <v type="int" >       40 </v>
  <v type="int" >       73 </v>
  <v type="int" >       39 </v>
  <v type="int" >       72 </v>
  <v type="int" >       59 </v>
  <v type="int" >       42 </v>
  <v type="int" >       76 </v>
  <v type="int" >       63 </v>
  <v type="int" >       47 </v>
  <v type="int" >       26 </v>
  <v type="int" >       58 </v>
  <v type="int" >       46 </v>
  <v type="int" >       44 </v>
  <v type="int" >       27 </v>
  <v type="int" >       31 </v>
  <v type="int" >       79 </v>
  <v type="int" >       56 </v>
  <v type="int" >       43 </v>
  <v type="int" >       41 </v>
  <v type="int" >       35 </v>
  <v type="int" >       24 </v>
 </varray>
 <kpoints>
  <generation param="Gamma">
   <v type="int" name="divisions">       3        3        1 </v>
   <v name="usershift">      0.00000000       0.00000000       0.00000000 </v>
   <v name="genvec1">      0.33333333      -0.00000000       0.00000000 </v>
   <v name="genvec2">      0.00000000       0.33333333       0.00000000 </v>
   <v name="genvec3">      0.00000000       0.00000000       1.00000000 </v>
   <v name="shift">      0.00000000       0.00000000       0.00000000 </v>
  </generation>
  <varray name="kpointlist" >
   <v>       0.00000000       0.00000000       0.00000000 </v>
   <v>       0.33333333      -0.00000000       0.00000000 </v>
   <v>       0.00000000       0.33333333       0.00000000 </v>
   <v>       0.33333333       0.33333333       0.00000000 </v>
   <v>      -0.33333333       0.33333333       0.00000000 </v>
  </varray>
  <varray name="weights" >
   <v>       0.11111111 </v>
   <v>       0.22222222 </v>
   <v>       0.22222222 </v>
   <v>       0.22222222 </v>
   <v>       0.22222222 </v>
  </varray>
 </kpoints>
 <parameters>
  <separator name="general" >
   <i type="string" name="SYSTEM">unknown system</i>
   <i type="logical" name="LCOMPAT"> F  </i>
  </separator>
  <separator name="electronic" >
   <i type="string" name="PREC">anorma</i>
   <i name="ENMAX">    600.00000000</i>
   <i name="ENAUG">    644.87300000</i>
   <i name="EDIFF">      0.00000100</i>
   <i type="int" name="IALGO">    38</i>
   <i type="int" name="IWAVPR">    10</i>
   <i type="int" name="NBANDS">   384</i>
   <i name="NELECT">    640.00000000</i>
   <i type="int" name="TURBO">     0</i>
   <i type="int" name="IRESTART">     0</i>
   <i type="int" name="NREBOOT">     0</i>
   <i type="int" name="NMIN">     0</i>
   <i name="EREF">      0.00000000</i>
   <separator name="electronic smearing" >
    <i type="int" name="ISMEAR">     0</i>
    <i name="SIGMA">      0.05000000</i>
    <i name="KSPACING">      0.25000000</i>
    <i type="logical" name="KGAMMA"> T  </i>
   </separator>
   <separator name="electronic projectors" >
    <i type="logical" name="LREAL"> T  </i>
    <v name="ROPT">     -0.00025000     -0.00025000     -0.00025000</v>
    <i type="int" name="LMAXPAW">  -100</i>
    <i type="int" name="LMAXMIX">     2</i>
    <i type="logical" name="NLSPLINE"> F  </i>
   </separator>
   <separator name="electronic startup" >
    <i type="int" name="ISTART">     0</i>
    <i type="int" name="ICHARG">     2</i>
    <i type="int" name="INIWAV">     1</i>
   </separator>
   <separator name="electronic spin" >
    <i type="int" name="ISPIN">     1</i>
    <i type="logical" name="LNONCOLLINEAR"> F  </i>
    <v name="MAGMOM">      1.00000000      1.00000000      1.00000000      1.00000000      1.00000000      1.00000000      1.00000000      1.00000000      1.00000000      1.00000000      1.00000000      1.00000000      1.00000000      1.00000000      1.00000000      1.00000000      1.00000000      1.00000000      1.00000000      1.00000000
      1.00000000      1.00000000      1.00000000      1.00000000      1.00000000      1.00000000      1.00000000      1.00000000      1.00000000      1.00000000      1.00000000      1.00000000      1.00000000      1.00000000      1.00000000      1.00000000      1.00000000      1.00000000      1.00000000      1.00000000
      1.00000000      1.00000000      1.00000000      1.00000000      1.00000000      1.00000000      1.00000000      1.00000000      1.00000000      1.00000000      1.00000000      1.00000000      1.00000000      1.00000000      1.00000000      1.00000000      1.00000000      1.00000000      1.00000000      1.00000000
      1.00000000      1.00000000      1.00000000      1.00000000      1.00000000      1.00000000      1.00000000      1.00000000      1.00000000      1.00000000      1.00000000      1.00000000      1.00000000      1.00000000      1.00000000      1.00000000      1.00000000      1.00000000      1.00000000      1.00000000
</v>
    <i name="NUPDOWN">     -1.00000000</i>
    <i type="logical" name="LSORBIT"> F  </i>
    <v name="SAXIS">      0.00000000      0.00000000      1.00000000</v>
    <i type="logical" name="LSPIRAL"> F  </i>
    <v name="QSPIRAL">      0.00000000      0.00000000      0.00000000</v>
    <i type="logical" name="LZEROZ"> F  </i>
   </separator>
   <separator name="electronic exchange-correlation" >
    <i type="logical" name="LASPH"> F  </i>
    <i type="logical" name="LMETAGGA"> F  </i>
   </separator>
   <separator name="electronic convergence" >
    <i type="int" name="NELM">    60</i>
    <i type="int" name="NELMDL">    -5</i>
    <i type="int" name="NELMIN">     2</i>
    <i name="ENINI">    600.00000000</i>
    <separator name="electronic convergence detail" >
     <i type="logical" name="LDIAG"> T  </i>
     <i type="logical" name="LSUBROT"> F  </i>
     <i name="WEIMIN">      0.00000000</i>
     <i name="EBREAK">      0.00000000</i>
     <i name="DEPER">      0.30000000</i>
     <i type="int" name="NRMM">     4</i>
     <i name="TIME">      0.40000000</i>
    </separator>
   </separator>
   <separator name="electronic mixer" >
    <i name="AMIX">      0.40000000</i>
    <i name="BMIX">      1.00000000</i>
    <i name="AMIN">      0.10000000</i>
    <i name="AMIX_MAG">      1.60000000</i>
    <i name="BMIX_MAG">      1.00000000</i>
    <separator name="electronic mixer details" >
     <i type="int" name="IMIX">     4</i>
     <i type="logical" name="MIXFIRST"> F  </i>
     <i type="int" name="MAXMIX">   -45</i>
     <i name="WC">    100.00000000</i>
     <i type="int" name="INIMIX">     1</i>
     <i type="int" name="MIXPRE">     1</i>
     <i type="int" name="MREMOVE">     5</i>
    </separator>
   </separator>
   <separator name="electronic dipolcorrection" >
    <i type="logical" name="LDIPOL"> F  </i>
    <i type="logical" name="LMONO"> F  </i>
    <i type="int" name="IDIPOL">     0</i>
    <i name="EPSILON">      1.00000000</i>
    <v name="DIPOL">   -100.00000000   -100.00000000   -100.00000000</v>
    <i name="EFIELD">      0.00000000</i>
   </separator>
  </separator>
  <separator name="grids" >
   <i type="int" name="NGX">   112</i>
   <i type="int" name="NGY">   112</i>
   <i type="int" name="NGZ">   224</i>
   <i type="int" name="NGXF">   224</i>
   <i type="int" name="NGYF">   224</i>
   <i type="int" name="NGZF">   448</i>
   <i type="logical" name="ADDGRID"> T  </i>
  </separator>
  <separator name="ionic" >
   <i type="int" name="NSW">     1</i>
   <i type="int" name="IBRION">    -1</i>
   <i type="int" name="MDALGO">     0</i>
   <i type="int" name="ISIF">     2</i>
   <i name="PSTRESS">      0.00000000</i>
   <i name="EDIFFG">     -0.01000000</i>
   <i type="int" name="NFREE">     0</i>
   <i name="POTIM">      1.00000000</i>
   <i name="SMASS">     -3.00000000</i>
   <i name="SCALEE">      1.00000000</i>
  </separator>
  <separator name="ionic md" >
   <i name="TEBEG">      0.00010000</i>
   <i name="TEEND">      0.00010000</i>
   <i type="int" name="NBLOCK">     1</i>
   <i type="int" name="KBLOCK">     1</i>
   <i type="int" name="NPACO">   256</i>
   <i name="APACO">     16.00000000</i>
  </separator>
  <separator name="symmetry" >
   <i type="int" name="ISYM">     2</i>
   <i name="SYMPREC">      0.00001000</i>
  </separator>
  <separator name="dos" >
   <i type="int" name="LORBIT">     0</i>
   <v name="RWIGS">     -1.00000000     -1.00000000     -1.00000000</v>
   <i type="int" name="NEDOS">   301</i>
   <i name="EMIN">     10.00000000</i>
   <i name="EMAX">    -10.00000000</i>
   <i name="EFERMI">      0.00000000</i>
  </separator>
  <separator name="writing" >
   <i type="int" name="NWRITE">     2</i>
   <i type="logical" name="LWAVE"> F  </i>
   <i type="logical" name="LDOWNSAMPLE"> F  </i>
   <i type="logical" name="LCHARG"> F  </i>
   <i type="logical" name="LPARD"> F  </i>
   <i type="logical" name="LVTOT"> F  </i>
   <i type="logical" name="LVHAR"> F  </i>
   <i type="logical" name="LELF"> F  </i>
   <i type="logical" name="LOPTICS"> F  </i>
   <v name="STM">      0.00000000      0.00000000      0.00000000      0.00000000      0.00000000      0.00000000      0.00000000</v>
  </separator>
  <separator name="performance" >
   <i type="int" name="NPAR">     4</i>
   <i type="int" name="NSIM">     4</i>
   <i type="int" name="NBLK">    -1</i>
   <i type="logical" name="LPLANE"> T  </i>
   <i type="logical" name="LSCALAPACK"> F  </i>
   <i type="logical" name="LSCAAWARE"> F  </i>
   <i type="logical" name="LSCALU"> F  </i>
   <i type="logical" name="LASYNC"> F  </i>
   <i type="logical" name="LORBITALREAL"> F  </i>
  </separator>
  <separator name="miscellaneous" >
   <i type="int" name="IDIOT">     3</i>
   <i type="int" name="ISPECIAL">     0</i>
   <i type="logical" name="LMUSIC"> F  </i>
   <v name="POMASS">     44.95600000     35.45300000     12.01100000</v>
   <v name="DARWINR">      0.00000000      0.00000000      0.00000000</v>
   <v name="DARWINV">      1.00000000      1.00000000      1.00000000</v>
   <i type="logical" name="LCORR"> T  </i>
  </separator>
  <i type="logical" name="GGA_COMPAT"> T  </i>
  <i type="logical" name="LBERRY"> F  </i>
  <i type="int" name="ICORELEVEL">     0</i>
  <i type="logical" name="LDAU"> F  </i>
  <i type="int" name="I_CONSTRAINED_M">     0</i>
  <separator name="electronic exchange-correlation" >
   <i type="string" name="GGA">--</i>
   <i type="int" name="VOSKOWN">     0</i>
   <i type="logical" name="LHFCALC"> F  </i>
   <i type="string" name="PRECFOCK"></i>
   <i type="logical" name="LSYMGRAD"> F  </i>
   <i type="logical" name="LHFONE"> F  </i>
   <i type="logical" name="LRHFCALC"> F  </i>
   <i type="logical" name="LTHOMAS"> F  </i>
   <i type="logical" name="LMODELHF"> F  </i>
   <i name="ENCUT4O">     -1.00000000</i>
   <i type="int" name="EXXOEP">     0</i>
   <i type="int" name="FOURORBIT">     0</i>
   <i name="AEXX">      0.00000000</i>
   <i name="HFALPHA">      0.00000000</i>
   <i name="MCALPHA">      0.00000000</i>
   <i name="ALDAX">      1.00000000</i>
   <i name="AGGAX">      1.00000000</i>
   <i name="ALDAC">      1.00000000</i>
   <i name="AGGAC">      1.00000000</i>
   <i type="int" name="NKREDX">     1</i>
   <i type="int" name="NKREDY">     1</i>
   <i type="int" name="NKREDZ">     1</i>
   <i type="logical" name="SHIFTRED"> F  </i>
   <i type="logical" name="ODDONLY"> F  </i>
   <i type="logical" name="EVENONLY"> F  </i>
   <i type="int" name="LMAXFOCK">     0</i>
   <i type="int" name="NMAXFOCKAE">     0</i>
   <i type="logical" name="LFOCKAEDFT"> F  </i>
   <i name="HFSCREEN">      0.00000000</i>
   <i name="HFSCREENC">      0.00000000</i>
   <i type="int" name="NBANDSGWLOW">     0</i>
  </separator>
  <separator name="vdW DFT" >
   <i type="logical" name="LUSE_VDW"> F  </i>
   <i name="Zab_VDW">     -0.84910000</i>
   <i name="PARAM1">      0.12340000</i>
   <i name="PARAM2">      1.00000000</i>
   <i name="PARAM3">      0.00000000</i>
  </separator>
  <separator name="model GW" >
   <i type="int" name="MODEL_GW">     0</i>
   <i name="MODEL_EPS0">     34.36971577</i>
   <i name="MODEL_ALPHA">      1.00000000</i>
  </separator>
  <separator name="linear response parameters" >
   <i type="logical" name="LEPSILON"> F  </i>
   <i type="logical" name="LRPA"> F  </i>
   <i type="logical" name="LNABLA"> F  </i>
   <i type="logical" name="LVEL"> F  </i>
   <i type="int" name="KINTER">     0</i>
   <i name="CSHIFT">      0.10000000</i>
   <i name="OMEGAMAX">     -1.00000000</i>
   <i name="DEG_THRESHOLD">      0.00200000</i>
   <i name="RTIME">     -0.10000000</i>
   <i name="WPLASMAI">      0.00000000</i>
   <v name="DFIELD">      0.00000000      0.00000000      0.00000000</v>
   <v name="WPLASMA">      0.00000000      0.00000000      0.00000000      0.00000000      0.00000000      0.00000000      0.00000000      0.00000000      0.00000000</v>
  </separator>
  <separator name="orbital magnetization" >
   <i type="logical" name="NUCIND"> F  </i>
   <v name="MAGPOS">      0.00000000      0.00000000      0.00000000</v>
   <i type="logical" name="LNICSALL"> T  </i>
   <i type="logical" name="ORBITALMAG"> F  </i>
   <i type="logical" name="LMAGBLOCH"> F  </i>
   <i type="logical" name="LCHIMAG"> F  </i>
   <i type="logical" name="LGAUGE"> T  </i>
   <i type="int" name="MAGATOM">     0</i>
   <v name="MAGDIPOL">      0.00000000      0.00000000      0.00000000</v>
   <v name="AVECCONST">      0.00000000      0.00000000      0.00000000</v>
  </separator>
  <separator name="response functions" >
   <i type="logical" name="LADDER"> F  </i>
   <i type="logical" name="LRPAFORCE"> F  </i>
   <i type="logical" name="LFXC"> F  </i>
   <i type="logical" name="LHARTREE"> T  </i>
   <i type="int" name="IBSE">     0</i>
   <v type="int" name="KPOINT">    -1     0     0     0</v>
   <i type="logical" name="LTCTE"> F  </i>
   <i type="logical" name="LTETE"> F  </i>
   <i type="logical" name="LTRIPLET"> F  </i>
   <i type="logical" name="LFXCEPS"> F  </i>
   <i type="logical" name="LFXHEG"> F  </i>
   <i type="int" name="NATURALO">     2</i>
   <i type="logical" name="L2ORDER"> F  </i>
   <i type="logical" name="LMP2LT"> F  </i>
   <i type="logical" name="LUSEW"> F  </i>
   <i name="ENCUTGW">     -2.00000000</i>
   <i name="ENCUTGWSOFT">     -2.00000000</i>
   <i name="ENCUTLF">     -1.00000000</i>
   <i type="int" name="LMAXMP2">    -1</i>
   <i name="SCISSOR">      0.00000000</i>
   <i type="int" name="NOMEGA">     0</i>
   <i type="int" name="NOMEGAR">     0</i>
   <i type="int" name="NBANDSGW">    -1</i>
   <i type="int" name="NBANDSO">    -1</i>
   <i type="int" name="NBANDSV">    -1</i>
   <i type="int" name="NELM">     1</i>
   <i type="int" name="NELMHF">     1</i>
   <i type="int" name="DIM">     3</i>
   <i type="int" name="ANTIRES">     0</i>
   <i name="OMEGAMAX">    -30.00000000</i>
   <i name="OMEGAMIN">    -30.00000000</i>
   <i name="OMEGATL">   -200.00000000</i>
   <i type="int" name="OMEGAGRID">   140</i>
   <i name="CSHIFT">     -0.10000000</i>
   <i type="logical" name="SELFENERGY"> F  </i>
   <i type="logical" name="LSPECTRAL"> F  </i>
   <i type="logical" name="LSPECTRALGW"> F  </i>
   <i type="logical" name="LSINGLES"> F  </i>
   <i type="logical" name="LFERMIGW"> F  </i>
   <i type="logical" name="ODDONLYGW"> F  </i>
   <i type="logical" name="EVENONLYGW"> F  </i>
   <i type="int" name="NKREDLFX">     1</i>
   <i type="int" name="NKREDLFY">     1</i>
   <i type="int" name="NKREDLFZ">     1</i>
   <i type="int" name="MAXMEM">  2800</i>
   <i type="int" name="TELESCOPE">     0</i>
   <i type="int" name="TAUPAR">     1</i>
   <i type="int" name="OMEGAPAR">    -1</i>
   <i name="LAMBDA">      1.00000000</i>
  </separator>
  <separator name="External order field" >
   <i name="OFIELD_KAPPA">      0.00000000</i>
   <v name="OFIELD_K">      0.00000000      0.00000000      0.00000000</v>
   <i name="OFIELD_Q6_NEAR">      0.00000000</i>
   <i name="OFIELD_Q6_FAR">      0.00000000</i>
   <i name="OFIELD_A">      0.00000000</i>
  </separator>
 </parameters>
 <atominfo>
  <atoms>      80 </atoms>
  <types>       3 </types>
  <array name="atoms" >
   <dimension dim="1">ion</dimension>
   <field type="string">element</field>
   <field type="int">atomtype</field>
   <set>
    <rc><c>Sc</c><c>   1</c></rc>
    <rc><c>Sc</c><c>   1</c></rc>
    <rc><c>Sc</c><c>   1</c></rc>
    <rc><c>Sc</c><c>   1</c></rc>
    <rc><c>Sc</c><c>   1</c></rc>
    <rc><c>Sc</c><c>   1</c></rc>
    <rc><c>Sc</c><c>   1</c></rc>
    <rc><c>Sc</c><c>   1</c></rc>
    <rc><c>Sc</c><c>   1</c></rc>
    <rc><c>Sc</c><c>   1</c></rc>
    <rc><c>Sc</c><c>   1</c></rc>
    <rc><c>Sc</c><c>   1</c></rc>
    <rc><c>Sc</c><c>   1</c></rc>
    <rc><c>Sc</c><c>   1</c></rc>
    <rc><c>Sc</c><c>   1</c></rc>
    <rc><c>Sc</c><c>   1</c></rc>
    <rc><c>Sc</c><c>   1</c></rc>
    <rc><c>Sc</c><c>   1</c></rc>
    <rc><c>Sc</c><c>   1</c></rc>
    <rc><c>Sc</c><c>   1</c></rc>
    <rc><c>Sc</c><c>   1</c></rc>
    <rc><c>Sc</c><c>   1</c></rc>
    <rc><c>Sc</c><c>   1</c></rc>
    <rc><c>Sc</c><c>   1</c></rc>
    <rc><c>Sc</c><c>   1</c></rc>
    <rc><c>Sc</c><c>   1</c></rc>
    <rc><c>Sc</c><c>   1</c></rc>
    <rc><c>Sc</c><c>   1</c></rc>
    <rc><c>Sc</c><c>   1</c></rc>
    <rc><c>Sc</c><c>   1</c></rc>
    <rc><c>Sc</c><c>   1</c></rc>
    <rc><c>Sc</c><c>   1</c></rc>
    <rc><c>Cl</c><c>   2</c></rc>
    <rc><c>Cl</c><c>   2</c></rc>
    <rc><c>Cl</c><c>   2</c></rc>
    <rc><c>Cl</c><c>   2</c></rc>
    <rc><c>Cl</c><c>   2</c></rc>
    <rc><c>Cl</c><c>   2</c></rc>
    <rc><c>Cl</c><c>   2</c></rc>
    <rc><c>Cl</c><c>   2</c></rc>
    <rc><c>Cl</c><c>   2</c></rc>
    <rc><c>Cl</c><c>   2</c></rc>
    <rc><c>Cl</c><c>   2</c></rc>
    <rc><c>Cl</c><c>   2</c></rc>
    <rc><c>Cl</c><c>   2</c></rc>
    <rc><c>Cl</c><c>   2</c></rc>
    <rc><c>Cl</c><c>   2</c></rc>
    <rc><c>Cl</c><c>   2</c></rc>
    <rc><c>Cl</c><c>   2</c></rc>
    <rc><c>Cl</c><c>   2</c></rc>
    <rc><c>Cl</c><c>   2</c></rc>
    <rc><c>Cl</c><c>   2</c></rc>
    <rc><c>Cl</c><c>   2</c></rc>
    <rc><c>Cl</c><c>   2</c></rc>
    <rc><c>Cl</c><c>   2</c></rc>
    <rc><c>Cl</c><c>   2</c></rc>
    <rc><c>Cl</c><c>   2</c></rc>
    <rc><c>Cl</c><c>   2</c></rc>
    <rc><c>Cl</c><c>   2</c></rc>
    <rc><c>Cl</c><c>   2</c></rc>
    <rc><c>Cl</c><c>   2</c></rc>
    <rc><c>Cl</c><c>   2</c></rc>
    <rc><c>Cl</c><c>   2</c></rc>
    <rc><c>Cl</c><c>   2</c></rc>
    <rc><c>C </c><c>   3</c></rc>
    <rc><c>C </c><c>   3</c></rc>
    <rc><c>C </c><c>   3</c></rc>
    <rc><c>C </c><c>   3</c></rc>
    <rc><c>C </c><c>   3</c></rc>
    <rc><c>C </c><c>   3</c></rc>
    <rc><c>C </c><c>   3</c></rc>
    <rc><c>C </c><c>   3</c></rc>
    <rc><c>C </c><c>   3</c></rc>
    <rc><c>C </c><c>   3</c></rc>
    <rc><c>C </c><c>   3</c></rc>
    <rc><c>C </c><c>   3</c></rc>
    <rc><c>C </c><c>   3</c></rc>
    <rc><c>C </c><c>   3</c></rc>
    <rc><c>C </c><c>   3</c></rc>
    <rc><c>C </c><c>   3</c></rc>
   </set>
  </array>
  <array name="atomtypes" >
   <dimension dim="1">type</dimension>
   <field type="int">atomspertype</field>
   <field type="string">element</field>
   <field>mass</field>
   <field>valence</field>
   <field type="string">pseudopotential</field>
   <set>
    <rc><c>  32</c><c>Sc</c><c>     44.95600000</c><c>     11.00000000</c><c>  PAW_PBE Sc_sv 07Sep2000               </c></rc>
    <rc><c>  32</c><c>Cl</c><c>     35.45300000</c><c>      7.00000000</c><c>  PAW_PBE Cl 06Sep2000                  </c></rc>
    <rc><c>  16</c><c>C </c><c>     12.01100000</c><c>      4.00000000</c><c>  PAW_PBE C 08Apr2002                   </c></rc>
   </set>
  </array>
 </atominfo>
 <structure name="initialpos" >
  <crystal>
   <varray name="basis" >
    <v>      13.79398668       0.00000000       0.00000000 </v>
    <v>      -6.89699334      11.94594288       0.00000000 </v>
    <v>       0.00000000       0.00000000      27.81022107 </v>
   </varray>
   <i name="volume">   4582.62876984 </i>
   <varray name="rec_basis" >
    <v>       0.07249536       0.04185521       0.00000000 </v>
    <v>       0.00000000       0.08371043       0.00000000 </v>
    <v>       0.00000000       0.00000000       0.03595800 </v>
   </varray>
  </crystal>
  <varray name="positions" >
   <v>       0.08898705       0.16696541       0.54291739 </v>
   <v>       0.09431515       0.42656284       0.54971491 </v>
   <v>       0.08751641       0.66371654       0.54527893 </v>
   <v>       0.09220389       0.91563473       0.54769319 </v>
   <v>       0.34188756       0.16734544       0.54768534 </v>
   <v>       0.33970963       0.42079567       0.54695305 </v>
   <v>       0.34261465       0.66641756       0.54549766 </v>
   <v>       0.32759236       0.91210775       0.54367485 </v>
   <v>       0.57731748       0.16605395       0.54472518 </v>
   <v>       0.57846794       0.41311952       0.54804931 </v>
   <v>       0.59267434       0.67053462       0.54817302 </v>
   <v>       0.58067231       0.91729534       0.54537952 </v>
   <v>       0.82901101       0.16944665       0.54736406 </v>
   <v>       0.83545990       0.42230555       0.54279899 </v>
   <v>       0.83873549       0.66660123       0.54819413 </v>
   <v>       0.83858493       0.91788514       0.54123825 </v>
   <v>       0.17061083       0.07799873       0.45987324 </v>
   <v>       0.16263325       0.31945497       0.45494272 </v>
   <v>       0.16523953       0.57778435       0.45469432 </v>
   <v>       0.16595453       0.84082523       0.45750508 </v>
   <v>       0.42241461       0.09139019       0.45673342 </v>
   <v>       0.41105210       0.33964830       0.45327302 </v>
   <v>       0.41845199       0.58902630       0.45664202 </v>
   <v>       0.41287467       0.83710401       0.45252276 </v>
   <v>       0.66991203       0.08596581       0.45515398 </v>
   <v>       0.65289364       0.33394280       0.45076150 </v>
   <v>       0.66722154       0.58157456       0.45856279 </v>
   <v>       0.66313247       0.82398532       0.45862954 </v>
   <v>       0.91044631       0.07805961       0.45171860 </v>
   <v>       0.92371521       0.33905886       0.45438412 </v>
   <v>       0.91845627       0.58234241       0.45134834 </v>
   <v>       0.92695718       0.82713256       0.44948874 </v>
   <v>       0.07874112       0.16022268       0.39075286 </v>
   <v>       0.07542927       0.39217662       0.39162801 </v>
   <v>       0.09581298       0.66766177       0.39026873 </v>
   <v>       0.07116128       0.90898929       0.38401671 </v>
   <v>       0.31554296       0.15400360       0.39087770 </v>
   <v>       0.33635775       0.42764595       0.40258638 </v>
   <v>       0.32730129       0.65387726       0.39241810 </v>
   <v>       0.32502062       0.91611612       0.40255112 </v>
   <v>       0.60065644       0.18269704       0.39534288 </v>
   <v>       0.57760837       0.41911095       0.38698228 </v>
   <v>       0.58670658       0.67594625       0.39660887 </v>
   <v>       0.57006612       0.92711579       0.39252401 </v>
   <v>       0.81807426       0.17166107       0.38749471 </v>
   <v>       0.84113818       0.43329410       0.39452897 </v>
   <v>       0.83041273       0.65955723       0.39244940 </v>
   <v>       0.81683050       0.91462594       0.38339782 </v>
   <v>       0.15665429       0.07174584       0.60414231 </v>
   <v>       0.16651999       0.34104318       0.60014255 </v>
   <v>       0.18097574       0.60238991       0.60581400 </v>
   <v>       0.16516667       0.82666112       0.60419251 </v>
   <v>       0.39650862       0.05917575       0.60227742 </v>
   <v>       0.42565531       0.33075240       0.60595320 </v>
   <v>       0.41876593       0.56808194       0.61020646 </v>
   <v>       0.41706234       0.81910078       0.59996696 </v>
   <v>       0.64968061       0.07901102       0.60447152 </v>
   <v>       0.67177004       0.33503819       0.60741191 </v>
   <v>       0.67898669       0.59813881       0.60833966 </v>
   <v>       0.64898571       0.83348415       0.61376224 </v>
   <v>       0.92236112       0.08507380       0.60650022 </v>
   <v>       0.91897375       0.32492923       0.61246588 </v>
   <v>       0.91661004       0.59254408       0.61332378 </v>
   <v>       0.92895933       0.84844375       0.60640201 </v>
   <v>       0.00267610       0.99091872       0.49854984 </v>
   <v>       0.00886663       0.24997785       0.49713353 </v>
   <v>       0.99158605       0.50229995       0.49806877 </v>
   <v>       0.00996537       0.75537503       0.50072881 </v>
   <v>       0.24367153       0.99416734       0.50219670 </v>
   <v>       0.26312256       0.25953296       0.50133672 </v>
   <v>       0.25313904       0.50224260       0.50590899 </v>
   <v>       0.24644302       0.74836707       0.50330023 </v>
   <v>       0.49399180       0.00331531       0.49694619 </v>
   <v>       0.50850533       0.26296100       0.50232119 </v>
   <v>       0.50434434       0.51823351       0.50282398 </v>
   <v>       0.50297093       0.75480334       0.49739069 </v>
   <v>       0.75771197       0.00258202       0.50302905 </v>
   <v>       0.74958016       0.24955885       0.50115607 </v>
   <v>       0.73753586       0.48787380       0.50222582 </v>
   <v>       0.75242798       0.74563839       0.50318694 </v>
  </varray>
  <varray name="velocities" >
   <v>       0.00000000       0.00000000       0.00000000 </v>
   <v>       0.00000000       0.00000000       0.00000000 </v>
   <v>       0.00000000       0.00000000       0.00000000 </v>
   <v>       0.00000000       0.00000000       0.00000000 </v>
   <v>       0.00000000       0.00000000       0.00000000 </v>
   <v>       0.00000000       0.00000000       0.00000000 </v>
   <v>       0.00000000       0.00000000       0.00000000 </v>
   <v>       0.00000000       0.00000000       0.00000000 </v>
   <v>       0.00000000       0.00000000       0.00000000 </v>
   <v>       0.00000000       0.00000000       0.00000000 </v>
   <v>       0.00000000       0.00000000       0.00000000 </v>
   <v>       0.00000000       0.00000000       0.00000000 </v>
   <v>       0.00000000       0.00000000       0.00000000 </v>
   <v>       0.00000000       0.00000000       0.00000000 </v>
   <v>       0.00000000       0.00000000       0.00000000 </v>
   <v>       0.00000000       0.00000000       0.00000000 </v>
   <v>       0.00000000       0.00000000       0.00000000 </v>
   <v>       0.00000000       0.00000000       0.00000000 </v>
   <v>       0.00000000       0.00000000       0.00000000 </v>
   <v>       0.00000000       0.00000000       0.00000000 </v>
   <v>       0.00000000       0.00000000       0.00000000 </v>
   <v>       0.00000000       0.00000000       0.00000000 </v>
   <v>       0.00000000       0.00000000       0.00000000 </v>
   <v>       0.00000000       0.00000000       0.00000000 </v>
   <v>       0.00000000       0.00000000       0.00000000 </v>
   <v>       0.00000000       0.00000000       0.00000000 </v>
   <v>       0.00000000       0.00000000       0.00000000 </v>
   <v>       0.00000000       0.00000000       0.00000000 </v>
   <v>       0.00000000       0.00000000       0.00000000 </v>
   <v>       0.00000000       0.00000000       0.00000000 </v>
   <v>       0.00000000       0.00000000       0.00000000 </v>
   <v>       0.00000000       0.00000000       0.00000000 </v>
   <v>       0.00000000       0.00000000       0.00000000 </v>
   <v>       0.00000000       0.00000000       0.00000000 </v>
   <v>       0.00000000       0.00000000       0.00000000 </v>
   <v>       0.00000000       0.00000000       0.00000000 </v>
   <v>       0.00000000       0.00000000       0.00000000 </v>
   <v>       0.00000000       0.00000000       0.00000000 </v>
   <v>       0.00000000       0.00000000       0.00000000 </v>
   <v>       0.00000000       0.00000000       0.00000000 </v>
   <v>       0.00000000       0.00000000       0.00000000 </v>
   <v>       0.00000000       0.00000000       0.00000000 </v>
   <v>       0.00000000       0.00000000       0.00000000 </v>
   <v>       0.00000000       0.00000000       0.00000000 </v>
   <v>       0.00000000       0.00000000       0.00000000 </v>
   <v>       0.00000000       0.00000000       0.00000000 </v>
   <v>       0.00000000       0.00000000       0.00000000 </v>
   <v>       0.00000000       0.00000000       0.00000000 </v>
   <v>       0.00000000       0.00000000       0.00000000 </v>
   <v>       0.00000000       0.00000000       0.00000000 </v>
   <v>       0.00000000       0.00000000       0.00000000 </v>
   <v>       0.00000000       0.00000000       0.00000000 </v>
   <v>       0.00000000       0.00000000       0.00000000 </v>
   <v>       0.00000000       0.00000000       0.00000000 </v>
   <v>       0.00000000       0.00000000       0.00000000 </v>
   <v>       0.00000000       0.00000000       0.00000000 </v>
   <v>       0.00000000       0.00000000       0.00000000 </v>
   <v>       0.00000000       0.00000000       0.00000000 </v>
   <v>       0.00000000       0.00000000       0.00000000 </v>
   <v>       0.00000000       0.00000000       0.00000000 </v>
   <v>       0.00000000       0.00000000       0.00000000 </v>
   <v>       0.00000000       0.00000000       0.00000000 </v>
   <v>       0.00000000       0.00000000       0.00000000 </v>
   <v>       0.00000000       0.00000000       0.00000000 </v>
   <v>       0.00000000       0.00000000       0.00000000 </v>
   <v>       0.00000000       0.00000000       0.00000000 </v>
   <v>       0.00000000       0.00000000       0.00000000 </v>
   <v>       0.00000000       0.00000000       0.00000000 </v>
   <v>       0.00000000       0.00000000       0.00000000 </v>
   <v>       0.00000000       0.00000000       0.00000000 </v>
   <v>       0.00000000       0.00000000       0.00000000 </v>
   <v>       0.00000000       0.00000000       0.00000000 </v>
   <v>       0.00000000       0.00000000       0.00000000 </v>
   <v>       0.00000000       0.00000000       0.00000000 </v>
   <v>       0.00000000       0.00000000       0.00000000 </v>
   <v>       0.00000000       0.00000000       0.00000000 </v>
   <v>       0.00000000       0.00000000       0.00000000 </v>
   <v>       0.00000000       0.00000000       0.00000000 </v>
   <v>       0.00000000       0.00000000       0.00000000 </v>
   <v>       0.00000000       0.00000000       0.00000000 </v>
  </varray>
 </structure>
 <calculation>
  <scstep>
   <time name="dav">   50.20   50.20</time>
   <time name="total">   51.04   51.04</time>
   <energy>
    <i name="alphaZ">    784.57699423 </i>
    <i name="ewald"> 249010.33957418 </i>
    <i name="hartreedc">-296706.74238094 </i>
    <i name="XCdc">   2500.48229813 </i>
    <i name="pawpsdc">  43679.68029659 </i>
    <i name="pawaedc"> -43417.33247688 </i>
    <i name="eentropy">     -0.07342183 </i>
    <i name="bandstr">    100.10429896 </i>
    <i name="atom">  56210.72393729 </i>
    <i name="e_fr_energy">  12161.75911972 </i>
    <i name="e_wo_entrp">  12161.83254155 </i>
    <i name="e_0_energy">  12161.79583063 </i>
   </energy>
  </scstep>
  <scstep>
   <time name="dav">   56.80   56.82</time>
   <time name="total">   56.80   56.82</time>
   <energy>
    <i name="e_fr_energy">   1728.92931445 </i>
    <i name="e_wo_entrp">   1728.98115647 </i>
    <i name="e_0_energy">   1728.95523546 </i>
   </energy>
  </scstep>
  <scstep>
   <time name="dav">   71.03   71.05</time>
   <time name="total">   71.04   71.05</time>
   <energy>
    <i name="e_fr_energy">   -405.65817818 </i>
    <i name="e_wo_entrp">   -405.65623700 </i>
    <i name="e_0_energy">   -405.65720759 </i>
   </energy>
  </scstep>
  <scstep>
   <time name="dav">   64.77   64.78</time>
   <time name="total">   64.77   64.78</time>
   <energy>
    <i name="e_fr_energy">   -641.67927216 </i>
    <i name="e_wo_entrp">   -641.67927216 </i>
    <i name="e_0_energy">   -641.67927216 </i>
   </energy>
  </scstep>
  <scstep>
   <time name="dav">   64.65   64.66</time>
   <time name="total">   68.57   68.58</time>
   <energy>
    <i name="e_fr_energy">   -652.18219376 </i>
    <i name="e_wo_entrp">   -652.18219376 </i>
    <i name="e_0_energy">   -652.18219376 </i>
   </energy>
  </scstep>
  <scstep>
   <time name="dav">   62.69   62.69</time>
   <time name="total">   67.40   67.42</time>
   <energy>
    <i name="e_fr_energy">   -521.25000708 </i>
    <i name="e_wo_entrp">   -521.25000708 </i>
    <i name="e_0_energy">   -521.25000708 </i>
   </energy>
  </scstep>
  <scstep>
   <time name="dav">   63.32   63.33</time>
   <time name="total">   68.03   68.04</time>
   <energy>
    <i name="e_fr_energy">   -526.49369376 </i>
    <i name="e_wo_entrp">   -526.49369376 </i>
    <i name="e_0_energy">   -526.49369376 </i>
   </energy>
  </scstep>
  <scstep>
   <time name="dav">   61.94   61.94</time>
   <time name="total">   66.65   66.66</time>
   <energy>
    <i name="e_fr_energy">   -524.12735727 </i>
    <i name="e_wo_entrp">   -524.12735727 </i>
    <i name="e_0_energy">   -524.12735727 </i>
   </energy>
  </scstep>
  <scstep>
   <time name="dav">   58.45   58.45</time>
   <time name="total">   63.13   63.15</time>
   <energy>
    <i name="e_fr_energy">   -523.60220039 </i>
    <i name="e_wo_entrp">   -523.60220039 </i>
    <i name="e_0_energy">   -523.60220039 </i>
   </energy>
  </scstep>
  <scstep>
   <time name="dav">   60.65   60.65</time>
   <time name="total">   65.36   65.37</time>
   <energy>
    <i name="e_fr_energy">   -523.45423297 </i>
    <i name="e_wo_entrp">   -523.45423297 </i>
    <i name="e_0_energy">   -523.45423297 </i>
   </energy>
  </scstep>
  <scstep>
   <time name="dav">   61.32   61.32</time>
   <time name="total">   66.03   66.04</time>
   <energy>
    <i name="e_fr_energy">   -523.43532359 </i>
    <i name="e_wo_entrp">   -523.43532359 </i>
    <i name="e_0_energy">   -523.43532359 </i>
   </energy>
  </scstep>
  <scstep>
   <time name="dav">   64.55   64.55</time>
   <time name="total">   69.23   69.24</time>
   <energy>
    <i name="e_fr_energy">   -523.42270039 </i>
    <i name="e_wo_entrp">   -523.42270039 </i>
    <i name="e_0_energy">   -523.42270039 </i>
   </energy>
  </scstep>
  <scstep>
   <time name="dav">   59.99   59.99</time>
   <time name="total">   64.69   64.70</time>
   <energy>
    <i name="e_fr_energy">   -523.41965621 </i>
    <i name="e_wo_entrp">   -523.41965621 </i>
    <i name="e_0_energy">   -523.41965621 </i>
   </energy>
  </scstep>
  <scstep>
   <time name="dav">   59.21   59.22</time>
   <time name="total">   63.91   63.92</time>
   <energy>
    <i name="e_fr_energy">   -523.41799494 </i>
    <i name="e_wo_entrp">   -523.41799494 </i>
    <i name="e_0_energy">   -523.41799494 </i>
   </energy>
  </scstep>
  <scstep>
   <time name="dav">   59.63   59.64</time>
   <time name="total">   64.34   64.35</time>
   <energy>
    <i name="e_fr_energy">   -523.41930614 </i>
    <i name="e_wo_entrp">   -523.41930614 </i>
    <i name="e_0_energy">   -523.41930614 </i>
   </energy>
  </scstep>
  <scstep>
   <time name="dav">   62.10   62.11</time>
   <time name="total">   66.81   66.82</time>
   <energy>
    <i name="e_fr_energy">   -523.42090577 </i>
    <i name="e_wo_entrp">   -523.42090577 </i>
    <i name="e_0_energy">   -523.42090577 </i>
   </energy>
  </scstep>
  <scstep>
   <time name="dav">   59.35   59.36</time>
   <time name="total">   64.07   64.08</time>
   <energy>
    <i name="e_fr_energy">   -523.42356008 </i>
    <i name="e_wo_entrp">   -523.42356008 </i>
    <i name="e_0_energy">   -523.42356008 </i>
   </energy>
  </scstep>
  <scstep>
   <time name="dav">   54.55   54.55</time>
   <time name="total">   59.27   59.28</time>
   <energy>
    <i name="e_fr_energy">   -523.42624082 </i>
    <i name="e_wo_entrp">   -523.42624082 </i>
    <i name="e_0_energy">   -523.42624082 </i>
   </energy>
  </scstep>
  <scstep>
   <time name="dav">   55.20   55.21</time>
   <time name="total">   59.93   59.94</time>
   <energy>
    <i name="e_fr_energy">   -523.42729352 </i>
    <i name="e_wo_entrp">   -523.42729352 </i>
    <i name="e_0_energy">   -523.42729352 </i>
   </energy>
  </scstep>
  <scstep>
   <time name="dav">   47.85   47.86</time>
   <time name="total">   52.58   52.59</time>
   <energy>
    <i name="e_fr_energy">   -523.42851871 </i>
    <i name="e_wo_entrp">   -523.42851871 </i>
    <i name="e_0_energy">   -523.42851871 </i>
   </energy>
  </scstep>
  <scstep>
   <time name="dav">   50.79   50.79</time>
   <time name="total">   55.51   55.52</time>
   <energy>
    <i name="e_fr_energy">   -523.42907139 </i>
    <i name="e_wo_entrp">   -523.42907139 </i>
    <i name="e_0_energy">   -523.42907139 </i>
   </energy>
  </scstep>
  <scstep>
   <time name="dav">   43.77   43.77</time>
   <time name="total">   48.46   48.47</time>
   <energy>
    <i name="e_fr_energy">   -523.42946373 </i>
    <i name="e_wo_entrp">   -523.42946373 </i>
    <i name="e_0_energy">   -523.42946373 </i>
   </energy>
  </scstep>
  <scstep>
   <time name="dav">   42.49   42.49</time>
   <time name="total">   47.22   47.23</time>
   <energy>
    <i name="e_fr_energy">   -523.42997916 </i>
    <i name="e_wo_entrp">   -523.42997916 </i>
    <i name="e_0_energy">   -523.42997916 </i>
   </energy>
  </scstep>
  <scstep>
   <time name="dav">   44.44   44.44</time>
   <time name="total">   49.17   49.18</time>
   <energy>
    <i name="e_fr_energy">   -523.43011970 </i>
    <i name="e_wo_entrp">   -523.43011970 </i>
    <i name="e_0_energy">   -523.43011970 </i>
   </energy>
  </scstep>
  <scstep>
   <time name="dav">   37.68   37.69</time>
   <time name="total">   42.40   42.42</time>
   <energy>
    <i name="e_fr_energy">   -523.43020011 </i>
    <i name="e_wo_entrp">   -523.43020011 </i>
    <i name="e_0_energy">   -523.43020011 </i>
   </energy>
  </scstep>
  <scstep>
   <time name="dav">   40.95   40.95</time>
   <time name="total">   45.65   45.67</time>
   <energy>
    <i name="e_fr_energy">   -523.43028993 </i>
    <i name="e_wo_entrp">   -523.43028993 </i>
    <i name="e_0_energy">   -523.43028993 </i>
   </energy>
  </scstep>
  <scstep>
   <time name="dav">   34.78   34.78</time>
   <time name="total">   39.50   39.51</time>
   <energy>
    <i name="e_fr_energy">   -523.43030134 </i>
    <i name="e_wo_entrp">   -523.43030134 </i>
    <i name="e_0_energy">   -523.43030134 </i>
   </energy>
  </scstep>
  <scstep>
   <time name="dav">   33.47   33.47</time>
   <time name="total">   38.19   38.20</time>
   <energy>
    <i name="e_fr_energy">   -523.43030811 </i>
    <i name="e_wo_entrp">   -523.43030811 </i>
    <i name="e_0_energy">   -523.43030811 </i>
   </energy>
  </scstep>
  <scstep>
   <time name="dav">   35.16   35.17</time>
   <time name="total">   39.88   39.90</time>
   <energy>
    <i name="e_fr_energy">   -523.43031989 </i>
    <i name="e_wo_entrp">   -523.43031989 </i>
    <i name="e_0_energy">   -523.43031989 </i>
   </energy>
  </scstep>
  <scstep>
   <time name="dav">   34.78   34.78</time>
   <time name="total">   39.51   39.52</time>
   <energy>
    <i name="e_fr_energy">   -523.43032924 </i>
    <i name="e_wo_entrp">   -523.43032924 </i>
    <i name="e_0_energy">   -523.43032924 </i>
   </energy>
  </scstep>
  <scstep>
   <time name="dav">   35.08   35.08</time>
   <time name="total">   39.83   39.84</time>
   <energy>
    <i name="e_fr_energy">   -523.43033449 </i>
    <i name="e_wo_entrp">   -523.43033449 </i>
    <i name="e_0_energy">   -523.43033449 </i>
   </energy>
  </scstep>
  <scstep>
   <time name="dav">   32.81   32.81</time>
   <time name="total">   37.53   37.54</time>
   <energy>
    <i name="e_fr_energy">   -523.43033628 </i>
    <i name="e_wo_entrp">   -523.43033628 </i>
    <i name="e_0_energy">   -523.43033628 </i>
   </energy>
  </scstep>
  <scstep>
   <time name="dav">   32.54   32.54</time>
   <time name="total">   33.35   33.36</time>
   <energy>
    <i name="alphaZ">    784.57699423 </i>
    <i name="ewald"> 249010.33957418 </i>
    <i name="hartreedc">-296965.27656666 </i>
    <i name="XCdc">   2487.31670235 </i>
    <i name="pawpsdc">  58925.43029126 </i>
    <i name="pawaedc"> -58756.37703459 </i>
    <i name="eentropy">     -0.00000000 </i>
    <i name="bandstr"> -12220.16423500 </i>
    <i name="atom">  56210.72393729 </i>
    <i name="e_fr_energy">   -523.43033693 </i>
    <i name="e_wo_entrp">   -523.43033693 </i>
    <i name="e_0_energy">   -523.43033693 </i>
   </energy>
  </scstep>
  <structure>
   <crystal>
    <varray name="basis" >
     <v>      13.79398668       0.00000000       0.00000000 </v>
     <v>      -6.89699334      11.94594288       0.00000000 </v>
     <v>       0.00000000       0.00000000      27.81022107 </v>
    </varray>
    <i name="volume">   4582.62876984 </i>
    <varray name="rec_basis" >
     <v>       0.07249536       0.04185521       0.00000000 </v>
     <v>       0.00000000       0.08371043       0.00000000 </v>
     <v>       0.00000000       0.00000000       0.03595800 </v>
    </varray>
   </crystal>
   <varray name="positions" >
    <v>       0.08898705       0.16696541       0.54291739 </v>
    <v>       0.09431515       0.42656284       0.54971491 </v>
    <v>       0.08751641       0.66371654       0.54527893 </v>
    <v>       0.09220389       0.91563473       0.54769319 </v>
    <v>       0.34188756       0.16734544       0.54768534 </v>
    <v>       0.33970963       0.42079567       0.54695305 </v>
    <v>       0.34261465       0.66641756       0.54549766 </v>
    <v>       0.32759236       0.91210775       0.54367485 </v>
    <v>       0.57731748       0.16605395       0.54472518 </v>
    <v>       0.57846794       0.41311952       0.54804931 </v>
    <v>       0.59267434       0.67053462       0.54817302 </v>
    <v>       0.58067231       0.91729534       0.54537952 </v>
    <v>       0.82901101       0.16944665       0.54736406 </v>
    <v>       0.83545990       0.42230555       0.54279899 </v>
    <v>       0.83873549       0.66660123       0.54819413 </v>
    <v>       0.83858493       0.91788514       0.54123825 </v>
    <v>       0.17061083       0.07799873       0.45987324 </v>
    <v>       0.16263325       0.31945497       0.45494272 </v>
    <v>       0.16523953       0.57778435       0.45469432 </v>
    <v>       0.16595453       0.84082523       0.45750508 </v>
    <v>       0.42241461       0.09139019       0.45673342 </v>
    <v>       0.41105210       0.33964830       0.45327302 </v>
    <v>       0.41845199       0.58902630       0.45664202 </v>
    <v>       0.41287467       0.83710401       0.45252276 </v>
    <v>       0.66991203       0.08596581       0.45515398 </v>
    <v>       0.65289364       0.33394280       0.45076150 </v>
    <v>       0.66722154       0.58157456       0.45856279 </v>
    <v>       0.66313247       0.82398532       0.45862954 </v>
    <v>       0.91044631       0.07805961       0.45171860 </v>
    <v>       0.92371521       0.33905886       0.45438412 </v>
    <v>       0.91845627       0.58234241       0.45134834 </v>
    <v>       0.92695718       0.82713256       0.44948874 </v>
    <v>       0.07874112       0.16022268       0.39075286 </v>
    <v>       0.07542927       0.39217662       0.39162801 </v>
    <v>       0.09581298       0.66766177       0.39026873 </v>
    <v>       0.07116128       0.90898929       0.38401671 </v>
    <v>       0.31554296       0.15400360       0.39087770 </v>
    <v>       0.33635775       0.42764595       0.40258638 </v>
    <v>       0.32730129       0.65387726       0.39241810 </v>
    <v>       0.32502062       0.91611612       0.40255112 </v>
    <v>       0.60065644       0.18269704       0.39534288 </v>
    <v>       0.57760837       0.41911095       0.38698228 </v>
    <v>       0.58670658       0.67594625       0.39660887 </v>
    <v>       0.57006612       0.92711579       0.39252401 </v>
    <v>       0.81807426       0.17166107       0.38749471 </v>
    <v>       0.84113818       0.43329410       0.39452897 </v>
    <v>       0.83041273       0.65955723       0.39244940 </v>
    <v>       0.81683050       0.91462594       0.38339782 </v>
    <v>       0.15665429       0.07174584       0.60414231 </v>
    <v>       0.16651999       0.34104318       0.60014255 </v>
    <v>       0.18097574       0.60238991       0.60581400 </v>
    <v>       0.16516667       0.82666112       0.60419251 </v>
    <v>       0.39650862       0.05917575       0.60227742 </v>
    <v>       0.42565531       0.33075240       0.60595320 </v>
    <v>       0.41876593       0.56808194       0.61020646 </v>
    <v>       0.41706234       0.81910078       0.59996696 </v>
    <v>       0.64968061       0.07901102       0.60447152 </v>
    <v>       0.67177004       0.33503819       0.60741191 </v>
    <v>       0.67898669       0.59813881       0.60833966 </v>
    <v>       0.64898571       0.83348415       0.61376224 </v>
    <v>       0.92236112       0.08507380       0.60650022 </v>
    <v>       0.91897375       0.32492923       0.61246588 </v>
    <v>       0.91661004       0.59254408       0.61332378 </v>
    <v>       0.92895933       0.84844375       0.60640201 </v>
    <v>       0.00267610       0.99091872       0.49854984 </v>
    <v>       0.00886663       0.24997785       0.49713353 </v>
    <v>       0.99158605       0.50229995       0.49806877 </v>
    <v>       0.00996537       0.75537503       0.50072881 </v>
    <v>       0.24367153       0.99416734       0.50219670 </v>
    <v>       0.26312256       0.25953296       0.50133672 </v>
    <v>       0.25313904       0.50224260       0.50590899 </v>
    <v>       0.24644302       0.74836707       0.50330023 </v>
    <v>       0.49399180       0.00331531       0.49694619 </v>
    <v>       0.50850533       0.26296100       0.50232119 </v>
    <v>       0.50434434       0.51823351       0.50282398 </v>
    <v>       0.50297093       0.75480334       0.49739069 </v>
    <v>       0.75771197       0.00258202       0.50302905 </v>
    <v>       0.74958016       0.24955885       0.50115607 </v>
    <v>       0.73753586       0.48787380       0.50222582 </v>
    <v>       0.75242798       0.74563839       0.50318694 </v>
   </varray>
  </structure>
  <varray name="forces" >
   <v>      -0.82589204      -0.39991616       0.19227792 </v>
   <v>      -0.64664734      -0.45759979      -1.40983717 </v>
   <v>      -0.71404201       0.47770459      -0.58559935 </v>
   <v>      -1.37256779      -0.63466600      -0.82373913 </v>
   <v>      -1.11930303       0.24427822      -0.71836408 </v>
   <v>      -0.23781596       0.27582909      -0.67353458 </v>
   <v>      -0.64566329      -0.46886827      -0.96276092 </v>
   <v>       0.70566823      -0.73595913      -0.64811306 </v>
   <v>       1.00329190       0.54494223      -0.32826785 </v>
   <v>       1.14063743       1.13279133      -0.68464949 </v>
   <v>      -0.34532333       0.03897318       0.17769179 </v>
   <v>       0.72177357      -0.19540608      -0.59282584 </v>
   <v>       0.63451814      -0.09041613      -0.46814192 </v>
   <v>      -0.45299727      -0.87765369       0.41578074 </v>
   <v>      -0.17885521       0.41088755      -0.53185409 </v>
   <v>       0.40751093       0.06780193       0.88254504 </v>
   <v>      -0.69830819       0.25291469      -1.11769299 </v>
   <v>      -0.59561969       0.62235990       0.18498981 </v>
   <v>       0.11909693       0.53555689       0.33786223 </v>
   <v>       0.29668167      -1.49616655      -0.26607572 </v>
   <v>      -0.22070832      -0.51771202      -0.50438692 </v>
   <v>       0.96639309      -0.40940349       0.87585285 </v>
   <v>       0.26659979       0.39544306       0.72860412 </v>
   <v>       0.74793105      -0.46909168       0.93829860 </v>
   <v>      -0.07971063       0.24963195       0.21880921 </v>
   <v>       1.11814686       1.10871861       1.43839627 </v>
   <v>      -0.20758204       0.30252783      -0.02376205 </v>
   <v>       0.22999298       1.09000671      -0.72978692 </v>
   <v>       0.40477353       0.12314883       0.03148197 </v>
   <v>      -0.42784470      -0.89228836       0.31490011 </v>
   <v>       0.28002018       0.64083925       1.09514280 </v>
   <v>      -0.84603812       0.58855727       1.12909668 </v>
   <v>       0.15078848      -0.03273625       0.70912958 </v>
   <v>      -0.06705126       0.92619477       0.39464980 </v>
   <v>      -0.38211426      -0.10741775       0.73645269 </v>
   <v>       0.41463201       0.07418549       1.08314417 </v>
   <v>       0.55405874       0.55518883       0.78192449 </v>
   <v>      -0.15517223      -0.47414268      -1.44681915 </v>
   <v>      -0.19781367       0.43474195       0.38788496 </v>
   <v>       0.06247024       0.60934567      -1.35754188 </v>
   <v>      -0.91722380      -0.85905413      -0.39696782 </v>
   <v>      -0.05555737      -0.05850846       0.91554890 </v>
   <v>       0.06377490      -0.54509735      -0.06838322 </v>
   <v>       0.46162589      -0.31546478       0.23990412 </v>
   <v>       0.73279951      -0.10695969       0.97416471 </v>
   <v>       0.07578496      -1.09003894      -0.43419206 </v>
   <v>      -0.26564633       0.18507802       0.27918631 </v>
   <v>       0.28444541       0.18442655       1.38278330 </v>
   <v>       0.48130656       1.27439864       0.41797767 </v>
   <v>       0.83086264      -0.86216586       1.26381797 </v>
   <v>      -0.08926848      -0.99911202       0.34215307 </v>
   <v>       0.12344875       0.10955230       0.55471317 </v>
   <v>       0.46399140       1.20062171       1.06374548 </v>
   <v>      -0.66532569      -0.33216344       0.67481548 </v>
   <v>      -0.20931905       0.65332685      -0.13435247 </v>
   <v>      -0.57776554       1.15377821       1.13138348 </v>
   <v>       0.39241667       0.19914059       0.16654637 </v>
   <v>      -0.23106064      -0.12860279      -0.30693458 </v>
   <v>      -0.11285413      -0.45060050       0.00051120 </v>
   <v>       0.64810229       0.08197658      -0.94557130 </v>
   <v>      -0.15893396      -0.02827166      -0.57795564 </v>
   <v>      -0.23077457       0.49187599      -0.81380210 </v>
   <v>       0.38907477      -0.40865230      -0.90530040 </v>
   <v>      -0.37917218      -0.75090199      -0.21505332 </v>
   <v>      -0.43884402       0.80083947      -0.35807699 </v>
   <v>      -0.73251130      -0.10268539       0.43740067 </v>
   <v>       1.18601450      -0.11716677       0.17251738 </v>
   <v>      -0.81538379      -0.72117286      -0.45592597 </v>
   <v>       0.74573523       1.19177457      -0.23396944 </v>
   <v>      -0.21473859      -1.24031393      -0.09957049 </v>
   <v>      -0.37888438       0.08510743      -0.86262041 </v>
   <v>       0.37434956      -0.19924953      -1.06624223 </v>
   <v>       0.32518270       0.07335782       0.56850750 </v>
   <v>      -0.76201787      -1.56257523      -0.56148661 </v>
   <v>       0.48250285      -1.50956104      -0.31186540 </v>
   <v>      -0.25053143       0.14835665       0.69790096 </v>
   <v>      -0.77319958      -0.12514635      -0.77437813 </v>
   <v>       0.17594695      -0.13725052      -0.00773517 </v>
   <v>       0.37579774       1.22576021      -0.43987569 </v>
   <v>      -0.16206594       0.14821816      -0.49448098 </v>
  </varray>
  <varray name="stress" >
   <v>       1.45353675      -0.37887823      -1.83108974 </v>
   <v>      -0.37887822       2.13421706       0.44607387 </v>
   <v>      -1.83108977       0.44607388      -9.48962510 </v>
  </varray>
  <energy>
   <i name="e_fr_energy">   -523.43033693 </i>
   <i name="e_wo_entrp">   -523.43033693 </i>
   <i name="e_0_energy">     -0.00000000 </i>
  </energy>
  <time name="totalsc"> 1897.28 1897.65</time>
  <eigenvalues>
   <array>
    <dimension dim="1">band</dimension>
    <dimension dim="2">kpoint</dimension>
    <dimension dim="3">spin</dimension>
    <field>eigene</field>
    <field>occ</field>
    <set>
     <set comment="spin 1">
      <set comment="kpoint 1">
       <r>  -51.8824    1.0000 </r>
       <r>  -51.8250    1.0000 </r>
       <r>  -51.7977    1.0000 </r>
       <r>  -51.7673    1.0000 </r>
       <r>  -51.7408    1.0000 </r>
       <r>  -51.7157    1.0000 </r>
       <r>  -51.7007    1.0000 </r>
       <r>  -51.6848    1.0000 </r>
       <r>  -51.6497    1.0000 </r>
       <r>  -51.6261    1.0000 </r>
       <r>  -51.6213    1.0000 </r>
       <r>  -51.5999    1.0000 </r>
       <r>  -51.5829    1.0000 </r>
       <r>  -51.5822    1.0000 </r>
       <r>  -51.5751    1.0000 </r>
       <r>  -51.5649    1.0000 </r>
       <r>  -51.5338    1.0000 </r>
       <r>  -51.4065    1.0000 </r>
       <r>  -51.4053    1.0000 </r>
       <r>  -51.3780    1.0000 </r>
       <r>  -51.3752    1.0000 </r>
       <r>  -51.3562    1.0000 </r>
       <r>  -51.3396    1.0000 </r>
       <r>  -51.3338    1.0000 </r>
       <r>  -51.3232    1.0000 </r>
       <r>  -51.2862    1.0000 </r>
       <r>  -51.2802    1.0000 </r>
       <r>  -51.2696    1.0000 </r>
       <r>  -51.2206    1.0000 </r>
       <r>  -51.2141    1.0000 </r>
       <r>  -51.2045    1.0000 </r>
       <r>  -51.1629    1.0000 </r>
       <r>  -30.6034    1.0000 </r>
       <r>  -30.5768    1.0000 </r>
       <r>  -30.5514    1.0000 </r>
       <r>  -30.5502    1.0000 </r>
       <r>  -30.5027    1.0000 </r>
       <r>  -30.4865    1.0000 </r>
       <r>  -30.4667    1.0000 </r>
       <r>  -30.4595    1.0000 </r>
       <r>  -30.4483    1.0000 </r>
       <r>  -30.4406    1.0000 </r>
       <r>  -30.4340    1.0000 </r>
       <r>  -30.4253    1.0000 </r>
       <r>  -30.4082    1.0000 </r>
       <r>  -30.4007    1.0000 </r>
       <r>  -30.3964    1.0000 </r>
       <r>  -30.3910    1.0000 </r>
       <r>  -30.3799    1.0000 </r>
       <r>  -30.3669    1.0000 </r>
       <r>  -30.3625    1.0000 </r>
       <r>  -30.3608    1.0000 </r>
       <r>  -30.3486    1.0000 </r>
       <r>  -30.3403    1.0000 </r>
       <r>  -30.3371    1.0000 </r>
       <r>  -30.3278    1.0000 </r>
       <r>  -30.3269    1.0000 </r>
       <r>  -30.3213    1.0000 </r>
       <r>  -30.3150    1.0000 </r>
       <r>  -30.3123    1.0000 </r>
       <r>  -30.3006    1.0000 </r>
       <r>  -30.2915    1.0000 </r>
       <r>  -30.2868    1.0000 </r>
       <r>  -30.2816    1.0000 </r>
       <r>  -30.2743    1.0000 </r>
       <r>  -30.2648    1.0000 </r>
       <r>  -30.2626    1.0000 </r>
       <r>  -30.2561    1.0000 </r>
       <r>  -30.2461    1.0000 </r>
       <r>  -30.2435    1.0000 </r>
       <r>  -30.2402    1.0000 </r>
       <r>  -30.2277    1.0000 </r>
       <r>  -30.2192    1.0000 </r>
       <r>  -30.2139    1.0000 </r>
       <r>  -30.2102    1.0000 </r>
       <r>  -30.1969    1.0000 </r>
       <r>  -30.1893    1.0000 </r>
       <r>  -30.1792    1.0000 </r>
       <r>  -30.1709    1.0000 </r>
       <r>  -30.1599    1.0000 </r>
       <r>  -30.1526    1.0000 </r>
       <r>  -30.1484    1.0000 </r>
       <r>  -30.1347    1.0000 </r>
       <r>  -30.1258    1.0000 </r>
       <r>  -30.1177    1.0000 </r>
       <r>  -30.1064    1.0000 </r>
       <r>  -30.0989    1.0000 </r>
       <r>  -30.0930    1.0000 </r>
       <r>  -30.0898    1.0000 </r>
       <r>  -30.0812    1.0000 </r>
       <r>  -30.0749    1.0000 </r>
       <r>  -30.0663    1.0000 </r>
       <r>  -30.0615    1.0000 </r>
       <r>  -30.0444    1.0000 </r>
       <r>  -30.0348    1.0000 </r>
       <r>  -30.0223    1.0000 </r>
       <r>  -30.0136    1.0000 </r>
       <r>  -30.0074    1.0000 </r>
       <r>  -30.0051    1.0000 </r>
       <r>  -30.0017    1.0000 </r>
       <r>  -29.9978    1.0000 </r>
       <r>  -29.9943    1.0000 </r>
       <r>  -29.9798    1.0000 </r>
       <r>  -29.9764    1.0000 </r>
       <r>  -29.9733    1.0000 </r>
       <r>  -29.9715    1.0000 </r>
       <r>  -29.9608    1.0000 </r>
       <r>  -29.9566    1.0000 </r>
       <r>  -29.9515    1.0000 </r>
       <r>  -29.9484    1.0000 </r>
       <r>  -29.9387    1.0000 </r>
       <r>  -29.9309    1.0000 </r>
       <r>  -29.9281    1.0000 </r>
       <r>  -29.9174    1.0000 </r>
       <r>  -29.9067    1.0000 </r>
       <r>  -29.9018    1.0000 </r>
       <r>  -29.8784    1.0000 </r>
       <r>  -29.8704    1.0000 </r>
       <r>  -29.8634    1.0000 </r>
       <r>  -29.8523    1.0000 </r>
       <r>  -29.8452    1.0000 </r>
       <r>  -29.8403    1.0000 </r>
       <r>  -29.8345    1.0000 </r>
       <r>  -29.8330    1.0000 </r>
       <r>  -29.8284    1.0000 </r>
       <r>  -29.8198    1.0000 </r>
       <r>  -29.7959    1.0000 </r>
       <r>  -29.7678    1.0000 </r>
       <r>  -18.7879    1.0000 </r>
       <r>  -18.7616    1.0000 </r>
       <r>  -18.6302    1.0000 </r>
       <r>  -18.5859    1.0000 </r>
       <r>  -18.5663    1.0000 </r>
       <r>  -18.4956    1.0000 </r>
       <r>  -18.4062    1.0000 </r>
       <r>  -18.3642    1.0000 </r>
       <r>  -18.2723    1.0000 </r>
       <r>  -18.2713    1.0000 </r>
       <r>  -18.2187    1.0000 </r>
       <r>  -18.1283    1.0000 </r>
       <r>  -18.0975    1.0000 </r>
       <r>  -18.0681    1.0000 </r>
       <r>  -18.0548    1.0000 </r>
       <r>  -17.9750    1.0000 </r>
       <r>  -17.9544    1.0000 </r>
       <r>  -17.9005    1.0000 </r>
       <r>  -17.8815    1.0000 </r>
       <r>  -17.8553    1.0000 </r>
       <r>  -17.8098    1.0000 </r>
       <r>  -17.7563    1.0000 </r>
       <r>  -17.7132    1.0000 </r>
       <r>  -17.6531    1.0000 </r>
       <r>  -17.6460    1.0000 </r>
       <r>  -17.6120    1.0000 </r>
       <r>  -17.6036    1.0000 </r>
       <r>  -17.5154    1.0000 </r>
       <r>  -17.5032    1.0000 </r>
       <r>  -17.4982    1.0000 </r>
       <r>  -17.3312    1.0000 </r>
       <r>  -17.0920    1.0000 </r>
       <r>  -11.8308    1.0000 </r>
       <r>  -11.4983    1.0000 </r>
       <r>  -11.4732    1.0000 </r>
       <r>  -11.4040    1.0000 </r>
       <r>  -11.3761    1.0000 </r>
       <r>  -11.3056    1.0000 </r>
       <r>  -11.2605    1.0000 </r>
       <r>  -11.0029    1.0000 </r>
       <r>  -10.9903    1.0000 </r>
       <r>  -10.9183    1.0000 </r>
       <r>  -10.8600    1.0000 </r>
       <r>  -10.8235    1.0000 </r>
       <r>  -10.8078    1.0000 </r>
       <r>  -10.7735    1.0000 </r>
       <r>  -10.7475    1.0000 </r>
       <r>  -10.7202    1.0000 </r>
       <r>   -8.1252    1.0000 </r>
       <r>   -8.1130    1.0000 </r>
       <r>   -8.0535    1.0000 </r>
       <r>   -7.9401    1.0000 </r>
       <r>   -7.8892    1.0000 </r>
       <r>   -7.7462    1.0000 </r>
       <r>   -7.7307    1.0000 </r>
       <r>   -7.6892    1.0000 </r>
       <r>   -7.6418    1.0000 </r>
       <r>   -7.6353    1.0000 </r>
       <r>   -7.5578    1.0000 </r>
       <r>   -7.5328    1.0000 </r>
       <r>   -7.4699    1.0000 </r>
       <r>   -7.4361    1.0000 </r>
       <r>   -7.4076    1.0000 </r>
       <r>   -7.3867    1.0000 </r>
       <r>   -7.3392    1.0000 </r>
       <r>   -7.3078    1.0000 </r>
       <r>   -7.2676    1.0000 </r>
       <r>   -7.2648    1.0000 </r>
       <r>   -7.2290    1.0000 </r>
       <r>   -7.1850    1.0000 </r>
       <r>   -7.1433    1.0000 </r>
       <r>   -7.1052    1.0000 </r>
       <r>   -7.0921    1.0000 </r>
       <r>   -7.0619    1.0000 </r>
       <r>   -7.0448    1.0000 </r>
       <r>   -7.0018    1.0000 </r>
       <r>   -6.9761    1.0000 </r>
       <r>   -6.9197    1.0000 </r>
       <r>   -6.9061    1.0000 </r>
       <r>   -6.8616    1.0000 </r>
       <r>   -6.8551    1.0000 </r>
       <r>   -6.8371    1.0000 </r>
       <r>   -6.7921    1.0000 </r>
       <r>   -6.7796    1.0000 </r>
       <r>   -6.7587    1.0000 </r>
       <r>   -6.7382    1.0000 </r>
       <r>   -6.7223    1.0000 </r>
       <r>   -6.6931    1.0000 </r>
       <r>   -6.6659    1.0000 </r>
       <r>   -6.6613    1.0000 </r>
       <r>   -6.6465    1.0000 </r>
       <r>   -6.6189    1.0000 </r>
       <r>   -6.6027    1.0000 </r>
       <r>   -6.5968    1.0000 </r>
       <r>   -6.5727    1.0000 </r>
       <r>   -6.5538    1.0000 </r>
       <r>   -6.5429    1.0000 </r>
       <r>   -6.5223    1.0000 </r>
       <r>   -6.4904    1.0000 </r>
       <r>   -6.4747    1.0000 </r>
       <r>   -6.4668    1.0000 </r>
       <r>   -6.4542    1.0000 </r>
       <r>   -6.4148    1.0000 </r>
       <r>   -6.3972    1.0000 </r>
       <r>   -6.3894    1.0000 </r>
       <r>   -6.3727    1.0000 </r>
       <r>   -6.3511    1.0000 </r>
       <r>   -6.3282    1.0000 </r>
       <r>   -6.3211    1.0000 </r>
       <r>   -6.3166    1.0000 </r>
       <r>   -6.2997    1.0000 </r>
       <r>   -6.2786    1.0000 </r>
       <r>   -6.2344    1.0000 </r>
       <r>   -6.2243    1.0000 </r>
       <r>   -6.1959    1.0000 </r>
       <r>   -6.1809    1.0000 </r>
       <r>   -6.1501    1.0000 </r>
       <r>   -6.1454    1.0000 </r>
       <r>   -6.1209    1.0000 </r>
       <r>   -6.0852    1.0000 </r>
       <r>   -6.0147    1.0000 </r>
       <r>   -5.9577    1.0000 </r>
       <r>   -5.8766    1.0000 </r>
       <r>   -5.8375    1.0000 </r>
       <r>   -5.8051    1.0000 </r>
       <r>   -5.7688    1.0000 </r>
       <r>   -5.7270    1.0000 </r>
       <r>   -5.7016    1.0000 </r>
       <r>   -5.6409    1.0000 </r>
       <r>   -5.5506    1.0000 </r>
       <r>   -5.5285    1.0000 </r>
       <r>   -5.4900    1.0000 </r>
       <r>   -5.4770    1.0000 </r>
       <r>   -5.4096    1.0000 </r>
       <r>   -5.3407    1.0000 </r>
       <r>   -5.2969    1.0000 </r>
       <r>   -5.2841    1.0000 </r>
       <r>   -5.2397    1.0000 </r>
       <r>   -5.1573    1.0000 </r>
       <r>   -5.0731    1.0000 </r>
       <r>   -5.0509    1.0000 </r>
       <r>   -4.9963    1.0000 </r>
       <r>   -4.9783    1.0000 </r>
       <r>   -4.9291    1.0000 </r>
       <r>   -4.8655    1.0000 </r>
       <r>   -4.8579    1.0000 </r>
       <r>   -4.8038    1.0000 </r>
       <r>   -4.6887    1.0000 </r>
       <r>   -4.6456    1.0000 </r>
       <r>   -4.6114    1.0000 </r>
       <r>   -4.5867    1.0000 </r>
       <r>   -4.5663    1.0000 </r>
       <r>   -4.5298    1.0000 </r>
       <r>   -4.2952    1.0000 </r>
       <r>   -4.2470    1.0000 </r>
       <r>   -4.1679    1.0000 </r>
       <r>   -4.1516    1.0000 </r>
       <r>   -4.1364    1.0000 </r>
       <r>   -4.0965    1.0000 </r>
       <r>   -4.0915    1.0000 </r>
       <r>   -4.0628    1.0000 </r>
       <r>   -4.0442    1.0000 </r>
       <r>   -4.0107    1.0000 </r>
       <r>   -3.9918    1.0000 </r>
       <r>   -3.9846    1.0000 </r>
       <r>   -3.9721    1.0000 </r>
       <r>   -3.9300    1.0000 </r>
       <r>   -3.9201    1.0000 </r>
       <r>   -3.8839    1.0000 </r>
       <r>   -3.8580    1.0000 </r>
       <r>   -3.8064    1.0000 </r>
       <r>   -3.8004    1.0000 </r>
       <r>   -3.7319    1.0000 </r>
       <r>   -3.7246    1.0000 </r>
       <r>   -3.6836    1.0000 </r>
       <r>   -3.6581    1.0000 </r>
       <r>   -3.5990    1.0000 </r>
       <r>   -3.5659    1.0000 </r>
       <r>   -3.5527    1.0000 </r>
       <r>   -3.5252    1.0000 </r>
       <r>   -3.4901    1.0000 </r>
       <r>   -3.3366    1.0000 </r>
       <r>   -3.3046    1.0000 </r>
       <r>   -3.2743    1.0000 </r>
       <r>   -3.2478    1.0000 </r>
       <r>   -3.1957    1.0000 </r>
       <r>   -3.1661    1.0000 </r>
       <r>   -3.1469    1.0000 </r>
       <r>   -3.0774    1.0000 </r>
       <r>   -3.0306    1.0000 </r>
       <r>   -2.9420    1.0000 </r>
       <r>   -2.8929    1.0000 </r>
       <r>   -2.1180    0.0000 </r>
       <r>   -2.1034    0.0000 </r>
       <r>   -2.0833    0.0000 </r>
       <r>   -1.5303    0.0000 </r>
       <r>   -1.5037    0.0000 </r>
       <r>   -1.4701    0.0000 </r>
       <r>   -1.4376    0.0000 </r>
       <r>   -1.4255    0.0000 </r>
       <r>   -1.3995    0.0000 </r>
       <r>   -0.8058    0.0000 </r>
       <r>   -0.7587    0.0000 </r>
       <r>   -0.7010    0.0000 </r>
       <r>   -0.6291    0.0000 </r>
       <r>   -0.6186    0.0000 </r>
       <r>   -0.6048    0.0000 </r>
       <r>   -0.5820    0.0000 </r>
       <r>   -0.5239    0.0000 </r>
       <r>   -0.5184    0.0000 </r>
       <r>   -0.5005    0.0000 </r>
       <r>   -0.4413    0.0000 </r>
       <r>   -0.4054    0.0000 </r>
       <r>   -0.3837    0.0000 </r>
       <r>   -0.3396    0.0000 </r>
       <r>   -0.3325    0.0000 </r>
       <r>   -0.0722    0.0000 </r>
       <r>   -0.0357    0.0000 </r>
       <r>    0.0101    0.0000 </r>
       <r>    0.0675    0.0000 </r>
       <r>    0.0917    0.0000 </r>
       <r>    0.1351    0.0000 </r>
       <r>    0.1449    0.0000 </r>
       <r>    0.1725    0.0000 </r>
       <r>    0.1924    0.0000 </r>
       <r>    0.1963    0.0000 </r>
       <r>    0.2176    0.0000 </r>
       <r>    0.2346    0.0000 </r>
       <r>    0.3651    0.0000 </r>
       <r>    0.4181    0.0000 </r>
       <r>    0.4567    0.0000 </r>
       <r>    0.4751    0.0000 </r>
       <r>    0.4978    0.0000 </r>
       <r>    0.5244    0.0000 </r>
       <r>    0.5359    0.0000 </r>
       <r>    0.5746    0.0000 </r>
       <r>    0.5910    0.0000 </r>
       <r>    0.6087    0.0000 </r>
       <r>    0.6432    0.0000 </r>
       <r>    0.6446    0.0000 </r>
       <r>    0.6699    0.0000 </r>
       <r>    0.6840    0.0000 </r>
       <r>    0.7227    0.0000 </r>
       <r>    0.7382    0.0000 </r>
       <r>    0.7417    0.0000 </r>
       <r>    0.7568    0.0000 </r>
       <r>    0.7689    0.0000 </r>
       <r>    0.7893    0.0000 </r>
       <r>    0.7947    0.0000 </r>
       <r>    0.8039    0.0000 </r>
       <r>    0.8169    0.0000 </r>
       <r>    0.8488    0.0000 </r>
       <r>    0.8647    0.0000 </r>
       <r>    0.8826    0.0000 </r>
       <r>    0.9135    0.0000 </r>
       <r>    0.9222    0.0000 </r>
      </set>
      <set comment="kpoint 2">
       <r>  -51.8824    1.0000 </r>
       <r>  -51.8250    1.0000 </r>
       <r>  -51.7977    1.0000 </r>
       <r>  -51.7673    1.0000 </r>
       <r>  -51.7408    1.0000 </r>
       <r>  -51.7157    1.0000 </r>
       <r>  -51.7007    1.0000 </r>
       <r>  -51.6848    1.0000 </r>
       <r>  -51.6497    1.0000 </r>
       <r>  -51.6261    1.0000 </r>
       <r>  -51.6213    1.0000 </r>
       <r>  -51.5999    1.0000 </r>
       <r>  -51.5829    1.0000 </r>
       <r>  -51.5822    1.0000 </r>
       <r>  -51.5751    1.0000 </r>
       <r>  -51.5649    1.0000 </r>
       <r>  -51.5338    1.0000 </r>
       <r>  -51.4065    1.0000 </r>
       <r>  -51.4053    1.0000 </r>
       <r>  -51.3780    1.0000 </r>
       <r>  -51.3752    1.0000 </r>
       <r>  -51.3562    1.0000 </r>
       <r>  -51.3396    1.0000 </r>
       <r>  -51.3338    1.0000 </r>
       <r>  -51.3232    1.0000 </r>
       <r>  -51.2862    1.0000 </r>
       <r>  -51.2802    1.0000 </r>
       <r>  -51.2696    1.0000 </r>
       <r>  -51.2206    1.0000 </r>
       <r>  -51.2141    1.0000 </r>
       <r>  -51.2045    1.0000 </r>
       <r>  -51.1629    1.0000 </r>
       <r>  -30.6033    1.0000 </r>
       <r>  -30.5767    1.0000 </r>
       <r>  -30.5514    1.0000 </r>
       <r>  -30.5499    1.0000 </r>
       <r>  -30.5026    1.0000 </r>
       <r>  -30.4862    1.0000 </r>
       <r>  -30.4665    1.0000 </r>
       <r>  -30.4592    1.0000 </r>
       <r>  -30.4482    1.0000 </r>
       <r>  -30.4396    1.0000 </r>
       <r>  -30.4335    1.0000 </r>
       <r>  -30.4258    1.0000 </r>
       <r>  -30.4064    1.0000 </r>
       <r>  -30.4023    1.0000 </r>
       <r>  -30.3957    1.0000 </r>
       <r>  -30.3926    1.0000 </r>
       <r>  -30.3805    1.0000 </r>
       <r>  -30.3683    1.0000 </r>
       <r>  -30.3632    1.0000 </r>
       <r>  -30.3600    1.0000 </r>
       <r>  -30.3507    1.0000 </r>
       <r>  -30.3404    1.0000 </r>
       <r>  -30.3351    1.0000 </r>
       <r>  -30.3298    1.0000 </r>
       <r>  -30.3266    1.0000 </r>
       <r>  -30.3229    1.0000 </r>
       <r>  -30.3152    1.0000 </r>
       <r>  -30.3123    1.0000 </r>
       <r>  -30.3014    1.0000 </r>
       <r>  -30.2918    1.0000 </r>
       <r>  -30.2866    1.0000 </r>
       <r>  -30.2818    1.0000 </r>
       <r>  -30.2729    1.0000 </r>
       <r>  -30.2652    1.0000 </r>
       <r>  -30.2623    1.0000 </r>
       <r>  -30.2571    1.0000 </r>
       <r>  -30.2470    1.0000 </r>
       <r>  -30.2437    1.0000 </r>
       <r>  -30.2365    1.0000 </r>
       <r>  -30.2245    1.0000 </r>
       <r>  -30.2190    1.0000 </r>
       <r>  -30.2142    1.0000 </r>
       <r>  -30.2093    1.0000 </r>
       <r>  -30.1967    1.0000 </r>
       <r>  -30.1898    1.0000 </r>
       <r>  -30.1788    1.0000 </r>
       <r>  -30.1709    1.0000 </r>
       <r>  -30.1599    1.0000 </r>
       <r>  -30.1536    1.0000 </r>
       <r>  -30.1489    1.0000 </r>
       <r>  -30.1346    1.0000 </r>
       <r>  -30.1252    1.0000 </r>
       <r>  -30.1189    1.0000 </r>
       <r>  -30.1063    1.0000 </r>
       <r>  -30.1007    1.0000 </r>
       <r>  -30.0933    1.0000 </r>
       <r>  -30.0900    1.0000 </r>
       <r>  -30.0823    1.0000 </r>
       <r>  -30.0745    1.0000 </r>
       <r>  -30.0676    1.0000 </r>
       <r>  -30.0586    1.0000 </r>
       <r>  -30.0441    1.0000 </r>
       <r>  -30.0343    1.0000 </r>
       <r>  -30.0213    1.0000 </r>
       <r>  -30.0134    1.0000 </r>
       <r>  -30.0070    1.0000 </r>
       <r>  -30.0041    1.0000 </r>
       <r>  -30.0023    1.0000 </r>
       <r>  -29.9981    1.0000 </r>
       <r>  -29.9949    1.0000 </r>
       <r>  -29.9835    1.0000 </r>
       <r>  -29.9780    1.0000 </r>
       <r>  -29.9731    1.0000 </r>
       <r>  -29.9702    1.0000 </r>
       <r>  -29.9587    1.0000 </r>
       <r>  -29.9538    1.0000 </r>
       <r>  -29.9504    1.0000 </r>
       <r>  -29.9478    1.0000 </r>
       <r>  -29.9380    1.0000 </r>
       <r>  -29.9315    1.0000 </r>
       <r>  -29.9289    1.0000 </r>
       <r>  -29.9177    1.0000 </r>
       <r>  -29.9070    1.0000 </r>
       <r>  -29.9018    1.0000 </r>
       <r>  -29.8792    1.0000 </r>
       <r>  -29.8712    1.0000 </r>
       <r>  -29.8632    1.0000 </r>
       <r>  -29.8511    1.0000 </r>
       <r>  -29.8456    1.0000 </r>
       <r>  -29.8414    1.0000 </r>
       <r>  -29.8335    1.0000 </r>
       <r>  -29.8327    1.0000 </r>
       <r>  -29.8285    1.0000 </r>
       <r>  -29.8201    1.0000 </r>
       <r>  -29.7967    1.0000 </r>
       <r>  -29.7680    1.0000 </r>
       <r>  -18.7853    1.0000 </r>
       <r>  -18.7608    1.0000 </r>
       <r>  -18.6313    1.0000 </r>
       <r>  -18.5840    1.0000 </r>
       <r>  -18.5676    1.0000 </r>
       <r>  -18.4977    1.0000 </r>
       <r>  -18.4150    1.0000 </r>
       <r>  -18.3721    1.0000 </r>
       <r>  -18.2681    1.0000 </r>
       <r>  -18.2632    1.0000 </r>
       <r>  -18.2161    1.0000 </r>
       <r>  -18.1279    1.0000 </r>
       <r>  -18.1092    1.0000 </r>
       <r>  -18.0526    1.0000 </r>
       <r>  -18.0387    1.0000 </r>
       <r>  -17.9919    1.0000 </r>
       <r>  -17.9622    1.0000 </r>
       <r>  -17.8903    1.0000 </r>
       <r>  -17.8770    1.0000 </r>
       <r>  -17.8547    1.0000 </r>
       <r>  -17.8160    1.0000 </r>
       <r>  -17.7604    1.0000 </r>
       <r>  -17.7102    1.0000 </r>
       <r>  -17.6549    1.0000 </r>
       <r>  -17.6427    1.0000 </r>
       <r>  -17.6129    1.0000 </r>
       <r>  -17.6083    1.0000 </r>
       <r>  -17.5152    1.0000 </r>
       <r>  -17.5023    1.0000 </r>
[...]
       <r>   -32.4319     0.0000    64.0000 </r>
       <r>   -32.2381     0.0000    64.0000 </r>
       <r>   -32.0443     0.0000    64.0000 </r>
       <r>   -31.8505     0.0000    64.0000 </r>
       <r>   -31.6567     0.0000    64.0000 </r>
       <r>   -31.4629     0.0000    64.0000 </r>
       <r>   -31.2691     0.0000    64.0000 </r>
       <r>   -31.0753     0.0000    64.0000 </r>
       <r>   -30.8815     0.0000    64.0000 </r>
       <r>   -30.6877     0.0979    64.0190 </r>
       <r>   -30.4939    56.9188    75.0499 </r>
       <r>   -30.3001   237.0950   120.9991 </r>
       <r>   -30.1063   264.4311   172.2460 </r>
       <r>   -29.9125   280.8992   226.6845 </r>
       <r>   -29.7187   150.2304   255.7992 </r>
       <r>   -29.5249     1.0359   256.0000 </r>
       <r>   -29.3311     0.0000   256.0000 </r>
       <r>   -29.1373     0.0000   256.0000 </r>
       <r>   -28.9435     0.0000   256.0000 </r>
       <r>   -28.7496     0.0000   256.0000 </r>
       <r>   -28.5558     0.0000   256.0000 </r>
       <r>   -28.3620     0.0000   256.0000 </r>
       <r>   -28.1682     0.0000   256.0000 </r>
       <r>   -27.9744     0.0000   256.0000 </r>
       <r>   -27.7806     0.0000   256.0000 </r>
       <r>   -27.5868     0.0000   256.0000 </r>
       <r>   -27.3930     0.0000   256.0000 </r>
       <r>   -27.1992     0.0000   256.0000 </r>
       <r>   -27.0054     0.0000   256.0000 </r>
       <r>   -26.8116     0.0000   256.0000 </r>
       <r>   -26.6178     0.0000   256.0000 </r>
       <r>   -26.4240     0.0000   256.0000 </r>
       <r>   -26.2302     0.0000   256.0000 </r>
       <r>   -26.0364     0.0000   256.0000 </r>
       <r>   -25.8426     0.0000   256.0000 </r>
       <r>   -25.6488     0.0000   256.0000 </r>
       <r>   -25.4550     0.0000   256.0000 </r>
       <r>   -25.2612     0.0000   256.0000 </r>
       <r>   -25.0674     0.0000   256.0000 </r>
       <r>   -24.8736     0.0000   256.0000 </r>
       <r>   -24.6798     0.0000   256.0000 </r>
       <r>   -24.4860     0.0000   256.0000 </r>
       <r>   -24.2922     0.0000   256.0000 </r>
       <r>   -24.0984     0.0000   256.0000 </r>
       <r>   -23.9046     0.0000   256.0000 </r>
       <r>   -23.7108     0.0000   256.0000 </r>
       <r>   -23.5170     0.0000   256.0000 </r>
       <r>   -23.3232     0.0000   256.0000 </r>
       <r>   -23.1294     0.0000   256.0000 </r>
       <r>   -22.9356     0.0000   256.0000 </r>
       <r>   -22.7418     0.0000   256.0000 </r>
       <r>   -22.5480     0.0000   256.0000 </r>
       <r>   -22.3542     0.0000   256.0000 </r>
       <r>   -22.1604     0.0000   256.0000 </r>
       <r>   -21.9666     0.0000   256.0000 </r>
       <r>   -21.7728     0.0000   256.0000 </r>
       <r>   -21.5790     0.0000   256.0000 </r>
       <r>   -21.3852     0.0000   256.0000 </r>
       <r>   -21.1914     0.0000   256.0000 </r>
       <r>   -20.9976     0.0000   256.0000 </r>
       <r>   -20.8038     0.0000   256.0000 </r>
       <r>   -20.6100     0.0000   256.0000 </r>
       <r>   -20.4162     0.0000   256.0000 </r>
       <r>   -20.2224     0.0000   256.0000 </r>
       <r>   -20.0286     0.0000   256.0000 </r>
       <r>   -19.8348     0.0000   256.0000 </r>
       <r>   -19.6410     0.0000   256.0000 </r>
       <r>   -19.4472     0.0000   256.0000 </r>
       <r>   -19.2534     0.0000   256.0000 </r>
       <r>   -19.0596     0.0000   256.0000 </r>
       <r>   -18.8658     0.1043   256.0202 </r>
       <r>   -18.6720    23.2636   260.5287 </r>
       <r>   -18.4782    35.8200   267.4707 </r>
       <r>   -18.2844    29.9823   273.2812 </r>
       <r>   -18.0906    43.1117   281.6363 </r>
       <r>   -17.8968    52.2807   291.7684 </r>
       <r>   -17.7030    49.9647   301.4516 </r>
       <r>   -17.5092    58.8675   312.8601 </r>
       <r>   -17.3154    23.0903   317.3351 </r>
       <r>   -17.1216     5.4971   318.4004 </r>
       <r>   -16.9278     8.2538   320.0000 </r>
       <r>   -16.7340     0.0000   320.0000 </r>
       <r>   -16.5402     0.0000   320.0000 </r>
       <r>   -16.3464     0.0000   320.0000 </r>
       <r>   -16.1526     0.0000   320.0000 </r>
       <r>   -15.9588     0.0000   320.0000 </r>
       <r>   -15.7650     0.0000   320.0000 </r>
       <r>   -15.5712     0.0000   320.0000 </r>
       <r>   -15.3774     0.0000   320.0000 </r>
       <r>   -15.1836     0.0000   320.0000 </r>
       <r>   -14.9898     0.0000   320.0000 </r>
       <r>   -14.7960     0.0000   320.0000 </r>
       <r>   -14.6022     0.0000   320.0000 </r>
       <r>   -14.4084     0.0000   320.0000 </r>
       <r>   -14.2146     0.0000   320.0000 </r>
       <r>   -14.0208     0.0000   320.0000 </r>
       <r>   -13.8270     0.0000   320.0000 </r>
       <r>   -13.6332     0.0000   320.0000 </r>
       <r>   -13.4394     0.0000   320.0000 </r>
       <r>   -13.2456     0.0000   320.0000 </r>
       <r>   -13.0518     0.0000   320.0000 </r>
       <r>   -12.8580     0.0000   320.0000 </r>
       <r>   -12.6642     0.0000   320.0000 </r>
       <r>   -12.4704     0.0000   320.0000 </r>
       <r>   -12.2766     0.0000   320.0000 </r>
       <r>   -12.0828     0.0000   320.0000 </r>
       <r>   -11.8890     0.0783   320.0152 </r>
       <r>   -11.6952    10.4089   322.0324 </r>
       <r>   -11.5014    14.5917   324.8603 </r>
       <r>   -11.3076    22.5414   329.2289 </r>
       <r>   -11.1138    23.9776   333.8757 </r>
       <r>   -10.9200    32.9215   340.2559 </r>
       <r>   -10.7262    46.1936   349.2083 </r>
       <r>   -10.5324    14.4044   351.9999 </r>
       <r>   -10.3386     0.0006   352.0000 </r>
       <r>   -10.1448     0.0000   352.0000 </r>
       <r>    -9.9510     0.0000   352.0000 </r>
       <r>    -9.7572     0.0000   352.0000 </r>
       <r>    -9.5634     0.0000   352.0000 </r>
       <r>    -9.3696     0.0000   352.0000 </r>
       <r>    -9.1758     0.0000   352.0000 </r>
       <r>    -8.9820     0.0000   352.0000 </r>
       <r>    -8.7882     0.0000   352.0000 </r>
       <r>    -8.5944     0.0000   352.0000 </r>
       <r>    -8.4006     0.0000   352.0000 </r>
       <r>    -8.2068     0.0176   352.0034 </r>
       <r>    -8.0130    18.3083   355.5516 </r>
       <r>    -7.8192    32.2719   361.8059 </r>
       <r>    -7.6254    47.3388   370.9802 </r>
       <r>    -7.4316    52.4045   381.1362 </r>
       <r>    -7.2378    62.4646   393.2419 </r>
       <r>    -7.0440    68.6901   406.5541 </r>
       <r>    -6.8502    67.0889   419.5560 </r>
       <r>    -6.6564    91.8336   437.3534 </r>
       <r>    -6.4626    91.3425   455.0556 </r>
       <r>    -6.2688   103.4234   475.0992 </r>
       <r>    -6.0750    70.2186   488.7076 </r>
       <r>    -5.8812    56.6994   499.6960 </r>
       <r>    -5.6874    58.3416   511.0026 </r>
       <r>    -5.4936    50.3548   520.7614 </r>
       <r>    -5.2998    42.4290   528.9842 </r>
       <r>    -5.1060    37.7617   536.3024 </r>
       <r>    -4.9122    37.9146   543.6503 </r>
       <r>    -4.7184    37.8955   550.9945 </r>
       <r>    -4.5246    44.6795   559.6534 </r>
       <r>    -4.3308    28.4405   565.1652 </r>
       <r>    -4.1370    40.0902   572.9347 </r>
       <r>    -3.9432    53.0831   583.2222 </r>
       <r>    -3.7494    71.2725   597.0349 </r>
       <r>    -3.5556    77.9413   612.1400 </r>
       <r>    -3.3618    58.5188   623.4810 </r>
       <r>    -3.1680    44.1304   632.0335 </r>
       <r>    -2.9742    33.5145   638.5286 </r>
       <r>    -2.7804     7.5913   639.9998 </r>
       <r>    -2.5866     0.0010   640.0000 </r>
       <r>    -2.3928     0.0000   640.0000 </r>
       <r>    -2.1990     0.0172   640.0033 </r>
       <r>    -2.0052     9.0568   641.7585 </r>
       <r>    -1.8114    13.0387   644.2855 </r>
       <r>    -1.6175    20.0472   648.1706 </r>
       <r>    -1.4237    18.1055   651.6795 </r>
       <r>    -1.2299    21.9698   655.9372 </r>
       <r>    -1.0361    28.4582   661.4524 </r>
       <r>    -0.8423    18.0188   664.9445 </r>
       <r>    -0.6485    24.2273   669.6398 </r>
       <r>    -0.4547    38.4652   677.0944 </r>
       <r>    -0.2609    34.8869   683.8555 </r>
       <r>    -0.0671    34.4731   690.5364 </r>
       <r>     0.1267    30.5781   696.4624 </r>
       <r>     0.3205    47.4248   705.6534 </r>
       <r>     0.5143    71.4828   719.5068 </r>
       <r>     0.7081   110.7872   740.9775 </r>
       <r>     0.9019   115.5914   763.3791 </r>
       <r>     1.0957    23.8426   767.9999 </r>
       <r>     1.2895     0.0008   768.0000 </r>
       <r>     1.4833     0.0000   768.0000 </r>
       <r>     1.6771     0.0000   768.0000 </r>
       <r>     1.8709     0.0000   768.0000 </r>
       <r>     2.0647     0.0000   768.0000 </r>
       <r>     2.2585     0.0000   768.0000 </r>
       <r>     2.4523     0.0000   768.0000 </r>
       <r>     2.6461     0.0000   768.0000 </r>
       <r>     2.8399     0.0000   768.0000 </r>
       <r>     3.0337     0.0000   768.0000 </r>
       <r>     3.2275     0.0000   768.0000 </r>
       <r>     3.4213     0.0000   768.0000 </r>
       <r>     3.6151     0.0000   768.0000 </r>
      </set>
     </set>
    </array>
   </total>
  </dos>
 </calculation>
 <structure name="finalpos" >
  <crystal>
   <varray name="basis" >
    <v>      13.79398668       0.00000000       0.00000000 </v>
    <v>      -6.89699334      11.94594288       0.00000000 </v>
    <v>       0.00000000       0.00000000      27.81022107 </v>
   </varray>
   <i name="volume">   4582.62876984 </i>
   <varray name="rec_basis" >
    <v>       0.07249536       0.04185521       0.00000000 </v>
    <v>       0.00000000       0.08371043       0.00000000 </v>
    <v>       0.00000000       0.00000000       0.03595800 </v>
   </varray>
  </crystal>
  <varray name="positions" >
   <v>       0.08898705       0.16696541       0.54291739 </v>
   <v>       0.09431515       0.42656284       0.54971491 </v>
   <v>       0.08751641       0.66371654       0.54527893 </v>
   <v>       0.09220389       0.91563473       0.54769319 </v>
   <v>       0.34188756       0.16734544       0.54768534 </v>
   <v>       0.33970963       0.42079567       0.54695305 </v>
   <v>       0.34261465       0.66641756       0.54549766 </v>
   <v>       0.32759236       0.91210775       0.54367485 </v>
   <v>       0.57731748       0.16605395       0.54472518 </v>
   <v>       0.57846794       0.41311952       0.54804931 </v>
   <v>       0.59267434       0.67053462       0.54817302 </v>
   <v>       0.58067231       0.91729534       0.54537952 </v>
   <v>       0.82901101       0.16944665       0.54736406 </v>
   <v>       0.83545990       0.42230555       0.54279899 </v>
   <v>       0.83873549       0.66660123       0.54819413 </v>
   <v>       0.83858493       0.91788514       0.54123825 </v>
   <v>       0.17061083       0.07799873       0.45987324 </v>
   <v>       0.16263325       0.31945497       0.45494272 </v>
   <v>       0.16523953       0.57778435       0.45469432 </v>
   <v>       0.16595453       0.84082523       0.45750508 </v>
   <v>       0.42241461       0.09139019       0.45673342 </v>
   <v>       0.41105210       0.33964830       0.45327302 </v>
   <v>       0.41845199       0.58902630       0.45664202 </v>
   <v>       0.41287467       0.83710401       0.45252276 </v>
   <v>       0.66991203       0.08596581       0.45515398 </v>
   <v>       0.65289364       0.33394280       0.45076150 </v>
   <v>       0.66722154       0.58157456       0.45856279 </v>
   <v>       0.66313247       0.82398532       0.45862954 </v>
   <v>       0.91044631       0.07805961       0.45171860 </v>
   <v>       0.92371521       0.33905886       0.45438412 </v>
   <v>       0.91845627       0.58234241       0.45134834 </v>
   <v>       0.92695718       0.82713256       0.44948874 </v>
   <v>       0.07874112       0.16022268       0.39075286 </v>
   <v>       0.07542927       0.39217662       0.39162801 </v>
   <v>       0.09581298       0.66766177       0.39026873 </v>
   <v>       0.07116128       0.90898929       0.38401671 </v>
   <v>       0.31554296       0.15400360       0.39087770 </v>
   <v>       0.33635775       0.42764595       0.40258638 </v>
   <v>       0.32730129       0.65387726       0.39241810 </v>
   <v>       0.32502062       0.91611612       0.40255112 </v>
   <v>       0.60065644       0.18269704       0.39534288 </v>
   <v>       0.57760837       0.41911095       0.38698228 </v>
   <v>       0.58670658       0.67594625       0.39660887 </v>
   <v>       0.57006612       0.92711579       0.39252401 </v>
   <v>       0.81807426       0.17166107       0.38749471 </v>
   <v>       0.84113818       0.43329410       0.39452897 </v>
   <v>       0.83041273       0.65955723       0.39244940 </v>
   <v>       0.81683050       0.91462594       0.38339782 </v>
   <v>       0.15665429       0.07174584       0.60414231 </v>
   <v>       0.16651999       0.34104318       0.60014255 </v>
   <v>       0.18097574       0.60238991       0.60581400 </v>
   <v>       0.16516667       0.82666112       0.60419251 </v>
   <v>       0.39650862       0.05917575       0.60227742 </v>
   <v>       0.42565531       0.33075240       0.60595320 </v>
   <v>       0.41876593       0.56808194       0.61020646 </v>
   <v>       0.41706234       0.81910078       0.59996696 </v>
   <v>       0.64968061       0.07901102       0.60447152 </v>
   <v>       0.67177004       0.33503819       0.60741191 </v>
   <v>       0.67898669       0.59813881       0.60833966 </v>
   <v>       0.64898571       0.83348415       0.61376224 </v>
   <v>       0.92236112       0.08507380       0.60650022 </v>
   <v>       0.91897375       0.32492923       0.61246588 </v>
   <v>       0.91661004       0.59254408       0.61332378 </v>
   <v>       0.92895933       0.84844375       0.60640201 </v>
   <v>       0.00267610       0.99091872       0.49854984 </v>
   <v>       0.00886663       0.24997785       0.49713353 </v>
   <v>       0.99158605       0.50229995       0.49806877 </v>
   <v>       0.00996537       0.75537503       0.50072881 </v>
   <v>       0.24367153       0.99416734       0.50219670 </v>
   <v>       0.26312256       0.25953296       0.50133672 </v>
   <v>       0.25313904       0.50224260       0.50590899 </v>
   <v>       0.24644302       0.74836707       0.50330023 </v>
   <v>       0.49399180       0.00331531       0.49694619 </v>
   <v>       0.50850533       0.26296100       0.50232119 </v>
   <v>       0.50434434       0.51823351       0.50282398 </v>
   <v>       0.50297093       0.75480334       0.49739069 </v>
   <v>       0.75771197       0.00258202       0.50302905 </v>
   <v>       0.74958016       0.24955885       0.50115607 </v>
   <v>       0.73753586       0.48787380       0.50222582 </v>
   <v>       0.75242798       0.74563839       0.50318694 </v>
  </varray>
  <varray name="velocities" >
   <v>       0.00000000       0.00000000       0.00000000 </v>
   <v>       0.00000000       0.00000000       0.00000000 </v>
   <v>       0.00000000       0.00000000       0.00000000 </v>
   <v>       0.00000000       0.00000000       0.00000000 </v>
   <v>       0.00000000       0.00000000       0.00000000 </v>
   <v>       0.00000000       0.00000000       0.00000000 </v>
   <v>       0.00000000       0.00000000       0.00000000 </v>
   <v>       0.00000000       0.00000000       0.00000000 </v>
   <v>       0.00000000       0.00000000       0.00000000 </v>
   <v>       0.00000000       0.00000000       0.00000000 </v>
   <v>       0.00000000       0.00000000       0.00000000 </v>
   <v>       0.00000000       0.00000000       0.00000000 </v>
   <v>       0.00000000       0.00000000       0.00000000 </v>
   <v>       0.00000000       0.00000000       0.00000000 </v>
   <v>       0.00000000       0.00000000       0.00000000 </v>
   <v>       0.00000000       0.00000000       0.00000000 </v>
   <v>       0.00000000       0.00000000       0.00000000 </v>
   <v>       0.00000000       0.00000000       0.00000000 </v>
   <v>       0.00000000       0.00000000       0.00000000 </v>
   <v>       0.00000000       0.00000000       0.00000000 </v>
   <v>       0.00000000       0.00000000       0.00000000 </v>
   <v>       0.00000000       0.00000000       0.00000000 </v>
   <v>       0.00000000       0.00000000       0.00000000 </v>
   <v>       0.00000000       0.00000000       0.00000000 </v>
   <v>       0.00000000       0.00000000       0.00000000 </v>
   <v>       0.00000000       0.00000000       0.00000000 </v>
   <v>       0.00000000       0.00000000       0.00000000 </v>
   <v>       0.00000000       0.00000000       0.00000000 </v>
   <v>       0.00000000       0.00000000       0.00000000 </v>
   <v>       0.00000000       0.00000000       0.00000000 </v>
   <v>       0.00000000       0.00000000       0.00000000 </v>
   <v>       0.00000000       0.00000000       0.00000000 </v>
   <v>       0.00000000       0.00000000       0.00000000 </v>
   <v>       0.00000000       0.00000000       0.00000000 </v>
   <v>       0.00000000       0.00000000       0.00000000 </v>
   <v>       0.00000000       0.00000000       0.00000000 </v>
   <v>       0.00000000       0.00000000       0.00000000 </v>
   <v>       0.00000000       0.00000000       0.00000000 </v>
   <v>       0.00000000       0.00000000       0.00000000 </v>
   <v>       0.00000000       0.00000000       0.00000000 </v>
   <v>       0.00000000       0.00000000       0.00000000 </v>
   <v>       0.00000000       0.00000000       0.00000000 </v>
   <v>       0.00000000       0.00000000       0.00000000 </v>
   <v>       0.00000000       0.00000000       0.00000000 </v>
   <v>       0.00000000       0.00000000       0.00000000 </v>
   <v>       0.00000000       0.00000000       0.00000000 </v>
   <v>       0.00000000       0.00000000       0.00000000 </v>
   <v>       0.00000000       0.00000000       0.00000000 </v>
   <v>       0.00000000       0.00000000       0.00000000 </v>
   <v>       0.00000000       0.00000000       0.00000000 </v>
   <v>       0.00000000       0.00000000       0.00000000 </v>
   <v>       0.00000000       0.00000000       0.00000000 </v>
   <v>       0.00000000       0.00000000       0.00000000 </v>
   <v>       0.00000000       0.00000000       0.00000000 </v>
   <v>       0.00000000       0.00000000       0.00000000 </v>
   <v>       0.00000000       0.00000000       0.00000000 </v>
   <v>       0.00000000       0.00000000       0.00000000 </v>
   <v>       0.00000000       0.00000000       0.00000000 </v>
   <v>       0.00000000       0.00000000       0.00000000 </v>
   <v>       0.00000000       0.00000000       0.00000000 </v>
   <v>       0.00000000       0.00000000       0.00000000 </v>
   <v>       0.00000000       0.00000000       0.00000000 </v>
   <v>       0.00000000       0.00000000       0.00000000 </v>
   <v>       0.00000000       0.00000000       0.00000000 </v>
   <v>       0.00000000       0.00000000       0.00000000 </v>
   <v>       0.00000000       0.00000000       0.00000000 </v>
   <v>       0.00000000       0.00000000       0.00000000 </v>
   <v>       0.00000000       0.00000000       0.00000000 </v>
   <v>       0.00000000       0.00000000       0.00000000 </v>
   <v>       0.00000000       0.00000000       0.00000000 </v>
   <v>       0.00000000       0.00000000       0.00000000 </v>
   <v>       0.00000000       0.00000000       0.00000000 </v>
   <v>       0.00000000       0.00000000       0.00000000 </v>
   <v>       0.00000000       0.00000000       0.00000000 </v>
   <v>       0.00000000       0.00000000       0.00000000 </v>
   <v>       0.00000000       0.00000000       0.00000000 </v>
   <v>       0.00000000       0.00000000       0.00000000 </v>
   <v>       0.00000000       0.00000000       0.00000000 </v>
   <v>       0.00000000       0.00000000       0.00000000 </v>
   <v>       0.00000000       0.00000000       0.00000000 </v>
  </varray>
 </structure>
</modeling>
