 vasp.5.4.4.18Apr17-6-g9f103f2a35 (build Oct 31 2019 15:01:46) complex          
  
 executed on             LinuxIFC date 2024.04.29  00:12:58
 running on   52 total cores
 distrk:  each k-point on   52 cores,    1 groups
 distr:  one band on NCORES_PER_BAND=  13 cores,    4 groups


--------------------------------------------------------------------------------------------------------


 INCAR:
 POTCAR:    PAW_PBE Ca_sv 06Sep2000               
 POTCAR:    PAW_PBE Si 05Jan2001                  
 POTCAR:    PAW_PBE O 08Apr2002                   
 POTCAR:    PAW_PBE Ca_sv 06Sep2000               
   SHA256 =  a47365830e737f14e0e6c5cf1ed81b94e081eecf0a33df105380881bc9da05d5 Ca
   COPYR  = (c) Copyright 06Sep2000 Georg Kresse                                
   COPYR  = This file is part of the software VASP. Any use, copying, and all ot
   COPYR  = If you do not have a valid VASP license, you may not use, copy or di
   VRHFIN =Ca: 3s3p4s                                                           
   LEXCH  = PE                                                                  
   EATOM  =  1006.0909 eV,   73.9456 Ry                                         
                                                                                
   TITEL  = PAW_PBE Ca_sv 06Sep2000                                             
   LULTRA =        F    use ultrasoft PP ?                                      
   IUNSCR =        1    unscreen: 0-lin 1-nonlin 2-no                           
   RPACOR =    2.000    partial core radius                                     
   POMASS =   40.078; ZVAL   =   10.000    mass and valenz                      
   RCORE  =    2.300    outmost cutoff radius                                   
   RWIGS  =    2.500; RWIGS  =    1.323    wigner-seitz radius (au A)           
   ENMAX  =  266.622; ENMIN  =  199.967 eV                                      
   RCLOC  =    1.808    cutoff for local pot                                    
   LCOR   =        T    correct aug charges                                     
   LPAW   =        T    paw PP                                                  
   EAUG   =  420.852                                                            
   RMAX   =    2.359    core radius for proj-oper                               
   RAUG   =    1.300    factor for augmentation sphere                          
   RDEP   =    2.392    radius for radial grids                                 
   RDEPT  =    1.987    core radius for aug-charge                              
                                                                                
   Atomic configuration                                                         
    7 entries                                                                   
     n  l   j            E        occ.                                          
     1  0  0.50     -3949.1705   2.0000                                         
     2  0  0.50      -414.3434   2.0000                                         
     2  1  1.50      -334.7047   6.0000                                         
     3  0  0.50       -47.0896   2.0000                                         
     4  0  0.50        -3.7663   2.0000                                         
     3  1  1.50       -28.0061   6.0000                                         
     3  2  1.50        -4.0817   0.0000                                         
   Description                                                                  
     l       E           TYP  RCUT    TYP  RCUT                                 
     0    -47.0896403     23  2.300                                             
     0     -3.7663320     23  2.300                                             
     1    -28.0060855     23  2.300                                             
     1      6.8029130     23  2.300                                             
     2     -4.0817478     23  2.300                                             
     2      0.4464412     23  2.300                                             
  local pseudopotential read in
  partial core-charges read in
  partial kinetic energy density read in
  atomic valenz-charges read in
  non local Contribution for L=           0  read in
    real space projection operators read in
  non local Contribution for L=           0  read in
    real space projection operators read in
  non local Contribution for L=           1  read in
    real space projection operators read in
  non local Contribution for L=           1  read in
    real space projection operators read in
  non local Contribution for L=           2  read in
    real space projection operators read in
  non local Contribution for L=           2  read in
    real space projection operators read in
    PAW grid and wavefunctions read in
 
   number of l-projection  operators is LMAX  =           6
   number of lm-projection operators is LMMAX =          18
 
 POTCAR:    PAW_PBE Si 05Jan2001                  
   SHA256 =  79d9987ad8750f624c4d6acb2a16d13abf6a777132adc04dc6c8399be72b42bb Si
   COPYR  = (c) Copyright 05Jan2001 Georg Kresse                                
   COPYR  = This file is part of the software VASP. Any use, copying, and all ot
   COPYR  = If you do not have a valid VASP license, you may not use, copy or di
   VRHFIN =Si: s2p2                                                             
   LEXCH  = PE                                                                  
   EATOM  =   103.0669 eV,    7.5752 Ry                                         
                                                                                
   TITEL  = PAW_PBE Si 05Jan2001                                                
   LULTRA =        F    use ultrasoft PP ?                                      
   IUNSCR =        1    unscreen: 0-lin 1-nonlin 2-no                           
   RPACOR =    1.500    partial core radius                                     
   POMASS =   28.085; ZVAL   =    4.000    mass and valenz                      
   RCORE  =    1.900    outmost cutoff radius                                   
   RWIGS  =    2.480; RWIGS  =    1.312    wigner-seitz radius (au A)           
   ENMAX  =  245.345; ENMIN  =  184.009 eV                                      
   ICORE  =        2    local potential                                         
   LCOR   =        T    correct aug charges                                     
   LPAW   =        T    paw PP                                                  
   EAUG   =  322.069                                                            
   DEXC   =    0.000                                                            
   RMAX   =    1.950    core radius for proj-oper                               
   RAUG   =    1.300    factor for augmentation sphere                          
   RDEP   =    1.993    radius for radial grids                                 
   RDEPT  =    1.837    core radius for aug-charge                              
                                                                                
   Atomic configuration                                                         
    6 entries                                                                   
     n  l   j            E        occ.                                          
     1  0  0.50     -1785.8828   2.0000                                         
     2  0  0.50      -139.4969   2.0000                                         
     2  1  1.50       -95.5546   6.0000                                         
     3  0  0.50       -10.8127   2.0000                                         
     3  1  0.50        -4.0811   2.0000                                         
     3  2  1.50        -4.0817   0.0000                                         
   Description                                                                  
     l       E           TYP  RCUT    TYP  RCUT                                 
     0    -10.8127223     23  1.900                                             
     0     -7.6451159     23  1.900                                             
     1     -4.0811372     23  1.900                                             
     1      2.4879257     23  1.900                                             
     2     -4.0817478      7  1.900                                             
  local pseudopotential read in
  partial core-charges read in
  partial kinetic energy density read in
  atomic valenz-charges read in
  non local Contribution for L=           0  read in
    real space projection operators read in
  non local Contribution for L=           0  read in
    real space projection operators read in
  non local Contribution for L=           1  read in
    real space projection operators read in
  non local Contribution for L=           1  read in
    real space projection operators read in
    PAW grid and wavefunctions read in
 
   number of l-projection  operators is LMAX  =           4
   number of lm-projection operators is LMMAX =           8
 
 POTCAR:    PAW_PBE O 08Apr2002                   
   SHA256 =  818f92134a0a090dccd8ba1447fa70422a3b330e708bb4f08108d8ae51209ddf O/
   COPYR  = (c) Copyright 08Apr2002 Georg Kresse                                
   COPYR  = This file is part of the software VASP. Any use, copying, and all ot
   COPYR  = If you do not have a valid VASP license, you may not use, copy or di
   VRHFIN =O: s2p4                                                              
   LEXCH  = PE                                                                  
   EATOM  =   432.3788 eV,   31.7789 Ry                                         
                                                                                
   TITEL  = PAW_PBE O 08Apr2002                                                 
   LULTRA =        F    use ultrasoft PP ?                                      
   IUNSCR =        1    unscreen: 0-lin 1-nonlin 2-no                           
   RPACOR =    1.200    partial core radius                                     
   POMASS =   16.000; ZVAL   =    6.000    mass and valenz                      
   RCORE  =    1.520    outmost cutoff radius                                   
   RWIGS  =    1.550; RWIGS  =    0.820    wigner-seitz radius (au A)           
   ENMAX  =  400.000; ENMIN  =  300.000 eV                                      
   ICORE  =        2    local potential                                         
   LCOR   =        T    correct aug charges                                     
   LPAW   =        T    paw PP                                                  
   EAUG   =  605.392                                                            
   DEXC   =    0.000                                                            
   RMAX   =    1.553    core radius for proj-oper                               
   RAUG   =    1.300    factor for augmentation sphere                          
   RDEP   =    1.550    radius for radial grids                                 
   RDEPT  =    1.329    core radius for aug-charge                              
                                                                                
   Atomic configuration                                                         
    4 entries                                                                   
     n  l   j            E        occ.                                          
     1  0  0.50      -514.6923   2.0000                                         
     2  0  0.50       -23.9615   2.0000                                         
     2  1  0.50        -9.0305   4.0000                                         
     3  2  1.50        -9.5241   0.0000                                         
   Description                                                                  
     l       E           TYP  RCUT    TYP  RCUT                                 
     0    -23.9615318     23  1.200                                             
     0     -9.5240782     23  1.200                                             
     1     -9.0304911     23  1.520                                             
     1      8.1634956     23  1.520                                             
     2     -9.5240782      7  1.500                                             
  local pseudopotential read in
  partial core-charges read in
  partial kinetic energy density read in
  kinetic energy density of atom read in
  atomic valenz-charges read in
  non local Contribution for L=           0  read in
    real space projection operators read in
  non local Contribution for L=           0  read in
    real space projection operators read in
  non local Contribution for L=           1  read in
    real space projection operators read in
  non local Contribution for L=           1  read in
    real space projection operators read in
    PAW grid and wavefunctions read in
 
   number of l-projection  operators is LMAX  =           4
   number of lm-projection operators is LMMAX =           8
 
 Optimization of the real space projectors (new method)

 maximal supplied QI-value         = 16.25
 optimisation between [QCUT,QGAM] = [ 12.51, 25.03] = [ 43.85,175.40] Ry 
 Optimized for a Real-space Cutoff    1.47 Angstroem

   l    n(q)    QCUT    max X(q) W(low)/X(q) W(high)/X(q)  e(spline) 
   0     11    12.514    11.817    0.25E-04    0.32E-05    0.87E-07
   0     11    12.514     8.461    0.39E-04    0.59E-05    0.18E-06
   1     11    12.514     3.957    0.97E-05    0.57E-05    0.28E-07
   1     11    12.514     4.314    0.42E-04    0.14E-04    0.23E-06
   2     10    12.514    14.565    0.79E-04    0.50E-03    0.16E-05
   2     10    12.514    14.552    0.75E-04    0.48E-03    0.15E-05
 Optimization of the real space projectors (new method)

 maximal supplied QI-value         = 19.84
 optimisation between [QCUT,QGAM] = [ 12.50, 25.00] = [ 43.76,175.03] Ry 
 Optimized for a Real-space Cutoff    1.16 Angstroem

   l    n(q)    QCUT    max X(q) W(low)/X(q) W(high)/X(q)  e(spline) 
   0      9    12.501   159.560    0.10E-03    0.83E-04    0.71E-07
   0      9    12.501   115.863    0.99E-04    0.81E-04    0.70E-07
   1      8    12.501    88.339    0.20E-03    0.25E-03    0.76E-07
   1      8    12.501    48.592    0.20E-03    0.24E-03    0.75E-07
 Optimization of the real space projectors (new method)

 maximal supplied QI-value         = 24.76
 optimisation between [QCUT,QGAM] = [ 12.38, 25.00] = [ 42.90,175.06] Ry 
 Optimized for a Real-space Cutoff    1.16 Angstroem

   l    n(q)    QCUT    max X(q) W(low)/X(q) W(high)/X(q)  e(spline) 
   0      9    12.378    20.381    0.16E-03    0.67E-05    0.31E-06
   0      9    12.378    15.268    0.17E-03    0.81E-05    0.33E-06
   1      8    12.378     5.964    0.20E-03    0.16E-03    0.30E-06
   1      8    12.378     5.382    0.18E-03    0.14E-03    0.26E-06
  PAW_PBE Ca_sv 06Sep2000               :
 energy of atom  1       EATOM=-1006.0909
 kinetic energy error for atom=    0.0012 (will be added to EATOM!!)
  PAW_PBE Si 05Jan2001                  :
 energy of atom  2       EATOM= -103.0669
 kinetic energy error for atom=    0.0003 (will be added to EATOM!!)
  PAW_PBE O 08Apr2002                   :
 energy of atom  3       EATOM= -432.3788
 kinetic energy error for atom=    0.0168 (will be added to EATOM!!)
 
 
 POSCAR: Ca Si  O                                
  positions in direct lattice
  No initial velocities read in
 exchange correlation table for  LEXCH =        8
   RHO(1)=    0.500       N(1)  =     2000
   RHO(2)=  100.500       N(2)  =     4000
 


--------------------------------------------------------------------------------------------------------


 ion  position               nearest neighbor table
   1  0.306  0.190  0.200- 125 2.40
   2  0.870  0.456  0.758- 133 1.96  72 2.28 120 2.46
   3  0.083  0.250  0.293- 126 2.12 103 2.27  82 2.33
   4  0.364  0.219  0.889- 125 2.25  75 2.32 124 2.50  46 2.53  45 2.74
   5  0.092  0.303  0.004-  80 2.12
   6  0.936  0.028  0.509-  74 2.15 114 2.30  50 2.75
   7  0.710  0.005  0.830-
   8  0.922  0.609  0.218- 117 1.98  64 2.38 111 2.56  35 2.99
   9  0.061  0.425  0.486-  83 1.93  35 2.64
  10  0.853  0.826  0.074- 128 2.18 105 2.22  37 3.06  32 3.09
  11  0.094  0.967  0.188- 110 2.22 100 2.41 102 2.47  98 2.53  38 2.85  41 3.14
  12  0.658  0.230  0.692-  63 2.07  57 2.43
  13  0.727  0.605  0.973-  92 2.23 111 2.26  93 2.27  77 2.29
  14  0.721  0.511  0.468-  64 2.34  61 2.39  59 2.48  35 2.85
  15  0.534  0.923  0.069- 118 2.01  90 2.28  70 2.29  37 3.13
  16  0.549  0.851  0.593- 135 2.15 116 2.21 112 2.21  86 2.54  53 3.03
  17  0.239  0.886  0.908-  58 2.03  95 2.06 132 2.48  88 2.54  49 2.92  33 3.07
  18  0.221  0.988  0.433-  81 2.19  98 2.44 114 2.49  51 3.08
  19  0.635  0.035  0.301-  68 2.09  36 3.12
  20  0.854  0.170  0.054-  73 2.22
  21  0.093  0.831  0.570-  74 2.33  56 2.37
  22  0.805  0.825  0.523-  99 2.12  74 2.14  86 2.38  53 2.46
  23  0.499  0.597  0.784- 104 2.02  93 2.33 123 2.49  96 2.56  52 2.94  42 3.04
  24  0.264  0.460  0.211- 126 2.02 108 2.47
  25  0.566  0.497  0.188-  87 2.31  29 2.78
  26  0.250  0.667  0.837- 109 2.06 106 2.26  96 2.42  40 3.07
  27  0.228  0.581  0.490- 121 2.17  62 2.27  55 2.38
  28  0.375  0.345  0.414-  94 1.48  85 1.58 113 1.64
  29  0.489  0.626  0.058-  87 1.55  77 1.69  70 2.20  96 2.51  25 2.78
  30  0.669  0.037  0.545- 122 1.57 135 1.58 130 1.58
  31  0.474  0.062  0.749-  79 1.61 112 1.65  57 1.86 131 1.94  49 2.86  47 3.14
  32  0.006  0.946  0.969- 100 1.64  88 1.76 105 1.85 101 2.00  95 2.11  43 2.55  10 3.09
  33  0.155  0.768  0.073- 106 1.69 119 1.80  88 1.86  84 1.88  17 3.07
  34  0.028  0.623  0.637-  72 1.45 121 1.61  56 1.62
  35  0.910  0.490  0.395-  64 1.54  61 1.72  83 1.87  65 1.91   9 2.64  14 2.85   8 2.99
  36  0.629  0.211  0.165-  73 1.66 134 1.71  68 1.86  89 2.27  19 3.12
  37  0.661  0.760  0.154-  91 1.60 128 1.64  92 1.67  70 1.75  10 3.06  48 3.08  15 3.13
  38  0.026  0.801  0.283- 117 1.52 102 1.77 110 1.86 119 1.89  11 2.85
  39  0.929  0.475  0.025- 120 1.58 111 1.71 129 1.76  69 1.92
  40  0.183  0.485  0.736-  62 1.55 107 1.70 109 1.74  26 3.07  54 3.13
  41  0.311  0.931  0.230-  67 1.63  90 1.65  98 1.71  84 2.04  51 3.03  11 3.14
  42  0.644  0.440  0.822- 123 1.53 133 1.56  93 1.60  23 3.04
  43  0.073  0.088  0.878-  80 1.60  95 1.67 101 1.77  97 2.26  32 2.55
  44  0.870  0.336  0.220-  65 1.55  89 1.67  69 1.76  82 1.77
  45  0.439  0.307  0.047- 125 1.61 108 1.63 124 1.87 134 2.00   4 2.74  46 3.11
  46  0.395  0.392  0.847-  75 1.55 104 1.62 124 1.80  71 2.06 123 2.11   4 2.53  45 3.11
  47  0.408  0.241  0.630-  71 1.74  63 1.79 131 1.81  85 1.82  31 3.14
  48  0.607  0.728  0.364-  91 1.67  86 1.68 115 1.71 127 1.94  37 3.08
  49  0.382  0.880  0.757- 132 1.60  58 1.77  60 1.89  79 2.25 112 2.28  52 2.63  31 2.86  17 2.92

  50  0.076  0.161  0.540-  78 1.62 114 1.74  76 1.75 103 1.97  54 2.72   6 2.75
  51  0.353  0.814  0.407-  67 1.60  55 1.74  81 1.85 127 2.04  41 3.03  18 3.08
  52  0.466  0.776  0.889-  96 1.55 118 1.63  58 1.66  60 1.69  49 2.63  23 2.94
  53  0.710  0.708  0.613-  59 1.62 116 1.64  99 1.69  86 2.45  22 2.46  16 3.03
  54  0.109  0.279  0.691-  66 1.62  78 1.74  97 1.76 107 1.87  50 2.72  40 3.13
  55  0.265  0.744  0.461-  51 1.74  27 2.38
  56  0.048  0.723  0.693-  34 1.62  21 2.37
  57  0.574  0.129  0.805-  31 1.86  12 2.43
  58  0.377  0.854  0.881-  52 1.66  49 1.77  17 2.03
  59  0.652  0.609  0.597-  53 1.62  14 2.48
  60  0.472  0.780  0.768-  52 1.69  49 1.89
  61  0.877  0.459  0.510-  35 1.72  14 2.39
  62  0.221  0.533  0.644-  40 1.55  27 2.27
  63  0.532  0.215  0.615-  47 1.79  12 2.07
  64  0.836  0.562  0.357-  35 1.54  14 2.34   8 2.38
  65  0.888  0.379  0.321-  44 1.55  35 1.91
  66  0.033  0.357  0.655-  54 1.62
  67  0.331  0.839  0.299-  51 1.60  41 1.63
  68  0.549  0.144  0.246-  36 1.86  19 2.09
  69  0.855  0.415  0.124-  44 1.76  39 1.92
  70  0.545  0.764  0.106-  37 1.75  29 2.20  15 2.29
  71  0.427  0.324  0.721-  47 1.74  46 2.06
  72  0.980  0.564  0.707-  34 1.45   2 2.28
  73  0.705  0.145  0.103-  36 1.66  20 2.22
  74  0.948  0.875  0.501-  22 2.14   6 2.15  21 2.33
  75  0.298  0.371  0.897-  46 1.55   4 2.32
  76  0.977  0.235  0.521-  50 1.75
  77  0.577  0.556  0.014-  29 1.69  13 2.29
  78  0.159  0.194  0.614-  50 1.62  54 1.74
  79  0.428  0.009  0.840-  31 1.61  49 2.25
  80  0.113  0.161  0.956-  43 1.60   5 2.12
  81  0.317  0.891  0.509-  51 1.85  18 2.19
  82  0.961  0.258  0.181-  44 1.77   3 2.33
  83  0.041  0.494  0.370-  35 1.87   9 1.93
  84  0.234  0.860  0.130-  33 1.88  41 2.04
  85  0.381  0.296  0.515-  28 1.58  47 1.82
  86  0.653  0.778  0.463-  48 1.68  22 2.38  53 2.45  16 2.54
  87  0.433  0.585  0.144-  29 1.55  25 2.31
  88  0.086  0.854  0.999-  32 1.76  33 1.86  17 2.54
  89  0.759  0.305  0.189-  44 1.67  36 2.27
  90  0.414  0.950  0.175-  41 1.65  15 2.28
  91  0.641  0.784  0.264-  37 1.60  48 1.67
  92  0.721  0.662  0.122-  37 1.67  13 2.23
  93  0.649  0.553  0.842-  42 1.60  13 2.27  23 2.33
  94  0.295  0.413  0.419-  28 1.48
  95  0.132  0.986  0.896-  43 1.67  17 2.06  32 2.11
  96  0.404  0.687  0.912-  52 1.55  26 2.42  29 2.51  23 2.56
  97  0.073  0.231  0.802-  54 1.76  43 2.26
  98  0.246  0.028  0.266-  41 1.71  18 2.44  11 2.53
  99  0.829  0.694  0.595-  53 1.69  22 2.12
 100  0.981  0.007  0.065-  32 1.64  11 2.41
 101  0.969  0.021  0.853-  43 1.77  32 2.00
 102  0.946  0.884  0.233-  38 1.77  11 2.47
 103  0.130  0.150  0.411-  50 1.97   3 2.27
 104  0.398  0.507  0.835-  46 1.62  23 2.02
 105  0.881  0.913  0.945-  32 1.85  10 2.22
 106  0.215  0.702  0.991-  33 1.69  26 2.26
 107  0.200  0.364  0.737-  40 1.70  54 1.87
 108  0.379  0.395  0.093-  45 1.63  24 2.47
 109  0.144  0.567  0.820-  40 1.74  26 2.06
 110  0.146  0.858  0.291-  38 1.86  11 2.22
 111  0.869  0.579  0.046-  39 1.71  13 2.26   8 2.56
 112  0.510  0.962  0.699-  31 1.65  16 2.21  49 2.28
 113  0.409  0.327  0.304-  28 1.64
 114  0.095  0.039  0.548-  50 1.74   6 2.30  18 2.49
 115  0.579  0.613  0.337-  48 1.71
 116  0.670  0.796  0.678-  53 1.64  16 2.21
 117  0.981  0.704  0.304-  38 1.52   8 1.98
 118  0.540  0.838  0.953-  52 1.63  15 2.01
 119  0.069  0.750  0.166-  33 1.80  38 1.89
 120  0.934  0.434  0.920-  39 1.58   2 2.46
 121  0.085  0.616  0.538-  34 1.61  27 2.17
 122  0.719  0.117  0.484-  30 1.57
 123  0.537  0.425  0.809-  42 1.53  46 2.11  23 2.49
 124  0.484  0.346  0.927-  46 1.80  45 1.87   4 2.50
 125  0.384  0.206  0.048-  45 1.61   4 2.25   1 2.40
 126  0.182  0.342  0.224-  24 2.02   3 2.12
 127  0.485  0.754  0.424-  48 1.94  51 2.04
 128  0.726  0.857  0.156-  37 1.64  10 2.18
 129  0.046  0.474  0.069-  39 1.76
 130  0.753  0.985  0.599-  30 1.58
 131  0.369  0.139  0.699-  47 1.81  31 1.94
 132  0.271  0.863  0.736-  49 1.60  17 2.48
 133  0.737  0.413  0.767-  42 1.56   2 1.96
 134  0.560  0.303  0.123-  36 1.71  45 2.00
 135  0.580  0.977  0.510-  30 1.58  16 2.15
 

IMPORTANT INFORMATION: All symmetrisations will be switched off!
NOSYMM: (Re-)initialisation of all symmetry stuff for point group C_1.

 
 

Automatic generation of k-mesh.
 generate k-points for:    2    2    2
Space group operators:
 irot       det(A)        alpha          n_x          n_y          n_z        tau_x        tau_y        tau_z
    1     1.000000     0.000000     1.000000     0.000000     0.000000     0.000000     0.000000     0.000000
 
 Subroutine IBZKPT returns following result:
 ===========================================
 
 Found      8 irreducible k-points:
 
 Following reciprocal coordinates:
            Coordinates               Weight
  0.000000  0.000000  0.000000      1.000000
  0.500000  0.000000  0.000000      1.000000
  0.000000  0.500000  0.000000      1.000000
  0.500000  0.500000  0.000000      1.000000
  0.000000  0.000000  0.500000      1.000000
  0.500000  0.000000  0.500000      1.000000
  0.000000  0.500000  0.500000      1.000000
  0.500000  0.500000  0.500000      1.000000
 
 Following cartesian coordinates:
            Coordinates               Weight
  0.000000  0.000000  0.000000      1.000000
  0.035682  0.000000  0.000000      1.000000
  0.000000  0.035682  0.000000      1.000000
  0.035682  0.035682  0.000000      1.000000
  0.000000  0.000000  0.035682      1.000000
  0.035682  0.000000  0.035682      1.000000
  0.000000  0.035682  0.035682      1.000000
  0.035682  0.035682  0.035682      1.000000
 


--------------------------------------------------------------------------------------------------------




 Dimension of arrays:
   k-points           NKPTS =      8   k-points in BZ     NKDIM =      8   number of bands    NBANDS=    520
   number of dos      NEDOS =    301   number of ions     NIONS =    135
   non local maximal  LDIM  =      6   non local SUM 2l+1 LMDIM =     18
   total plane-waves  NPLWV = ******
   max r-space proj   IRMAX =   6854   max aug-charges    IRDMAX= 195070
   dimension x,y,z NGX =   112 NGY =  112 NGZ =  112
   dimension x,y,z NGXF=   224 NGYF=  224 NGZF=  224
   support grid    NGXF=   448 NGYF=  448 NGZF=  448
   ions per type =              27  27  81
   NGX,Y,Z   is equivalent  to a cutoff of  13.29, 13.29, 13.29 a.u.
   NGXF,Y,Z  is equivalent  to a cutoff of  26.58, 26.58, 26.58 a.u.

 SYSTEM =  unknown system                          
 POSCAR =  Ca Si  O                                

 Startparameter for this run:
   NWRITE =      2    write-flag & timer
   PREC   = a         normal or accurate (medium, high low for compatibility)
   ISTART =      0    job   : 0-new  1-cont  2-samecut
   ICHARG =      2    charge: 1-file 2-atom 10-const
   ISPIN  =      1    spin polarized calculation?
   LNONCOLLINEAR =      F non collinear calculations
   LSORBIT =      F    spin-orbit coupling
   INIWAV =      1    electr: 0-lowe 1-rand  2-diag
   LASPH  =      F    aspherical Exc in radial PAW
   METAGGA=      F    non-selfconsistent MetaGGA calc.

 Electronic Relaxation 1
   ENCUT  =  600.0 eV  44.10 Ry    6.64 a.u.  27.99 27.99 27.99*2*pi/ulx,y,z
   ENINI  =  600.0     initial cutoff
   ENAUG  =  605.4 eV  augmentation charge cutoff
   NELM   =     60;   NELMIN=  2; NELMDL= -5     # of ELM steps 
   EDIFF  = 0.1E-05   stopping-criterion for ELM
   LREAL  =      T    real-space projection
   NLSPLINE    = F    spline interpolate recip. space projectors
   LCOMPAT=      F    compatible to vasp.4.4
   GGA_COMPAT  = T    GGA compatible to vasp.4.4-vasp.4.6
   LMAXPAW     = -100 max onsite density
   LMAXMIX     =    2 max onsite mixed and CHGCAR
   VOSKOWN=      0    Vosko Wilk Nusair interpolation
   ROPT   =   -0.00025  -0.00025  -0.00025
 Ionic relaxation
   EDIFFG = -.1E-01   stopping-criterion for IOM
   NSW    =      1    number of steps for IOM
   NBLOCK =      1;   KBLOCK =      1    inner block; outer block 
   IBRION =     -1    ionic relax: 0-MD 1-quasi-New 2-CG
   NFREE  =      0    steps in history (QN), initial steepest desc. (CG)
   ISIF   =      2    stress and relaxation
   IWAVPR =     10    prediction:  0-non 1-charg 2-wave 3-comb
   ISYM   =      0    0-nonsym 1-usesym 2-fastsym
   LCORR  =      T    Harris-Foulkes like correction to forces

   POTIM  = 1.0000    time-step for ionic-motion
   TEIN   =    0.0    initial temperature
   TEBEG  =    0.0;   TEEND  =   0.0 temperature during run
   SMASS  =  -3.00    Nose mass-parameter (am)
   estimated Nose-frequenzy (Omega)   =  0.10E-29 period in steps =****** mass=  -0.449E-26a.u.
   SCALEE = 1.0000    scale energy and forces
   NPACO  =    256;   APACO  = 16.0  distance and # of slots for P.C.
   PSTRESS=    0.0 pullay stress

  Mass of Ions in am
   POMASS =  40.08 28.09 16.00
  Ionic Valenz
   ZVAL   =  10.00  4.00  6.00
  Atomic Wigner-Seitz radii
   RWIGS  =  -1.00 -1.00 -1.00
  virtual crystal weights 
   VCA    =   1.00  1.00  1.00
   NELECT =     864.0000    total number of electrons
   NUPDOWN=      -1.0000    fix difference up-down

 DOS related values:
   EMIN   =  10.00;   EMAX   =-10.00  energy-range for DOS
   EFERMI =   0.00
   ISMEAR =     0;   SIGMA  =   0.05  broadening in eV -4-tet -1-fermi 0-gaus

 Electronic relaxation 2 (details)
   IALGO  =     38    algorithm
   LDIAG  =      T    sub-space diagonalisation (order eigenvalues)
   LSUBROT=      F    optimize rotation matrix (better conditioning)
   TURBO    =      0    0=normal 1=particle mesh
   IRESTART =      0    0=no restart 2=restart with 2 vectors
   NREBOOT  =      0    no. of reboots
   NMIN     =      0    reboot dimension
   EREF     =   0.00    reference energy to select bands
   IMIX   =      4    mixing-type and parameters
     AMIX     =   0.40;   BMIX     =  1.00
     AMIX_MAG =   1.60;   BMIX_MAG =  1.00
     AMIN     =   0.10
     WC   =   100.;   INIMIX=   1;  MIXPRE=   1;  MAXMIX= -45

 Intra band minimization:
   WEIMIN = 0.0000     energy-eigenvalue tresh-hold
   EBREAK =  0.48E-09  absolut break condition
   DEPER  =   0.30     relativ break condition  

   TIME   =   0.40     timestep for ELM

  volume/ion in A,a.u.               =      20.38       137.54
  Fermi-wavevector in a.u.,A,eV,Ry     =   1.112727  2.102749 16.846204  1.238161
  Thomas-Fermi vector in A             =   2.249304
 
 Write flags
   LWAVE        =      F    write WAVECAR
   LDOWNSAMPLE  =      F    k-point downsampling of WAVECAR
   LCHARG       =      F    write CHGCAR
   LVTOT        =      F    write LOCPOT, total local potential
   LVHAR        =      F    write LOCPOT, Hartree potential only
   LELF         =      F    write electronic localiz. function (ELF)
   LORBIT       =      0    0 simple, 1 ext, 2 COOP (PROOUT), +10 PAW based schemes


 Dipole corrections
   LMONO  =      F    monopole corrections only (constant potential shift)
   LDIPOL =      F    correct potential (dipole corrections)
   IDIPOL =      0    1-x, 2-y, 3-z, 4-all directions 
   EPSILON=  1.0000000 bulk dielectric constant

 Exchange correlation treatment:
   GGA     =    --    GGA type
   LEXCH   =     8    internal setting for exchange type
   VOSKOWN=      0    Vosko Wilk Nusair interpolation
   LHFCALC =     F    Hartree Fock is set to
   LHFONE  =     F    Hartree Fock one center treatment
   AEXX    =    0.0000 exact exchange contribution

 Linear response parameters
   LEPSILON=     F    determine dielectric tensor
   LRPA    =     F    only Hartree local field effects (RPA)
   LNABLA  =     F    use nabla operator in PAW spheres
   LVEL    =     F    velocity operator in full k-point grid
   LINTERFAST=   F  fast interpolation
   KINTER  =     0    interpolate to denser k-point grid
   CSHIFT  =0.1000    complex shift for real part using Kramers Kronig
   OMEGAMAX=  -1.0    maximum frequency
   DEG_THRESHOLD= 0.2000000E-02 threshold for treating states as degnerate
   RTIME   =   -0.100 relaxation time in fs
  (WPLASMAI=    0.000 imaginary part of plasma frequency in eV, 0.658/RTIME)
   DFIELD  = 0.0000000 0.0000000 0.0000000 field for delta impulse in time
 
 Orbital magnetization related:
   ORBITALMAG=     F  switch on orbital magnetization
   LCHIMAG   =     F  perturbation theory with respect to B field
   DQ        =  0.001000  dq finite difference perturbation B field
   LLRAUG    =     F  two centre corrections for induced B field



--------------------------------------------------------------------------------------------------------


 Static calculation
 charge density and potential will be updated during run
 non-spin polarized calculation
 Variant of blocked Davidson
 Davidson routine will perform the subspace rotation
 perform sub-space diagonalisation
    after iterative eigenvector-optimisation
 modified Broyden-mixing scheme, WC =      100.0
 initial mixing is a Kerker type mixing with AMIX =  0.4000 and BMIX =      1.0000
 Hartree-type preconditioning will be used
 using additional bands           88
 real space projection scheme for non local part
 use partial core corrections
 calculate Harris-corrections to forces 
   (improved forces if not selfconsistent)
 use gradient corrections 
 use of overlap-Matrix (Vanderbilt PP)
 Gauss-broadening in eV      SIGMA  =   0.05


--------------------------------------------------------------------------------------------------------


  energy-cutoff  :      600.00
  volume of cell :     2751.52
      direct lattice vectors                 reciprocal lattice vectors
    14.012776000  0.000000000  0.000000000     0.071363447  0.000000000  0.000000000
     0.000000000 14.012776000  0.000000000     0.000000000  0.071363447  0.000000000
     0.000000000  0.000000000 14.012776000     0.000000000  0.000000000  0.071363447

  length of vectors
    14.012776000 14.012776000 14.012776000     0.071363447  0.071363447  0.071363447


 
 k-points in units of 2pi/SCALE and weight: read from INCAR                         
   0.00000000  0.00000000  0.00000000       0.125
   0.03568172  0.00000000  0.00000000       0.125
   0.00000000  0.03568172  0.00000000       0.125
   0.03568172  0.03568172  0.00000000       0.125
   0.00000000  0.00000000  0.03568172       0.125
   0.03568172  0.00000000  0.03568172       0.125
   0.00000000  0.03568172  0.03568172       0.125
   0.03568172  0.03568172  0.03568172       0.125
 
 k-points in reciprocal lattice and weights: read from INCAR                         
   0.00000000  0.00000000  0.00000000       0.125
   0.50000000  0.00000000  0.00000000       0.125
   0.00000000  0.50000000  0.00000000       0.125
   0.50000000  0.50000000  0.00000000       0.125
   0.00000000  0.00000000  0.50000000       0.125
   0.50000000  0.00000000  0.50000000       0.125
   0.00000000  0.50000000  0.50000000       0.125
   0.50000000  0.50000000  0.50000000       0.125
 
 position of ions in fractional coordinates (direct lattice) 
   0.30643857  0.18966996  0.19955669
   0.86971954  0.45552468  0.75787913
   0.08330018  0.25026885  0.29260275
   0.36428152  0.21940790  0.88873634
   0.09211555  0.30272159  0.00377284
   0.93597170  0.02760291  0.50905878
   0.71035435  0.00519603  0.82974071
   0.92164550  0.60882959  0.21833758
   0.06133433  0.42480157  0.48642799
   0.85331969  0.82563026  0.07369650
   0.09432493  0.96721185  0.18805606
   0.65790791  0.22961094  0.69186792
   0.72701834  0.60526814  0.97341859
   0.72108566  0.51137716  0.46757530
   0.53355767  0.92282306  0.06853587
   0.54920548  0.85144221  0.59261047
   0.23894528  0.88625131  0.90846111
   0.22097105  0.98842827  0.43345726
   0.63494211  0.03501452  0.30066440
   0.85375346  0.16976464  0.05387105
   0.09282743  0.83139883  0.57044422
   0.80502485  0.82511561  0.52295149
   0.49899618  0.59717781  0.78425225
   0.26426708  0.45995087  0.21072599
   0.56563700  0.49725269  0.18770354
   0.24953782  0.66706134  0.83737713
   0.22848162  0.58120134  0.48961899
   0.37507288  0.34501973  0.41447538
   0.48860089  0.62623420  0.05771089
   0.66903399  0.03739767  0.54461687
   0.47374407  0.06196797  0.74869337
   0.00606355  0.94588374  0.96892130
   0.15534611  0.76801351  0.07250214
   0.02777539  0.62332048  0.63718896
   0.91028718  0.49040116  0.39546355
   0.62918289  0.21140067  0.16499273
   0.66079130  0.75981390  0.15359204
   0.02647228  0.80114351  0.28347596
   0.92907191  0.47504941  0.02547053
   0.18268017  0.48462041  0.73588083
   0.31125175  0.93139542  0.23034447
   0.64408397  0.44043712  0.82182933
   0.07275802  0.08842864  0.87770346
   0.87010092  0.33564857  0.22039107
   0.43925187  0.30699055  0.04660465
   0.39462346  0.39239638  0.84682701
   0.40800204  0.24078034  0.63017649
   0.60702149  0.72839740  0.36431897
   0.38197761  0.87974172  0.75729388
   0.07603176  0.16112982  0.53956326
   0.35292615  0.81433878  0.40749527
   0.46588613  0.77584511  0.88892433
   0.71019065  0.70800636  0.61272202
   0.10913375  0.27867090  0.69073108
   0.26529495  0.74427580  0.46053758
   0.04839783  0.72255171  0.69250196
   0.57375705  0.12917703  0.80515274
   0.37708921  0.85362464  0.88081260
   0.65176255  0.60940695  0.59725005
   0.47167995  0.77983698  0.76839028
   0.87738471  0.45856643  0.50968734
   0.22050783  0.53280950  0.64396079
   0.53247223  0.21469418  0.61485152
   0.83634449  0.56191995  0.35743992
   0.88800935  0.37901155  0.32056477
   0.03272850  0.35730189  0.65490372
   0.33056460  0.83887829  0.29850470
   0.54851827  0.14376080  0.24593037
   0.85528069  0.41467926  0.12373591
   0.54544440  0.76417012  0.10555925
   0.42674858  0.32377193  0.72051640
   0.98012750  0.56404701  0.70708552
   0.70522750  0.14453781  0.10336425
   0.94809826  0.87502259  0.50138748
   0.29828853  0.37080722  0.89651501
   0.97708780  0.23464688  0.52139755
   0.57650742  0.55629316  0.01359800
   0.15850347  0.19393348  0.61417022
   0.42813453  0.00906638  0.83999186
   0.11311529  0.16083640  0.95594586
   0.31667683  0.89098149  0.50911920
   0.96104189  0.25802686  0.18051418
   0.04104953  0.49419625  0.36953222
   0.23362300  0.86017989  0.12984806
   0.38138879  0.29561014  0.51530129
   0.65288323  0.77845931  0.46341887
   0.43285800  0.58493030  0.14430766
   0.08552910  0.85377094  0.99890793
   0.75918580  0.30460562  0.18941047
   0.41383429  0.94991365  0.17508063
   0.64051110  0.78355741  0.26376700
   0.72065395  0.66185454  0.12189195
   0.64853618  0.55262169  0.84151618
   0.29478477  0.41308363  0.41911791
   0.13150335  0.98634218  0.89630404
   0.40392357  0.68665938  0.91159557
   0.07335170  0.23088683  0.80154428
   0.24580394  0.02775984  0.26572124
   0.82878409  0.69398648  0.59511991
   0.98050002  0.00695316  0.06541485
   0.96935549  0.02052419  0.85284185
   0.94563015  0.88445980  0.23327110
   0.13007739  0.14974320  0.41063031
   0.39849239  0.50737851  0.83549852
   0.88089937  0.91270000  0.94459679
   0.21477117  0.70180290  0.99134804
   0.20025761  0.36448535  0.73718160
   0.37901980  0.39524015  0.09326880
   0.14376344  0.56663443  0.82042702
   0.14627583  0.85842084  0.29137042
   0.86881622  0.57891132  0.04605058
   0.51002468  0.96161645  0.69861499
   0.40914228  0.32734536  0.30398442
   0.09483751  0.03870845  0.54823237
   0.57907110  0.61279968  0.33737563
   0.66970083  0.79600532  0.67804229
   0.98146703  0.70442014  0.30354730
   0.54004732  0.83844741  0.95260072
   0.06909877  0.75030417  0.16575869
   0.93360852  0.43436039  0.92006260
   0.08534742  0.61566340  0.53798855
   0.71856473  0.11738958  0.48395817
   0.53695571  0.42525013  0.80912016
   0.48370232  0.34610325  0.92679312
   0.38389545  0.20644447  0.04781658
   0.18189547  0.34246203  0.22430171
   0.48468078  0.75431088  0.42369769
   0.72554357  0.85749951  0.15625838
   0.04641537  0.47443373  0.06937469
   0.75301603  0.98517619  0.59949338
   0.36935913  0.13876179  0.69923437
   0.27128052  0.86308861  0.73598020
   0.73718733  0.41269182  0.76723073
   0.56010837  0.30264893  0.12303327
   0.58044797  0.97666128  0.50950783
 
 position of ions in cartesian coordinates  (Angst):
   4.29405497  2.65780262  2.79634316
  12.18718505  6.38316527 10.61999054
   1.16726676  3.50696137  4.10017677
   5.10459539  3.07451373 12.45366321
   1.29079455  4.24196987  0.05286792
  13.11556176  0.38679344  7.13332662
   9.95403634  0.07281086 11.62697065
  12.91481201  8.53139262  3.05951567
   0.85946423  5.95264931  6.81620652
  11.95737761 11.56937185  1.03269250
   1.32175415 13.55332300  2.63518747
   9.21911619  3.21748664  9.69499019
  10.18754508  8.48148682 13.64029672
  10.10441187  7.16581360  6.55202800
   7.47662413 12.93131279  0.96037773
   7.69589336 11.93106891  8.30411778
   3.34828664 12.41884111 12.73006208
   3.09641782 13.85062391  6.07393950
   8.89730155  0.49065069  4.21314291
  11.96345603  2.37887392  0.75488299
   1.30077001 11.65020562  7.99350710
  11.28063293 11.56216021  7.32800210
   6.99232164  8.36811889 10.98955112
   3.70311537  6.44518846  2.95285609
   7.92614460  6.96789059  2.63024769
   3.49671751  9.34738120 11.73397816
   3.20166181  8.14424417  6.86092125
   5.25581221  4.83468416  5.80795064
   6.84665482  8.77527951  0.80868980
   9.37502348  0.52404512  7.63159423
   6.63846959  0.86834331 10.49127247
   0.08496712 13.25445703 13.57727715
   2.17683021 10.76200127  1.01595625
   0.38921037  8.73445029  8.92878615
  12.75565037  6.87188158  5.54154211
   8.81659888  2.96231028  2.31200617
   9.25952043 10.64710193  2.15225092
   0.37095016 11.22624450  3.97228508
  13.01887651  6.65676093  0.35691284
   2.55985632  6.79087731 10.31173318
   4.36150101 13.05143532  3.22776543
   9.02540434  6.17174676 11.51611028
   1.01954189  1.23913066 12.29906195
  12.19252922  4.70336827  3.08829067
   6.15513807  4.30178985  0.65306055
   5.52977010  5.49856251 11.86639718
   5.71724116  3.37400092  8.83052200
   8.50605610 10.20686956  5.10512018
   5.35256665 12.32762372 10.61178952
   1.06541607  2.25787607  7.56077911
   4.94547503 11.41114689  5.71013997
   6.52835801 10.87174368 12.45629748
   9.95174245  9.92113449  8.58593637
   1.52926682  3.90495293  9.67905991
   3.71751872 10.42937004  6.45340994
   0.67818800 10.12495523  9.70387482
   8.03992905  1.81012878 11.28242497
   5.28406657 11.96165083 12.34262968
   9.13300265  8.53948309  8.36913119
   6.60954548 10.92768089 10.76728083
  12.29459535  6.42578866  7.14213450
   3.08992683  7.46614024  9.02367832
   7.46141411  3.00846147  8.61577661
  11.71950794  7.87405834  5.00872548
  12.44347612  5.31100393  4.49200236
   0.45861714  5.00679133  9.17701910
   4.63212773 11.75501363  4.18287945
   7.68626362  2.01448795  3.44616717
  11.98485669  5.81080759  1.73388366
   7.64319025 10.70814473  1.47917815
   5.97993219  4.53694349 10.09643485
  13.73430710  7.90386434  9.90823096
   9.88219494  2.02537599  1.44842008
  13.28548861 12.26149561  7.02583038
   4.17985041  5.19603856 12.56266400
  13.69171253  3.28805416  7.30622706
   8.07846940  7.79521151  0.19054568
   2.22107362  2.71754642  8.60622977
   5.99935325  0.12704509 11.77061783
   1.58505918  2.25376447 13.39545520
   4.43752142 12.48512410  7.13417327
  13.46686478  3.61567261  2.52950478
   0.57521793  6.92506139  5.17817224
   3.27370671 12.05350808  1.81953173
   5.34431568  4.14231865  7.22080151
   9.14870650 10.90837590  6.49378486
   6.06554221  8.19649723  2.02215093
   1.19850013 11.96370090 13.99747303
  10.63830054  4.26837032  2.65416655
   5.79896716 13.31092719  2.45336561
   8.97533857 10.97981440  3.69610795
  10.09836231  9.27441944  1.70804455
   9.08779222  7.74376393 11.79197778
   4.13075293  5.78844834  5.87300536
   1.84272696 13.82139204 12.55970773
   5.66009057  9.62200412 12.77398459
   1.02786092  3.23536537 11.23186048
   3.44439555  0.38899246  3.72349228
  11.61356577  9.72467710  8.33928201
  13.73952716  0.09743311  0.91664367
  13.58336131  0.28760088 11.95068187
  13.25090344 12.39373712  3.26877569
   1.82274534  2.09831794  5.75407058
   5.58398465  7.10978136 11.70765366
  12.34384555 12.78946063 13.23642326
   3.00954025  9.83420690 13.89153799
   2.80616507  5.10745160 10.32996060
   5.31111955  5.53841174  1.30695478
   2.01452489  7.94012128 11.49646011
   2.04973048 12.02885896  4.08290842
  12.17452702  8.11215467  0.64529643
   7.14686164 13.47491589  9.78953533
   5.73321919  4.58701716  4.25966553
   1.32893679  0.54241288  7.68225739
   8.11439366  8.58702461  4.72756908
   9.38436767 11.15424421  9.50125471
  13.75307770  9.87088163  4.25354026
   7.56756207 11.74897578 13.34858057
   0.96826554 10.51384426  2.32273942
  13.08244702  6.08659485 12.89263110
   1.19595427  8.62715328  7.53871305
  10.06908665  1.64495388  6.78159742
   7.52424007  5.95893480 11.33801960
   6.77801225  4.84986730 12.98694439
   5.37944095  2.89286005  0.67004305
   2.54886054  4.79884377  3.14308967
   6.79172326 10.56998936  5.93718077
  10.16687948 12.01594850  2.18961374
   0.65040814  6.64813364  0.97213195
  10.55184497 13.80505331  8.40056641
   5.17574673  1.94443784  9.79821462
   3.80139318 12.09426733 10.31312568
  10.33004097  5.78295798 10.75103239
   7.84867306  4.24095165  1.72403772
   8.13368737 13.68573575  7.13961909
 


--------------------------------------------------------------------------------------------------------


 k-point  1 :   0.0000 0.0000 0.0000  plane waves:   91911
 k-point  2 :   0.5000 0.0000 0.0000  plane waves:   91744
 k-point  3 :   0.0000 0.5000 0.0000  plane waves:   91744
 k-point  4 :   0.5000 0.5000 0.0000  plane waves:   91656
 k-point  5 :   0.0000 0.0000 0.5000  plane waves:   91744
 k-point  6 :   0.5000 0.0000 0.5000  plane waves:   91656
 k-point  7 :   0.0000 0.5000 0.5000  plane waves:   91656
 k-point  8 :   0.5000 0.5000 0.5000  plane waves:   92096

 maximum and minimum number of plane-waves per node :      7114     6990

 maximum number of plane-waves:     92096
 maximum index in each direction: 
   IXMAX=   27   IYMAX=   27   IZMAX=   27
   IXMIN=  -28   IYMIN=  -28   IZMIN=  -28


 real space projection operators:
  total allocation   :      46986.73 KBytes
  max/ min on nodes  :       3776.25       3383.34


 parallel 3D FFT for wavefunctions:
    minimum data exchange during FFTs selected (reduces bandwidth)
 parallel 3D FFT for charge:
    minimum data exchange during FFTs selected (reduces bandwidth)


 total amount of memory used by VASP MPI-rank0   227748. kBytes
=======================================================================

   base      :      30000. kBytes
   nonlr-proj:      20343. kBytes
   fftplans  :      36399. kBytes
   grid      :      20695. kBytes
   one-center:        171. kBytes
   wavefun   :     120140. kBytes
 
     INWAV:  cpu time    0.0000: real time    0.0000
 Broyden mixing: mesh for mixing (old mesh)
   NGX = 55   NGY = 55   NGZ = 55
  (NGX  =224   NGY  =224   NGZ  =224)
  gives a total of 166375 points

 initial charge density was supplied:
 charge density of overlapping atoms calculated
 number of electron     864.0000000 magnetization 
 keeping initial charge density in first step


--------------------------------------------------------------------------------------------------------


 Maximum index for non-local projection operator          690
 Maximum index for augmentation-charges         5347 (set IRDMAX)


--------------------------------------------------------------------------------------------------------


 First call to EWALD:  gamma=   0.126
 Maximum number of real-space cells 3x 3x 3
 Maximum number of reciprocal cells 3x 3x 3

    FEWALD:  cpu time    0.0043: real time    0.0043


--------------------------------------- Iteration      1(   1)  ---------------------------------------


    POTLOK:  cpu time    0.2214: real time    0.2281
    SETDIJ:  cpu time    0.4046: real time    0.4070
     EDDAV:  cpu time   55.0489: real time   55.0582
       DOS:  cpu time    0.0023: real time    0.0023
    --------------------------------------------
      LOOP:  cpu time   55.6773: real time   55.6956

 eigenvalue-minimisations  :  8320
 total energy-change (2. order) : 0.9090658E+04  (-0.4515475E+05)
 number of electron     864.0000000 magnetization 
 augmentation part      864.0000000 magnetization 

 Free energy of the ion-electron system (eV)
  ---------------------------------------------------
  alpha Z        PSCENC =      1736.69897902
  Ewald energy   TEWEN  =    -31767.57751169
  -Hartree energ DENC   =    -27831.24029890
  -exchange      EXHF   =         0.00000000
  -V(xc)+E(xc)   XCENC  =      3107.63205162
  PAW double counting   =     50594.51003143   -49994.65612350
  entropy T*S    EENTRO =        -0.02923574
  eigenvalues    EBANDS =     -1723.22040628
  atomic energy  EATOM  =     64968.54023382
  Solvation  Ediel_sol  =         0.00000000
  ---------------------------------------------------
  free energy    TOTEN  =      9090.65771979 eV

  energy without entropy =     9090.68695553  energy(sigma->0) =     9090.67233766


--------------------------------------------------------------------------------------------------------




--------------------------------------- Iteration      1(   2)  ---------------------------------------


     EDDAV:  cpu time   66.1651: real time   66.1951
       DOS:  cpu time    0.0010: real time    0.0010
    --------------------------------------------
      LOOP:  cpu time   66.1661: real time   66.1961

 eigenvalue-minimisations  : 10424
 total energy-change (2. order) :-0.9051305E+04  (-0.8784489E+04)
 number of electron     864.0000000 magnetization 
 augmentation part      864.0000000 magnetization 

 Free energy of the ion-electron system (eV)
  ---------------------------------------------------
  alpha Z        PSCENC =      1736.69897902
  Ewald energy   TEWEN  =    -31767.57751169
  -Hartree energ DENC   =    -27831.24029890
  -exchange      EXHF   =         0.00000000
  -V(xc)+E(xc)   XCENC  =      3107.63205162
  PAW double counting   =     50594.51003143   -49994.65612350
  entropy T*S    EENTRO =        -0.00000000
  eigenvalues    EBANDS =    -10774.55472754
  atomic energy  EATOM  =     64968.54023382
  Solvation  Ediel_sol  =         0.00000000
  ---------------------------------------------------
  free energy    TOTEN  =        39.35263427 eV

  energy without entropy =       39.35263427  energy(sigma->0) =       39.35263427


--------------------------------------------------------------------------------------------------------




--------------------------------------- Iteration      1(   3)  ---------------------------------------


     EDDAV:  cpu time   66.0028: real time   66.0196
       DOS:  cpu time    0.0009: real time    0.0009
    --------------------------------------------
      LOOP:  cpu time   66.0037: real time   66.0205

 eigenvalue-minimisations  : 10296
 total energy-change (2. order) :-0.1051792E+04  (-0.1044760E+04)
 number of electron     864.0000000 magnetization 
 augmentation part      864.0000000 magnetization 

 Free energy of the ion-electron system (eV)
  ---------------------------------------------------
  alpha Z        PSCENC =      1736.69897902
  Ewald energy   TEWEN  =    -31767.57751169
  -Hartree energ DENC   =    -27831.24029890
  -exchange      EXHF   =         0.00000000
  -V(xc)+E(xc)   XCENC  =      3107.63205162
  PAW double counting   =     50594.51003143   -49994.65612350
  entropy T*S    EENTRO =        -0.00000000
  eigenvalues    EBANDS =    -11826.34633830
  atomic energy  EATOM  =     64968.54023382
  Solvation  Ediel_sol  =         0.00000000
  ---------------------------------------------------
  free energy    TOTEN  =     -1012.43897649 eV

  energy without entropy =    -1012.43897649  energy(sigma->0) =    -1012.43897649


--------------------------------------------------------------------------------------------------------




--------------------------------------- Iteration      1(   4)  ---------------------------------------


     EDDAV:  cpu time   70.0116: real time   70.0260
       DOS:  cpu time    0.0009: real time    0.0009
    --------------------------------------------
      LOOP:  cpu time   70.0125: real time   70.0269

 eigenvalue-minimisations  : 10968
 total energy-change (2. order) :-0.4710678E+02  (-0.4692278E+02)
 number of electron     864.0000000 magnetization 
 augmentation part      864.0000000 magnetization 

 Free energy of the ion-electron system (eV)
  ---------------------------------------------------
  alpha Z        PSCENC =      1736.69897902
  Ewald energy   TEWEN  =    -31767.57751169
  -Hartree energ DENC   =    -27831.24029890
  -exchange      EXHF   =         0.00000000
  -V(xc)+E(xc)   XCENC  =      3107.63205162
  PAW double counting   =     50594.51003143   -49994.65612350
  entropy T*S    EENTRO =        -0.00000000
  eigenvalues    EBANDS =    -11873.45311538
  atomic energy  EATOM  =     64968.54023382
  Solvation  Ediel_sol  =         0.00000000
  ---------------------------------------------------
  free energy    TOTEN  =     -1059.54575358 eV

  energy without entropy =    -1059.54575358  energy(sigma->0) =    -1059.54575358


--------------------------------------------------------------------------------------------------------




--------------------------------------- Iteration      1(   5)  ---------------------------------------


     EDDAV:  cpu time   91.9756: real time   92.0051
       DOS:  cpu time    0.0009: real time    0.0009
    CHARGE:  cpu time    2.7784: real time    2.7784
    MIXING:  cpu time    0.0109: real time    0.0110
    --------------------------------------------
      LOOP:  cpu time   94.7657: real time   94.7954

 eigenvalue-minimisations  : 15280
 total energy-change (2. order) :-0.6307612E+01  (-0.6304616E+01)
 number of electron     864.0000007 magnetization 
 augmentation part      133.6292926 magnetization 

 Broyden mixing:
  rms(total) = 0.84163E+01    rms(broyden)= 0.84153E+01
  rms(prec ) = 0.98423E+01
  weight for this iteration     100.00

 Free energy of the ion-electron system (eV)
  ---------------------------------------------------
  alpha Z        PSCENC =      1736.69897902
  Ewald energy   TEWEN  =    -31767.57751169
  -Hartree energ DENC   =    -27831.24029890
  -exchange      EXHF   =         0.00000000
  -V(xc)+E(xc)   XCENC  =      3107.63205162
  PAW double counting   =     50594.51003143   -49994.65612350
  entropy T*S    EENTRO =        -0.00000000
  eigenvalues    EBANDS =    -11879.76072729
  atomic energy  EATOM  =     64968.54023382
  Solvation  Ediel_sol  =         0.00000000
  ---------------------------------------------------
  free energy    TOTEN  =     -1065.85336549 eV

  energy without entropy =    -1065.85336549  energy(sigma->0) =    -1065.85336549


--------------------------------------------------------------------------------------------------------




--------------------------------------- Iteration      1(   6)  ---------------------------------------


    POTLOK:  cpu time    0.2265: real time    0.2443
    SETDIJ:  cpu time    0.4099: real time    0.4099
     EDDAV:  cpu time   66.9924: real time   66.9936
       DOS:  cpu time    0.0020: real time    0.0020
    CHARGE:  cpu time    2.8150: real time    2.8151
    MIXING:  cpu time    0.0075: real time    0.0076
    --------------------------------------------
      LOOP:  cpu time   70.4533: real time   70.4724

 eigenvalue-minimisations  : 10416
 total energy-change (2. order) : 0.1716418E+03  (-0.8599058E+02)
 number of electron     864.0000006 magnetization 
 augmentation part      117.8826486 magnetization 

 Broyden mixing:
  rms(total) = 0.36454E+01    rms(broyden)= 0.36435E+01
  rms(prec ) = 0.39016E+01
  weight for this iteration     100.00

 eigenvalues of (default mixing * dielectric matrix)
  average eigenvalue GAMMA=   0.9076
  0.9076

 Free energy of the ion-electron system (eV)
  ---------------------------------------------------
  alpha Z        PSCENC =      1736.69897902
  Ewald energy   TEWEN  =    -31767.57751169
  -Hartree energ DENC   =    -29534.26887742
  -exchange      EXHF   =         0.00000000
  -V(xc)+E(xc)   XCENC  =      3211.70454113
  PAW double counting   =     62953.37123115   -62497.39303109
  entropy T*S    EENTRO =        -0.00006459
  eigenvalues    EBANDS =     -9965.28706753
  atomic energy  EATOM  =     64968.54023382
  Solvation  Ediel_sol  =         0.00000000
  ---------------------------------------------------
  free energy    TOTEN  =      -894.21156718 eV

  energy without entropy =     -894.21150259  energy(sigma->0) =     -894.21153488


--------------------------------------------------------------------------------------------------------




--------------------------------------- Iteration      1(   7)  ---------------------------------------


    POTLOK:  cpu time    0.2258: real time    0.2423
    SETDIJ:  cpu time    0.3867: real time    0.3868
     EDDAV:  cpu time   66.7014: real time   66.7030
       DOS:  cpu time    0.0020: real time    0.0020
    CHARGE:  cpu time    2.8230: real time    2.8230
    MIXING:  cpu time    0.0129: real time    0.0129
    --------------------------------------------
      LOOP:  cpu time   70.1518: real time   70.1699

 eigenvalue-minimisations  : 10376
 total energy-change (2. order) : 0.1158909E+01  (-0.8276246E+01)
 number of electron     864.0000006 magnetization 
 augmentation part      118.2555157 magnetization 

 Broyden mixing:
  rms(total) = 0.18683E+01    rms(broyden)= 0.18682E+01
  rms(prec ) = 0.20823E+01
  weight for this iteration     100.00

 eigenvalues of (default mixing * dielectric matrix)
  average eigenvalue GAMMA=   1.1723
  1.1723  1.1723

 Free energy of the ion-electron system (eV)
  ---------------------------------------------------
  alpha Z        PSCENC =      1736.69897902
  Ewald energy   TEWEN  =    -31767.57751169
  -Hartree energ DENC   =    -29584.41145899
  -exchange      EXHF   =         0.00000000
  -V(xc)+E(xc)   XCENC  =      3209.50462726
  PAW double counting   =     71719.44283637   -71313.58551208
  entropy T*S    EENTRO =        -0.00013788
  eigenvalues    EBANDS =     -9861.66471362
  atomic energy  EATOM  =     64968.54023382
  Solvation  Ediel_sol  =         0.00000000
  ---------------------------------------------------
  free energy    TOTEN  =      -893.05265779 eV

  energy without entropy =     -893.05251990  energy(sigma->0) =     -893.05258885


--------------------------------------------------------------------------------------------------------




--------------------------------------- Iteration      1(   8)  ---------------------------------------


    POTLOK:  cpu time    0.2356: real time    0.2552
    SETDIJ:  cpu time    0.4083: real time    0.4083
     EDDAV:  cpu time   70.6705: real time   70.6701
       DOS:  cpu time    0.0023: real time    0.0023
    CHARGE:  cpu time    2.8140: real time    2.8140
    MIXING:  cpu time    0.0144: real time    0.0144
    --------------------------------------------
      LOOP:  cpu time   74.1451: real time   74.1644

 eigenvalue-minimisations  : 11096
 total energy-change (2. order) : 0.3232089E+01  (-0.1279316E+01)
 number of electron     864.0000006 magnetization 
 augmentation part      118.3779170 magnetization 

 Broyden mixing:
  rms(total) = 0.77911E+00    rms(broyden)= 0.77900E+00
  rms(prec ) = 0.93240E+00
  weight for this iteration     100.00

 eigenvalues of (default mixing * dielectric matrix)
  average eigenvalue GAMMA=   1.3256
  2.1247  0.9261  0.9261

 Free energy of the ion-electron system (eV)
  ---------------------------------------------------
  alpha Z        PSCENC =      1736.69897902
  Ewald energy   TEWEN  =    -31767.57751169
  -Hartree energ DENC   =    -29668.92142964
  -exchange      EXHF   =         0.00000000
  -V(xc)+E(xc)   XCENC  =      3209.49517731
  PAW double counting   =     77466.45977077   -77109.29012127
  entropy T*S    EENTRO =        -0.00161242
  eigenvalues    EBANDS =     -9725.22405472
  atomic energy  EATOM  =     64968.54023382
  Solvation  Ediel_sol  =         0.00000000
  ---------------------------------------------------
  free energy    TOTEN  =      -889.82056880 eV

  energy without entropy =     -889.81895638  energy(sigma->0) =     -889.81976259


--------------------------------------------------------------------------------------------------------




--------------------------------------- Iteration      1(   9)  ---------------------------------------


    POTLOK:  cpu time    0.2450: real time    0.2668
    SETDIJ:  cpu time    0.4064: real time    0.4114
     EDDAV:  cpu time   71.9929: real time   71.9952
       DOS:  cpu time    0.0023: real time    0.0022
    CHARGE:  cpu time    2.8097: real time    2.8097
    MIXING:  cpu time    0.0137: real time    0.0137
    --------------------------------------------
      LOOP:  cpu time   75.4699: real time   75.4990

 eigenvalue-minimisations  : 11408
 total energy-change (2. order) : 0.2359144E+00  (-0.3610843E+00)
 number of electron     864.0000006 magnetization 
 augmentation part      117.0803454 magnetization 

 Broyden mixing:
  rms(total) = 0.84728E+00    rms(broyden)= 0.84681E+00
  rms(prec ) = 0.11455E+01
  weight for this iteration     100.00

 eigenvalues of (default mixing * dielectric matrix)
  average eigenvalue GAMMA=   1.0714
  2.1469  0.9260  0.9260  0.2865

 Free energy of the ion-electron system (eV)
  ---------------------------------------------------
  alpha Z        PSCENC =      1736.69897902
  Ewald energy   TEWEN  =    -31767.57751169
  -Hartree energ DENC   =    -29808.69456927
  -exchange      EXHF   =         0.00000000
  -V(xc)+E(xc)   XCENC  =      3215.09475986
  PAW double counting   =     82080.24388424   -81750.74831472
  entropy T*S    EENTRO =        -0.05271329
  eigenvalues    EBANDS =     -9563.08940233
  atomic energy  EATOM  =     64968.54023382
  Solvation  Ediel_sol  =         0.00000000
  ---------------------------------------------------
  free energy    TOTEN  =      -889.58465435 eV

  energy without entropy =     -889.53194106  energy(sigma->0) =     -889.55829771


--------------------------------------------------------------------------------------------------------




--------------------------------------- Iteration      1(  10)  ---------------------------------------


    POTLOK:  cpu time    0.2149: real time    0.2344
    SETDIJ:  cpu time    0.3930: real time    0.3930
     EDDAV:  cpu time   72.6954: real time   72.6984
       DOS:  cpu time    0.0023: real time    0.0023
    CHARGE:  cpu time    2.8372: real time    2.8372
    MIXING:  cpu time    0.0148: real time    0.0148
    --------------------------------------------
      LOOP:  cpu time   76.1576: real time   76.1800

 eigenvalue-minimisations  : 11496
 total energy-change (2. order) : 0.3136940E+00  (-0.2637740E+00)
 number of electron     864.0000006 magnetization 
 augmentation part      117.6534085 magnetization 

 Broyden mixing:
  rms(total) = 0.31647E+00    rms(broyden)= 0.31557E+00
  rms(prec ) = 0.41604E+00
  weight for this iteration     100.00

 eigenvalues of (default mixing * dielectric matrix)
  average eigenvalue GAMMA=   1.0562
  2.3133  1.0272  0.8675  0.8675  0.2055

 Free energy of the ion-electron system (eV)
  ---------------------------------------------------
  alpha Z        PSCENC =      1736.69897902
  Ewald energy   TEWEN  =    -31767.57751169
  -Hartree energ DENC   =    -29807.64983353
  -exchange      EXHF   =         0.00000000
  -V(xc)+E(xc)   XCENC  =      3214.86135608
  PAW double counting   =     82166.08392366   -81835.95338289
  entropy T*S    EENTRO =        -0.00458612
  eigenvalues    EBANDS =     -9564.27013875
  atomic energy  EATOM  =     64968.54023382
  Solvation  Ediel_sol  =         0.00000000
  ---------------------------------------------------
  free energy    TOTEN  =      -889.27096038 eV

  energy without entropy =     -889.26637427  energy(sigma->0) =     -889.26866733


--------------------------------------------------------------------------------------------------------




--------------------------------------- Iteration      1(  11)  ---------------------------------------


    POTLOK:  cpu time    0.2184: real time    0.2369
    SETDIJ:  cpu time    0.3864: real time    0.3864
     EDDAV:  cpu time   69.8123: real time   69.8137
       DOS:  cpu time    0.0023: real time    0.0023
    CHARGE:  cpu time    2.8246: real time    2.8246
    MIXING:  cpu time    0.0150: real time    0.0150
    --------------------------------------------
      LOOP:  cpu time   73.2589: real time   73.2788

 eigenvalue-minimisations  : 11000
 total energy-change (2. order) : 0.2426856E-01  (-0.4445851E-01)
 number of electron     864.0000006 magnetization 
 augmentation part      117.5754046 magnetization 

 Broyden mixing:
  rms(total) = 0.18871E+00    rms(broyden)= 0.18866E+00
  rms(prec ) = 0.26142E+00
  weight for this iteration     100.00

 eigenvalues of (default mixing * dielectric matrix)
  average eigenvalue GAMMA=   1.0870
  2.3569  1.3474  0.9351  0.9351  0.7322  0.2153

 Free energy of the ion-electron system (eV)
  ---------------------------------------------------
  alpha Z        PSCENC =      1736.69897902
  Ewald energy   TEWEN  =    -31767.57751169
  -Hartree energ DENC   =    -29839.89432172
  -exchange      EXHF   =         0.00000000
  -V(xc)+E(xc)   XCENC  =      3215.88366041
  PAW double counting   =     82843.40819476   -82514.15572237
  entropy T*S    EENTRO =        -0.01605358
  eigenvalues    EBANDS =     -9532.13415047
  atomic energy  EATOM  =     64968.54023382
  Solvation  Ediel_sol  =         0.00000000
  ---------------------------------------------------
  free energy    TOTEN  =      -889.24669182 eV

  energy without entropy =     -889.23063823  energy(sigma->0) =     -889.23866503


--------------------------------------------------------------------------------------------------------




--------------------------------------- Iteration      1(  12)  ---------------------------------------


    POTLOK:  cpu time    0.2090: real time    0.2244
    SETDIJ:  cpu time    0.3830: real time    0.3830
     EDDAV:  cpu time   70.5071: real time   70.5105
       DOS:  cpu time    0.0023: real time    0.0023
    CHARGE:  cpu time    2.8055: real time    2.8055
    MIXING:  cpu time    0.0144: real time    0.0144
    --------------------------------------------
      LOOP:  cpu time   73.9214: real time   73.9402

 eigenvalue-minimisations  : 11136
 total energy-change (2. order) :-0.6910921E-01  (-0.6120380E-01)
 number of electron     864.0000006 magnetization 
 augmentation part      117.4541987 magnetization 

 Broyden mixing:
  rms(total) = 0.21315E+00    rms(broyden)= 0.21299E+00
  rms(prec ) = 0.28118E+00
  weight for this iteration     100.00

 eigenvalues of (default mixing * dielectric matrix)
  average eigenvalue GAMMA=   1.0085
  2.3956  1.5163  0.9275  0.9275  0.7784  0.2193  0.2952

 Free energy of the ion-electron system (eV)
  ---------------------------------------------------
  alpha Z        PSCENC =      1736.69897902
  Ewald energy   TEWEN  =    -31767.57751169
  -Hartree energ DENC   =    -29862.28734524
  -exchange      EXHF   =         0.00000000
  -V(xc)+E(xc)   XCENC  =      3216.56045789
  PAW double counting   =     82952.51248000   -82621.27432949
  entropy T*S    EENTRO =        -0.02683619
  eigenvalues    EBANDS =     -9512.46192916
  atomic energy  EATOM  =     64968.54023382
  Solvation  Ediel_sol  =         0.00000000
  ---------------------------------------------------
  free energy    TOTEN  =      -889.31580103 eV

  energy without entropy =     -889.28896484  energy(sigma->0) =     -889.30238293


--------------------------------------------------------------------------------------------------------




--------------------------------------- Iteration      1(  13)  ---------------------------------------


    POTLOK:  cpu time    0.2430: real time    0.2641
    SETDIJ:  cpu time    0.4086: real time    0.4086
     EDDAV:  cpu time   72.7466: real time   72.7505
       DOS:  cpu time    0.0023: real time    0.0023
    CHARGE:  cpu time    2.7700: real time    2.7701
    MIXING:  cpu time    0.0144: real time    0.0144
    --------------------------------------------
      LOOP:  cpu time   76.1849: real time   76.2099

 eigenvalue-minimisations  : 11488
 total energy-change (2. order) : 0.2378177E-01  (-0.2123584E-01)
 number of electron     864.0000006 magnetization 
 augmentation part      117.5032153 magnetization 

 Broyden mixing:
  rms(total) = 0.10368E+00    rms(broyden)= 0.10348E+00
  rms(prec ) = 0.15466E+00
  weight for this iteration     100.00

 eigenvalues of (default mixing * dielectric matrix)
  average eigenvalue GAMMA=   1.0396
  2.4470  1.9317  0.9369  0.9369  0.7892  0.7892  0.2254  0.2604

 Free energy of the ion-electron system (eV)
  ---------------------------------------------------
  alpha Z        PSCENC =      1736.69897902
  Ewald energy   TEWEN  =    -31767.57751169
  -Hartree energ DENC   =    -29872.22195072
  -exchange      EXHF   =         0.00000000
  -V(xc)+E(xc)   XCENC  =      3216.88371763
  PAW double counting   =     83002.71987499   -82670.79714086
  entropy T*S    EENTRO =        -0.01578610
  eigenvalues    EBANDS =     -9503.52243536
  atomic energy  EATOM  =     64968.54023382
  Solvation  Ediel_sol  =         0.00000000
  ---------------------------------------------------
  free energy    TOTEN  =      -889.29201926 eV

  energy without entropy =     -889.27623316  energy(sigma->0) =     -889.28412621


--------------------------------------------------------------------------------------------------------




--------------------------------------- Iteration      1(  14)  ---------------------------------------


    POTLOK:  cpu time    0.2359: real time    0.2516
    SETDIJ:  cpu time    0.4108: real time    0.4109
     EDDAV:  cpu time   61.1563: real time   61.1582
       DOS:  cpu time    0.0023: real time    0.0023
    CHARGE:  cpu time    2.8127: real time    2.8127
    MIXING:  cpu time    0.0158: real time    0.0158
    --------------------------------------------
      LOOP:  cpu time   64.6337: real time   64.6515

 eigenvalue-minimisations  :  9224
 total energy-change (2. order) :-0.2046084E-01  (-0.8918997E-02)
 number of electron     864.0000006 magnetization 
 augmentation part      117.4497418 magnetization 

 Broyden mixing:
  rms(total) = 0.95190E-01    rms(broyden)= 0.95105E-01
  rms(prec ) = 0.13185E+00
  weight for this iteration     100.00

 eigenvalues of (default mixing * dielectric matrix)
  average eigenvalue GAMMA=   1.0789
  2.4736  2.3396  0.9782  0.9782  0.8753  0.8753  0.7317  0.2291  0.2291

 Free energy of the ion-electron system (eV)
  ---------------------------------------------------
  alpha Z        PSCENC =      1736.69897902
  Ewald energy   TEWEN  =    -31767.57751169
  -Hartree energ DENC   =    -29886.53763985
  -exchange      EXHF   =         0.00000000
  -V(xc)+E(xc)   XCENC  =      3217.26969842
  PAW double counting   =     82968.83882482   -82635.42553004
  entropy T*S    EENTRO =        -0.02318193
  eigenvalues    EBANDS =     -9491.09635268
  atomic energy  EATOM  =     64968.54023382
  Solvation  Ediel_sol  =         0.00000000
  ---------------------------------------------------
  free energy    TOTEN  =      -889.31248010 eV

  energy without entropy =     -889.28929817  energy(sigma->0) =     -889.30088913


--------------------------------------------------------------------------------------------------------




--------------------------------------- Iteration      1(  15)  ---------------------------------------


    POTLOK:  cpu time    0.2259: real time    0.2429
    SETDIJ:  cpu time    0.3987: real time    0.3987
     EDDAV:  cpu time   67.8619: real time   67.8661
       DOS:  cpu time    0.0022: real time    0.0022
    CHARGE:  cpu time    2.8132: real time    2.8132
    MIXING:  cpu time    0.0153: real time    0.0153
    --------------------------------------------
      LOOP:  cpu time   71.3172: real time   71.3384

 eigenvalue-minimisations  : 10616
 total energy-change (2. order) :-0.2745366E-01  (-0.1609263E-01)
 number of electron     864.0000006 magnetization 
 augmentation part      117.3116721 magnetization 

 Broyden mixing:
  rms(total) = 0.32361E+00    rms(broyden)= 0.32332E+00
  rms(prec ) = 0.43734E+00
  weight for this iteration     100.00

 eigenvalues of (default mixing * dielectric matrix)
  average eigenvalue GAMMA=   1.0454
  2.8271  2.3891  0.9837  0.9837  1.0013  0.7459  0.7459  0.3593  0.2088  0.2088

 Free energy of the ion-electron system (eV)
  ---------------------------------------------------
  alpha Z        PSCENC =      1736.69897902
  Ewald energy   TEWEN  =    -31767.57751169
  -Hartree energ DENC   =    -29895.49148092
  -exchange      EXHF   =         0.00000000
  -V(xc)+E(xc)   XCENC  =      3217.46848084
  PAW double counting   =     82901.66774866   -82567.32933279
  entropy T*S    EENTRO =        -0.04528681
  eigenvalues    EBANDS =     -9483.27176389
  atomic energy  EATOM  =     64968.54023382
  Solvation  Ediel_sol  =         0.00000000
  ---------------------------------------------------
  free energy    TOTEN  =      -889.33993376 eV

  energy without entropy =     -889.29464695  energy(sigma->0) =     -889.31729036


--------------------------------------------------------------------------------------------------------




--------------------------------------- Iteration      1(  16)  ---------------------------------------


    POTLOK:  cpu time    0.2275: real time    0.2489
    SETDIJ:  cpu time    0.3959: real time    0.3959
     EDDAV:  cpu time   69.7079: real time   69.7074
       DOS:  cpu time    0.0023: real time    0.0023
    CHARGE:  cpu time    2.7598: real time    2.7598
    MIXING:  cpu time    0.0145: real time    0.0145
    --------------------------------------------
      LOOP:  cpu time   73.1079: real time   73.1288

 eigenvalue-minimisations  : 11016
 total energy-change (2. order) : 0.1330104E-01  (-0.2357850E-01)
 number of electron     864.0000006 magnetization 
 augmentation part      117.4708569 magnetization 

 Broyden mixing:
  rms(total) = 0.88547E-01    rms(broyden)= 0.87800E-01
  rms(prec ) = 0.12067E+00
  weight for this iteration     100.00

 eigenvalues of (default mixing * dielectric matrix)
  average eigenvalue GAMMA=   1.0667
  2.9059  2.4622  1.1304  1.1304  0.9477  0.9477  0.7360  0.7360  0.3256  0.2162
  0.1951

 Free energy of the ion-electron system (eV)
  ---------------------------------------------------
  alpha Z        PSCENC =      1736.69897902
  Ewald energy   TEWEN  =    -31767.57751169
  -Hartree energ DENC   =    -29898.83116520
  -exchange      EXHF   =         0.00000000
  -V(xc)+E(xc)   XCENC  =      3217.54059382
  PAW double counting   =     82873.77834704   -82538.85634462
  entropy T*S    EENTRO =        -0.01834814
  eigenvalues    EBANDS =     -9480.60141677
  atomic energy  EATOM  =     64968.54023382
  Solvation  Ediel_sol  =         0.00000000
  ---------------------------------------------------
  free energy    TOTEN  =      -889.32663272 eV

  energy without entropy =     -889.30828458  energy(sigma->0) =     -889.31745865


--------------------------------------------------------------------------------------------------------




--------------------------------------- Iteration      1(  17)  ---------------------------------------


    POTLOK:  cpu time    0.2176: real time    0.2409
    SETDIJ:  cpu time    0.3862: real time    0.3862
     EDDAV:  cpu time   61.6069: real time   61.6066
       DOS:  cpu time    0.0024: real time    0.0024
    CHARGE:  cpu time    2.8160: real time    2.8160
    MIXING:  cpu time    0.0155: real time    0.0154
    --------------------------------------------
      LOOP:  cpu time   65.0446: real time   65.0676

 eigenvalue-minimisations  :  9416
 total energy-change (2. order) :-0.4968579E-02  (-0.7057338E-03)
 number of electron     864.0000006 magnetization 
 augmentation part      117.4650598 magnetization 

 Broyden mixing:
  rms(total) = 0.88245E-01    rms(broyden)= 0.88213E-01
  rms(prec ) = 0.11868E+00
  weight for this iteration     100.00

 eigenvalues of (default mixing * dielectric matrix)
  average eigenvalue GAMMA=   1.0887
  3.1860  2.4788  1.2823  1.0440  1.0440  0.9317  0.9317  0.7065  0.7065  0.3401
  0.2150  0.1981

 Free energy of the ion-electron system (eV)
  ---------------------------------------------------
  alpha Z        PSCENC =      1736.69897902
  Ewald energy   TEWEN  =    -31767.57751169
  -Hartree energ DENC   =    -29901.04876472
  -exchange      EXHF   =         0.00000000
  -V(xc)+E(xc)   XCENC  =      3217.54050200
  PAW double counting   =     82842.61192265   -82507.68384601
  entropy T*S    EENTRO =        -0.02056096
  eigenvalues    EBANDS =     -9478.39255542
  atomic energy  EATOM  =     64968.54023382
  Solvation  Ediel_sol  =         0.00000000
  ---------------------------------------------------
  free energy    TOTEN  =      -889.33160130 eV

  energy without entropy =     -889.31104034  energy(sigma->0) =     -889.32132082


--------------------------------------------------------------------------------------------------------




--------------------------------------- Iteration      1(  18)  ---------------------------------------


    POTLOK:  cpu time    0.2289: real time    0.2472
    SETDIJ:  cpu time    0.3957: real time    0.3957
     EDDAV:  cpu time   72.0676: real time   72.0697
       DOS:  cpu time    0.0025: real time    0.0025
    CHARGE:  cpu time    2.7705: real time    2.7705
    MIXING:  cpu time    0.0152: real time    0.0152
    --------------------------------------------
      LOOP:  cpu time   75.4803: real time   75.5008

 eigenvalue-minimisations  : 11480
 total energy-change (2. order) : 0.3208606E-02  (-0.4343810E-03)
 number of electron     864.0000006 magnetization 
 augmentation part      117.4593926 magnetization 

 Broyden mixing:
  rms(total) = 0.47834E-01    rms(broyden)= 0.47825E-01
  rms(prec ) = 0.65422E-01
  weight for this iteration     100.00

 eigenvalues of (default mixing * dielectric matrix)
  average eigenvalue GAMMA=   1.1295
  3.5437  2.3797  2.0088  0.8942  0.8942  0.9492  0.9492  0.8499  0.7342  0.7342
  0.3343  0.2153  0.1975

 Free energy of the ion-electron system (eV)
  ---------------------------------------------------
  alpha Z        PSCENC =      1736.69897902
  Ewald energy   TEWEN  =    -31767.57751169
  -Hartree energ DENC   =    -29902.72280982
  -exchange      EXHF   =         0.00000000
  -V(xc)+E(xc)   XCENC  =      3217.56367529
  PAW double counting   =     82825.55955404   -82490.69993351
  entropy T*S    EENTRO =        -0.02290325
  eigenvalues    EBANDS =     -9476.66767661
  atomic energy  EATOM  =     64968.54023382
  Solvation  Ediel_sol  =         0.00000000
  ---------------------------------------------------
  free energy    TOTEN  =      -889.32839269 eV

  energy without entropy =     -889.30548944  energy(sigma->0) =     -889.31694107


--------------------------------------------------------------------------------------------------------




--------------------------------------- Iteration      1(  19)  ---------------------------------------


    POTLOK:  cpu time    0.2236: real time    0.2423
    SETDIJ:  cpu time    0.3852: real time    0.3852
     EDDAV:  cpu time   67.6529: real time   67.6550
       DOS:  cpu time    0.0023: real time    0.0023
    CHARGE:  cpu time    2.8120: real time    2.8120
    MIXING:  cpu time    0.0143: real time    0.0143
    --------------------------------------------
      LOOP:  cpu time   71.0902: real time   71.1110

 eigenvalue-minimisations  : 10608
 total energy-change (2. order) : 0.5153455E-03  (-0.2189651E-03)
 number of electron     864.0000006 magnetization 
 augmentation part      117.4437513 magnetization 

 Broyden mixing:
  rms(total) = 0.13609E-01    rms(broyden)= 0.13546E-01
  rms(prec ) = 0.18808E-01
  weight for this iteration     100.00

 eigenvalues of (default mixing * dielectric matrix)
  average eigenvalue GAMMA=   1.1780
  3.9253  2.3309  2.3309  1.1002  1.1002  0.8731  0.8731  0.8892  0.8892  0.7161
  0.7161  0.3350  0.2152  0.1975

 Free energy of the ion-electron system (eV)
  ---------------------------------------------------
  alpha Z        PSCENC =      1736.69897902
  Ewald energy   TEWEN  =    -31767.57751169
  -Hartree energ DENC   =    -29903.67087583
  -exchange      EXHF   =         0.00000000
  -V(xc)+E(xc)   XCENC  =      3217.57396096
  PAW double counting   =     82828.91176280   -82494.20571278
  entropy T*S    EENTRO =        -0.02694675
  eigenvalues    EBANDS =     -9475.57176690
[...]
   0.116E+03 0.101E+03 0.975E+02   -.112E+03 -.107E+03 -.102E+03   -.420E+01 0.505E+01 0.462E+01   -.635E-03 0.127E-02 -.106E-02
   0.152E+03 0.702E+02 -.974E+02   -.170E+03 -.663E+02 0.858E+02   0.153E+02 -.633E+01 0.127E+02   -.184E-02 -.209E-02 0.460E-03
   -.891E+02 -.106E+03 -.328E+02   0.109E+03 0.109E+03 0.231E+02   -.213E+02 -.211E+01 0.101E+02   0.112E-02 0.614E-03 -.114E-02
   0.214E+01 -.896E+02 -.122E+03   0.231E+01 0.111E+03 0.126E+03   -.623E+01 -.220E+02 0.386E+00   0.327E-03 0.463E-03 -.130E-03
   -.544E+02 0.575E+02 -.775E+02   0.688E+02 -.797E+02 0.761E+02   -.155E+02 0.245E+02 0.204E+01   -.102E-02 0.917E-03 -.244E-03
   -.163E+03 -.752E+02 0.913E+02   0.164E+03 0.102E+03 -.894E+02   0.574E+00 -.254E+02 -.132E+01   -.410E-03 -.608E-03 -.686E-03
   -.411E+02 -.744E+02 -.314E+02   0.115E+02 0.958E+02 0.333E+02   0.247E+02 -.157E+02 -.164E+01   0.110E-02 -.122E-02 0.988E-03
   0.100E+02 -.805E+02 0.139E+03   0.271E+01 0.647E+02 -.139E+03   -.137E+02 0.178E+02 0.254E+00   -.828E-03 0.395E-03 -.492E-03
   0.370E+02 0.112E+03 -.128E+03   -.600E+02 -.135E+03 0.134E+03   0.245E+02 0.191E+02 -.428E+01   0.121E-02 0.479E-03 -.412E-03
   0.151E+03 0.615E+02 0.365E+01   -.158E+03 -.596E+02 0.152E+02   0.733E+01 -.352E+01 -.210E+02   -.101E-02 -.118E-02 -.639E-03
   -.626E+02 -.168E+03 -.219E+02   0.495E+02 0.186E+03 0.298E+02   0.146E+02 -.184E+02 -.881E+01   0.627E-04 0.935E-03 -.788E-03
   -.111E+03 0.885E+02 -.116E+03   0.138E+03 -.977E+02 0.116E+03   -.305E+02 0.969E+01 0.114E+00   -.682E-03 0.519E-03 0.458E-03
   0.133E+03 -.168E+03 -.593E+02   -.142E+03 0.180E+03 0.806E+02   0.104E+02 -.110E+02 -.214E+02   -.155E-02 0.424E-03 -.158E-02
   0.186E+03 -.544E+02 0.226E+03   -.208E+03 0.447E+02 -.240E+03   0.238E+02 0.127E+02 0.158E+02   -.308E-02 0.100E-02 -.251E-03
   0.207E+03 -.148E+03 -.101E+03   -.224E+03 0.161E+03 0.950E+02   0.193E+02 -.146E+02 0.730E+01   -.940E-03 0.659E-03 -.394E-03
   -.313E+02 -.217E+02 0.163E+02   0.366E+02 0.180E+02 -.244E+02   -.588E+01 0.455E+01 0.941E+01   -.369E-03 0.380E-03 0.720E-03
   0.127E+03 -.239E+02 0.387E+02   -.131E+03 0.460E+02 -.353E+02   0.205E+01 -.218E+02 -.410E+01   0.107E-02 -.567E-03 -.468E-03
   0.156E+03 0.115E+02 0.195E+03   -.169E+03 -.117E+02 -.203E+03   0.145E+02 -.115E+01 0.944E+01   -.200E-02 0.260E-02 -.151E-02
   0.567E+02 0.161E+03 -.106E+03   -.438E+02 -.178E+03 0.945E+02   -.146E+02 0.200E+02 0.136E+02   0.935E-03 0.153E-02 -.109E-02
   -.313E+02 0.647E+02 0.139E+02   0.487E+02 -.796E+02 -.525E+01   -.187E+02 0.154E+02 -.942E+01   0.575E-03 -.805E-03 -.498E-03
   0.443E+02 -.736E+02 -.705E+02   -.579E+02 0.962E+02 0.768E+02   0.145E+02 -.239E+02 -.570E+01   0.152E-02 -.724E-03 -.512E-03
   0.171E+03 0.346E+02 -.123E+03   -.189E+03 -.235E+02 0.140E+03   0.188E+02 -.151E+02 -.195E+02   0.643E-03 0.315E-03 -.162E-02
   -.160E+02 0.819E+02 -.150E+03   0.353E+02 -.833E+02 0.151E+03   -.236E+02 0.932E+00 0.199E+01   -.129E-02 0.124E-02 -.111E-02
   -.714E+02 -.646E+02 0.972E+02   0.626E+02 0.825E+02 -.911E+02   0.980E+01 -.186E+02 -.714E+01   -.335E-02 0.237E-02 -.115E-02
   -.556E+02 -.703E+02 0.646E+02   0.686E+02 0.532E+02 -.734E+02   -.141E+02 0.172E+02 0.799E+01   0.244E-02 0.179E-02 0.166E-02
   -.178E+03 0.272E+02 -.672E+02   0.188E+03 -.300E+02 0.381E+02   -.103E+02 0.211E+01 0.310E+02   0.118E-02 -.457E-03 0.795E-03
   -.372E+01 0.447E+02 -.152E+03   0.120E+02 -.623E+02 0.157E+03   -.102E+02 0.180E+02 -.447E+01   -.154E-02 0.930E-03 0.114E-02
   0.844E+02 0.183E+03 -.799E+02   -.956E+02 -.202E+03 0.766E+02   0.133E+02 0.197E+02 0.364E+01   0.754E-03 -.538E-03 0.400E-03
   -.123E+03 -.202E+02 -.213E+03   0.117E+03 0.396E+02 0.234E+03   0.709E+01 -.206E+02 -.222E+02   0.430E-03 0.198E-02 0.822E-03
   -.616E+01 0.195E+01 -.167E+03   -.476E+01 -.287E+02 0.179E+03   0.102E+02 0.255E+02 -.842E+01   -.151E-02 0.806E-03 0.886E-03
   -.215E+03 -.695E+02 0.639E+02   0.233E+03 0.803E+02 -.529E+02   -.166E+02 -.124E+02 -.141E+02   0.111E-02 0.146E-02 -.121E-02
   -.228E+02 0.172E+03 0.582E+02   0.121E+02 -.181E+03 -.532E+02   0.128E+02 0.833E+01 -.853E+01   -.657E-03 0.176E-02 -.505E-03
   0.209E+02 0.890E+02 0.990E+02   -.146E+02 -.981E+02 -.125E+03   -.763E+01 0.795E+01 0.250E+02   -.329E-02 -.205E-02 -.417E-02
   0.510E+02 -.725E+02 0.776E+02   -.413E+02 0.750E+02 -.101E+03   -.108E+02 -.334E+01 0.233E+02   -.161E-02 -.766E-03 0.118E-02
   -.673E+02 -.230E+03 0.110E+03   0.840E+02 0.256E+03 -.127E+03   -.171E+02 -.247E+02 0.158E+02   -.586E-03 -.591E-05 0.261E-02
   -.111E+03 0.107E+03 0.154E+03   0.803E+02 -.112E+03 -.158E+03   0.305E+02 0.301E+01 0.121E+01   0.783E-03 -.137E-02 -.567E-03
   -.211E+03 0.882E+02 -.798E+02   0.236E+03 -.837E+02 0.751E+02   -.285E+02 -.783E+01 0.796E+01   0.124E-02 -.109E-02 -.111E-02
   -.185E+02 0.185E+03 -.658E+02   0.700E+01 -.211E+03 0.675E+02   0.114E+02 0.252E+02 -.157E+01   0.124E-02 -.390E-03 -.898E-03
   0.133E+02 -.243E-01 0.239E+02   -.167E+02 0.203E+01 -.247E+02   0.403E+01 -.429E+01 0.167E+00   0.169E-02 -.172E-02 0.130E-02
   0.892E+02 0.844E+02 -.194E+01   -.891E+02 -.925E+02 0.130E+02   -.244E+01 0.103E+02 -.122E+02   0.323E-02 -.355E-03 0.373E-04
   -.457E+02 -.241E+03 -.398E+02   0.582E+02 0.263E+03 0.491E+02   -.129E+02 -.207E+02 -.125E+02   -.415E-03 0.101E-02 -.995E-03
   -.131E+03 -.645E+02 -.387E+01   0.153E+03 0.684E+02 0.118E+02   -.241E+02 -.485E+01 -.854E+01   0.130E-02 -.194E-03 -.374E-04
   -.140E+03 -.103E+03 -.134E+03   0.163E+03 0.894E+02 0.148E+03   -.221E+02 0.124E+02 -.127E+02   -.119E-02 0.230E-02 0.305E-02
   0.121E+03 0.571E+02 0.112E+03   -.143E+03 -.670E+02 -.106E+03   0.242E+02 0.101E+02 -.704E+01   0.199E-02 0.394E-03 0.679E-03
   0.172E+03 -.448E+02 0.202E+03   -.203E+03 0.415E+02 -.213E+03   0.324E+02 0.333E+01 0.102E+02   0.759E-03 0.864E-03 0.184E-02
   -.204E+02 0.178E+03 0.921E+02   0.398E+02 -.185E+03 -.107E+03   -.215E+02 0.295E+01 0.149E+02   -.104E-02 -.236E-02 -.402E-03
   -.980E+02 0.129E+02 -.509E+02   0.952E+02 0.671E+01 0.503E+02   0.246E+01 -.207E+02 -.328E+00   0.287E-03 -.804E-03 -.642E-03
   0.925E+02 -.160E+03 0.167E+03   -.118E+03 0.147E+03 -.179E+03   0.260E+02 0.136E+02 0.115E+02   0.214E-02 0.159E-02 0.198E-02
 -----------------------------------------------------------------------------------------------
   -.201E+03 0.108E+02 0.202E+03   -.132E-11 0.398E-12 0.426E-12   0.201E+03 -.108E+02 -.202E+03   0.358E-03 0.552E-02 -.152E-02
 
 
 POSITION                                       TOTAL-FORCE (eV/Angst)
 -----------------------------------------------------------------------------------
      4.29405      2.65780      2.79634         0.979604      0.865464      0.298217
     12.18719      6.38317     10.61999         5.634640      1.180820     -0.149643
      1.16727      3.50696      4.10018        -1.046744      0.346262      0.654676
      5.10460      3.07451     12.45366        -0.921157     -2.182175     -1.097087
      1.29079      4.24197      0.05287        -0.056622      2.342932     -0.123769
     13.11556      0.38679      7.13333        -0.566837     -0.648535     -0.027401
      9.95404      0.07281     11.62697        -0.214866     -0.744935     -0.602959
     12.91481      8.53139      3.05952        -0.581747     -1.570866     -1.961641
      0.85946      5.95265      6.81621         0.425661     -2.541334      5.114578
     11.95738     11.56937      1.03269         1.373533      0.589610      0.917294
      1.32175     13.55332      2.63519        -0.653899     -0.831506     -0.443245
      9.21912      3.21749      9.69499        -1.471372      0.240632     -0.037256
     10.18755      8.48149     13.64030         0.581593     -0.171586      0.711386
     10.10441      7.16581      6.55203         0.254901      1.565379      0.563667
      7.47662     12.93131      0.96038        -0.910345      0.346275      1.630027
      7.69589     11.93107      8.30412        -0.813803     -1.058792     -1.246726
      3.34829     12.41884     12.73006        -1.858923     -0.130925      1.311412
      3.09642     13.85062      6.07394        -1.480322      1.334702     -0.213756
      8.89730      0.49065      4.21314        -0.063474     -0.248578      1.064384
     11.96346      2.37887      0.75488         0.514391     -0.065334      1.760455
      1.30077     11.65021      7.99351        -0.777905     -0.778223      0.416168
     11.28063     11.56216      7.32800         1.845573      2.254423     -1.329036
      6.99232      8.36812     10.98955         1.192701     -0.374337     -0.537329
      3.70312      6.44519      2.95286         0.997097     -0.369336     -0.730417
      7.92614      6.96789      2.63025        -0.140827     -0.121835      0.368361
      3.49672      9.34738     11.73398        -0.071585     -0.291146      0.630869
      3.20166      8.14424      6.86092         0.639476      1.196321      0.206930
      5.25581      4.83468      5.80795         2.157252     -2.793819     -3.153268
      6.84665      8.77528      0.80869         2.374293      1.372595     -1.517814
      9.37502      0.52405      7.63159         0.537806     -0.559918     -1.595836
      6.63847      0.86834     10.49127         0.776528      2.025354      0.877481
      0.08497     13.25446     13.57728        -2.626889     -0.696765     -1.440124
      2.17683     10.76200      1.01596        -1.050668      2.435060      1.851717
      0.38921      8.73445      8.92879         3.706454      6.185174     -2.218329
     12.75565      6.87188      5.54154         2.643797     -3.909681      0.974327
      8.81660      2.96231      2.31201        -0.648507      0.801921      0.759382
      9.25952     10.64710      2.15225        -0.275511     -1.068723     -0.597355
      0.37095     11.22624      3.97229         2.681362      4.742665     -4.534984
     13.01888      6.65676      0.35691         1.648853      1.570846      4.120315
      2.55986      6.79088     10.31173        -1.592701     -0.882685      3.011977
      4.36150     13.05144      3.22777        -0.174497     -1.364464     -4.037273
      9.02540      6.17175     11.51611        -0.570527      3.051961     -0.569958
      1.01954      1.23913     12.29906        -0.844986      0.360948     -1.845108
     12.19253      4.70337      3.08829        -0.325324     -0.381704     -6.052764
      6.15514      4.30179      0.65306         1.650509      4.338911      0.928016
      5.52977      5.49856     11.86640         3.925759      3.490087     -1.694216
      5.71724      3.37400      8.83052         4.632748      0.945469      2.019522
      8.50606     10.20687      5.10512        -4.186297     -1.284217      1.078861
      5.35257     12.32762     10.61179         2.289615      0.301933      3.543984
      1.06542      2.25788      7.56078         0.797584     -0.515296     -5.452464
      4.94548     11.41115      5.71014        -0.149294     -3.177152      6.244516
      6.52836     10.87174     12.45630         0.245629      5.390505      0.143266
      9.95174      9.92113      8.58594         0.356058     -3.440903      1.499674
      1.52927      3.90495      9.67906        -0.138069      1.671859      3.656342
      3.71752     10.42937      6.45341         1.298345     -1.634981     -1.802686
      0.67819     10.12496      9.70387         0.941100      1.682729     -1.932063
      8.03993      1.81013     11.28242        -0.107436     -1.805633     -1.947175
      5.28407     11.96165     12.34263         0.190654      0.313596     -0.442873
      9.13300      8.53948      8.36913         0.148364      0.037850     -0.146188
      6.60955     10.92768     10.76728        -0.126620      0.097391     -2.018044
     12.29460      6.42579      7.14213         0.902211      0.576356     -2.850564
      3.08993      7.46614      9.02368         1.066998      0.626662     -1.443804
      7.46141      3.00846      8.61578        -2.125084     -0.085449     -0.225709
     11.71951      7.87406      5.00873        -1.830252      1.667962     -1.367088
     12.44348      5.31100      4.49200         0.899779      1.968031      3.147504
      0.45862      5.00679      9.17702         0.545597     -0.013945     -0.386617
      4.63213     11.75501      4.18288         0.400971      0.923573      0.322888
      7.68626      2.01449      3.44617         3.213642      1.472404     -2.383839
     11.98486      5.81081      1.73388         2.548816      0.546556     -0.623259
      7.64319     10.70814      1.47918         0.800917     -2.878479      0.402727
      5.97993      4.53694     10.09643        -2.245359     -0.655977      0.280866
     13.73431      7.90386      9.90823        -4.337821     -6.099445      3.502193
      9.88219      2.02538      1.44842        -1.316973     -0.209403      0.215989
     13.28549     12.26150      7.02583         0.629223      0.746623      0.281505
      4.17985      5.19604     12.56266        -1.374725     -2.974332      0.736039
     13.69171      3.28805      7.30623         2.767173     -3.612856      0.394024
      8.07847      7.79521      0.19055        -2.479464      1.917248      1.965829
      2.22107      2.71755      8.60623        -0.279795      2.767704      2.089232
      5.99935      0.12705     11.77062        -2.055931      0.773670     -0.102966
      1.58506      2.25376     13.39546        -0.229751     -0.113220      1.663292
      4.43752     12.48512      7.13417         2.226765      0.607414     -2.740650
     13.46686      3.61567      2.52950        -1.905525      0.086911      0.283870
      0.57522      6.92506      5.17817        -4.380432      1.093970     -1.690817
      3.27371     12.05351      1.81953        -0.125622      0.385933     -0.846714
      5.34432      4.14232      7.22080         1.025101     -2.779240      3.570948
      9.14871     10.90838      6.49378         1.816221     -0.999440     -0.405466
      6.06554      8.19650      2.02215        -0.323434      0.039809      0.387223
      1.19850     11.96370     13.99747        -0.371372     -0.508937      0.255891
     10.63830      4.26837      2.65417        -2.154846     -2.506654      1.153554
      5.79897     13.31093      2.45337        -1.110755      0.785381      0.446603
      8.97534     10.97981      3.69611        -1.790531     -1.166026      5.086476
     10.09836      9.27442      1.70804        -1.113010      2.232710      0.610376
      9.08779      7.74376     11.79198         1.580907      1.392760      0.582144
      4.13075      5.78845      5.87301        -4.957770      5.656673      0.262484
      1.84273     13.82139     12.55971        -0.971613      2.057710     -0.135671
      5.66009      9.62200     12.77398         1.539827     -3.868449      2.580124
      1.02786      3.23537     11.23186         0.560877     -1.593350     -2.137899
      3.44440      0.38899      3.72349         1.545757     -0.785880     -0.973460
     11.61357      9.72468      8.33928        -3.060270      0.414140      0.299546
     13.73953      0.09743      0.91664         1.099174      0.943652     -0.207994
     13.58336      0.28760     11.95068         2.270967      2.987343      1.418631
     13.25090     12.39374      3.26878         2.278143     -1.258835      1.235042
      1.82275      2.09832      5.75407        -0.514629      0.850889      1.357607
      5.58398      7.10978     11.70765        -2.025751      0.321517     -0.664622
     12.34385     12.78946     13.23642         0.791890     -1.334258      0.900266
      3.00954      9.83421     13.89154        -1.624140      2.285827      1.918643
      2.80617      5.10745     10.32996        -1.292824      0.541144     -0.816703
      5.31112      5.53841      1.30695         0.893169     -1.266648      0.549551
      2.01452      7.94012     11.49646         1.505184     -3.943291     -2.443829
      2.04973     12.02886      4.08291        -4.289948     -0.450338      2.365156
     12.17453      8.11215      0.64530         0.998411     -0.746394     -1.095389
      7.14686     13.47492      9.78954        -1.205266      0.080028     -0.770366
      5.73322      4.58702      4.25967         0.121351     -0.656214      1.965082
      1.32894      0.54241      7.68226        -1.932467      0.476730      0.334676
      8.11439      8.58702      4.72757         2.095654      0.627141      0.357530
      9.38437     11.15424      9.50125         0.950541     -1.175917     -1.210404
     13.75308      9.87088      4.25354        -0.729597     -1.212909      3.471388
      7.56756     11.74898     13.34858         0.778460     -1.616770     -3.192342
      0.96827     10.51384      2.32274         2.140222     -0.535750     -3.525134
     13.08245      6.08659     12.89263        -1.361790     -1.192623     -1.329966
      1.19595      8.62715      7.53871        -1.123966     -0.848292     -0.317688
     10.06909      1.64495      6.78160        -0.414975      1.308598     -1.240964
      7.52424      5.95893     11.33802         0.019547     -1.288292     -2.315367
      6.77801      4.84987     12.98694        -2.729254     -3.232257      3.283815
      5.37944      2.89286      0.67004        -0.057471     -0.781425      0.128454
      2.54886      4.79884      3.14309         0.628975     -2.287160     -0.628214
      6.79172     10.56999      5.93718        -2.346681      2.110957     -1.160885
     10.16688     12.01595      2.18961        -0.326768      1.284605     -3.296863
      0.65041      6.64813      0.97213        -2.459111     -0.889600     -0.645917
     10.55184     13.80505      8.40057         0.727872     -0.864291      2.108112
      5.17575      1.94444      9.79821         2.409280      0.160233     -0.709471
      3.80139     12.09427     10.31313         0.663957      0.069847     -0.653658
     10.33004      5.78296     10.75103        -2.122460     -3.656284     -0.488832
      7.84867      4.24095      1.72404        -0.414289     -1.107367     -0.911634
      8.13369     13.68574      7.13962         0.074023      0.972995     -0.833534
 -----------------------------------------------------------------------------------
    total drift:                               -0.005754     -0.000739     -0.008756


--------------------------------------------------------------------------------------------------------



  FREE ENERGIE OF THE ION-ELECTRON SYSTEM (eV)
  ---------------------------------------------------
  free  energy   TOTEN  =      -889.32816519 eV

  energy  without entropy=     -889.29976951  energy(sigma->0) =     -889.31396735
 


--------------------------------------------------------------------------------------------------------


    POTLOK:  cpu time    0.5602: real time    0.5602


--------------------------------------------------------------------------------------------------------


     LOOP+:  cpu time 1865.8194: real time 1866.3851
    4ORBIT:  cpu time    0.0000: real time    0.0000

 total amount of memory used by VASP MPI-rank0   227748. kBytes
=======================================================================

   base      :      30000. kBytes
   nonlr-proj:      20343. kBytes
   fftplans  :      36399. kBytes
   grid      :      20695. kBytes
   one-center:        171. kBytes
   wavefun   :     120140. kBytes
 
  
  
 General timing and accounting informations for this job:
 ========================================================
  
                  Total CPU time used (sec):     1901.337
                            User time (sec):     1890.987
                          System time (sec):       10.350
                         Elapsed time (sec):     1902.110
  
                   Maximum memory used (kb):      382728.
                   Average memory used (kb):           0.
  
                          Minor page faults:       181545
                          Major page faults:            0
                 Voluntary context switches:         2664
