135
Time=99999.99999996 pbc="T T T" Lattice="14.01277600 0.00000000 0.00000000 0.00000000 14.01277600 0.00000000 0.00000000 0.00000000 14.01277600" energy=-849.00718216 virial="-43.07356720 7.71238972 -12.16514953 7.71238972 -51.55793795 20.31109736 -12.16514953 20.31109736 -113.59016842" stress="0.00548551 0.00280296 -0.00442125 0.00280296 0.00240199 0.00738178 -0.00442125 0.00738178 -0.02014273" Properties=species:S:1:pos:R:3
Ca 1.69622054 1.18193172 4.62677883
Ca 9.97816977 5.46421600 8.20012332
Ca 7.38423863 5.50750877 13.59235074
Ca 11.59425371 11.98300455 9.61583889
Ca 3.31388672 3.84088788 3.06630465
Ca 2.95522788 10.27587416 11.56713942
Ca 4.29352655 12.56882642 6.15560939
Ca 11.77613044 6.80900470 0.91457644
Ca 8.91158096 8.29844134 3.46938575
Ca 1.44009381 13.17558193 8.58938627
Ca 11.92640581 8.70879827 6.48884647
Ca 7.17043059 1.81190975 6.28990105
Ca 5.97475748 6.51418948 4.76274337
Ca 6.03913140 0.63516191 0.45402317
Ca 7.15310218 11.14086571 6.42308252
Ca 12.43761553 13.50671943 5.94786171
Ca 1.64210050 5.66152058 9.16852282
Ca 2.82201655 13.78846939 1.96860287
Ca 6.55702487 9.52610571 1.58099126
Ca 8.84481270 10.33016057 9.84968406
Ca 10.25901151 2.63280148 4.22713947
Ca 13.37853339 2.81249627 1.76052670
Ca 4.19832588 2.51068484 11.39835165
Ca 10.97222614 4.52251374 12.54559397
Ca 5.06805551 12.72468652 9.84691046
Ca 5.22573153 8.25498479 8.73585761
Ca 1.56494008 10.71633025 1.36321593
Si 2.56573865 13.92865774 12.69350562
Si 9.26239691 13.87683249 3.36816318
Si 13.27819529 3.02811179 9.62764798
Si 7.06349728 5.44205383 7.42245804
Si 10.05924679 6.66177313 11.29284743
Si 1.16655123 8.69724549 13.09075694
Si 12.79622513 10.11298189 12.24794262
Si 12.76368759 0.90628857 8.78350164
Si 4.71856432 8.10769759 13.56443294
Si 0.04168463 13.09875815 11.86039880
Si 8.32263117 13.54981219 9.04516104
Si 0.77900980 9.57657469 7.23844929
Si 4.51438673 12.15384702 3.13023957
Si 4.00851049 3.93881922 13.84415547
Si 3.09050645 10.27217059 8.16858715
Si 3.74729253 1.54578238 7.24639344
Si 4.69655635 4.53123379 7.74463227
Si 2.10677863 5.96798622 4.12033286
Si 13.36000832 13.53513727 2.65240386
Si 13.78336246 3.81164477 12.48318085
Si 11.18899581 6.98230729 4.21738419
Si 9.86560907 0.36352583 6.68093053
Si 10.32846245 11.42344976 1.89958931
Si 10.10378483 4.30210701 1.70205503
Si 8.07643415 8.11697788 7.03052051
Si 9.04914946 1.39766287 13.23771624
Si 0.28838964 8.69341492 3.71308629
O 4.85777147 3.93729283 1.34732300
O 11.27562468 3.33004652 2.05965559
O 4.72581869 10.24577517 7.54944965
O 8.60341766 11.82791284 8.31628173
O 8.90834996 3.94760920 2.54367690
O 12.16113197 2.06309096 9.87213269
O 10.90143373 10.19254364 3.24401749
O 5.62914423 6.83234433 13.51840163
O 1.71739771 12.57691666 11.49762821
O 3.45029587 9.32954148 9.57437584
O 8.34824255 10.36972131 1.89838412
O 0.34638017 9.96454458 2.83538159
O 5.00059517 13.16846906 1.65251761
O 2.98249895 0.54288334 6.39521948
O 6.93174571 7.88595745 3.05137595
O 10.08479596 5.93967558 3.18924277
O 4.60372480 8.55252790 1.09096238
O 8.29941739 8.69334901 11.30013611
O 6.80024880 13.45588050 9.15872071
O 9.97683102 2.09576000 7.06757802
O 10.75728383 7.48039579 13.14547458
O 2.31101636 9.18988474 13.81652024
O 13.04903202 7.68863081 3.80017821
O 3.74376986 6.17173824 8.78485405
O 13.18828082 9.14571720 13.67702811
O 10.82528427 0.07005212 8.51906248
O 5.97554620 4.32780974 8.58221244
O 0.10194487 1.74012659 8.67375561
O 9.20481061 9.00842710 7.88353231
O 5.23801820 10.82406873 3.46848793
O 3.47301491 12.69501635 13.95718747
O 5.12596146 5.99203606 6.79980753
O 13.00273631 2.72518856 13.30449322
O 7.04547977 6.97595889 7.44785637
O 8.95790723 0.72352153 11.59216272
O 0.76864671 0.34131994 12.65374455
O 3.17536117 12.53621036 3.94195129
O 9.39107403 7.26635607 6.02281935
O 5.29596842 3.50919541 12.95643259
O 2.35047365 9.44631273 6.76401321
O 8.09989191 4.63642724 8.90606656
O 0.37293849 0.86175199 2.50652920
O 4.08668367 1.23781369 2.94303416
O 0.57076878 9.62200412 11.71755946
O 3.80149770 6.14188988 3.72492166
O 3.19356716 0.17402686 10.99089393
O 9.72481250 4.94448003 0.31834066
O 1.40834453 10.94006095 8.07522344
O 0.28990852 9.73990275 5.30609913
O 7.47020922 4.80101850 5.71181429
O 1.59941876 7.24628716 12.55884353
O 13.02221692 1.24938393 4.35055390
O 13.39089983 11.57605840 12.72642776
O 13.02780044 13.93075619 10.92480024
O 4.51813539 8.84513934 11.99604074
O 13.38453672 4.47127816 8.64362682
O 12.04554410 10.33050069 10.72617728
O 0.53760866 3.20013261 10.78747663
O 10.46758888 6.66215543 9.92182967
O 8.46615514 0.95477397 3.78956202
O 13.25254457 12.96500652 8.32328390
O 13.55555370 8.86099305 7.86988055
O 5.50042199 1.03125261 7.19990898
O 9.84073636 2.52648276 13.60446438
O 2.05800804 3.91452220 13.22956411
O 3.39439919 1.13335484 13.16371183
O 10.57060537 0.55297371 5.31695314
O 3.33827916 12.43970662 8.25371189
O 8.37856122 1.05337088 0.67900956
O 1.27310053 4.57933382 3.03766512
O 2.85654776 1.56136877 8.63729879
O 8.89367467 5.80363438 12.03113457
O 13.83324267 12.08404620 4.08600770
O 12.21156835 13.90338057 1.70719355
O 8.49275907 0.00998608 6.94877531
O 4.52705055 3.02969593 6.70144670
O 1.87513735 7.45464098 3.48560038
O 9.25581924 12.23581199 3.65354072
O 7.15390370 8.91239893 6.16976815
O 13.17056585 5.31340896 12.19675819
O 2.08185467 5.91615733 5.84429187
135
Time=199999.99999918 pbc="T T T" Lattice="14.01277600 0.00000000 0.00000000 0.00000000 14.01277600 0.00000000 0.00000000 0.00000000 14.01277600" energy=-843.02485719 virial="-46.28321420 -0.41510630 4.91307044 -0.41510630 -35.77940740 -13.87813502 4.91307044 -13.87813502 -67.41250810" stress="0.00431901 -0.00015086 0.00178558 -0.00015086 0.00813647 -0.00504381 0.00178558 -0.00504381 -0.00336012" Properties=species:S:1:pos:R:3
Ca 7.41814045 8.06720520 11.08975218
Ca 0.35715064 7.16076367 6.53292007
Ca 3.02970382 4.02777897 1.09125690
Ca 9.09268134 2.17356847 2.90285862
Ca 13.31301553 7.08337649 1.09891728
Ca 6.06993301 11.31394226 7.39421468
Ca 11.84617555 8.95019734 12.67886922
Ca 11.63033273 13.60372011 8.48742399
Ca 9.11729548 1.41561195 13.48679360
Ca 7.90533769 2.66784907 6.20748095
Ca 1.18967079 11.98892127 5.84135444
Ca 9.71507825 11.67556684 3.01194416
Ca 10.18785130 5.66437575 4.00230482
Ca 0.90954616 13.75937826 0.27204137
Ca 1.07862439 8.35422704 11.74126621
Ca 9.22312776 6.02002262 13.06013638
Ca 13.45057517 10.88825983 1.21363075
Ca 3.76849386 7.38262006 2.02728477
Ca 5.10245221 4.40661681 11.42803059
Ca 5.38833524 10.83584605 13.79851812
Ca 2.87356273 12.92063027 3.13926757
Ca 0.20402441 2.24253023 8.03699063
Ca 8.78532179 8.37770874 5.93605237
Ca 7.78733165 0.12989258 8.10768020
Ca 10.21440548 4.73935748 9.54331663
Ca 4.62179648 2.16525773 4.55455922
Ca 7.73615879 6.59862333 7.95897354
Si 6.44920890 3.76762998 3.03475557
Si 9.20636208 8.72946970 0.05861794
Si 2.28990260 10.33319964 1.79417402
Si 11.64631860 3.65061347 0.87613790
Si 1.42431051 5.16758786 3.78899919
Si 13.86364302 10.94057634 11.92030097
Si 5.91593765 1.46369473 10.62279230
Si 12.35882961 8.81708060 8.93604175
Si 9.75513593 9.26393940 9.04977613
Si 12.29335903 1.69359286 1.86208115
Si 12.71529810 5.33217717 12.57758698
Si 11.43683073 2.55166156 6.84214177
Si 5.26389672 0.81143196 7.59707278
Si 4.78106549 13.88637880 13.71621218
Si 8.65904436 11.10673833 6.62826536
Si 11.84307366 13.27826432 12.82837675
Si 6.74914029 13.94071100 2.24704093
Si 3.38969427 9.47934194 8.00131231
Si 6.15592604 6.53535671 4.23854627
Si 3.42998201 5.15407714 6.71106648
Si 11.80639777 0.62185209 4.67760950
Si 9.50090612 1.45078596 10.24886364
Si 11.04496408 8.47749213 2.71436684
Si 12.90298252 3.66896901 3.82630356
Si 3.05978212 0.45206428 6.68858842
Si 12.78464528 1.19742786 10.75027707
Si 4.23521840 7.55639708 9.01523945
O 5.84697824 2.48949117 9.29911962
O 0.42016678 12.41192302 12.10386184
O 7.28664673 0.79563590 10.63671513
O 1.60717653 11.67979727 1.30883628
O 10.19648379 11.02088870 6.42820049
O 12.65176189 1.05674501 6.61520183
O 5.37089558 0.75864365 2.94006027
O 5.42265208 0.52987968 9.33489097
O 3.20029488 5.93688935 13.71776563
O 13.15855981 13.14326481 13.80354088
O 13.94466039 9.37310940 13.71470596
O 9.75248775 8.16317739 3.72106462
O 5.23147047 1.87539458 12.53780263
O 1.63567307 13.77370213 7.25149110
O 1.88964532 6.69847472 3.65924143
O 12.25266919 4.69531569 13.97765880
O 11.43327147 2.18056857 0.21364403
O 9.91655202 7.53073340 9.10862479
O 9.39524548 6.32548009 6.00256180
O 4.67606382 0.57756687 1.12974438
O 13.69635815 1.07472971 1.80081598
O 13.58689420 4.88999747 4.29410759
O 4.03088551 11.09327705 1.65865146
O 9.00366096 2.45963274 11.57841149
O 10.86084627 2.12744893 9.82700832
O 9.00783210 8.24192626 12.33733166
O 2.15135550 5.70159915 7.71385065
O 12.52228539 3.80745626 7.40461435
O 9.04163448 9.69641966 10.48246495
O 8.28331623 10.01999510 7.59179958
O 13.75778662 8.45964209 8.12279849
O 1.33072219 11.50247929 3.44650474
O 12.99566169 8.99945582 10.41332461
O 10.24502929 4.33496608 1.53343756
O 4.10447799 1.72215508 6.80629410
O 4.29917881 8.45552619 7.20855120
O 0.06514569 1.20405951 9.97129530
O 9.79039001 0.82743627 6.73882092
O 11.21134744 13.17410723 4.13496446
O 10.96357032 0.90103093 3.15609332
O 11.78616038 13.95474200 11.20523114
O 7.34496255 3.01469458 1.92301434
O 7.01572119 5.75450194 11.67554044
O 4.30644800 3.77701517 2.71228952
O 7.99110142 13.27027766 3.18452859
O 1.22026284 3.70585820 2.99567993
O 5.74349543 5.14065445 5.08368910
O 13.21612257 2.39873697 12.03829935
O 11.41665046 5.39006636 11.69155780
O 2.13272679 10.12883613 6.96626110
O 2.59763946 0.07330507 4.61392063
O 9.50310827 13.95918925 9.53197582
O 7.21788082 7.16302311 5.33178196
O 1.72824487 5.63959994 0.46667083
O 6.47917032 0.71553113 6.52687624
O 3.17297988 8.69198696 9.43288882
O 11.87508371 6.96141388 2.81681479
O 4.38843223 12.43978062 13.04077920
O 6.82332968 10.22841073 12.43803642
O 9.25095079 7.05913743 0.75868774
O 12.46379978 9.79929708 2.80830948
O 6.24425239 8.28589128 9.36675748
O 12.07491019 2.65464502 4.51618734
O 13.30401847 6.83599130 12.96999592
O 7.49584897 12.24879301 6.42454077
O 8.67083325 0.56127094 1.76864628
O 8.33285186 9.91163486 13.85345523
O 6.59382966 2.75902943 4.85681807
O 2.03985136 8.80061444 1.15999384
O 4.22956830 10.81062072 8.64492955
O 10.55724396 13.01732612 13.97748260
O 2.21616316 4.60028071 5.27839619
O 12.16934710 11.19535218 11.93513319
O 4.41697664 6.21538727 10.29038248
O 4.35556633 13.13003346 7.10360528
O 11.10864736 10.16826775 8.70568005
O 10.75141412 9.36846486 1.10368302
O 6.56038888 13.96292638 0.48811145
O 4.97894994 7.35110071 3.38827076
O 6.93595943 5.27750766 3.32876024
O 12.75726349 3.14581875 1.95770496
135
Time=299999.99999840 pbc="T T T" Lattice="14.01277600 0.00000000 0.00000000 0.00000000 14.01277600 0.00000000 0.00000000 0.00000000 14.01277600" energy=-847.35780543 virial="-13.82445539 14.25936232 29.69542849 14.25936232 -54.26983046 -23.12574914 29.69542849 -23.12574914 -29.18078308" stress="0.01611568 0.00518236 0.01079238 0.00518236 0.00141639 -0.00840472 0.01079238 -0.00840472 0.01053465" Properties=species:S:1:pos:R:3
Ca 1.31992762 9.60498009 12.10592841
Ca 10.21156254 3.73795068 7.86111337
Ca 5.29406356 12.54170087 13.13092079
Ca 3.61162430 7.65456902 2.82855547
Ca 2.94779869 11.77476244 2.25205341
Ca 13.17316748 0.13891828 4.42856785
Ca 8.52949195 10.46430938 4.10675961
Ca 9.14225290 9.03059893 6.87301559
Ca 11.75745201 9.00485983 13.32553951
Ca 4.97197720 5.03350310 9.24368890
Ca 9.51549250 12.00576034 12.36808926
Ca 4.71132564 1.02849470 10.22007619
Ca 12.24824113 10.73650310 7.41133047
Ca 6.06529269 2.06177460 6.88003487
Ca 3.16972650 3.96942113 13.05375029
Ca 12.47834465 9.73068192 2.24390088
Ca 7.52787580 13.57371685 6.54608734
Ca 8.92994534 1.26152580 13.29191817
Ca 4.45849464 1.69192466 1.52121734
Ca 13.79059281 6.20549527 3.92203637
Ca 8.29199639 2.38633088 3.62477954
Ca 8.61750777 6.52461556 13.49966809
Ca 5.83998722 7.34983029 11.41802236
Ca 1.68019033 6.93644220 8.00824525
Ca 13.26204907 1.34175964 10.50561820
Ca 6.65806237 4.37558208 0.31014877
Ca 0.17396299 2.10224550 0.74558391
Si 1.09921794 4.37072186 7.38549879
Si 2.54165305 0.52953190 12.07478079
Si 0.23128555 7.59638661 0.10289575
Si 9.53050885 10.41570518 1.18716858
Si 7.79188690 2.01260867 10.18734137
Si 2.15496572 4.64164206 2.29942613
Si 3.13480761 2.72706424 6.70090982
Si 11.75250999 2.62230731 2.46625357
Si 10.25669441 6.30924824 4.78585836
Si 7.87100694 5.30383050 6.50371133
Si 0.55845737 9.97058298 8.78947710
Si 5.12819642 6.47994133 5.29405591
Si 4.88595130 9.76956899 13.22319371
Si 4.63836269 7.74235232 8.10146069
Si 8.89749182 13.05425678 8.98649620
Si 2.80224908 1.16525471 3.89443889
Si 13.14459360 8.26546461 9.89198565
Si 3.78581253 6.72725041 13.39501290
Si 3.73352174 9.57557506 5.22411995
Si 1.77830388 2.67473435 9.66800406
Si 0.49259590 9.20811756 5.61056712
Si 10.76355152 6.05126702 2.25494712
Si 10.32731509 1.38695635 10.44083789
Si 10.52317728 13.83922664 2.70686596
Si 10.80087259 4.01410644 0.15160481
Si 6.11583890 10.63587869 6.69884197
Si 10.42906549 12.81709525 6.37713983
O 0.55514070 4.57578803 1.94594565
O 11.41680734 1.57274830 9.09839931
O 1.15960136 1.33492784 11.64688912
O 11.84152157 6.15779442 3.58681826
O 9.26580426 13.00704490 2.64325057
O 4.34198154 6.54064919 6.94923609
O 6.64542595 2.25837573 8.92135415
O 7.15821925 12.62168477 13.71321592
O 1.03791684 8.41892467 1.51581637
O 4.97196608 9.18588174 7.77986053
O 9.63848447 2.85941120 10.62916379
O 9.11172104 11.52252001 9.21379566
O 0.98099669 11.60975123 8.80445561
O 7.25284609 1.03561703 5.25717344
O 10.13797932 13.74430016 7.60418281
O 13.02819997 9.79684035 5.28122527
O 11.67136355 1.43450351 5.30400552
O 4.68090545 10.76896617 5.98005708
O 6.73778780 11.97668824 7.59145700
O 10.19113117 6.07234235 0.89589358
O 13.58378251 9.21487995 12.66985981
O 0.48190241 7.51116585 4.96604309
O 3.14457494 3.45619763 10.45552514
O 0.40394413 2.98660796 10.31268401
O 4.12414281 6.00752117 11.80481344
O 6.86440508 4.69681350 4.96350260
O 10.48308665 7.62874018 5.39883194
O 2.21226666 0.96582221 9.06932637
O 2.63990310 2.77558402 2.98533415
O 7.38766459 1.63557976 11.75540531
O 12.04900456 12.66391123 6.15461126
O 2.04698578 9.49547234 4.91286310
O 4.56575917 6.94709173 0.70475776
O 9.87268488 13.81980814 5.03458142
O 7.70207038 0.28192234 8.61006175
O 8.45919597 9.47136486 0.48970520
O 13.89605349 13.38872679 13.45109118
O 1.74742720 7.26871485 12.74784334
O 3.86014563 13.74369777 2.63185333
O 4.25587594 10.54747811 0.56320922
O 0.23045247 8.93489362 7.35007720
O 6.75204668 5.97620509 13.09772575
O 12.54533524 7.63131705 1.30279115
O 9.79183501 11.16956898 6.47706204
O 5.30587026 7.85071720 4.55053449
O 1.61658715 4.83482666 8.74550702
O 7.01766853 6.27621234 7.71997636
O 0.87885907 4.76586975 5.85193827
O 6.54494670 9.77073430 12.99281469
O 9.24782656 13.91666420 10.49878238
O 11.98143247 13.58617751 2.77622017
O 0.97392548 8.76598552 9.73734359
O 10.76411029 11.32669515 0.04348423
O 2.04565195 13.88540144 4.22291458
O 13.70701658 11.03432235 9.60890231
O 11.11042002 1.05447462 11.76531855
O 0.75989567 12.62890177 12.52385409
O 3.98239224 13.30109385 11.31151736
O 1.53515580 2.46598978 7.14008188
O 8.01536522 3.64520879 6.66768139
O 9.65808820 2.97096624 13.52469813
O 7.20558649 9.88863892 6.16782066
O 12.64498933 9.31111666 11.21130103
O 4.07739332 9.21220423 12.15570158
O 3.84709853 1.03061398 12.86323320
O 12.00924974 4.27642541 13.22963995
O 2.92848735 4.14565387 0.78504501
O 10.26812703 10.04751450 2.67248781
O 13.21884891 2.31623991 3.22643937
O 7.19409286 2.68582082 1.71065104
O 10.10964438 5.13157083 5.77264831
O 13.31249469 6.61941004 9.25939632
O 10.39075244 1.62652159 3.32533516
O 12.08348656 1.87363803 0.93579539
O 4.31926340 2.72520566 7.58882796
O 4.32509495 6.88984142 9.23616862
O 3.47011260 1.86509320 5.40933444
O 2.31207149 5.87631059 3.35328758
O 9.53859889 6.63260849 3.31822083
O 10.83203950 3.97538367 1.96813791
O 3.91724576 9.46560583 3.66174735
135
Time=400000.00000008 pbc="T T T" Lattice="14.01277600 0.00000000 0.00000000 0.00000000 14.01277600 0.00000000 0.00000000 0.00000000 14.01277600" energy=-846.81247875 virial="4.27722030 -3.69382421 -8.23991737 -3.69382421 -25.73574970 9.41379407 -8.23991737 9.41379407 -23.61447341" stress="0.02269448 -0.00134247 -0.00299468 -0.00134247 0.01178669 0.00342131 -0.00299468 0.00342131 0.01255764" Properties=species:S:1:pos:R:3
Ca 6.70067923 1.82962745 2.33033046
Ca 0.54232854 4.56997763 13.82670547
Ca 9.38912921 8.93028153 11.22021626
Ca 8.81331578 6.20357402 4.01572837
Ca 12.68122586 7.51874810 1.32296124
Ca 11.03952432 3.50300636 2.18729390
Ca 5.82233899 3.37627466 5.59467927
Ca 7.41640888 3.05698572 8.47935328
Ca 1.85037931 0.86800751 9.81195305
Ca 9.83997682 12.42402801 7.48447043
Ca 5.00847141 9.87631007 4.28114632
Ca 4.65038421 8.33908891 11.47481494
Ca 2.49618745 12.25034857 4.30893056
Ca 13.65306685 1.07187282 1.57153105
Ca 11.39479473 4.63529563 7.81631089
Ca 5.19247774 4.16961904 12.24752690
Ca 11.30885439 5.65058361 12.67695524
Ca 11.51929059 2.45524110 11.51070230
Ca 13.02074621 11.24319865 5.68235304
Ca 12.44955938 0.50635126 5.76519295
Ca 12.35693211 11.57534452 11.75986479
Ca 6.46632272 8.27271223 6.98821900
Ca 1.92342741 8.95747898 7.80815901
Ca 1.92282440 6.68417008 5.00117100
Ca 6.84443679 11.75306068 0.53573127
Ca 6.99266576 12.46000187 7.69680176
Ca 2.59133191 4.16817302 2.82256959
Si 7.80255167 10.31356839 4.40350075
Si 8.83481935 3.33114156 13.88865402
Si 12.35887533 8.65714829 12.77686943
Si 8.64866769 2.16698625 5.38566428
Si 14.01102387 8.74695841 4.19551081
Si 3.90260192 10.95023329 8.24018176
Si 1.80481799 6.17833208 8.87869731
Si 6.10034834 10.74700362 10.90005630
Si 8.62589800 12.32998124 10.21059853
Si 2.62294702 12.56675003 0.43606354
Si 2.81364112 8.35245334 2.39068350
Si 8.99376838 0.65792023 11.65009708
Si 10.80610679 7.58232020 7.35431657
Si 5.63672767 0.92711737 13.71842967
Si 13.40259070 3.45820734 5.09955958
Si 2.98882404 1.67206659 13.75932474
Si 10.59352588 8.74217069 4.14248765
Si 7.84378830 13.95639996 4.23873471
Si 3.65209150 6.49250893 0.84471019
Si 3.99663989 3.94759162 9.21451759
Si 0.71642241 10.52600536 1.60413576
Si 1.12021537 3.36039236 11.02989547
Si 6.04982017 4.83538171 1.52654283
Si 13.14254466 9.60967402 9.00569989
Si 8.58819685 3.85548100 10.82482533
Si 13.06655202 12.95158357 8.44915289
Si 10.93737916 13.89105208 0.15269281
O 11.95074994 8.07080790 8.20659262
O 9.16748410 8.13209356 3.62487864
O 1.64167617 2.59842348 0.49161293
O 0.64721359 3.55086323 4.74152837
O 4.04036358 11.90861485 0.44761369
O 3.77292336 8.37336171 3.63263963
O 2.94737126 6.51667899 2.49936672
O 6.88009567 2.07600546 13.30446218
O 5.43289636 3.15728150 1.65300232
O 13.65927786 3.41005015 11.07122282
O 7.42691223 5.15610567 0.51151657
O 2.76886764 7.60916831 9.64547603
O 0.23156688 13.04697919 4.38875255
O 7.26005721 9.75368866 5.60645569
O 1.94698127 1.95266829 11.67543739
O 12.33630206 2.11515522 4.43941925
O 0.72483008 5.32403336 9.62340701
O 12.48745411 10.66613103 7.75515008
O 6.30992168 10.83970786 12.58981402
O 10.20910091 0.61699384 10.32502944
O 7.48412425 10.57200243 3.01286258
O 0.52354319 8.91952026 5.58859985
O 1.36930971 11.75177247 0.77407409
O 6.87083132 1.27507756 4.55504101
O 10.40437749 12.81451876 1.17217808
O 11.74911553 0.69267160 1.39851065
O 9.46063540 3.31039131 9.76674095
O 4.15401067 10.35676999 6.71987448
O 6.17087178 5.08239197 3.15847526
O 13.45428348 9.88049382 0.88658191
O 8.49866512 13.13061756 8.78341636
O 3.31109774 6.55251501 13.17397177
O 3.69888645 8.01371044 1.03817460
O 11.83567992 5.77142571 1.70169799
O 4.80017532 0.45271509 0.96605691
O 0.54580183 13.00280912 2.74838905
O 10.93736250 6.78419571 5.95501481
O 2.16095881 4.43528841 11.45449547
O 11.71890189 13.32987833 7.19272076
O 6.55478120 7.00995853 5.27066316
O 12.69812554 6.92848257 13.08702551
O 13.99332156 13.25883805 7.14407042
O 8.99351778 2.81137974 1.26281766
O 8.63147259 3.77165566 5.36708433
O 4.14023984 1.54036308 12.70460782
O 7.86688846 12.56527790 5.34005718
O 3.81220446 12.09612798 1.95155442
O 6.95874597 12.01123800 10.41117020
O 9.73340491 6.16450527 7.91600165
O 4.64789130 4.12211505 7.78229224
O 0.77135277 10.25002018 3.28695618
O 12.56790896 7.77549248 3.73011399
O 10.82081546 8.34141737 13.25309345
O 10.24450143 3.68232770 12.52883753
O 4.95799787 5.24560380 0.34568953
O 4.52379583 10.15417872 10.21385037
O 1.70798790 6.72349894 7.34073883
O 7.52235692 4.40863740 10.00246639
O 6.83630709 9.44004105 10.61255571
O 7.64940080 1.78763106 6.58491275
O 2.63366527 11.52422717 8.99466928
O 6.19973873 13.55178403 13.50205641
O 12.05678221 9.92241184 10.45775982
O 1.00998649 7.51931523 3.40264851
O 4.92249343 12.27327492 8.38938829
O 2.22139709 13.95459361 13.67823155
O 12.48772047 3.85828958 6.39037265
O 8.23908628 2.57875041 11.69390389
O 12.37059428 13.63723318 13.09402989
O 3.27384972 5.44252423 9.40894290
O 9.49887019 10.58207835 4.37278550
O 0.52575369 8.87840043 9.24738810
O 8.93659745 5.20006612 11.57252594
O 9.28420827 10.77249645 9.47960498
O 3.45207488 2.27636515 9.46366187
O 12.95580321 12.55833318 9.88164030
O 9.30101935 0.86429462 13.41644441
O 12.48881394 4.27691627 13.92165995
O 11.60163898 9.24366125 5.40809671
O 2.32084580 9.54611642 1.49767040
O 9.27212242 12.82735728 11.58611530
135
Time=500000.00000301 pbc="T T T" Lattice="14.01277600 0.00000000 0.00000000 0.00000000 14.01277600 0.00000000 0.00000000 0.00000000 14.01277600" energy=-848.52411325 virial="-45.90789355 5.38506270 -3.66825042 5.38506270 49.58906624 0.25008466 -3.66825042 0.25008466 -60.93151904" stress="0.00445542 0.00195712 -0.00133317 0.00195712 0.03916241 0.00009089 -0.00133317 0.00009089 -0.00100470" Properties=species:S:1:pos:R:3
Ca 8.80618354 13.69931353 6.78234059
Ca 1.07055913 3.56714470 6.09836132
Ca 1.34946839 9.45563449 0.26087015
Ca 12.01117521 0.33512741 8.30809220
Ca 12.03046543 3.46718297 2.92244173
Ca 5.41730429 6.25803473 2.76575074
Ca 11.08960875 11.22871830 3.10793249
Ca 11.25290566 13.49134717 13.01064913
Ca 0.33840225 4.06938521 13.39574734
Ca 5.68714101 3.53618673 6.13003434
Ca 9.30836789 2.37129489 1.28961461
Ca 3.28830360 12.66367291 13.83909643
Ca 10.04917721 7.81634244 1.23618861
Ca 10.13154941 4.23617397 11.60800183
Ca 5.48795440 10.34507327 8.98733572
Ca 4.92802809 9.68567717 13.38776601
Ca 13.59400790 7.26678075 3.65387058
Ca 12.17789612 7.76077016 7.40478551
Ca 7.44374070 12.13981628 2.87630019
Ca 1.60203408 6.64302670 6.34033045
Ca 1.03262139 12.60054326 2.99226862
Ca 1.51346524 13.70000522 9.67935376
Ca 2.79366122 5.23642737 9.49016342
Ca 4.58290085 2.34927195 2.39091009
Ca 2.32275245 10.23609041 7.14318405
Ca 13.24352779 10.30632049 9.40389319
Ca 8.62239187 7.21096824 11.23913743
Si 5.83657576 13.99335834 6.91263457
Si 8.27628484 6.47291391 7.43354360
Si 13.55135855 3.49828699 9.76639383
Si 10.56537696 4.43900305 0.50466992
Si 10.44057479 10.32575119 13.82165534
Si 1.65483509 0.65907807 0.81944300
Si 12.25432773 8.68074100 13.39844121
Si 13.92343455 12.00073189 5.72878614
Si 9.69429022 0.91452179 4.01094875
Si 6.41159314 8.13116642 4.97547147
Si 3.96452996 1.43596882 8.78658297
Si 3.67663352 9.08897097 3.04895209
Si 8.82250933 2.04996103 8.35991338
Si 1.96454405 2.47129497 11.90304890
Si 8.69825318 5.63985722 3.60431998
Si 4.58558273 11.18368389 2.17215784
Si 7.32687739 0.85169953 1.12460108
Si 6.49120565 6.50320801 13.62260336
Si 1.48242736 4.33291552 3.01307289
Si 9.47870326 3.49180325 5.57769427
Si 13.58815151 1.15263703 4.83637055
Si 2.52116533 13.75167945 5.89964959
Si 1.48848568 8.05282514 9.91227908
Si 5.04610791 13.66287149 3.48598167
Si 10.26984082 11.92592917 9.70897476
Si 4.38438930 12.11641939 10.85510944
Si 7.51431071 10.73396110 10.61679148
O 3.25678900 8.39158341 4.51353030
O 12.28105137 12.24913273 4.71205433
O 5.74734914 11.56278181 1.13707546
O 10.11127874 3.33086594 13.26877020
O 0.98352595 5.31881363 4.22171311
O 6.38056175 0.01690083 2.15784975
O 13.39211275 8.25936620 5.26608455
O 2.51819270 1.51440301 9.64801852
O 10.62986169 4.40266881 4.57454402
O 9.75670944 5.71212173 0.11647783
O 7.51694676 4.22946096 4.79101209
O 10.16808717 6.76978706 7.65682758
O 8.17788545 0.68066712 8.61370638
O 7.14856064 7.60815243 6.32281209
O 6.10644322 11.80392645 10.37091866
O 7.84618447 7.77849711 4.21572846
O 12.60871528 0.90117054 6.02133558
O 5.44669192 6.73646782 4.64350108
O 9.72761509 6.97881531 4.04911881
O 12.33970252 4.28178080 0.52530947
O 6.66730569 12.92916183 7.68174773
O 3.70222486 12.67259378 6.38864743
O 4.07479465 11.44112101 12.57590445
O 7.69177000 5.29241096 2.37058427
O 10.23887161 4.44646916 2.13104397
O 6.64283825 9.45720819 10.61314853
O 10.73351743 1.62866758 3.03779266
O 3.04283941 3.54283876 12.09795129
O 3.84574776 0.55042577 4.26812470
O 9.05098120 3.70598733 7.30516046
O 0.38451782 2.56448602 3.96673648
O 6.45947069 2.23638014 1.27361130
O 12.73648986 4.30973146 11.01904665
O 6.01723052 8.26126476 12.85614006
O 8.40706153 1.33341743 2.70350464
O 0.98806898 9.17640898 10.63999459
O 8.47558533 6.03355304 9.11083359
O 1.75141878 0.98426285 6.29935445
O 0.45616114 4.60428043 9.29684313
O 13.68004033 9.33160849 12.79970609
O 10.48152414 12.64980808 8.08969537
O 3.01483796 7.33991201 9.85391022
O 5.71423261 5.60897684 0.54686173
O 9.25884088 2.86481219 10.04586845
O 2.75242943 1.13101576 1.54082370
O 3.29103594 13.06382621 10.28508233
O 0.65795228 13.44692904 1.13471869
O 10.86163749 9.26745932 12.64897959
O 8.19869258 13.91344929 13.91414228
O 4.76502537 0.42978703 8.12966888
O 2.33775086 5.11263865 7.30359387
O 11.33260876 9.87414381 9.63531661
O 10.69844033 13.24278698 10.60202374
O 3.21280801 3.72599832 3.59781988
O 0.44412665 2.59649245 11.63723912
O 9.44328924 12.34811451 2.30850094
O 4.70095684 8.31717818 1.58693288
O 11.58643909 9.49343473 0.94026939
O 13.56214110 11.73654206 7.29694592
O 3.68801199 2.61296607 7.95705710
O 5.00723917 9.93212163 3.13836674
O 0.59763556 0.06785743 4.25015230
O 1.36642271 12.44911256 6.01465314
O 2.34029091 9.42324376 2.12492045
O 1.75215942 4.19033823 1.53190596
O 11.10069008 11.76448334 13.22285718
O 5.88126874 1.49195224 6.38279617
O 13.16483081 2.27264808 8.40765150
O 2.33885818 1.06646460 12.46865039
O 12.28964930 7.42601642 0.34383938
O 7.65622382 5.68331270 12.78997960
O 5.72239051 9.16786003 5.99155106
O 6.12319984 13.36947155 4.93734624
O 3.42468660 10.51671646 8.65768424
O 3.50074408 12.36393268 2.88298665
O 9.56886324 1.97084387 5.42500139
O 3.00372691 10.54378018 0.25592063
O 9.25984718 9.80730981 0.55450084
O 8.85513743 10.88263281 9.94219143
O 9.56871622 13.63543211 4.64935962
O 0.61048354 7.79310408 8.36136311
135
Time=600000.00000594 pbc="T T T" Lattice="14.01277600 0.00000000 0.00000000 0.00000000 14.01277600 0.00000000 0.00000000 0.00000000 14.01277600" energy=-833.21700896 virial="-41.23954020 15.15394799 24.89812438 15.15394799 -27.45639913 21.34331618 24.89812438 21.34331618 -7.62957454" stress="0.00615207 0.00550748 0.00904886 0.00550748 0.01116135 0.00775692 0.00904886 0.00775692 0.01836712" Properties=species:S:1:pos:R:3
Ca 1.47256115 1.73562703 5.15813874
Ca 12.62017000 9.29492545 7.25266763
Ca 3.24332599 3.71687779 8.17250980
Ca 0.34810464 6.52256384 8.94067387
Ca 8.68169951 7.19490459 0.20082809
Ca 3.40081187 13.17368984 1.67453842
Ca 9.41505524 3.56254601 5.49962688
Ca 13.02561657 9.10289669 0.22479637
Ca 5.37203458 0.54832952 3.04286714
Ca 13.48954243 0.34390513 12.77050633
Ca 4.17067704 9.33783887 12.66350569
Ca 13.65332031 2.50774113 2.69511297
Ca 8.98056995 4.67179381 12.71214201
Ca 11.67958403 5.74081408 11.60900460
Ca 4.68230250 7.91770510 9.00350784
Ca 9.24805898 1.11882088 2.06099060
Ca 0.82802599 11.45035906 3.89153330
Ca 7.30011518 3.50651912 8.15334309
Ca 5.58643257 12.45143045 0.57798786
Ca 3.96965534 12.35874018 11.78658576
Ca 11.70148162 4.36900924 9.11806464
Ca 2.98357944 2.43688708 13.25612630
Ca 10.43017853 8.11416247 9.70220233
Ca 6.94921573 10.67585694 9.83893110
Ca 8.41910195 7.56034068 6.10674260
Ca 2.73941588 4.89738118 3.96404267
Ca 8.36652008 10.95884537 4.47848892
Si 7.13671363 1.27777884 5.23754287
Si 1.28368156 11.59524774 13.92144856
Si 12.00950306 6.01719180 6.59696235
Si 2.78425608 9.56667577 6.56160232
Si 0.49050357 4.10906141 6.84802160
Si 1.10806066 5.70764870 12.95181305
Si 0.83151902 5.85990633 1.85260900
Si 10.43525800 11.80543529 7.78589467
Si 13.19297475 13.57279154 2.34850227
Si 0.50551025 3.90052739 11.10020422
Si 7.43370407 6.76675478 9.50496303
Si 5.64214249 0.75236641 8.69839724
Si 4.97415709 7.44972199 4.82032147
Si 8.24528197 0.68810556 13.09008017
Si 11.74400815 11.36229259 4.82229583
Si 7.02005687 13.18743893 10.56999057
Si 10.10852216 4.50784516 2.47378887
Si 4.78722055 0.86823036 5.98905010
Si 4.59071705 12.05299947 5.14140133
Si 10.05849317 10.18801144 11.97123253
Si 11.40983643 2.83960269 12.12350011
Si 5.59952847 9.77193760 6.26505598
Si 12.95162383 11.17183881 11.40288491
Si 11.08950360 0.80242923 4.21069223
Si 12.81700212 5.85026841 3.77752508
Si 10.99228729 8.46740287 4.05292682
Si 5.30445438 7.81896350 1.81781209
O 2.59057711 5.02513226 12.87477421
O 13.73249743 9.94640014 12.16884532
O 6.15603698 0.39022426 0.59551490
O 13.64949744 12.52822501 11.17477718
O 3.81241454 10.69576341 7.12323870
O 1.69640434 12.45664815 1.54343883
O 11.64972659 1.30318074 12.25228426
O 13.83580791 6.90682990 3.09190866
O 0.29875462 5.98008888 11.61355597
O 10.74649996 4.13350228 11.33060282
O 6.22872891 8.21787545 6.24168711
O 1.18642298 3.30933350 9.89892839
O 6.49328359 0.22203551 4.46045692
O 3.60127797 9.48674375 8.51069555
O 10.69429696 2.76062033 2.55361592
O 11.42756492 5.27069509 3.45853760
O 10.25147009 12.38713558 4.58942255
O 9.06799171 10.85494472 6.99083260
O 3.52061032 0.59986319 6.97309150
O 3.94111817 1.54228308 4.63164051
O 13.43462316 11.28844294 5.76976773
O 11.12595281 11.52046762 11.56843776
O 6.09604155 0.26550077 7.41585269
O 1.28994158 13.34152777 13.07872861
O 4.27815725 2.79056400 1.38953605
O 12.58521907 2.36833932 5.18907223