<?xml version="1.0" encoding="ISO-8859-1"?>
<modeling>
 <generator>
  <i name="program" type="string">vasp </i>
  <i name="version" type="string">5.4.4.18Apr17-6-g9f103f2a35  </i>
  <i name="subversion" type="string">(build Oct 31 2019 15:01:46) complex            parallel </i>
  <i name="platform" type="string">LinuxIFC </i>
  <i name="date" type="string">2024 04 30 </i>
  <i name="time" type="string">02:23:26 </i>
 </generator>
 <incar>
  <i type="int" name="ISTART">     0</i>
  <i type="string" name="PREC">a</i>
  <i type="logical" name="ADDGRID"> T  </i>
  <i type="int" name="IBRION">    -1</i>
  <i name="EDIFF">      0.00000100</i>
  <i name="EDIFFG">     -0.01000000</i>
  <i type="int" name="NSW">     1</i>
  <i type="int" name="ISIF">     2</i>
  <i type="int" name="ISYM">     0</i>
  <i name="ENCUT">    600.00000000</i>
  <i name="POTIM">      1.00000000</i>
  <i type="string" name="LREAL">  Auto</i>
  <i type="int" name="ISMEAR">     0</i>
  <i name="SIGMA">      0.05000000</i>
  <i name="KSPACING">      0.30000000</i>
  <i type="logical" name="KGAMMA"> T  </i>
  <i type="logical" name="LWAVE"> F  </i>
  <i type="logical" name="LCHARG"> F  </i>
  <i type="logical" name="LSCALAPACK"> F  </i>
  <v type="int" name="KPOINT_BSE">    -1     0     0     0</v>
 </incar>
 <structure name="primitive_cell" >
  <crystal>
   <varray name="basis" >
    <v>       9.94194835       0.00000000       0.00000000 </v>
    <v>       0.00000000       9.94194835       0.00000000 </v>
    <v>       0.00000000       0.00000000       9.94194835 </v>
   </varray>
   <i name="volume">    982.68540919 </i>
   <varray name="rec_basis" >
    <v>       0.10058391       0.00000000       0.00000000 </v>
    <v>       0.00000000       0.10058391       0.00000000 </v>
    <v>       0.00000000       0.00000000       0.10058391 </v>
   </varray>
  </crystal>
  <varray name="positions" >
   <v>       0.28641516       0.39992839      -0.42960129 </v>
   <v>       0.38111322       0.43666409      -0.26634631 </v>
   <v>       0.29073757      -0.39426885      -0.38757304 </v>
   <v>       0.49230991       0.40990539      -0.48290579 </v>
   <v>       0.16016350       0.34234958      -0.26784985 </v>
   <v>       0.18464565       0.21469934      -0.48775732 </v>
   <v>       0.15486571      -0.48647852       0.43088454 </v>
   <v>       0.32302988       0.32388769       0.34890528 </v>
   <v>       0.31436084       0.20320207      -0.27934037 </v>
   <v>       0.43417563       0.20850199      -0.49309798 </v>
   <v>       0.46478866      -0.44982716      -0.33323047 </v>
   <v>       0.36693416      -0.44628594       0.38560100 </v>
   <v>       0.13036005      -0.37717771      -0.44837571 </v>
   <v>       0.48397932       0.29456758       0.38892982 </v>
   <v>       0.28508715       0.35792457      -0.14089608 </v>
   <v>       0.00247371       0.37037573      -0.36681450 </v>
   <v>       0.31050382       0.09657318      -0.40542804 </v>
   <v>       0.03515443      -0.42765484      -0.34587255 </v>
   <v>       0.22264722      -0.38441773      -0.20366938 </v>
   <v>      -0.43133040       0.26219520      -0.36438283 </v>
   <v>       0.02360753       0.30155388       0.41089880 </v>
   <v>       0.25173670      -0.29496404       0.45643980 </v>
   <v>       0.14147815       0.36504167       0.27810613 </v>
   <v>      -0.48464861      -0.34712748      -0.43746467 </v>
   <v>       0.47878100       0.40965373       0.28807127 </v>
   <v>       0.04429085       0.16496909       0.48757467 </v>
   <v>      -0.38495676      -0.49778306      -0.32982008 </v>
   <v>       0.00744818       0.18254250      -0.37047399 </v>
   <v>       0.42828115       0.27886513      -0.11826100 </v>
   <v>       0.45782320      -0.34701343      -0.22709586 </v>
   <v>       0.08141043       0.49711697      -0.13281556 </v>
   <v>       0.23871408       0.45940963       0.20002249 </v>
   <v>      -0.43803012      -0.42173384       0.37037949 </v>
   <v>       0.36916156      -0.21807398      -0.39902991 </v>
   <v>       0.29555838       0.11370832       0.29846711 </v>
   <v>      -0.35800177       0.28766679       0.43429298 </v>
   <v>       0.10843204      -0.38841096       0.28420239 </v>
   <v>       0.13387809      -0.23836266      -0.35400545 </v>
   <v>       0.22713815       0.23006443      -0.06414533 </v>
   <v>      -0.49009997      -0.48473502      -0.10848069 </v>
   <v>       0.08710143       0.11682296      -0.21149281 </v>
   <v>       0.00236812      -0.32343481       0.45424563 </v>
   <v>      -0.09342764       0.48511888       0.41951326 </v>
   <v>       0.10584988       0.07001759       0.37985741 </v>
   <v>       0.28524001       0.44423042      -0.00688738 </v>
   <v>       0.30528680      -0.33977035       0.23325234 </v>
   <v>      -0.36341786       0.34256279      -0.18867146 </v>
   <v>      -0.29233677       0.47354126      -0.49446240 </v>
   <v>       0.44268566       0.00059245      -0.35646647 </v>
   <v>       0.29970497      -0.01776000       0.44941590 </v>
   <v>       0.44419756      -0.22656712       0.38749080 </v>
   <v>      -0.09959439      -0.37352024      -0.44543135 </v>
   <v>      -0.00130844       0.42396663       0.22554396 </v>
   <v>       0.21416789      -0.03332202      -0.33117468 </v>
   <v>      -0.49715868       0.15624171       0.25786786 </v>
   <v>      -0.42508972       0.23762312      -0.11220939 </v>
   <v>      -0.42480640       0.10835453      -0.21306447 </v>
   <v>      -0.40404269      -0.48450084       0.24129168 </v>
   <v>       0.12870203       0.23928268       0.15939141 </v>
   <v>      -0.40173126      -0.27460551       0.43678866 </v>
   <v>       0.29983758      -0.18209348      -0.20804726 </v>
   <v>       0.07054110       0.34232828      -0.01223234 </v>
   <v>       0.44794337      -0.47305046       0.14221246 </v>
   <v>       0.37264689       0.01723423      -0.16099151 </v>
   <v>       0.39172006       0.30716621       0.11078211 </v>
   <v>      -0.10837412       0.31447716      -0.16815932 </v>
   <v>      -0.12141373       0.36584121       0.31221872 </v>
   <v>      -0.17768101      -0.48423793      -0.33074941 </v>
   <v>       0.28837443      -0.16833228       0.34125714 </v>
   <v>       0.13725626      -0.19111721       0.34655017 </v>
   <v>      -0.33149324      -0.30274207      -0.32010936 </v>
   <v>       0.34855593      -0.33503501      -0.00695740 </v>
   <v>       0.02327749      -0.37923831      -0.05272410 </v>
   <v>      -0.49125979      -0.02082871       0.38573028 </v>
   <v>      -0.21121771       0.28363090      -0.43804599 </v>
   <v>       0.14170712      -0.15564061      -0.21493441 </v>
   <v>      -0.09027966       0.05703821       0.48028305 </v>
   <v>       0.28536104      -0.43072273       0.08083773 </v>
   <v>       0.45011440      -0.22746650      -0.10744362 </v>
   <v>      -0.07511382      -0.32951604      -0.16917554 </v>
   <v>      -0.27180731       0.47839465       0.30080756 </v>
   <v>       0.07595128      -0.07926077      -0.45870053 </v>
   <v>      -0.05368834       0.13846690       0.25819479 </v>
   <v>      -0.24798883       0.16606892       0.46020127 </v>
   <v>      -0.30400636       0.05821780      -0.42924469 </v>
   <v>      -0.21282568       0.41535296      -0.22378832 </v>
   <v>       0.08069715      -0.23519300      -0.08023437 </v>
   <v>      -0.39256830      -0.03879148      -0.33502069 </v>
   <v>      -0.24376606      -0.33414516       0.45521076 </v>
   <v>       0.48034579      -0.24600389       0.19343819 </v>
   <v>      -0.02209160       0.15912862      -0.03633348 </v>
   <v>      -0.12704367      -0.23166613      -0.38424304 </v>
   <v>       0.10786086      -0.41441424       0.06488358 </v>
   <v>      -0.45082845      -0.15154566      -0.21804049 </v>
   <v>      -0.43836391      -0.30956561      -0.03600338 </v>
   <v>      -0.19334720       0.15339524      -0.27007308 </v>
   <v>      -0.33177002       0.26854596       0.17869493 </v>
   <v>       0.13867178       0.10918110       0.02927072 </v>
   <v>      -0.38787872      -0.13925954      -0.47133850 </v>
   <v>      -0.19805819       0.23794388       0.32124660 </v>
   <v>       0.13346973      -0.03187990      -0.08870580 </v>
   <v>      -0.27558248      -0.46345590      -0.08962032 </v>
   <v>       0.34352637      -0.06780879       0.24132445 </v>
   <v>      -0.30076714       0.06218872       0.35069253 </v>
   <v>      -0.11913136      -0.31492038       0.27290418 </v>
   <v>      -0.00611032      -0.06130508      -0.23315339 </v>
   <v>      -0.45907738       0.11407841       0.01391689 </v>
   <v>       0.45615987       0.03879963       0.13280208 </v>
   <v>       0.28101430       0.06451767       0.08128875 </v>
   <v>      -0.39101482       0.42169965       0.06790227 </v>
   <v>       0.07050527      -0.20880058       0.16245306 </v>
   <v>      -0.30470177       0.23364133      -0.01075582 </v>
   <v>       0.06617830      -0.08210810       0.26208549 </v>
   <v>       0.06993874       0.01467323       0.14322246 </v>
   <v>      -0.32481363      -0.35854913       0.14767485 </v>
   <v>      -0.11606223       0.30409897       0.09599105 </v>
   <v>      -0.30339630      -0.18845263       0.32214012 </v>
   <v>      -0.14337446      -0.16844248      -0.22645022 </v>
   <v>       0.22431759      -0.16793105       0.04580509 </v>
   <v>       0.43845559      -0.13499700       0.00930538 </v>
   <v>      -0.10726856      -0.35019490       0.03707828 </v>
   <v>      -0.17022756       0.47585558       0.09780770 </v>
   <v>      -0.16645752       0.15178150      -0.00457423 </v>
   <v>      -0.19432323       0.02700464      -0.13825402 </v>
   <v>      -0.09115290      -0.11244761       0.28466392 </v>
   <v>      -0.24179894      -0.07491624      -0.30565949 </v>
   <v>      -0.24646638      -0.19928467      -0.12257132 </v>
   <v>      -0.20226273      -0.12380817       0.47216726 </v>
   <v>      -0.40035157      -0.06328665       0.15833728 </v>
   <v>      -0.26545481      -0.30556920       0.01314936 </v>
   <v>      -0.36623908      -0.06140737      -0.02943207 </v>
   <v>      -0.06096255      -0.09645554      -0.00885737 </v>
   <v>      -0.24961434      -0.06552435       0.21858434 </v>
   <v>      -0.21495747       0.05826146       0.11717056 </v>
   <v>      -0.20345531      -0.17364377       0.10278853 </v>
  </varray>
 </structure>
 <varray name="primitive_index" >
  <v type="int" >        1 </v>
  <v type="int" >       98 </v>
  <v type="int" >       70 </v>
  <v type="int" >      119 </v>
  <v type="int" >      129 </v>
  <v type="int" >       76 </v>
  <v type="int" >      106 </v>
  <v type="int" >       58 </v>
  <v type="int" >       95 </v>
  <v type="int" >       92 </v>
  <v type="int" >       54 </v>
  <v type="int" >        2 </v>
  <v type="int" >       30 </v>
  <v type="int" >       53 </v>
  <v type="int" >       29 </v>
  <v type="int" >        4 </v>
  <v type="int" >       43 </v>
  <v type="int" >       94 </v>
  <v type="int" >       23 </v>
  <v type="int" >        5 </v>
  <v type="int" >      104 </v>
  <v type="int" >      123 </v>
  <v type="int" >       31 </v>
  <v type="int" >       85 </v>
  <v type="int" >       84 </v>
  <v type="int" >       35 </v>
  <v type="int" >       93 </v>
  <v type="int" >       66 </v>
  <v type="int" >      101 </v>
  <v type="int" >      126 </v>
  <v type="int" >       83 </v>
  <v type="int" >       78 </v>
  <v type="int" >      109 </v>
  <v type="int" >       13 </v>
  <v type="int" >       10 </v>
  <v type="int" >      108 </v>
  <v type="int" >       18 </v>
  <v type="int" >      115 </v>
  <v type="int" >       72 </v>
  <v type="int" >       20 </v>
  <v type="int" >       21 </v>
  <v type="int" >       56 </v>
  <v type="int" >       75 </v>
  <v type="int" >      117 </v>
  <v type="int" >       82 </v>
  <v type="int" >       80 </v>
  <v type="int" >      102 </v>
  <v type="int" >        3 </v>
  <v type="int" >       81 </v>
  <v type="int" >      107 </v>
  <v type="int" >      127 </v>
  <v type="int" >       32 </v>
  <v type="int" >      124 </v>
  <v type="int" >       88 </v>
  <v type="int" >       60 </v>
  <v type="int" >       42 </v>
  <v type="int" >      132 </v>
  <v type="int" >       40 </v>
  <v type="int" >       91 </v>
  <v type="int" >       37 </v>
  <v type="int" >      130 </v>
  <v type="int" >        8 </v>
  <v type="int" >       74 </v>
  <v type="int" >       22 </v>
  <v type="int" >        6 </v>
  <v type="int" >      128 </v>
  <v type="int" >       46 </v>
  <v type="int" >      111 </v>
  <v type="int" >       28 </v>
  <v type="int" >       68 </v>
  <v type="int" >       25 </v>
  <v type="int" >      116 </v>
  <v type="int" >       45 </v>
  <v type="int" >       17 </v>
  <v type="int" >       61 </v>
  <v type="int" >       38 </v>
  <v type="int" >      135 </v>
  <v type="int" >       48 </v>
  <v type="int" >       44 </v>
  <v type="int" >      120 </v>
  <v type="int" >       55 </v>
  <v type="int" >       15 </v>
  <v type="int" >        9 </v>
  <v type="int" >       33 </v>
  <v type="int" >      118 </v>
  <v type="int" >       36 </v>
  <v type="int" >       89 </v>
  <v type="int" >       51 </v>
  <v type="int" >       67 </v>
  <v type="int" >        7 </v>
  <v type="int" >       96 </v>
  <v type="int" >      122 </v>
  <v type="int" >       65 </v>
  <v type="int" >       71 </v>
  <v type="int" >      133 </v>
  <v type="int" >       24 </v>
  <v type="int" >       16 </v>
  <v type="int" >       47 </v>
  <v type="int" >      125 </v>
  <v type="int" >      100 </v>
  <v type="int" >       57 </v>
  <v type="int" >       97 </v>
  <v type="int" >       99 </v>
  <v type="int" >       79 </v>
  <v type="int" >       26 </v>
  <v type="int" >       64 </v>
  <v type="int" >      103 </v>
  <v type="int" >       50 </v>
  <v type="int" >       73 </v>
  <v type="int" >      121 </v>
  <v type="int" >      131 </v>
  <v type="int" >      112 </v>
  <v type="int" >       52 </v>
  <v type="int" >       69 </v>
  <v type="int" >       77 </v>
  <v type="int" >      134 </v>
  <v type="int" >       62 </v>
  <v type="int" >       41 </v>
  <v type="int" >       11 </v>
  <v type="int" >      114 </v>
  <v type="int" >       87 </v>
  <v type="int" >       19 </v>
  <v type="int" >       34 </v>
  <v type="int" >       86 </v>
  <v type="int" >       90 </v>
  <v type="int" >       59 </v>
  <v type="int" >      110 </v>
  <v type="int" >       12 </v>
  <v type="int" >       63 </v>
  <v type="int" >       49 </v>
  <v type="int" >       27 </v>
  <v type="int" >       14 </v>
  <v type="int" >       39 </v>
  <v type="int" >      113 </v>
  <v type="int" >      105 </v>
 </varray>
 <kpoints>
  <generation param="Gamma">
   <v type="int" name="divisions">       3        3        3 </v>
   <v name="usershift">      0.00000000       0.00000000       0.00000000 </v>
   <v name="genvec1">      0.33333333       0.00000000       0.00000000 </v>
   <v name="genvec2">      0.00000000       0.33333333       0.00000000 </v>
   <v name="genvec3">      0.00000000       0.00000000       0.33333333 </v>
   <v name="shift">      0.00000000       0.00000000       0.00000000 </v>
  </generation>
  <varray name="kpointlist" >
   <v>       0.00000000       0.00000000       0.00000000 </v>
   <v>       0.33333333       0.00000000       0.00000000 </v>
   <v>       0.00000000       0.33333333       0.00000000 </v>
   <v>       0.33333333       0.33333333       0.00000000 </v>
   <v>      -0.33333333       0.33333333       0.00000000 </v>
   <v>       0.00000000       0.00000000       0.33333333 </v>
   <v>       0.33333333       0.00000000       0.33333333 </v>
   <v>      -0.33333333       0.00000000       0.33333333 </v>
   <v>       0.00000000       0.33333333       0.33333333 </v>
   <v>       0.33333333       0.33333333       0.33333333 </v>
   <v>      -0.33333333       0.33333333       0.33333333 </v>
   <v>       0.00000000      -0.33333333       0.33333333 </v>
   <v>       0.33333333      -0.33333333       0.33333333 </v>
   <v>      -0.33333333      -0.33333333       0.33333333 </v>
  </varray>
  <varray name="weights" >
   <v>       0.03703704 </v>
   <v>       0.07407407 </v>
   <v>       0.07407407 </v>
   <v>       0.07407407 </v>
   <v>       0.07407407 </v>
   <v>       0.07407407 </v>
   <v>       0.07407407 </v>
   <v>       0.07407407 </v>
   <v>       0.07407407 </v>
   <v>       0.07407407 </v>
   <v>       0.07407407 </v>
   <v>       0.07407407 </v>
   <v>       0.07407407 </v>
   <v>       0.07407407 </v>
  </varray>
 </kpoints>
 <parameters>
  <separator name="general" >
   <i type="string" name="SYSTEM">unknown system</i>
   <i type="logical" name="LCOMPAT"> F  </i>
  </separator>
  <separator name="electronic" >
   <i type="string" name="PREC">a</i>
   <i name="ENMAX">    600.00000000</i>
   <i name="ENAUG">    605.39200000</i>
   <i name="EDIFF">      0.00000100</i>
   <i type="int" name="IALGO">    38</i>
   <i type="int" name="IWAVPR">    10</i>
   <i type="int" name="NBANDS">   520</i>
   <i name="NELECT">    864.00000000</i>
   <i type="int" name="TURBO">     0</i>
   <i type="int" name="IRESTART">     0</i>
   <i type="int" name="NREBOOT">     0</i>
   <i type="int" name="NMIN">     0</i>
   <i name="EREF">      0.00000000</i>
   <separator name="electronic smearing" >
    <i type="int" name="ISMEAR">     0</i>
    <i name="SIGMA">      0.05000000</i>
    <i name="KSPACING">      0.30000000</i>
    <i type="logical" name="KGAMMA"> T  </i>
   </separator>
   <separator name="electronic projectors" >
    <i type="logical" name="LREAL"> T  </i>
    <v name="ROPT">     -0.00025000     -0.00025000     -0.00025000</v>
    <i type="int" name="LMAXPAW">  -100</i>
    <i type="int" name="LMAXMIX">     2</i>
    <i type="logical" name="NLSPLINE"> F  </i>
   </separator>
   <separator name="electronic startup" >
    <i type="int" name="ISTART">     0</i>
    <i type="int" name="ICHARG">     2</i>
    <i type="int" name="INIWAV">     1</i>
   </separator>
   <separator name="electronic spin" >
    <i type="int" name="ISPIN">     1</i>
    <i type="logical" name="LNONCOLLINEAR"> F  </i>
    <v name="MAGMOM">      1.00000000      1.00000000      1.00000000      1.00000000      1.00000000      1.00000000      1.00000000      1.00000000      1.00000000      1.00000000      1.00000000      1.00000000      1.00000000      1.00000000      1.00000000      1.00000000      1.00000000      1.00000000      1.00000000      1.00000000
      1.00000000      1.00000000      1.00000000      1.00000000      1.00000000      1.00000000      1.00000000      1.00000000      1.00000000      1.00000000      1.00000000      1.00000000      1.00000000      1.00000000      1.00000000      1.00000000      1.00000000      1.00000000      1.00000000      1.00000000
      1.00000000      1.00000000      1.00000000      1.00000000      1.00000000      1.00000000      1.00000000      1.00000000      1.00000000      1.00000000      1.00000000      1.00000000      1.00000000      1.00000000      1.00000000      1.00000000      1.00000000      1.00000000      1.00000000      1.00000000
      1.00000000      1.00000000      1.00000000      1.00000000      1.00000000      1.00000000      1.00000000      1.00000000      1.00000000      1.00000000      1.00000000      1.00000000      1.00000000      1.00000000      1.00000000      1.00000000      1.00000000      1.00000000      1.00000000      1.00000000
      1.00000000      1.00000000      1.00000000      1.00000000      1.00000000      1.00000000      1.00000000      1.00000000      1.00000000      1.00000000      1.00000000      1.00000000      1.00000000      1.00000000      1.00000000      1.00000000      1.00000000      1.00000000      1.00000000      1.00000000
      1.00000000      1.00000000      1.00000000      1.00000000      1.00000000      1.00000000      1.00000000      1.00000000      1.00000000      1.00000000      1.00000000      1.00000000      1.00000000      1.00000000      1.00000000      1.00000000      1.00000000      1.00000000      1.00000000      1.00000000
      1.00000000      1.00000000      1.00000000      1.00000000      1.00000000      1.00000000      1.00000000      1.00000000      1.00000000      1.00000000      1.00000000      1.00000000      1.00000000      1.00000000      1.00000000</v>
    <i name="NUPDOWN">     -1.00000000</i>
    <i type="logical" name="LSORBIT"> F  </i>
    <v name="SAXIS">      0.00000000      0.00000000      1.00000000</v>
    <i type="logical" name="LSPIRAL"> F  </i>
    <v name="QSPIRAL">      0.00000000      0.00000000      0.00000000</v>
    <i type="logical" name="LZEROZ"> F  </i>
   </separator>
   <separator name="electronic exchange-correlation" >
    <i type="logical" name="LASPH"> F  </i>
    <i type="logical" name="LMETAGGA"> F  </i>
   </separator>
   <separator name="electronic convergence" >
    <i type="int" name="NELM">    60</i>
    <i type="int" name="NELMDL">    -5</i>
    <i type="int" name="NELMIN">     2</i>
    <i name="ENINI">    600.00000000</i>
    <separator name="electronic convergence detail" >
     <i type="logical" name="LDIAG"> T  </i>
     <i type="logical" name="LSUBROT"> F  </i>
     <i name="WEIMIN">      0.00000000</i>
     <i name="EBREAK">      0.00000000</i>
     <i name="DEPER">      0.30000000</i>
     <i type="int" name="NRMM">     4</i>
     <i name="TIME">      0.40000000</i>
    </separator>
   </separator>
   <separator name="electronic mixer" >
    <i name="AMIX">      0.40000000</i>
    <i name="BMIX">      1.00000000</i>
    <i name="AMIN">      0.10000000</i>
    <i name="AMIX_MAG">      1.60000000</i>
    <i name="BMIX_MAG">      1.00000000</i>
    <separator name="electronic mixer details" >
     <i type="int" name="IMIX">     4</i>
     <i type="logical" name="MIXFIRST"> F  </i>
     <i type="int" name="MAXMIX">   -45</i>
     <i name="WC">    100.00000000</i>
     <i type="int" name="INIMIX">     1</i>
     <i type="int" name="MIXPRE">     1</i>
     <i type="int" name="MREMOVE">     5</i>
    </separator>
   </separator>
   <separator name="electronic dipolcorrection" >
    <i type="logical" name="LDIPOL"> F  </i>
    <i type="logical" name="LMONO"> F  </i>
    <i type="int" name="IDIPOL">     0</i>
    <i name="EPSILON">      1.00000000</i>
    <v name="DIPOL">   -100.00000000   -100.00000000   -100.00000000</v>
    <i name="EFIELD">      0.00000000</i>
   </separator>
  </separator>
  <separator name="grids" >
   <i type="int" name="NGX">    80</i>
   <i type="int" name="NGY">    80</i>
   <i type="int" name="NGZ">    80</i>
   <i type="int" name="NGXF">   160</i>
   <i type="int" name="NGYF">   160</i>
   <i type="int" name="NGZF">   160</i>
   <i type="logical" name="ADDGRID"> T  </i>
  </separator>
  <separator name="ionic" >
   <i type="int" name="NSW">     1</i>
   <i type="int" name="IBRION">    -1</i>
   <i type="int" name="MDALGO">     0</i>
   <i type="int" name="ISIF">     2</i>
   <i name="PSTRESS">      0.00000000</i>
   <i name="EDIFFG">     -0.01000000</i>
   <i type="int" name="NFREE">     0</i>
   <i name="POTIM">      1.00000000</i>
   <i name="SMASS">     -3.00000000</i>
   <i name="SCALEE">      1.00000000</i>
  </separator>
  <separator name="ionic md" >
   <i name="TEBEG">      0.00010000</i>
   <i name="TEEND">      0.00010000</i>
   <i type="int" name="NBLOCK">     1</i>
   <i type="int" name="KBLOCK">     1</i>
   <i type="int" name="NPACO">   256</i>
   <i name="APACO">     16.00000000</i>
  </separator>
  <separator name="symmetry" >
   <i type="int" name="ISYM">     0</i>
   <i name="SYMPREC">      0.00001000</i>
  </separator>
  <separator name="dos" >
   <i type="int" name="LORBIT">     0</i>
   <v name="RWIGS">     -1.00000000     -1.00000000     -1.00000000</v>
   <i type="int" name="NEDOS">   301</i>
   <i name="EMIN">     10.00000000</i>
   <i name="EMAX">    -10.00000000</i>
   <i name="EFERMI">      0.00000000</i>
  </separator>
  <separator name="writing" >
   <i type="int" name="NWRITE">     2</i>
   <i type="logical" name="LWAVE"> F  </i>
   <i type="logical" name="LDOWNSAMPLE"> F  </i>
   <i type="logical" name="LCHARG"> F  </i>
   <i type="logical" name="LPARD"> F  </i>
   <i type="logical" name="LVTOT"> F  </i>
   <i type="logical" name="LVHAR"> F  </i>
   <i type="logical" name="LELF"> F  </i>
   <i type="logical" name="LOPTICS"> F  </i>
   <v name="STM">      0.00000000      0.00000000      0.00000000      0.00000000      0.00000000      0.00000000      0.00000000</v>
  </separator>
  <separator name="performance" >
   <i type="int" name="NPAR">     4</i>
   <i type="int" name="NSIM">     4</i>
   <i type="int" name="NBLK">    -1</i>
   <i type="logical" name="LPLANE"> T  </i>
   <i type="logical" name="LSCALAPACK"> F  </i>
   <i type="logical" name="LSCAAWARE"> F  </i>
   <i type="logical" name="LSCALU"> F  </i>
   <i type="logical" name="LASYNC"> F  </i>
   <i type="logical" name="LORBITALREAL"> F  </i>
  </separator>
  <separator name="miscellaneous" >
   <i type="int" name="IDIOT">     3</i>
   <i type="int" name="ISPECIAL">     0</i>
   <i type="logical" name="LMUSIC"> F  </i>
   <v name="POMASS">     40.07800000     28.08500000     16.00000000</v>
   <v name="DARWINR">      0.00000000      0.00000000      0.00000000</v>
   <v name="DARWINV">      1.00000000      1.00000000      1.00000000</v>
   <i type="logical" name="LCORR"> T  </i>
  </separator>
  <i type="logical" name="GGA_COMPAT"> T  </i>
  <i type="logical" name="LBERRY"> F  </i>
  <i type="int" name="ICORELEVEL">     0</i>
  <i type="logical" name="LDAU"> F  </i>
  <i type="int" name="I_CONSTRAINED_M">     0</i>
  <separator name="electronic exchange-correlation" >
   <i type="string" name="GGA">--</i>
   <i type="int" name="VOSKOWN">     0</i>
   <i type="logical" name="LHFCALC"> F  </i>
   <i type="string" name="PRECFOCK"></i>
   <i type="logical" name="LSYMGRAD"> F  </i>
   <i type="logical" name="LHFONE"> F  </i>
   <i type="logical" name="LRHFCALC"> F  </i>
   <i type="logical" name="LTHOMAS"> F  </i>
   <i type="logical" name="LMODELHF"> F  </i>
   <i name="ENCUT4O">     -1.00000000</i>
   <i type="int" name="EXXOEP">     0</i>
   <i type="int" name="FOURORBIT">     0</i>
   <i name="AEXX">      0.00000000</i>
   <i name="HFALPHA">      0.00000000</i>
   <i name="MCALPHA">      0.00000000</i>
   <i name="ALDAX">      1.00000000</i>
   <i name="AGGAX">      1.00000000</i>
   <i name="ALDAC">      1.00000000</i>
   <i name="AGGAC">      1.00000000</i>
   <i type="int" name="NKREDX">     1</i>
   <i type="int" name="NKREDY">     1</i>
   <i type="int" name="NKREDZ">     1</i>
   <i type="logical" name="SHIFTRED"> F  </i>
   <i type="logical" name="ODDONLY"> F  </i>
   <i type="logical" name="EVENONLY"> F  </i>
   <i type="int" name="LMAXFOCK">     0</i>
   <i type="int" name="NMAXFOCKAE">     0</i>
   <i type="logical" name="LFOCKAEDFT"> F  </i>
   <i name="HFSCREEN">      0.00000000</i>
   <i name="HFSCREENC">      0.00000000</i>
   <i type="int" name="NBANDSGWLOW">     0</i>
  </separator>
  <separator name="vdW DFT" >
   <i type="logical" name="LUSE_VDW"> F  </i>
   <i name="Zab_VDW">     -0.84910000</i>
   <i name="PARAM1">      0.12340000</i>
   <i name="PARAM2">      1.00000000</i>
   <i name="PARAM3">      0.00000000</i>
  </separator>
  <separator name="model GW" >
   <i type="int" name="MODEL_GW">     0</i>
   <i name="MODEL_EPS0">      4.36749071</i>
   <i name="MODEL_ALPHA">      1.00000000</i>
  </separator>
  <separator name="linear response parameters" >
   <i type="logical" name="LEPSILON"> F  </i>
   <i type="logical" name="LRPA"> F  </i>
   <i type="logical" name="LNABLA"> F  </i>
   <i type="logical" name="LVEL"> F  </i>
   <i type="int" name="KINTER">     0</i>
   <i name="CSHIFT">      0.10000000</i>
   <i name="OMEGAMAX">     -1.00000000</i>
   <i name="DEG_THRESHOLD">      0.00200000</i>
   <i name="RTIME">     -0.10000000</i>
   <i name="WPLASMAI">      0.00000000</i>
   <v name="DFIELD">      0.00000000      0.00000000      0.00000000</v>
   <v name="WPLASMA">      0.00000000      0.00000000      0.00000000      0.00000000      0.00000000      0.00000000      0.00000000      0.00000000      0.00000000</v>
  </separator>
  <separator name="orbital magnetization" >
   <i type="logical" name="NUCIND"> F  </i>
   <v name="MAGPOS">      0.00000000      0.00000000      0.00000000</v>
   <i type="logical" name="LNICSALL"> T  </i>
   <i type="logical" name="ORBITALMAG"> F  </i>
   <i type="logical" name="LMAGBLOCH"> F  </i>
   <i type="logical" name="LCHIMAG"> F  </i>
   <i type="logical" name="LGAUGE"> T  </i>
   <i type="int" name="MAGATOM">     0</i>
   <v name="MAGDIPOL">      0.00000000      0.00000000      0.00000000</v>
   <v name="AVECCONST">      0.00000000      0.00000000      0.00000000</v>
  </separator>
  <separator name="response functions" >
   <i type="logical" name="LADDER"> F  </i>
   <i type="logical" name="LRPAFORCE"> F  </i>
   <i type="logical" name="LFXC"> F  </i>
   <i type="logical" name="LHARTREE"> T  </i>
   <i type="int" name="IBSE">     0</i>
   <v type="int" name="KPOINT">    -1     0     0     0</v>
   <i type="logical" name="LTCTE"> F  </i>
   <i type="logical" name="LTETE"> F  </i>
   <i type="logical" name="LTRIPLET"> F  </i>
   <i type="logical" name="LFXCEPS"> F  </i>
   <i type="logical" name="LFXHEG"> F  </i>
   <i type="int" name="NATURALO">     2</i>
   <i type="logical" name="L2ORDER"> F  </i>
   <i type="logical" name="LMP2LT"> F  </i>
   <i type="logical" name="LUSEW"> F  </i>
   <i name="ENCUTGW">     -2.00000000</i>
   <i name="ENCUTGWSOFT">     -2.00000000</i>
   <i name="ENCUTLF">     -1.00000000</i>
   <i type="int" name="LMAXMP2">    -1</i>
   <i name="SCISSOR">      0.00000000</i>
   <i type="int" name="NOMEGA">     0</i>
   <i type="int" name="NOMEGAR">     0</i>
   <i type="int" name="NBANDSGW">    -1</i>
   <i type="int" name="NBANDSO">    -1</i>
   <i type="int" name="NBANDSV">    -1</i>
   <i type="int" name="NELM">     1</i>
   <i type="int" name="NELMHF">     1</i>
   <i type="int" name="DIM">     3</i>
   <i type="int" name="ANTIRES">     0</i>
   <i name="OMEGAMAX">    -30.00000000</i>
   <i name="OMEGAMIN">    -30.00000000</i>
   <i name="OMEGATL">   -200.00000000</i>
   <i type="int" name="OMEGAGRID">   140</i>
   <i name="CSHIFT">     -0.10000000</i>
   <i type="logical" name="SELFENERGY"> F  </i>
   <i type="logical" name="LSPECTRAL"> F  </i>
   <i type="logical" name="LSPECTRALGW"> F  </i>
   <i type="logical" name="LSINGLES"> F  </i>
   <i type="logical" name="LFERMIGW"> F  </i>
   <i type="logical" name="ODDONLYGW"> F  </i>
   <i type="logical" name="EVENONLYGW"> F  </i>
   <i type="int" name="NKREDLFX">     1</i>
   <i type="int" name="NKREDLFY">     1</i>
   <i type="int" name="NKREDLFZ">     1</i>
   <i type="int" name="MAXMEM">  2800</i>
   <i type="int" name="TELESCOPE">     0</i>
   <i type="int" name="TAUPAR">     1</i>
   <i type="int" name="OMEGAPAR">    -1</i>
   <i name="LAMBDA">      1.00000000</i>
  </separator>
  <separator name="External order field" >
   <i name="OFIELD_KAPPA">      0.00000000</i>
   <v name="OFIELD_K">      0.00000000      0.00000000      0.00000000</v>
   <i name="OFIELD_Q6_NEAR">      0.00000000</i>
   <i name="OFIELD_Q6_FAR">      0.00000000</i>
   <i name="OFIELD_A">      0.00000000</i>
  </separator>
 </parameters>
 <atominfo>
  <atoms>     135 </atoms>
  <types>       3 </types>
  <array name="atoms" >
   <dimension dim="1">ion</dimension>
   <field type="string">element</field>
   <field type="int">atomtype</field>
   <set>
    <rc><c>Ca</c><c>   1</c></rc>
    <rc><c>Ca</c><c>   1</c></rc>
    <rc><c>Ca</c><c>   1</c></rc>
    <rc><c>Ca</c><c>   1</c></rc>
    <rc><c>Ca</c><c>   1</c></rc>
    <rc><c>Ca</c><c>   1</c></rc>
    <rc><c>Ca</c><c>   1</c></rc>
    <rc><c>Ca</c><c>   1</c></rc>
    <rc><c>Ca</c><c>   1</c></rc>
    <rc><c>Ca</c><c>   1</c></rc>
    <rc><c>Ca</c><c>   1</c></rc>
    <rc><c>Ca</c><c>   1</c></rc>
    <rc><c>Ca</c><c>   1</c></rc>
    <rc><c>Ca</c><c>   1</c></rc>
    <rc><c>Ca</c><c>   1</c></rc>
    <rc><c>Ca</c><c>   1</c></rc>
    <rc><c>Ca</c><c>   1</c></rc>
    <rc><c>Ca</c><c>   1</c></rc>
    <rc><c>Ca</c><c>   1</c></rc>
    <rc><c>Ca</c><c>   1</c></rc>
    <rc><c>Ca</c><c>   1</c></rc>
    <rc><c>Ca</c><c>   1</c></rc>
    <rc><c>Ca</c><c>   1</c></rc>
    <rc><c>Ca</c><c>   1</c></rc>
    <rc><c>Ca</c><c>   1</c></rc>
    <rc><c>Ca</c><c>   1</c></rc>
    <rc><c>Ca</c><c>   1</c></rc>
    <rc><c>Si</c><c>   2</c></rc>
    <rc><c>Si</c><c>   2</c></rc>
    <rc><c>Si</c><c>   2</c></rc>
    <rc><c>Si</c><c>   2</c></rc>
    <rc><c>Si</c><c>   2</c></rc>
    <rc><c>Si</c><c>   2</c></rc>
    <rc><c>Si</c><c>   2</c></rc>
    <rc><c>Si</c><c>   2</c></rc>
    <rc><c>Si</c><c>   2</c></rc>
    <rc><c>Si</c><c>   2</c></rc>
    <rc><c>Si</c><c>   2</c></rc>
    <rc><c>Si</c><c>   2</c></rc>
    <rc><c>Si</c><c>   2</c></rc>
    <rc><c>Si</c><c>   2</c></rc>
    <rc><c>Si</c><c>   2</c></rc>
    <rc><c>Si</c><c>   2</c></rc>
    <rc><c>Si</c><c>   2</c></rc>
    <rc><c>Si</c><c>   2</c></rc>
    <rc><c>Si</c><c>   2</c></rc>
    <rc><c>Si</c><c>   2</c></rc>
    <rc><c>Si</c><c>   2</c></rc>
    <rc><c>Si</c><c>   2</c></rc>
    <rc><c>Si</c><c>   2</c></rc>
    <rc><c>Si</c><c>   2</c></rc>
    <rc><c>Si</c><c>   2</c></rc>
    <rc><c>Si</c><c>   2</c></rc>
    <rc><c>Si</c><c>   2</c></rc>
    <rc><c>O </c><c>   3</c></rc>
    <rc><c>O </c><c>   3</c></rc>
    <rc><c>O </c><c>   3</c></rc>
    <rc><c>O </c><c>   3</c></rc>
    <rc><c>O </c><c>   3</c></rc>
    <rc><c>O </c><c>   3</c></rc>
    <rc><c>O </c><c>   3</c></rc>
    <rc><c>O </c><c>   3</c></rc>
    <rc><c>O </c><c>   3</c></rc>
    <rc><c>O </c><c>   3</c></rc>
    <rc><c>O </c><c>   3</c></rc>
    <rc><c>O </c><c>   3</c></rc>
    <rc><c>O </c><c>   3</c></rc>
    <rc><c>O </c><c>   3</c></rc>
    <rc><c>O </c><c>   3</c></rc>
    <rc><c>O </c><c>   3</c></rc>
    <rc><c>O </c><c>   3</c></rc>
    <rc><c>O </c><c>   3</c></rc>
    <rc><c>O </c><c>   3</c></rc>
    <rc><c>O </c><c>   3</c></rc>
    <rc><c>O </c><c>   3</c></rc>
    <rc><c>O </c><c>   3</c></rc>
    <rc><c>O </c><c>   3</c></rc>
    <rc><c>O </c><c>   3</c></rc>
    <rc><c>O </c><c>   3</c></rc>
    <rc><c>O </c><c>   3</c></rc>
    <rc><c>O </c><c>   3</c></rc>
    <rc><c>O </c><c>   3</c></rc>
    <rc><c>O </c><c>   3</c></rc>
    <rc><c>O </c><c>   3</c></rc>
    <rc><c>O </c><c>   3</c></rc>
    <rc><c>O </c><c>   3</c></rc>
    <rc><c>O </c><c>   3</c></rc>
    <rc><c>O </c><c>   3</c></rc>
    <rc><c>O </c><c>   3</c></rc>
    <rc><c>O </c><c>   3</c></rc>
    <rc><c>O </c><c>   3</c></rc>
    <rc><c>O </c><c>   3</c></rc>
    <rc><c>O </c><c>   3</c></rc>
    <rc><c>O </c><c>   3</c></rc>
    <rc><c>O </c><c>   3</c></rc>
    <rc><c>O </c><c>   3</c></rc>
    <rc><c>O </c><c>   3</c></rc>
    <rc><c>O </c><c>   3</c></rc>
    <rc><c>O </c><c>   3</c></rc>
    <rc><c>O </c><c>   3</c></rc>
    <rc><c>O </c><c>   3</c></rc>
    <rc><c>O </c><c>   3</c></rc>
    <rc><c>O </c><c>   3</c></rc>
    <rc><c>O </c><c>   3</c></rc>
    <rc><c>O </c><c>   3</c></rc>
    <rc><c>O </c><c>   3</c></rc>
    <rc><c>O </c><c>   3</c></rc>
    <rc><c>O </c><c>   3</c></rc>
    <rc><c>O </c><c>   3</c></rc>
    <rc><c>O </c><c>   3</c></rc>
    <rc><c>O </c><c>   3</c></rc>
    <rc><c>O </c><c>   3</c></rc>
    <rc><c>O </c><c>   3</c></rc>
    <rc><c>O </c><c>   3</c></rc>
    <rc><c>O </c><c>   3</c></rc>
    <rc><c>O </c><c>   3</c></rc>
    <rc><c>O </c><c>   3</c></rc>
    <rc><c>O </c><c>   3</c></rc>
    <rc><c>O </c><c>   3</c></rc>
    <rc><c>O </c><c>   3</c></rc>
    <rc><c>O </c><c>   3</c></rc>
    <rc><c>O </c><c>   3</c></rc>
    <rc><c>O </c><c>   3</c></rc>
    <rc><c>O </c><c>   3</c></rc>
    <rc><c>O </c><c>   3</c></rc>
    <rc><c>O </c><c>   3</c></rc>
    <rc><c>O </c><c>   3</c></rc>
    <rc><c>O </c><c>   3</c></rc>
    <rc><c>O </c><c>   3</c></rc>
    <rc><c>O </c><c>   3</c></rc>
    <rc><c>O </c><c>   3</c></rc>
    <rc><c>O </c><c>   3</c></rc>
    <rc><c>O </c><c>   3</c></rc>
    <rc><c>O </c><c>   3</c></rc>
    <rc><c>O </c><c>   3</c></rc>
   </set>
  </array>
  <array name="atomtypes" >
   <dimension dim="1">type</dimension>
   <field type="int">atomspertype</field>
   <field type="string">element</field>
   <field>mass</field>
   <field>valence</field>
   <field type="string">pseudopotential</field>
   <set>
    <rc><c>  27</c><c>Ca</c><c>     40.07800000</c><c>     10.00000000</c><c>  PAW_PBE Ca_sv 06Sep2000               </c></rc>
    <rc><c>  27</c><c>Si</c><c>     28.08500000</c><c>      4.00000000</c><c>  PAW_PBE Si 05Jan2001                  </c></rc>
    <rc><c>  81</c><c>O </c><c>     16.00000000</c><c>      6.00000000</c><c>  PAW_PBE O 08Apr2002                   </c></rc>
   </set>
  </array>
 </atominfo>
 <structure name="initialpos" >
  <crystal>
   <varray name="basis" >
    <v>       9.94194835       0.00000000       0.00000000 </v>
    <v>       0.00000000       9.94194835       0.00000000 </v>
    <v>       0.00000000       0.00000000       9.94194835 </v>
   </varray>
   <i name="volume">    982.68540919 </i>
   <varray name="rec_basis" >
    <v>       0.10058391       0.00000000       0.00000000 </v>
    <v>       0.00000000       0.10058391       0.00000000 </v>
    <v>       0.00000000       0.00000000       0.10058391 </v>
   </varray>
  </crystal>
  <varray name="positions" >
   <v>       0.28641516       0.39992839       0.57039871 </v>
   <v>       0.36693416       0.55371406       0.38560100 </v>
   <v>       0.70766323       0.47354126       0.50553760 </v>
   <v>       0.00247371       0.37037573       0.63318550 </v>
   <v>       0.56866960       0.26219520       0.63561717 </v>
   <v>       0.39172006       0.30716621       0.11078211 </v>
   <v>       0.48034579       0.75399611       0.19343819 </v>
   <v>       0.07054110       0.34232828       0.98776766 </v>
   <v>       0.94631166       0.13846690       0.25819479 </v>
   <v>       0.29555838       0.11370832       0.29846711 </v>
   <v>       0.22431759       0.83206895       0.04580509 </v>
   <v>       0.79773727       0.87619183       0.47216726 </v>
   <v>       0.36916156       0.78192602       0.60097009 </v>
   <v>       0.93903745       0.90354446       0.99114263 </v>
   <v>       0.07595128       0.92073923       0.54129947 </v>
   <v>       0.66822998       0.26854596       0.17869493 </v>
   <v>       0.50874021       0.97917129       0.38573028 </v>
   <v>       0.10843204       0.61158904       0.28420239 </v>
   <v>       0.82977244       0.47585558       0.09780770 </v>
   <v>       0.50990003       0.51526498       0.89151931 </v>
   <v>       0.08710143       0.11682296       0.78850719 </v>
   <v>       0.37264689       0.01723423       0.83900849 </v>
   <v>       0.22264722       0.61558227       0.79633062 </v>
   <v>       0.80665280       0.15339524       0.72992692 </v>
   <v>       0.66850676       0.69725793       0.67989064 </v>
   <v>       0.88086864       0.68507962       0.27290418 </v>
   <v>       0.63376092       0.93859263       0.97056793 </v>
   <v>       0.28837443       0.83166772       0.34125714 </v>
   <v>       0.28508715       0.35792457       0.85910392 </v>
   <v>       0.13036005       0.62282229       0.55162429 </v>
   <v>       0.14147815       0.36504167       0.27810613 </v>
   <v>       0.90040561       0.62647976       0.55456865 </v>
   <v>       0.75201117       0.16606892       0.46020127 </v>
   <v>       0.83354248       0.15178150       0.99542577 </v>
   <v>       0.04429085       0.16496909       0.48757467 </v>
   <v>       0.78717432       0.41535296       0.77621168 </v>
   <v>       0.59826874       0.72539449       0.43678866 </v>
   <v>       0.14170712       0.84435939       0.78506559 </v>
   <v>       0.75038566       0.93447565       0.21858434 </v>
   <v>       0.59595731       0.51549916       0.24129168 </v>
   <v>       0.85662554       0.83155752       0.77354978 </v>
   <v>       0.57491028       0.23762312       0.88779061 </v>
   <v>       0.31050382       0.09657318       0.59457196 </v>
   <v>       0.45011440       0.77253350       0.89255638 </v>
   <v>       0.02327749       0.62076169       0.94727590 </v>
   <v>       0.87858627       0.36584121       0.31221872 </v>
   <v>       0.13867178       0.10918110       0.02927072 </v>
   <v>       0.28536104       0.56927727       0.08083773 </v>
   <v>       0.73454519       0.69443080       0.01314936 </v>
   <v>       0.45615987       0.03879963       0.13280208 </v>
   <v>       0.60743170       0.96120852       0.66497931 </v>
   <v>       0.06617830       0.91789190       0.26208549 </v>
   <v>       0.48397932       0.29456758       0.38892982 </v>
   <v>       0.46478866       0.55017284       0.66676953 </v>
   <v>       0.72819269       0.47839465       0.30080756 </v>
   <v>       0.00236812       0.67656519       0.45424563 </v>
   <v>       0.13346973       0.96812010       0.91129420 </v>
   <v>       0.32302988       0.32388769       0.34890528 </v>
   <v>       0.75820106       0.92508376       0.69434051 </v>
   <v>       0.50284132       0.15624171       0.25786786 </v>
   <v>       0.78878229       0.28363090       0.56195401 </v>
   <v>       0.69660370       0.81154737       0.32214012 </v>
   <v>       0.59964843       0.93671335       0.15833728 </v>
   <v>       0.99388968       0.93869492       0.76684661 </v>
   <v>       0.10786086       0.58558576       0.06488358 </v>
   <v>       0.00744818       0.18254250       0.62952601 </v>
   <v>       0.75623394       0.66585484       0.45521076 </v>
   <v>       0.13725626       0.80888279       0.34655017 </v>
   <v>       0.06993874       0.01467323       0.14322246 </v>
   <v>       0.29073757       0.60573115       0.61242696 </v>
   <v>       0.54917155       0.84845434       0.78195951 </v>
   <v>       0.22713815       0.23006443       0.93585467 </v>
   <v>       0.28101430       0.06451767       0.08128875 </v>
   <v>       0.44794337       0.52694954       0.14221246 </v>
   <v>       0.90657236       0.48511888       0.41951326 </v>
   <v>       0.18464565       0.21469934       0.51224268 </v>
   <v>       0.67518637       0.64145087       0.14767485 </v>
   <v>       0.23871408       0.45940963       0.20002249 </v>
   <v>       0.69923286       0.06218872       0.35069253 </v>
   <v>       0.30528680       0.66022965       0.23325234 </v>
   <v>       0.44268566       0.00059245       0.64353353 </v>
   <v>       0.28524001       0.44423042       0.99311262 </v>
   <v>       0.08141043       0.49711697       0.86718444 </v>
   <v>       0.47878100       0.40965373       0.28807127 </v>
   <v>       0.51535139       0.65287252       0.56253533 </v>
   <v>       0.80567677       0.02700464       0.86174598 </v>
   <v>       0.89273144       0.64980510       0.03707828 </v>
   <v>       0.21416789       0.96667798       0.66882532 </v>
   <v>       0.08069715       0.76480700       0.91976563 </v>
   <v>       0.90884710       0.88755239       0.28466392 </v>
   <v>       0.12870203       0.23928268       0.15939141 </v>
   <v>       0.43417563       0.20850199       0.50690202 </v>
   <v>       0.61504324       0.50221694       0.67017992 </v>
   <v>       0.03515443       0.57234516       0.65412745 </v>
   <v>       0.31436084       0.20320207       0.72065963 </v>
   <v>       0.97790840       0.15912862       0.96366652 </v>
   <v>       0.72441752       0.53654410       0.91037968 </v>
   <v>       0.38111322       0.43666409       0.73365369 </v>
   <v>       0.34352637       0.93219121       0.24132445 </v>
   <v>       0.80194181       0.23794388       0.32124660 </v>
   <v>       0.42828115       0.27886513       0.88173900 </v>
   <v>       0.63658214       0.34256279       0.81132854 </v>
   <v>       0.54092262       0.11407841       0.01391689 </v>
   <v>       0.02360753       0.30155388       0.41089880 </v>
   <v>       0.79654469       0.82635623       0.10278853 </v>
   <v>       0.15486571       0.51352148       0.43088454 </v>
   <v>       0.29970497       0.98224000       0.44941590 </v>
   <v>       0.64199823       0.28766679       0.43429298 </v>
   <v>       0.56196988       0.57826616       0.37037949 </v>
   <v>       0.75353362       0.80071533       0.87742868 </v>
   <v>       0.82231899       0.51576207       0.66925059 </v>
   <v>       0.69529823       0.23364133       0.98924418 </v>
   <v>       0.78504253       0.05826146       0.11717056 </v>
   <v>       0.43845559       0.86500300       0.00930538 </v>
   <v>       0.13387809       0.76163734       0.64599455 </v>
   <v>       0.34855593       0.66496499       0.99304260 </v>
   <v>       0.10584988       0.07001759       0.37985741 </v>
   <v>       0.69599364       0.05821780       0.57075531 </v>
   <v>       0.49230991       0.40990539       0.51709421 </v>
   <v>       0.92488618       0.67048396       0.83082446 </v>
   <v>       0.60898518       0.42169965       0.06790227 </v>
   <v>       0.87295633       0.76833387       0.61575696 </v>
   <v>       0.25173670       0.70503596       0.45643980 </v>
   <v>       0.99869156       0.42396663       0.22554396 </v>
   <v>       0.61212128       0.86074046       0.52866150 </v>
   <v>       0.45782320       0.65298657       0.77290414 </v>
   <v>       0.44419756       0.77343288       0.38749080 </v>
   <v>       0.89162588       0.31447716       0.83184068 </v>
   <v>       0.16016350       0.34234958       0.73215015 </v>
   <v>       0.29983758       0.81790652       0.79195274 </v>
   <v>       0.07050527       0.79119942       0.16245306 </v>
   <v>       0.57519360       0.10835453       0.78693553 </v>
   <v>       0.56163609       0.69043439       0.96399662 </v>
   <v>       0.88393777       0.30409897       0.09599105 </v>
   <v>       0.90972034       0.05703821       0.48028305 </v>
  </varray>
  <varray name="velocities" >
   <v>       0.00000000       0.00000000       0.00000000 </v>
   <v>       0.00000000       0.00000000       0.00000000 </v>
   <v>       0.00000000       0.00000000       0.00000000 </v>
   <v>       0.00000000       0.00000000       0.00000000 </v>
   <v>       0.00000000       0.00000000       0.00000000 </v>
   <v>       0.00000000       0.00000000       0.00000000 </v>
   <v>       0.00000000       0.00000000       0.00000000 </v>
   <v>       0.00000000       0.00000000       0.00000000 </v>
   <v>       0.00000000       0.00000000       0.00000000 </v>
   <v>       0.00000000       0.00000000       0.00000000 </v>
   <v>       0.00000000       0.00000000       0.00000000 </v>
   <v>       0.00000000       0.00000000       0.00000000 </v>
   <v>       0.00000000       0.00000000       0.00000000 </v>
   <v>       0.00000000       0.00000000       0.00000000 </v>
   <v>       0.00000000       0.00000000       0.00000000 </v>
   <v>       0.00000000       0.00000000       0.00000000 </v>
   <v>       0.00000000       0.00000000       0.00000000 </v>
   <v>       0.00000000       0.00000000       0.00000000 </v>
   <v>       0.00000000       0.00000000       0.00000000 </v>
   <v>       0.00000000       0.00000000       0.00000000 </v>
   <v>       0.00000000       0.00000000       0.00000000 </v>
   <v>       0.00000000       0.00000000       0.00000000 </v>
   <v>       0.00000000       0.00000000       0.00000000 </v>
   <v>       0.00000000       0.00000000       0.00000000 </v>
   <v>       0.00000000       0.00000000       0.00000000 </v>
   <v>       0.00000000       0.00000000       0.00000000 </v>
   <v>       0.00000000       0.00000000       0.00000000 </v>
   <v>       0.00000000       0.00000000       0.00000000 </v>
   <v>       0.00000000       0.00000000       0.00000000 </v>
   <v>       0.00000000       0.00000000       0.00000000 </v>
   <v>       0.00000000       0.00000000       0.00000000 </v>
   <v>       0.00000000       0.00000000       0.00000000 </v>
   <v>       0.00000000       0.00000000       0.00000000 </v>
   <v>       0.00000000       0.00000000       0.00000000 </v>
   <v>       0.00000000       0.00000000       0.00000000 </v>
   <v>       0.00000000       0.00000000       0.00000000 </v>
   <v>       0.00000000       0.00000000       0.00000000 </v>
   <v>       0.00000000       0.00000000       0.00000000 </v>
   <v>       0.00000000       0.00000000       0.00000000 </v>
   <v>       0.00000000       0.00000000       0.00000000 </v>
   <v>       0.00000000       0.00000000       0.00000000 </v>
   <v>       0.00000000       0.00000000       0.00000000 </v>
   <v>       0.00000000       0.00000000       0.00000000 </v>
   <v>       0.00000000       0.00000000       0.00000000 </v>
   <v>       0.00000000       0.00000000       0.00000000 </v>
   <v>       0.00000000       0.00000000       0.00000000 </v>
   <v>       0.00000000       0.00000000       0.00000000 </v>
   <v>       0.00000000       0.00000000       0.00000000 </v>
   <v>       0.00000000       0.00000000       0.00000000 </v>
   <v>       0.00000000       0.00000000       0.00000000 </v>
   <v>       0.00000000       0.00000000       0.00000000 </v>
   <v>       0.00000000       0.00000000       0.00000000 </v>
   <v>       0.00000000       0.00000000       0.00000000 </v>
   <v>       0.00000000       0.00000000       0.00000000 </v>
   <v>       0.00000000       0.00000000       0.00000000 </v>
   <v>       0.00000000       0.00000000       0.00000000 </v>
   <v>       0.00000000       0.00000000       0.00000000 </v>
   <v>       0.00000000       0.00000000       0.00000000 </v>
   <v>       0.00000000       0.00000000       0.00000000 </v>
   <v>       0.00000000       0.00000000       0.00000000 </v>
   <v>       0.00000000       0.00000000       0.00000000 </v>
   <v>       0.00000000       0.00000000       0.00000000 </v>
   <v>       0.00000000       0.00000000       0.00000000 </v>
   <v>       0.00000000       0.00000000       0.00000000 </v>
   <v>       0.00000000       0.00000000       0.00000000 </v>
   <v>       0.00000000       0.00000000       0.00000000 </v>
   <v>       0.00000000       0.00000000       0.00000000 </v>
   <v>       0.00000000       0.00000000       0.00000000 </v>
   <v>       0.00000000       0.00000000       0.00000000 </v>
   <v>       0.00000000       0.00000000       0.00000000 </v>
   <v>       0.00000000       0.00000000       0.00000000 </v>
   <v>       0.00000000       0.00000000       0.00000000 </v>
   <v>       0.00000000       0.00000000       0.00000000 </v>
   <v>       0.00000000       0.00000000       0.00000000 </v>
   <v>       0.00000000       0.00000000       0.00000000 </v>
   <v>       0.00000000       0.00000000       0.00000000 </v>
   <v>       0.00000000       0.00000000       0.00000000 </v>
   <v>       0.00000000       0.00000000       0.00000000 </v>
   <v>       0.00000000       0.00000000       0.00000000 </v>
   <v>       0.00000000       0.00000000       0.00000000 </v>
   <v>       0.00000000       0.00000000       0.00000000 </v>
   <v>       0.00000000       0.00000000       0.00000000 </v>
   <v>       0.00000000       0.00000000       0.00000000 </v>
   <v>       0.00000000       0.00000000       0.00000000 </v>
   <v>       0.00000000       0.00000000       0.00000000 </v>
   <v>       0.00000000       0.00000000       0.00000000 </v>
   <v>       0.00000000       0.00000000       0.00000000 </v>
   <v>       0.00000000       0.00000000       0.00000000 </v>
   <v>       0.00000000       0.00000000       0.00000000 </v>
   <v>       0.00000000       0.00000000       0.00000000 </v>
   <v>       0.00000000       0.00000000       0.00000000 </v>
   <v>       0.00000000       0.00000000       0.00000000 </v>
   <v>       0.00000000       0.00000000       0.00000000 </v>
   <v>       0.00000000       0.00000000       0.00000000 </v>
   <v>       0.00000000       0.00000000       0.00000000 </v>
   <v>       0.00000000       0.00000000       0.00000000 </v>
   <v>       0.00000000       0.00000000       0.00000000 </v>
   <v>       0.00000000       0.00000000       0.00000000 </v>
   <v>       0.00000000       0.00000000       0.00000000 </v>
   <v>       0.00000000       0.00000000       0.00000000 </v>
   <v>       0.00000000       0.00000000       0.00000000 </v>
   <v>       0.00000000       0.00000000       0.00000000 </v>
   <v>       0.00000000       0.00000000       0.00000000 </v>
   <v>       0.00000000       0.00000000       0.00000000 </v>
   <v>       0.00000000       0.00000000       0.00000000 </v>
   <v>       0.00000000       0.00000000       0.00000000 </v>
   <v>       0.00000000       0.00000000       0.00000000 </v>
   <v>       0.00000000       0.00000000       0.00000000 </v>
   <v>       0.00000000       0.00000000       0.00000000 </v>
   <v>       0.00000000       0.00000000       0.00000000 </v>
   <v>       0.00000000       0.00000000       0.00000000 </v>
   <v>       0.00000000       0.00000000       0.00000000 </v>
   <v>       0.00000000       0.00000000       0.00000000 </v>
   <v>       0.00000000       0.00000000       0.00000000 </v>
   <v>       0.00000000       0.00000000       0.00000000 </v>
   <v>       0.00000000       0.00000000       0.00000000 </v>
   <v>       0.00000000       0.00000000       0.00000000 </v>
   <v>       0.00000000       0.00000000       0.00000000 </v>
   <v>       0.00000000       0.00000000       0.00000000 </v>
   <v>       0.00000000       0.00000000       0.00000000 </v>
   <v>       0.00000000       0.00000000       0.00000000 </v>
   <v>       0.00000000       0.00000000       0.00000000 </v>
   <v>       0.00000000       0.00000000       0.00000000 </v>
   <v>       0.00000000       0.00000000       0.00000000 </v>
   <v>       0.00000000       0.00000000       0.00000000 </v>
   <v>       0.00000000       0.00000000       0.00000000 </v>
   <v>       0.00000000       0.00000000       0.00000000 </v>
   <v>       0.00000000       0.00000000       0.00000000 </v>
   <v>       0.00000000       0.00000000       0.00000000 </v>
   <v>       0.00000000       0.00000000       0.00000000 </v>
   <v>       0.00000000       0.00000000       0.00000000 </v>
   <v>       0.00000000       0.00000000       0.00000000 </v>
   <v>       0.00000000       0.00000000       0.00000000 </v>
   <v>       0.00000000       0.00000000       0.00000000 </v>
   <v>       0.00000000       0.00000000       0.00000000 </v>
  </varray>
 </structure>
 <calculation>
  <scstep>
   <time name="dav">   38.26   38.26</time>
   <time name="total">   38.63   38.64</time>
   <energy>
    <i name="alphaZ">   4862.75714100 </i>
    <i name="ewald"> -60014.86638632 </i>
    <i name="hartreedc"> -10709.37913703 </i>
    <i name="XCdc">   3345.56976717 </i>
    <i name="pawpsdc">  50594.51003143 </i>
    <i name="pawaedc"> -49994.65612350 </i>
    <i name="eentropy">     -0.03108712 </i>
    <i name="bandstr">   7965.52909738 </i>
    <i name="atom">  64968.54023382 </i>
    <i name="e_fr_energy">  11017.97353683 </i>
    <i name="e_wo_entrp">  11018.00462395 </i>
    <i name="e_0_energy">  11017.98908039 </i>
   </energy>
  </scstep>
  <scstep>
   <time name="dav">   41.36   41.38</time>
   <time name="total">   41.36   41.38</time>
   <energy>
    <i name="e_fr_energy">    415.81312363 </i>
    <i name="e_wo_entrp">    415.81312363 </i>
    <i name="e_0_energy">    415.81312363 </i>
   </energy>
  </scstep>
  <scstep>
   <time name="dav">   43.01   43.03</time>
   <time name="total">   43.01   43.03</time>
   <energy>
    <i name="e_fr_energy">   -835.19540735 </i>
    <i name="e_wo_entrp">   -835.19540735 </i>
    <i name="e_0_energy">   -835.19540735 </i>
   </energy>
  </scstep>
  <scstep>
   <time name="dav">   52.24   52.25</time>
   <time name="total">   52.24   52.25</time>
   <energy>
    <i name="e_fr_energy">   -905.33728890 </i>
    <i name="e_wo_entrp">   -905.33728890 </i>
    <i name="e_0_energy">   -905.33728890 </i>
   </energy>
  </scstep>
  <scstep>
   <time name="dav">   54.38   54.40</time>
   <time name="total">   55.39   55.41</time>
   <energy>
    <i name="e_fr_energy">   -909.70097840 </i>
    <i name="e_wo_entrp">   -909.70097840 </i>
    <i name="e_0_energy">   -909.70097840 </i>
   </energy>
  </scstep>
  <scstep>
   <time name="dav">   44.50   44.50</time>
   <time name="total">   45.87   45.89</time>
   <energy>
    <i name="e_fr_energy">   -769.81965948 </i>
    <i name="e_wo_entrp">   -769.81965948 </i>
    <i name="e_0_energy">   -769.81965948 </i>
   </energy>
  </scstep>
  <scstep>
   <time name="dav">   43.92   43.92</time>
   <time name="total">   45.30   45.31</time>
   <energy>
    <i name="e_fr_energy">   -770.87563295 </i>
    <i name="e_wo_entrp">   -770.87563295 </i>
    <i name="e_0_energy">   -770.87563295 </i>
   </energy>
  </scstep>
  <scstep>
   <time name="dav">   48.10   48.10</time>
   <time name="total">   49.49   49.52</time>
   <energy>
    <i name="e_fr_energy">   -770.42897284 </i>
    <i name="e_wo_entrp">   -770.42897284 </i>
    <i name="e_0_energy">   -770.42897284 </i>
   </energy>
  </scstep>
  <scstep>
   <time name="dav">   44.07   44.07</time>
   <time name="total">   45.48   45.50</time>
   <energy>
    <i name="e_fr_energy">   -770.28216073 </i>
    <i name="e_wo_entrp">   -770.28216073 </i>
    <i name="e_0_energy">   -770.28216073 </i>
   </energy>
  </scstep>
  <scstep>
   <time name="dav">   53.47   53.48</time>
   <time name="total">   54.89   54.91</time>
   <energy>
    <i name="e_fr_energy">   -770.33890963 </i>
    <i name="e_wo_entrp">   -770.33890963 </i>
    <i name="e_0_energy">   -770.33890963 </i>
   </energy>
  </scstep>
  <scstep>
   <time name="dav">   45.30   45.30</time>
   <time name="total">   46.72   46.74</time>
   <energy>
    <i name="e_fr_energy">   -770.34336056 </i>
    <i name="e_wo_entrp">   -770.34336056 </i>
    <i name="e_0_energy">   -770.34336056 </i>
   </energy>
  </scstep>
  <scstep>
   <time name="dav">   45.82   45.82</time>
   <time name="total">   47.20   47.21</time>
   <energy>
    <i name="e_fr_energy">   -770.34282614 </i>
    <i name="e_wo_entrp">   -770.34282614 </i>
    <i name="e_0_energy">   -770.34282614 </i>
   </energy>
  </scstep>
  <scstep>
   <time name="dav">   45.18   45.19</time>
   <time name="total">   46.57   46.59</time>
   <energy>
    <i name="e_fr_energy">   -770.34302105 </i>
    <i name="e_wo_entrp">   -770.34302105 </i>
    <i name="e_0_energy">   -770.34302105 </i>
   </energy>
  </scstep>
  <scstep>
   <time name="dav">   49.56   49.56</time>
   <time name="total">   50.96   50.97</time>
   <energy>
    <i name="e_fr_energy">   -770.34307169 </i>
    <i name="e_wo_entrp">   -770.34307169 </i>
    <i name="e_0_energy">   -770.34307169 </i>
   </energy>
  </scstep>
  <scstep>
   <time name="dav">   43.88   43.88</time>
   <time name="total">   45.26   45.28</time>
   <energy>
    <i name="e_fr_energy">   -770.34306955 </i>
    <i name="e_wo_entrp">   -770.34306955 </i>
    <i name="e_0_energy">   -770.34306955 </i>
   </energy>
  </scstep>
  <scstep>
   <time name="dav">   49.18   49.18</time>
   <time name="total">   50.56   50.58</time>
   <energy>
    <i name="e_fr_energy">   -770.34307195 </i>
    <i name="e_wo_entrp">   -770.34307195 </i>
    <i name="e_0_energy">   -770.34307195 </i>
   </energy>
  </scstep>
  <scstep>
   <time name="dav">   41.07   41.07</time>
   <time name="total">   42.45   42.47</time>
   <energy>
    <i name="e_fr_energy">   -770.34307080 </i>
    <i name="e_wo_entrp">   -770.34307080 </i>
    <i name="e_0_energy">   -770.34307080 </i>
   </energy>
  </scstep>
  <scstep>
   <time name="dav">   27.54   27.54</time>
   <time name="total">   27.92   27.93</time>
   <energy>
    <i name="alphaZ">   4862.75714100 </i>
    <i name="ewald"> -60014.86638632 </i>
    <i name="hartreedc"> -12023.46129050 </i>
    <i name="XCdc">   3443.64186351 </i>
    <i name="pawpsdc"> 131547.07978648 </i>
    <i name="pawaedc">-131177.97010689 </i>
    <i name="eentropy">     -0.00000000 </i>
    <i name="bandstr">  -2376.06431118 </i>
    <i name="atom">  64968.54023382 </i>
    <i name="e_fr_energy">   -770.34307008 </i>
    <i name="e_wo_entrp">   -770.34307008 </i>
    <i name="e_0_energy">   -770.34307008 </i>
   </energy>
  </scstep>
  <structure>
   <crystal>
    <varray name="basis" >
     <v>       9.94194835       0.00000000       0.00000000 </v>
     <v>       0.00000000       9.94194835       0.00000000 </v>
     <v>       0.00000000       0.00000000       9.94194835 </v>
    </varray>
    <i name="volume">    982.68540919 </i>
    <varray name="rec_basis" >
     <v>       0.10058391       0.00000000       0.00000000 </v>
     <v>       0.00000000       0.10058391       0.00000000 </v>
     <v>       0.00000000       0.00000000       0.10058391 </v>
    </varray>
   </crystal>
   <varray name="positions" >
    <v>       0.28641516       0.39992839       0.57039871 </v>
    <v>       0.36693416       0.55371406       0.38560100 </v>
    <v>       0.70766323       0.47354126       0.50553760 </v>
    <v>       0.00247371       0.37037573       0.63318550 </v>
    <v>       0.56866960       0.26219520       0.63561717 </v>
    <v>       0.39172006       0.30716621       0.11078211 </v>
    <v>       0.48034579       0.75399611       0.19343819 </v>
    <v>       0.07054110       0.34232828       0.98776766 </v>
    <v>       0.94631166       0.13846690       0.25819479 </v>
    <v>       0.29555838       0.11370832       0.29846711 </v>
    <v>       0.22431759       0.83206895       0.04580509 </v>
    <v>       0.79773727       0.87619183       0.47216726 </v>
    <v>       0.36916156       0.78192602       0.60097009 </v>
    <v>       0.93903745       0.90354446       0.99114263 </v>
    <v>       0.07595128       0.92073923       0.54129947 </v>
    <v>       0.66822998       0.26854596       0.17869493 </v>
    <v>       0.50874021       0.97917129       0.38573028 </v>
    <v>       0.10843204       0.61158904       0.28420239 </v>
    <v>       0.82977244       0.47585558       0.09780770 </v>
    <v>       0.50990003       0.51526498       0.89151931 </v>
    <v>       0.08710143       0.11682296       0.78850719 </v>
    <v>       0.37264689       0.01723423       0.83900849 </v>
    <v>       0.22264722       0.61558227       0.79633062 </v>
    <v>       0.80665280       0.15339524       0.72992692 </v>
    <v>       0.66850676       0.69725793       0.67989064 </v>
    <v>       0.88086864       0.68507962       0.27290418 </v>
    <v>       0.63376092       0.93859263       0.97056793 </v>
    <v>       0.28837443       0.83166772       0.34125714 </v>
    <v>       0.28508715       0.35792457       0.85910392 </v>
    <v>       0.13036005       0.62282229       0.55162429 </v>
    <v>       0.14147815       0.36504167       0.27810613 </v>
    <v>       0.90040561       0.62647976       0.55456865 </v>
    <v>       0.75201117       0.16606892       0.46020127 </v>
    <v>       0.83354248       0.15178150       0.99542577 </v>
    <v>       0.04429085       0.16496909       0.48757467 </v>
    <v>       0.78717432       0.41535296       0.77621168 </v>
    <v>       0.59826874       0.72539449       0.43678866 </v>
    <v>       0.14170712       0.84435939       0.78506559 </v>
    <v>       0.75038566       0.93447565       0.21858434 </v>
    <v>       0.59595731       0.51549916       0.24129168 </v>
    <v>       0.85662554       0.83155752       0.77354978 </v>
    <v>       0.57491028       0.23762312       0.88779061 </v>
    <v>       0.31050382       0.09657318       0.59457196 </v>
    <v>       0.45011440       0.77253350       0.89255638 </v>
    <v>       0.02327749       0.62076169       0.94727590 </v>
    <v>       0.87858627       0.36584121       0.31221872 </v>
    <v>       0.13867178       0.10918110       0.02927072 </v>
    <v>       0.28536104       0.56927727       0.08083773 </v>
    <v>       0.73454519       0.69443080       0.01314936 </v>
    <v>       0.45615987       0.03879963       0.13280208 </v>
    <v>       0.60743170       0.96120852       0.66497931 </v>
    <v>       0.06617830       0.91789190       0.26208549 </v>
    <v>       0.48397932       0.29456758       0.38892982 </v>
    <v>       0.46478866       0.55017284       0.66676953 </v>
    <v>       0.72819269       0.47839465       0.30080756 </v>
    <v>       0.00236812       0.67656519       0.45424563 </v>
    <v>       0.13346973       0.96812010       0.91129420 </v>
    <v>       0.32302988       0.32388769       0.34890528 </v>
    <v>       0.75820106       0.92508376       0.69434051 </v>
    <v>       0.50284132       0.15624171       0.25786786 </v>
    <v>       0.78878229       0.28363090       0.56195401 </v>
    <v>       0.69660370       0.81154737       0.32214012 </v>
    <v>       0.59964843       0.93671335       0.15833728 </v>
    <v>       0.99388968       0.93869492       0.76684661 </v>
    <v>       0.10786086       0.58558576       0.06488358 </v>
    <v>       0.00744818       0.18254250       0.62952601 </v>
    <v>       0.75623394       0.66585484       0.45521076 </v>
    <v>       0.13725626       0.80888279       0.34655017 </v>
    <v>       0.06993874       0.01467323       0.14322246 </v>
    <v>       0.29073757       0.60573115       0.61242696 </v>
    <v>       0.54917155       0.84845434       0.78195951 </v>
    <v>       0.22713815       0.23006443       0.93585467 </v>
    <v>       0.28101430       0.06451767       0.08128875 </v>
    <v>       0.44794337       0.52694954       0.14221246 </v>
    <v>       0.90657236       0.48511888       0.41951326 </v>
    <v>       0.18464565       0.21469934       0.51224268 </v>
    <v>       0.67518637       0.64145087       0.14767485 </v>
    <v>       0.23871408       0.45940963       0.20002249 </v>
    <v>       0.69923286       0.06218872       0.35069253 </v>
    <v>       0.30528680       0.66022965       0.23325234 </v>
    <v>       0.44268566       0.00059245       0.64353353 </v>
    <v>       0.28524001       0.44423042       0.99311262 </v>
    <v>       0.08141043       0.49711697       0.86718444 </v>
    <v>       0.47878100       0.40965373       0.28807127 </v>
    <v>       0.51535139       0.65287252       0.56253533 </v>
    <v>       0.80567677       0.02700464       0.86174598 </v>
    <v>       0.89273144       0.64980510       0.03707828 </v>
    <v>       0.21416789       0.96667798       0.66882532 </v>
    <v>       0.08069715       0.76480700       0.91976563 </v>
    <v>       0.90884710       0.88755239       0.28466392 </v>
    <v>       0.12870203       0.23928268       0.15939141 </v>
    <v>       0.43417563       0.20850199       0.50690202 </v>
    <v>       0.61504324       0.50221694       0.67017992 </v>
    <v>       0.03515443       0.57234516       0.65412745 </v>
    <v>       0.31436084       0.20320207       0.72065963 </v>
    <v>       0.97790840       0.15912862       0.96366652 </v>
    <v>       0.72441752       0.53654410       0.91037968 </v>
    <v>       0.38111322       0.43666409       0.73365369 </v>
    <v>       0.34352637       0.93219121       0.24132445 </v>
    <v>       0.80194181       0.23794388       0.32124660 </v>
    <v>       0.42828115       0.27886513       0.88173900 </v>
    <v>       0.63658214       0.34256279       0.81132854 </v>
    <v>       0.54092262       0.11407841       0.01391689 </v>
    <v>       0.02360753       0.30155388       0.41089880 </v>
    <v>       0.79654469       0.82635623       0.10278853 </v>
    <v>       0.15486571       0.51352148       0.43088454 </v>
    <v>       0.29970497       0.98224000       0.44941590 </v>
    <v>       0.64199823       0.28766679       0.43429298 </v>
    <v>       0.56196988       0.57826616       0.37037949 </v>
    <v>       0.75353362       0.80071533       0.87742868 </v>
    <v>       0.82231899       0.51576207       0.66925059 </v>
    <v>       0.69529823       0.23364133       0.98924418 </v>
    <v>       0.78504253       0.05826146       0.11717056 </v>
    <v>       0.43845559       0.86500300       0.00930538 </v>
    <v>       0.13387809       0.76163734       0.64599455 </v>
    <v>       0.34855593       0.66496499       0.99304260 </v>
    <v>       0.10584988       0.07001759       0.37985741 </v>
    <v>       0.69599364       0.05821780       0.57075531 </v>
    <v>       0.49230991       0.40990539       0.51709421 </v>
    <v>       0.92488618       0.67048396       0.83082446 </v>
    <v>       0.60898518       0.42169965       0.06790227 </v>
    <v>       0.87295633       0.76833387       0.61575696 </v>
    <v>       0.25173670       0.70503596       0.45643980 </v>
    <v>       0.99869156       0.42396663       0.22554396 </v>
    <v>       0.61212128       0.86074046       0.52866150 </v>
    <v>       0.45782320       0.65298657       0.77290414 </v>
    <v>       0.44419756       0.77343288       0.38749080 </v>
    <v>       0.89162588       0.31447716       0.83184068 </v>
    <v>       0.16016350       0.34234958       0.73215015 </v>
    <v>       0.29983758       0.81790652       0.79195274 </v>
    <v>       0.07050527       0.79119942       0.16245306 </v>
    <v>       0.57519360       0.10835453       0.78693553 </v>
    <v>       0.56163609       0.69043439       0.96399662 </v>
    <v>       0.88393777       0.30409897       0.09599105 </v>
    <v>       0.90972034       0.05703821       0.48028305 </v>
   </varray>
  </structure>
  <varray name="forces" >
   <v>      -3.34484518      -6.27412261      -3.78069460 </v>
   <v>      -0.98796312      -3.12422850       1.64118577 </v>
   <v>      -2.19544866      -3.64634660      -3.17198828 </v>
   <v>      -2.83820071       4.68609491      -1.85915839 </v>
   <v>      -0.08369231      -0.04129530       0.63833402 </v>
   <v>       0.62536313       1.12769280       1.10267672 </v>
   <v>       4.17149712      -2.92399656      -5.89148669 </v>
   <v>      -4.00532635       5.50781691       1.04092621 </v>
   <v>       2.24236677      -2.84355192      -3.32150698 </v>
   <v>      -5.41222104       7.06181784       2.36379643 </v>
   <v>       2.13401899       0.91923578       2.03050715 </v>
   <v>       5.24499635       6.11956816       1.59434923 </v>
   <v>       0.33255355       7.85441950      -0.35191249 </v>
   <v>       1.76764233       0.42801113       0.92357210 </v>
   <v>      -3.19976081      -1.18468921      -2.61905020 </v>
   <v>      -2.54367609      -1.44210268       1.15503057 </v>
   <v>       2.17085787       1.83278521       3.03062791 </v>
   <v>      -1.67411185       3.15412477      -5.80473705 </v>
   <v>      -4.63083831       3.32341429      -2.95836848 </v>
   <v>       3.45527311      -7.41845284       8.00344567 </v>
   <v>       3.04378199       4.96615164      -2.62830960 </v>
   <v>      -0.35566641       3.65778469       1.64473475 </v>
   <v>       1.13263997      -2.31896582       1.73706456 </v>
   <v>       0.36350646       0.14117393      -4.47398979 </v>
   <v>       3.32809130       0.32601698       5.07589866 </v>
   <v>      -2.68115552      -1.92766419      -2.19755437 </v>
   <v>       3.31754313       0.83733855      -5.56382665 </v>
   <v>       1.92235379      -6.79842442       7.78882688 </v>
   <v>       0.02469209      -3.38234980      -8.95073962 </v>
   <v>       6.74371210       4.14104049      -6.03050231 </v>
   <v>       2.96753381      -3.01818449       3.37708049 </v>
   <v>      -2.41813648      -6.31766665       2.76591489 </v>
   <v>       0.18116097      -2.19848022       1.42860625 </v>
   <v>      -6.96799954       2.28773191      -0.43453402 </v>
   <v>      -2.67681788      -2.48807856      -1.56326035 </v>
   <v>      -6.34058452       4.20341685       7.28587229 </v>
   <v>      -0.53225256      -1.90012008      -2.06682658 </v>
   <v>      -3.25326127       4.99071647      -0.53235087 </v>
   <v>      -0.35788752       0.00987892       2.96367171 </v>
   <v>      -5.31234107      -1.96822929     -15.16186779 </v>
   <v>       7.89788187      -2.01584403      -4.27158886 </v>
   <v>      -2.41067519      -9.02759429       6.63591360 </v>
   <v>       0.20571501       2.54977937      -1.77359937 </v>
   <v>      -2.06243174      -5.28091723      -6.05124056 </v>
   <v>      -6.23392270       0.00802547      -4.27270259 </v>
   <v>       1.48417218       8.50078961       4.82608090 </v>
   <v>       0.58565329       1.31547703       0.15499861 </v>
   <v>      -2.02466126      -3.44078680      11.79338257 </v>
   <v>      -1.30130738      -1.72121715      -5.90828568 </v>
   <v>       1.02121843      -1.33532402      -3.03216690 </v>
   <v>      -3.90382655       2.42298238       2.13003416 </v>
   <v>      -2.54152676      -1.30234901       0.39440338 </v>
   <v>      -0.07906218       0.76975152       1.74073015 </v>
   <v>      -1.29104311      -6.41524785      -8.85266911 </v>
   <v>       9.53148547      -6.13603741      -2.75681626 </v>
   <v>       2.12028521       5.60917536      -2.98329583 </v>
   <v>       5.37808638       3.44218685       4.86659317 </v>
   <v>      -8.73791800      -2.88221532      -0.28109858 </v>
   <v>       0.43721561      -1.67545221      -0.01313975 </v>
   <v>      -2.68212343      -1.34731082      -1.87696650 </v>
   <v>       4.97008104       1.91300228       4.98830695 </v>
   <v>      -4.45528637      -0.57215657      -3.96280644 </v>
   <v>      -6.64322727       1.47870739       4.72188193 </v>
   <v>      -3.53902874      -5.19663693      -3.31344483 </v>
   <v>       6.18634687      -1.18766250       6.27893343 </v>
   <v>      -4.17167715      -3.88435770       5.41677187 </v>
   <v>       1.42401725      -0.61364980       3.48927123 </v>
   <v>      -3.48475501       6.90590525       3.32247922 </v>
   <v>      -0.29325435       1.68463199      -3.02813733 </v>
   <v>       1.13020817      -7.12033043       2.92730969 </v>
   <v>      -0.79251415       3.16284245      -0.55786125 </v>
   <v>      -2.90888929      -6.09140122       2.49853883 </v>
   <v>       7.02575221      -0.58753488       0.62020239 </v>
   <v>      -1.41923472       4.97455250      -3.74232845 </v>
   <v>       0.14299226       1.51818646       3.93219227 </v>
   <v>       9.69241533      -1.29808592       2.38662127 </v>
   <v>      -0.58931696      -1.61013916       4.75784748 </v>
   <v>      -0.85843391      -0.98677297       0.44016601 </v>
   <v>       0.43686250      -5.78115440      -4.70497282 </v>
   <v>      -3.73821961       7.63334522      -2.84375120 </v>
   <v>       1.16527056      -0.80960648      -3.19218499 </v>
   <v>       0.37757649      -3.27755685      -6.53073147 </v>
   <v>      -2.49488318      -0.20501886      -0.99065303 </v>
   <v>       7.02548585      -3.69906256      -3.63519676 </v>
   <v>       0.52539620       2.55708947      -4.39568905 </v>
   <v>       0.93470668       0.89041281      10.54663910 </v>
   <v>       1.38320159       1.05848621       3.18914302 </v>
   <v>       0.80186190       4.81982276       1.44874614 </v>
   <v>       5.65469089       1.25488582      -2.35461224 </v>
   <v>      -1.05542120       5.16054689       1.90545714 </v>
   <v>       1.68062441      -1.29108902       2.75965142 </v>
   <v>      -4.98784774     -10.10155768       0.77836250 </v>
   <v>      -0.78421857      -1.47990861       6.36109549 </v>
   <v>      -3.11445787      -2.72886545       1.95680432 </v>
   <v>       1.39372207      -4.78065485      -1.89545764 </v>
   <v>       9.92104142      -4.49869274       0.25077216 </v>
   <v>       2.89941051      -0.04549308      -2.62356862 </v>
   <v>      -0.12647269      -1.26616500       6.04762135 </v>
   <v>       3.86233673      -0.46401193      -6.79685987 </v>
   <v>       1.32569159       0.47158148       0.53590829 </v>
   <v>      -0.11174464       1.80353453       3.50099602 </v>
   <v>       6.71620849       6.59737222      -5.36031751 </v>
   <v>      -6.41922211      -0.27800287       2.85500394 </v>
   <v>      -1.55141666       0.65984732      -4.84882568 </v>
   <v>      -3.29046064       0.59084493       0.85398758 </v>
   <v>       1.16528643      -8.78991716       3.89793807 </v>
   <v>       0.28776991      -2.56508805       2.66063656 </v>
   <v>      -4.94388499      -2.98171794      -4.02274672 </v>
   <v>       0.67687611       8.23560115       3.56062667 </v>
   <v>      -3.16126035      -3.32732801       4.99230685 </v>
   <v>       4.16952307       3.38090537      -2.98319206 </v>
   <v>       5.66261760      -0.76560827      -3.45375286 </v>
   <v>       2.57510392       0.91930134       0.82004513 </v>
   <v>      -2.78988654       9.39817368       4.66737755 </v>
   <v>      -0.53706188       0.13462012       2.20909301 </v>
   <v>       0.58816137       6.69950958      -8.70628528 </v>
   <v>      -0.05103575      -6.25199309      -6.52898064 </v>
   <v>      -4.06889727       6.26500945      -2.30327792 </v>
   <v>      -3.34962864       5.17612656       1.14860620 </v>
   <v>      -2.93820080       2.56354732      -6.28724445 </v>
   <v>       0.70621395      -1.20613565       1.92513155 </v>
   <v>       2.12403061      -0.29314653       4.80212741 </v>
   <v>       0.17650065       3.97485760      -1.98922925 </v>
   <v>       1.81081319       3.04990362      -1.84782915 </v>
   <v>      -4.14586043      -1.67702558       2.08019730 </v>
   <v>      -3.21212732       6.59358288       2.40995745 </v>
   <v>       0.42113009       2.85491917       0.57626937 </v>
   <v>       1.05738266       0.97578025       0.02021697 </v>
   <v>       2.66145789       1.88849840       4.88198838 </v>
   <v>       3.23717727      -1.10857891       6.21483386 </v>
   <v>      -2.90206556      -1.01598541      -3.97129506 </v>
   <v>       1.88852137      -1.89457144      -0.13056033 </v>
   <v>       6.36905153       2.40839762       3.09470923 </v>
   <v>      -0.55215946      -9.06197915       1.27455313 </v>
   <v>      -1.52207959       2.74315809      -1.70355650 </v>
  </varray>
  <varray name="stress" >
   <v>    1259.40791492     -32.13060711      39.91638764 </v>
   <v>     -32.13060717    1325.18575032    -149.38235091 </v>
   <v>      39.91638774    -149.38235085    1356.08598098 </v>
  </varray>
  <energy>
   <i name="e_fr_energy">   -770.34307008 </i>
   <i name="e_wo_entrp">   -770.34307008 </i>
   <i name="e_0_energy">     -0.00000000 </i>
  </energy>
  <time name="totalsc">  870.65  870.97</time>
  <eigenvalues>
   <array>
    <dimension dim="1">band</dimension>
    <dimension dim="2">kpoint</dimension>
    <dimension dim="3">spin</dimension>
    <field>eigene</field>
    <field>occ</field>
    <set>
     <set comment="spin 1">
      <set comment="kpoint 1">
       <r>  -29.4718    1.0000 </r>
       <r>  -29.4513    1.0000 </r>
       <r>  -29.4186    1.0000 </r>
       <r>  -29.0831    1.0000 </r>
       <r>  -29.0029    1.0000 </r>
       <r>  -28.9597    1.0000 </r>
       <r>  -28.9228    1.0000 </r>
       <r>  -28.8447    1.0000 </r>
       <r>  -28.8375    1.0000 </r>
       <r>  -28.8087    1.0000 </r>
       <r>  -28.6282    1.0000 </r>
       <r>  -28.5109    1.0000 </r>
       <r>  -28.2774    1.0000 </r>
       <r>  -28.1616    1.0000 </r>
       <r>  -28.0639    1.0000 </r>
       <r>  -27.9611    1.0000 </r>
       <r>  -27.9141    1.0000 </r>
       <r>  -27.8648    1.0000 </r>
       <r>  -27.8103    1.0000 </r>
       <r>  -27.7740    1.0000 </r>
       <r>  -27.7236    1.0000 </r>
       <r>  -27.7077    1.0000 </r>
       <r>  -27.5959    1.0000 </r>
       <r>  -27.4510    1.0000 </r>
       <r>  -27.1783    1.0000 </r>
       <r>  -27.0858    1.0000 </r>
       <r>  -26.8552    1.0000 </r>
[...]
       <r>    12.8031     0.0000   864.0000 </r>
       <r>    12.9775     0.9986   864.1742 </r>
       <r>    13.1519    10.4651   865.9996 </r>
       <r>    13.3264     0.1774   866.0305 </r>
       <r>    13.5008    10.9530   867.9410 </r>
       <r>    13.6752     0.3381   868.0000 </r>
       <r>    13.8496     1.4303   868.2495 </r>
       <r>    14.0241    13.8053   870.6575 </r>
       <r>    14.1985     8.0323   872.0586 </r>
       <r>    14.3729    16.4874   874.9344 </r>
       <r>    14.5473    31.7221   880.4676 </r>
       <r>    14.7218    23.2202   884.5179 </r>
       <r>    14.8962    28.7429   889.5314 </r>
       <r>    15.0706    30.3092   894.8181 </r>
       <r>    15.2451    37.2513   901.3158 </r>
       <r>    15.4195    40.9784   908.4635 </r>
       <r>    15.5939    33.0796   914.2335 </r>
       <r>    15.7683    38.5923   920.9651 </r>
       <r>    15.9428    45.6136   928.9213 </r>
       <r>    16.1172    51.8318   937.9622 </r>
       <r>    16.2916    48.3707   946.3994 </r>
       <r>    16.4660    52.9666   955.6382 </r>
       <r>    16.6405    52.2014   964.7435 </r>
       <r>    16.8149    49.4536   973.3696 </r>
       <r>    16.9893    51.8278   982.4098 </r>
       <r>    17.1638    55.8758   992.1560 </r>
       <r>    17.3382    53.0107  1001.4025 </r>
       <r>    17.5126    55.8755  1011.1488 </r>
       <r>    17.6870    55.9444  1020.9070 </r>
       <r>    17.8615    58.7974  1031.1629 </r>
       <r>    18.0359    43.1937  1038.6970 </r>
       <r>    18.2103     7.4686  1039.9998 </r>
       <r>    18.3847     0.0014  1040.0000 </r>
       <r>    18.5592     0.0000  1040.0000 </r>
       <r>    18.7336     0.0000  1040.0000 </r>
       <r>    18.9080     0.0000  1040.0000 </r>
       <r>    19.0825     0.0000  1040.0000 </r>
       <r>    19.2569     0.0000  1040.0000 </r>
       <r>    19.4313     0.0000  1040.0000 </r>
       <r>    19.6057     0.0000  1040.0000 </r>
       <r>    19.7802     0.0000  1040.0000 </r>
       <r>    19.9546     0.0000  1040.0000 </r>
       <r>    20.1290     0.0000  1040.0000 </r>
       <r>    20.3034     0.0000  1040.0000 </r>
       <r>    20.4779     0.0000  1040.0000 </r>
      </set>
     </set>
    </array>
   </total>
  </dos>
 </calculation>
 <structure name="finalpos" >
  <crystal>
   <varray name="basis" >
    <v>       9.94194835       0.00000000       0.00000000 </v>
    <v>       0.00000000       9.94194835       0.00000000 </v>
    <v>       0.00000000       0.00000000       9.94194835 </v>
   </varray>
   <i name="volume">    982.68540919 </i>
   <varray name="rec_basis" >
    <v>       0.10058391       0.00000000       0.00000000 </v>
    <v>       0.00000000       0.10058391       0.00000000 </v>
    <v>       0.00000000       0.00000000       0.10058391 </v>
   </varray>
  </crystal>
  <varray name="positions" >
   <v>       0.28641516       0.39992839       0.57039871 </v>
   <v>       0.36693416       0.55371406       0.38560100 </v>
   <v>       0.70766323       0.47354126       0.50553760 </v>
   <v>       0.00247371       0.37037573       0.63318550 </v>
   <v>       0.56866960       0.26219520       0.63561717 </v>
   <v>       0.39172006       0.30716621       0.11078211 </v>
   <v>       0.48034579       0.75399611       0.19343819 </v>
   <v>       0.07054110       0.34232828       0.98776766 </v>
   <v>       0.94631166       0.13846690       0.25819479 </v>
   <v>       0.29555838       0.11370832       0.29846711 </v>
   <v>       0.22431759       0.83206895       0.04580509 </v>
   <v>       0.79773727       0.87619183       0.47216726 </v>
   <v>       0.36916156       0.78192602       0.60097009 </v>
   <v>       0.93903745       0.90354446       0.99114263 </v>
   <v>       0.07595128       0.92073923       0.54129947 </v>
   <v>       0.66822998       0.26854596       0.17869493 </v>
   <v>       0.50874021       0.97917129       0.38573028 </v>
   <v>       0.10843204       0.61158904       0.28420239 </v>
   <v>       0.82977244       0.47585558       0.09780770 </v>
   <v>       0.50990003       0.51526498       0.89151931 </v>
   <v>       0.08710143       0.11682296       0.78850719 </v>
   <v>       0.37264689       0.01723423       0.83900849 </v>
   <v>       0.22264722       0.61558227       0.79633062 </v>
   <v>       0.80665280       0.15339524       0.72992692 </v>
   <v>       0.66850676       0.69725793       0.67989064 </v>
   <v>       0.88086864       0.68507962       0.27290418 </v>
   <v>       0.63376092       0.93859263       0.97056793 </v>
   <v>       0.28837443       0.83166772       0.34125714 </v>
   <v>       0.28508715       0.35792457       0.85910392 </v>
   <v>       0.13036005       0.62282229       0.55162429 </v>
   <v>       0.14147815       0.36504167       0.27810613 </v>
   <v>       0.90040561       0.62647976       0.55456865 </v>
   <v>       0.75201117       0.16606892       0.46020127 </v>
   <v>       0.83354248       0.15178150       0.99542577 </v>
   <v>       0.04429085       0.16496909       0.48757467 </v>
   <v>       0.78717432       0.41535296       0.77621168 </v>
   <v>       0.59826874       0.72539449       0.43678866 </v>
   <v>       0.14170712       0.84435939       0.78506559 </v>
   <v>       0.75038566       0.93447565       0.21858434 </v>
   <v>       0.59595731       0.51549916       0.24129168 </v>
   <v>       0.85662554       0.83155752       0.77354978 </v>
   <v>       0.57491028       0.23762312       0.88779061 </v>
   <v>       0.31050382       0.09657318       0.59457196 </v>
   <v>       0.45011440       0.77253350       0.89255638 </v>
   <v>       0.02327749       0.62076169       0.94727590 </v>
   <v>       0.87858627       0.36584121       0.31221872 </v>
   <v>       0.13867178       0.10918110       0.02927072 </v>
   <v>       0.28536104       0.56927727       0.08083773 </v>
   <v>       0.73454519       0.69443080       0.01314936 </v>
   <v>       0.45615987       0.03879963       0.13280208 </v>
   <v>       0.60743170       0.96120852       0.66497931 </v>
   <v>       0.06617830       0.91789190       0.26208549 </v>
   <v>       0.48397932       0.29456758       0.38892982 </v>
   <v>       0.46478866       0.55017284       0.66676953 </v>
   <v>       0.72819269       0.47839465       0.30080756 </v>
   <v>       0.00236812       0.67656519       0.45424563 </v>
   <v>       0.13346973       0.96812010       0.91129420 </v>
   <v>       0.32302988       0.32388769       0.34890528 </v>
   <v>       0.75820106       0.92508376       0.69434051 </v>
   <v>       0.50284132       0.15624171       0.25786786 </v>
   <v>       0.78878229       0.28363090       0.56195401 </v>
   <v>       0.69660370       0.81154737       0.32214012 </v>
   <v>       0.59964843       0.93671335       0.15833728 </v>
   <v>       0.99388968       0.93869492       0.76684661 </v>
   <v>       0.10786086       0.58558576       0.06488358 </v>
   <v>       0.00744818       0.18254250       0.62952601 </v>
   <v>       0.75623394       0.66585484       0.45521076 </v>
   <v>       0.13725626       0.80888279       0.34655017 </v>
   <v>       0.06993874       0.01467323       0.14322246 </v>
   <v>       0.29073757       0.60573115       0.61242696 </v>
   <v>       0.54917155       0.84845434       0.78195951 </v>
   <v>       0.22713815       0.23006443       0.93585467 </v>
   <v>       0.28101430       0.06451767       0.08128875 </v>
   <v>       0.44794337       0.52694954       0.14221246 </v>
   <v>       0.90657236       0.48511888       0.41951326 </v>
   <v>       0.18464565       0.21469934       0.51224268 </v>
   <v>       0.67518637       0.64145087       0.14767485 </v>
   <v>       0.23871408       0.45940963       0.20002249 </v>
   <v>       0.69923286       0.06218872       0.35069253 </v>
   <v>       0.30528680       0.66022965       0.23325234 </v>
   <v>       0.44268566       0.00059245       0.64353353 </v>
   <v>       0.28524001       0.44423042       0.99311262 </v>
   <v>       0.08141043       0.49711697       0.86718444 </v>
   <v>       0.47878100       0.40965373       0.28807127 </v>
   <v>       0.51535139       0.65287252       0.56253533 </v>
   <v>       0.80567677       0.02700464       0.86174598 </v>
   <v>       0.89273144       0.64980510       0.03707828 </v>
   <v>       0.21416789       0.96667798       0.66882532 </v>
   <v>       0.08069715       0.76480700       0.91976563 </v>
   <v>       0.90884710       0.88755239       0.28466392 </v>
   <v>       0.12870203       0.23928268       0.15939141 </v>
   <v>       0.43417563       0.20850199       0.50690202 </v>
   <v>       0.61504324       0.50221694       0.67017992 </v>
   <v>       0.03515443       0.57234516       0.65412745 </v>
   <v>       0.31436084       0.20320207       0.72065963 </v>
   <v>       0.97790840       0.15912862       0.96366652 </v>
   <v>       0.72441752       0.53654410       0.91037968 </v>
   <v>       0.38111322       0.43666409       0.73365369 </v>
   <v>       0.34352637       0.93219121       0.24132445 </v>
   <v>       0.80194181       0.23794388       0.32124660 </v>
   <v>       0.42828115       0.27886513       0.88173900 </v>
   <v>       0.63658214       0.34256279       0.81132854 </v>
   <v>       0.54092262       0.11407841       0.01391689 </v>
   <v>       0.02360753       0.30155388       0.41089880 </v>
   <v>       0.79654469       0.82635623       0.10278853 </v>
   <v>       0.15486571       0.51352148       0.43088454 </v>
   <v>       0.29970497       0.98224000       0.44941590 </v>
   <v>       0.64199823       0.28766679       0.43429298 </v>
   <v>       0.56196988       0.57826616       0.37037949 </v>
   <v>       0.75353362       0.80071533       0.87742868 </v>
   <v>       0.82231899       0.51576207       0.66925059 </v>
   <v>       0.69529823       0.23364133       0.98924418 </v>
   <v>       0.78504253       0.05826146       0.11717056 </v>
   <v>       0.43845559       0.86500300       0.00930538 </v>
   <v>       0.13387809       0.76163734       0.64599455 </v>
   <v>       0.34855593       0.66496499       0.99304260 </v>
   <v>       0.10584988       0.07001759       0.37985741 </v>
   <v>       0.69599364       0.05821780       0.57075531 </v>
   <v>       0.49230991       0.40990539       0.51709421 </v>
   <v>       0.92488618       0.67048396       0.83082446 </v>
   <v>       0.60898518       0.42169965       0.06790227 </v>
   <v>       0.87295633       0.76833387       0.61575696 </v>
   <v>       0.25173670       0.70503596       0.45643980 </v>
   <v>       0.99869156       0.42396663       0.22554396 </v>
   <v>       0.61212128       0.86074046       0.52866150 </v>
   <v>       0.45782320       0.65298657       0.77290414 </v>
   <v>       0.44419756       0.77343288       0.38749080 </v>
   <v>       0.89162588       0.31447716       0.83184068 </v>
   <v>       0.16016350       0.34234958       0.73215015 </v>
   <v>       0.29983758       0.81790652       0.79195274 </v>
   <v>       0.07050527       0.79119942       0.16245306 </v>
   <v>       0.57519360       0.10835453       0.78693553 </v>
   <v>       0.56163609       0.69043439       0.96399662 </v>
   <v>       0.88393777       0.30409897       0.09599105 </v>
   <v>       0.90972034       0.05703821       0.48028305 </v>
  </varray>
  <varray name="velocities" >
   <v>       0.00000000       0.00000000       0.00000000 </v>
   <v>       0.00000000       0.00000000       0.00000000 </v>
   <v>       0.00000000       0.00000000       0.00000000 </v>
   <v>       0.00000000       0.00000000       0.00000000 </v>
   <v>       0.00000000       0.00000000       0.00000000 </v>
   <v>       0.00000000       0.00000000       0.00000000 </v>
   <v>       0.00000000       0.00000000       0.00000000 </v>
   <v>       0.00000000       0.00000000       0.00000000 </v>
   <v>       0.00000000       0.00000000       0.00000000 </v>
   <v>       0.00000000       0.00000000       0.00000000 </v>
   <v>       0.00000000       0.00000000       0.00000000 </v>
   <v>       0.00000000       0.00000000       0.00000000 </v>
   <v>       0.00000000       0.00000000       0.00000000 </v>
   <v>       0.00000000       0.00000000       0.00000000 </v>
   <v>       0.00000000       0.00000000       0.00000000 </v>
   <v>       0.00000000       0.00000000       0.00000000 </v>
   <v>       0.00000000       0.00000000       0.00000000 </v>
   <v>       0.00000000       0.00000000       0.00000000 </v>
   <v>       0.00000000       0.00000000       0.00000000 </v>
   <v>       0.00000000       0.00000000       0.00000000 </v>
   <v>       0.00000000       0.00000000       0.00000000 </v>
   <v>       0.00000000       0.00000000       0.00000000 </v>
   <v>       0.00000000       0.00000000       0.00000000 </v>
   <v>       0.00000000       0.00000000       0.00000000 </v>
   <v>       0.00000000       0.00000000       0.00000000 </v>
   <v>       0.00000000       0.00000000       0.00000000 </v>
   <v>       0.00000000       0.00000000       0.00000000 </v>
   <v>       0.00000000       0.00000000       0.00000000 </v>
   <v>       0.00000000       0.00000000       0.00000000 </v>
   <v>       0.00000000       0.00000000       0.00000000 </v>
   <v>       0.00000000       0.00000000       0.00000000 </v>
   <v>       0.00000000       0.00000000       0.00000000 </v>
   <v>       0.00000000       0.00000000       0.00000000 </v>
   <v>       0.00000000       0.00000000       0.00000000 </v>
   <v>       0.00000000       0.00000000       0.00000000 </v>
   <v>       0.00000000       0.00000000       0.00000000 </v>
   <v>       0.00000000       0.00000000       0.00000000 </v>
   <v>       0.00000000       0.00000000       0.00000000 </v>
   <v>       0.00000000       0.00000000       0.00000000 </v>
   <v>       0.00000000       0.00000000       0.00000000 </v>
   <v>       0.00000000       0.00000000       0.00000000 </v>
   <v>       0.00000000       0.00000000       0.00000000 </v>
   <v>       0.00000000       0.00000000       0.00000000 </v>
   <v>       0.00000000       0.00000000       0.00000000 </v>
   <v>       0.00000000       0.00000000       0.00000000 </v>
   <v>       0.00000000       0.00000000       0.00000000 </v>
   <v>       0.00000000       0.00000000       0.00000000 </v>
   <v>       0.00000000       0.00000000       0.00000000 </v>
   <v>       0.00000000       0.00000000       0.00000000 </v>
   <v>       0.00000000       0.00000000       0.00000000 </v>
   <v>       0.00000000       0.00000000       0.00000000 </v>
   <v>       0.00000000       0.00000000       0.00000000 </v>
   <v>       0.00000000       0.00000000       0.00000000 </v>
   <v>       0.00000000       0.00000000       0.00000000 </v>
   <v>       0.00000000       0.00000000       0.00000000 </v>
   <v>       0.00000000       0.00000000       0.00000000 </v>
   <v>       0.00000000       0.00000000       0.00000000 </v>
   <v>       0.00000000       0.00000000       0.00000000 </v>
   <v>       0.00000000       0.00000000       0.00000000 </v>
   <v>       0.00000000       0.00000000       0.00000000 </v>
   <v>       0.00000000       0.00000000       0.00000000 </v>
   <v>       0.00000000       0.00000000       0.00000000 </v>
   <v>       0.00000000       0.00000000       0.00000000 </v>
   <v>       0.00000000       0.00000000       0.00000000 </v>
   <v>       0.00000000       0.00000000       0.00000000 </v>
   <v>       0.00000000       0.00000000       0.00000000 </v>
   <v>       0.00000000       0.00000000       0.00000000 </v>
   <v>       0.00000000       0.00000000       0.00000000 </v>
   <v>       0.00000000       0.00000000       0.00000000 </v>
   <v>       0.00000000       0.00000000       0.00000000 </v>
   <v>       0.00000000       0.00000000       0.00000000 </v>
   <v>       0.00000000       0.00000000       0.00000000 </v>
   <v>       0.00000000       0.00000000       0.00000000 </v>
   <v>       0.00000000       0.00000000       0.00000000 </v>
   <v>       0.00000000       0.00000000       0.00000000 </v>
   <v>       0.00000000       0.00000000       0.00000000 </v>
   <v>       0.00000000       0.00000000       0.00000000 </v>
   <v>       0.00000000       0.00000000       0.00000000 </v>
   <v>       0.00000000       0.00000000       0.00000000 </v>
   <v>       0.00000000       0.00000000       0.00000000 </v>
   <v>       0.00000000       0.00000000       0.00000000 </v>
   <v>       0.00000000       0.00000000       0.00000000 </v>
   <v>       0.00000000       0.00000000       0.00000000 </v>
   <v>       0.00000000       0.00000000       0.00000000 </v>
   <v>       0.00000000       0.00000000       0.00000000 </v>
   <v>       0.00000000       0.00000000       0.00000000 </v>
   <v>       0.00000000       0.00000000       0.00000000 </v>
   <v>       0.00000000       0.00000000       0.00000000 </v>
   <v>       0.00000000       0.00000000       0.00000000 </v>
   <v>       0.00000000       0.00000000       0.00000000 </v>
   <v>       0.00000000       0.00000000       0.00000000 </v>
   <v>       0.00000000       0.00000000       0.00000000 </v>
   <v>       0.00000000       0.00000000       0.00000000 </v>
   <v>       0.00000000       0.00000000       0.00000000 </v>
   <v>       0.00000000       0.00000000       0.00000000 </v>
   <v>       0.00000000       0.00000000       0.00000000 </v>
   <v>       0.00000000       0.00000000       0.00000000 </v>
   <v>       0.00000000       0.00000000       0.00000000 </v>
   <v>       0.00000000       0.00000000       0.00000000 </v>
   <v>       0.00000000       0.00000000       0.00000000 </v>
   <v>       0.00000000       0.00000000       0.00000000 </v>
   <v>       0.00000000       0.00000000       0.00000000 </v>
   <v>       0.00000000       0.00000000       0.00000000 </v>
   <v>       0.00000000       0.00000000       0.00000000 </v>
   <v>       0.00000000       0.00000000       0.00000000 </v>
   <v>       0.00000000       0.00000000       0.00000000 </v>
   <v>       0.00000000       0.00000000       0.00000000 </v>
   <v>       0.00000000       0.00000000       0.00000000 </v>
   <v>       0.00000000       0.00000000       0.00000000 </v>
   <v>       0.00000000       0.00000000       0.00000000 </v>
   <v>       0.00000000       0.00000000       0.00000000 </v>
   <v>       0.00000000       0.00000000       0.00000000 </v>
   <v>       0.00000000       0.00000000       0.00000000 </v>
   <v>       0.00000000       0.00000000       0.00000000 </v>
   <v>       0.00000000       0.00000000       0.00000000 </v>
   <v>       0.00000000       0.00000000       0.00000000 </v>
   <v>       0.00000000       0.00000000       0.00000000 </v>
   <v>       0.00000000       0.00000000       0.00000000 </v>
   <v>       0.00000000       0.00000000       0.00000000 </v>
   <v>       0.00000000       0.00000000       0.00000000 </v>
   <v>       0.00000000       0.00000000       0.00000000 </v>
   <v>       0.00000000       0.00000000       0.00000000 </v>
   <v>       0.00000000       0.00000000       0.00000000 </v>
   <v>       0.00000000       0.00000000       0.00000000 </v>
   <v>       0.00000000       0.00000000       0.00000000 </v>
   <v>       0.00000000       0.00000000       0.00000000 </v>
   <v>       0.00000000       0.00000000       0.00000000 </v>
   <v>       0.00000000       0.00000000       0.00000000 </v>
   <v>       0.00000000       0.00000000       0.00000000 </v>
   <v>       0.00000000       0.00000000       0.00000000 </v>
   <v>       0.00000000       0.00000000       0.00000000 </v>
   <v>       0.00000000       0.00000000       0.00000000 </v>
   <v>       0.00000000       0.00000000       0.00000000 </v>
   <v>       0.00000000       0.00000000       0.00000000 </v>
   <v>       0.00000000       0.00000000       0.00000000 </v>
  </varray>
 </structure>
</modeling>
