 running on   52 total cores
 distrk:  each k-point on   52 cores,    1 groups
 distr:  one band on   13 cores,    4 groups
 using from now: INCAR     
 vasp.5.4.4.18Apr17-6-g9f103f2a35 (build Oct 31 2019 15:01:46) complex          
  
 POSCAR found type information on POSCAR  Ca Si O 
 POSCAR found :  3 types and     135 ions
 scaLAPACK is switched off
 LDA part: xc-table for Pade appr. of Perdew
 generate k-points for:    2    2    2
 POSCAR, INCAR and KPOINTS ok, starting setup
 FFT: planning ...
 WAVECAR not read
 entering main loop
       N       E                     dE             d eps       ncg     rms          rms(c)
DAV:   1     0.905160255285E+04    0.90516E+04   -0.45146E+05  8320   0.170E+03
DAV:   2     0.452902567180E+02   -0.90063E+04   -0.87390E+04 10400   0.435E+02
DAV:   3    -0.100507006824E+04   -0.10504E+04   -0.10428E+04 10304   0.149E+02
DAV:   4    -0.105248124468E+04   -0.47411E+02   -0.47231E+02 11072   0.316E+01
DAV:   5    -0.105886282207E+04   -0.63816E+01   -0.63786E+01 15256   0.672E+00    0.843E+01
DAV:   6    -0.884792358159E+03    0.17407E+03   -0.90473E+02 10128   0.431E+01    0.397E+01
DAV:   7    -0.885085409938E+03   -0.29305E+00   -0.95602E+01  9872   0.152E+01    0.207E+01
DAV:   8    -0.880276833653E+03    0.48086E+01   -0.21628E+01 12152   0.789E+00    0.143E+01
DAV:   9    -0.880881291396E+03   -0.60446E+00   -0.11158E+01 10896   0.552E+00    0.104E+01
DAV:  10    -0.879624784184E+03    0.12565E+01   -0.80654E+00 11232   0.309E+00    0.667E+00
DAV:  11    -0.879149274211E+03    0.47551E+00   -0.24732E+00 10952   0.229E+00    0.907E+00
DAV:  12    -0.879149743904E+03   -0.46969E-03   -0.12329E+00 11960   0.142E+00    0.109E+01
DAV:  13    -0.878988943261E+03    0.16080E+00   -0.10077E+00 11288   0.134E+00    0.469E+00
DAV:  14    -0.878981092755E+03    0.78505E-02   -0.81086E-01 10752   0.833E-01    0.315E+00
DAV:  15    -0.878908441786E+03    0.72651E-01   -0.40407E-01 10984   0.669E-01    0.237E+00
DAV:  16    -0.878882218125E+03    0.26224E-01   -0.72300E-02 10376   0.471E-01    0.299E+00
DAV:  17    -0.878926966596E+03   -0.44748E-01   -0.13160E-01 11912   0.556E-01    0.264E+00
DAV:  18    -0.878884251233E+03    0.42715E-01   -0.11824E-01  9888   0.488E-01    0.415E+00
DAV:  19    -0.878870696292E+03    0.13555E-01   -0.27412E-01 10840   0.301E-01    0.215E+00
DAV:  20    -0.878882034678E+03   -0.11338E-01   -0.18130E-01 10816   0.277E-01    0.249E+00
DAV:  21    -0.878871391803E+03    0.10643E-01   -0.62905E-02 10104   0.225E-01    0.160E+00
DAV:  22    -0.878872049334E+03   -0.65753E-03   -0.12216E-02  9384   0.150E-01    0.709E-01
DAV:  23    -0.878871434370E+03    0.61496E-03   -0.10949E-02 10736   0.108E-01    0.460E-01
DAV:  24    -0.878871685137E+03   -0.25077E-03   -0.29970E-03  9808   0.761E-02    0.277E-01
DAV:  25    -0.878871746914E+03   -0.61777E-04   -0.12955E-03 10552   0.378E-02    0.185E-01
DAV:  26    -0.878871832819E+03   -0.85906E-04   -0.57051E-04  9896   0.278E-02    0.899E-02
DAV:  27    -0.878871861177E+03   -0.28358E-04   -0.13396E-04  9568   0.193E-02    0.100E-01
DAV:  28    -0.878871846368E+03    0.14809E-04   -0.15832E-04  9968   0.129E-02    0.571E-02
DAV:  29    -0.878871841777E+03    0.45911E-05   -0.91710E-05  9424   0.778E-03    0.246E-02
DAV:  30    -0.878871845223E+03   -0.34457E-05   -0.11353E-05  7792   0.452E-03    0.196E-02
DAV:  31    -0.878871845030E+03    0.19329E-06   -0.46226E-06  6624   0.270E-03
   1 F= -.87887185E+03 E0= -.87884449E+03  d E =-.547196E-01
