 vasp.5.4.4.18Apr17-6-g9f103f2a35 (build Oct 31 2019 15:01:46) complex          
  
 executed on             LinuxIFC date 2024.04.28  19:54:10
 running on   52 total cores
 distrk:  each k-point on   52 cores,    1 groups
 distr:  one band on NCORES_PER_BAND=  13 cores,    4 groups


--------------------------------------------------------------------------------------------------------


 INCAR:
 POTCAR:    PAW_PBE Ca_sv 06Sep2000               
 POTCAR:    PAW_PBE Si 05Jan2001                  
 POTCAR:    PAW_PBE O 08Apr2002                   
 POTCAR:    PAW_PBE Ca_sv 06Sep2000               
   SHA256 =  a47365830e737f14e0e6c5cf1ed81b94e081eecf0a33df105380881bc9da05d5 Ca
   COPYR  = (c) Copyright 06Sep2000 Georg Kresse                                
   COPYR  = This file is part of the software VASP. Any use, copying, and all ot
   COPYR  = If you do not have a valid VASP license, you may not use, copy or di
   VRHFIN =Ca: 3s3p4s                                                           
   LEXCH  = PE                                                                  
   EATOM  =  1006.0909 eV,   73.9456 Ry                                         
                                                                                
   TITEL  = PAW_PBE Ca_sv 06Sep2000                                             
   LULTRA =        F    use ultrasoft PP ?                                      
   IUNSCR =        1    unscreen: 0-lin 1-nonlin 2-no                           
   RPACOR =    2.000    partial core radius                                     
   POMASS =   40.078; ZVAL   =   10.000    mass and valenz                      
   RCORE  =    2.300    outmost cutoff radius                                   
   RWIGS  =    2.500; RWIGS  =    1.323    wigner-seitz radius (au A)           
   ENMAX  =  266.622; ENMIN  =  199.967 eV                                      
   RCLOC  =    1.808    cutoff for local pot                                    
   LCOR   =        T    correct aug charges                                     
   LPAW   =        T    paw PP                                                  
   EAUG   =  420.852                                                            
   RMAX   =    2.359    core radius for proj-oper                               
   RAUG   =    1.300    factor for augmentation sphere                          
   RDEP   =    2.392    radius for radial grids                                 
   RDEPT  =    1.987    core radius for aug-charge                              
                                                                                
   Atomic configuration                                                         
    7 entries                                                                   
     n  l   j            E        occ.                                          
     1  0  0.50     -3949.1705   2.0000                                         
     2  0  0.50      -414.3434   2.0000                                         
     2  1  1.50      -334.7047   6.0000                                         
     3  0  0.50       -47.0896   2.0000                                         
     4  0  0.50        -3.7663   2.0000                                         
     3  1  1.50       -28.0061   6.0000                                         
     3  2  1.50        -4.0817   0.0000                                         
   Description                                                                  
     l       E           TYP  RCUT    TYP  RCUT                                 
     0    -47.0896403     23  2.300                                             
     0     -3.7663320     23  2.300                                             
     1    -28.0060855     23  2.300                                             
     1      6.8029130     23  2.300                                             
     2     -4.0817478     23  2.300                                             
     2      0.4464412     23  2.300                                             
  local pseudopotential read in
  partial core-charges read in
  partial kinetic energy density read in
  atomic valenz-charges read in
  non local Contribution for L=           0  read in
    real space projection operators read in
  non local Contribution for L=           0  read in
    real space projection operators read in
  non local Contribution for L=           1  read in
    real space projection operators read in
  non local Contribution for L=           1  read in
    real space projection operators read in
  non local Contribution for L=           2  read in
    real space projection operators read in
  non local Contribution for L=           2  read in
    real space projection operators read in
    PAW grid and wavefunctions read in
 
   number of l-projection  operators is LMAX  =           6
   number of lm-projection operators is LMMAX =          18
 
 POTCAR:    PAW_PBE Si 05Jan2001                  
   SHA256 =  79d9987ad8750f624c4d6acb2a16d13abf6a777132adc04dc6c8399be72b42bb Si
   COPYR  = (c) Copyright 05Jan2001 Georg Kresse                                
   COPYR  = This file is part of the software VASP. Any use, copying, and all ot
   COPYR  = If you do not have a valid VASP license, you may not use, copy or di
   VRHFIN =Si: s2p2                                                             
   LEXCH  = PE                                                                  
   EATOM  =   103.0669 eV,    7.5752 Ry                                         
                                                                                
   TITEL  = PAW_PBE Si 05Jan2001                                                
   LULTRA =        F    use ultrasoft PP ?                                      
   IUNSCR =        1    unscreen: 0-lin 1-nonlin 2-no                           
   RPACOR =    1.500    partial core radius                                     
   POMASS =   28.085; ZVAL   =    4.000    mass and valenz                      
   RCORE  =    1.900    outmost cutoff radius                                   
   RWIGS  =    2.480; RWIGS  =    1.312    wigner-seitz radius (au A)           
   ENMAX  =  245.345; ENMIN  =  184.009 eV                                      
   ICORE  =        2    local potential                                         
   LCOR   =        T    correct aug charges                                     
   LPAW   =        T    paw PP                                                  
   EAUG   =  322.069                                                            
   DEXC   =    0.000                                                            
   RMAX   =    1.950    core radius for proj-oper                               
   RAUG   =    1.300    factor for augmentation sphere                          
   RDEP   =    1.993    radius for radial grids                                 
   RDEPT  =    1.837    core radius for aug-charge                              
                                                                                
   Atomic configuration                                                         
    6 entries                                                                   
     n  l   j            E        occ.                                          
     1  0  0.50     -1785.8828   2.0000                                         
     2  0  0.50      -139.4969   2.0000                                         
     2  1  1.50       -95.5546   6.0000                                         
     3  0  0.50       -10.8127   2.0000                                         
     3  1  0.50        -4.0811   2.0000                                         
     3  2  1.50        -4.0817   0.0000                                         
   Description                                                                  
     l       E           TYP  RCUT    TYP  RCUT                                 
     0    -10.8127223     23  1.900                                             
     0     -7.6451159     23  1.900                                             
     1     -4.0811372     23  1.900                                             
     1      2.4879257     23  1.900                                             
     2     -4.0817478      7  1.900                                             
  local pseudopotential read in
  partial core-charges read in
  partial kinetic energy density read in
  atomic valenz-charges read in
  non local Contribution for L=           0  read in
    real space projection operators read in
  non local Contribution for L=           0  read in
    real space projection operators read in
  non local Contribution for L=           1  read in
    real space projection operators read in
  non local Contribution for L=           1  read in
    real space projection operators read in
    PAW grid and wavefunctions read in
 
   number of l-projection  operators is LMAX  =           4
   number of lm-projection operators is LMMAX =           8
 
 POTCAR:    PAW_PBE O 08Apr2002                   
   SHA256 =  818f92134a0a090dccd8ba1447fa70422a3b330e708bb4f08108d8ae51209ddf O/
   COPYR  = (c) Copyright 08Apr2002 Georg Kresse                                
   COPYR  = This file is part of the software VASP. Any use, copying, and all ot
   COPYR  = If you do not have a valid VASP license, you may not use, copy or di
   VRHFIN =O: s2p4                                                              
   LEXCH  = PE                                                                  
   EATOM  =   432.3788 eV,   31.7789 Ry                                         
                                                                                
   TITEL  = PAW_PBE O 08Apr2002                                                 
   LULTRA =        F    use ultrasoft PP ?                                      
   IUNSCR =        1    unscreen: 0-lin 1-nonlin 2-no                           
   RPACOR =    1.200    partial core radius                                     
   POMASS =   16.000; ZVAL   =    6.000    mass and valenz                      
   RCORE  =    1.520    outmost cutoff radius                                   
   RWIGS  =    1.550; RWIGS  =    0.820    wigner-seitz radius (au A)           
   ENMAX  =  400.000; ENMIN  =  300.000 eV                                      
   ICORE  =        2    local potential                                         
   LCOR   =        T    correct aug charges                                     
   LPAW   =        T    paw PP                                                  
   EAUG   =  605.392                                                            
   DEXC   =    0.000                                                            
   RMAX   =    1.553    core radius for proj-oper                               
   RAUG   =    1.300    factor for augmentation sphere                          
   RDEP   =    1.550    radius for radial grids                                 
   RDEPT  =    1.329    core radius for aug-charge                              
                                                                                
   Atomic configuration                                                         
    4 entries                                                                   
     n  l   j            E        occ.                                          
     1  0  0.50      -514.6923   2.0000                                         
     2  0  0.50       -23.9615   2.0000                                         
     2  1  0.50        -9.0305   4.0000                                         
     3  2  1.50        -9.5241   0.0000                                         
   Description                                                                  
     l       E           TYP  RCUT    TYP  RCUT                                 
     0    -23.9615318     23  1.200                                             
     0     -9.5240782     23  1.200                                             
     1     -9.0304911     23  1.520                                             
     1      8.1634956     23  1.520                                             
     2     -9.5240782      7  1.500                                             
  local pseudopotential read in
  partial core-charges read in
  partial kinetic energy density read in
  kinetic energy density of atom read in
  atomic valenz-charges read in
  non local Contribution for L=           0  read in
    real space projection operators read in
  non local Contribution for L=           0  read in
    real space projection operators read in
  non local Contribution for L=           1  read in
    real space projection operators read in
  non local Contribution for L=           1  read in
    real space projection operators read in
    PAW grid and wavefunctions read in
 
   number of l-projection  operators is LMAX  =           4
   number of lm-projection operators is LMMAX =           8
 
 Optimization of the real space projectors (new method)

 maximal supplied QI-value         = 16.25
 optimisation between [QCUT,QGAM] = [ 12.51, 25.03] = [ 43.85,175.40] Ry 
 Optimized for a Real-space Cutoff    1.47 Angstroem

   l    n(q)    QCUT    max X(q) W(low)/X(q) W(high)/X(q)  e(spline) 
   0     11    12.514    11.817    0.25E-04    0.32E-05    0.87E-07
   0     11    12.514     8.461    0.39E-04    0.59E-05    0.18E-06
   1     11    12.514     3.957    0.97E-05    0.57E-05    0.28E-07
   1     11    12.514     4.314    0.42E-04    0.14E-04    0.23E-06
   2     10    12.514    14.565    0.79E-04    0.50E-03    0.16E-05
   2     10    12.514    14.552    0.75E-04    0.48E-03    0.15E-05
 Optimization of the real space projectors (new method)

 maximal supplied QI-value         = 19.84
 optimisation between [QCUT,QGAM] = [ 12.50, 25.00] = [ 43.76,175.03] Ry 
 Optimized for a Real-space Cutoff    1.16 Angstroem

   l    n(q)    QCUT    max X(q) W(low)/X(q) W(high)/X(q)  e(spline) 
   0      9    12.501   159.560    0.10E-03    0.83E-04    0.71E-07
   0      9    12.501   115.863    0.99E-04    0.81E-04    0.70E-07
   1      8    12.501    88.339    0.20E-03    0.25E-03    0.76E-07
   1      8    12.501    48.592    0.20E-03    0.24E-03    0.75E-07
 Optimization of the real space projectors (new method)

 maximal supplied QI-value         = 24.76
 optimisation between [QCUT,QGAM] = [ 12.38, 25.00] = [ 42.90,175.06] Ry 
 Optimized for a Real-space Cutoff    1.16 Angstroem

   l    n(q)    QCUT    max X(q) W(low)/X(q) W(high)/X(q)  e(spline) 
   0      9    12.378    20.381    0.16E-03    0.67E-05    0.31E-06
   0      9    12.378    15.268    0.17E-03    0.81E-05    0.33E-06
   1      8    12.378     5.964    0.20E-03    0.16E-03    0.30E-06
   1      8    12.378     5.382    0.18E-03    0.14E-03    0.26E-06
  PAW_PBE Ca_sv 06Sep2000               :
 energy of atom  1       EATOM=-1006.0909
 kinetic energy error for atom=    0.0012 (will be added to EATOM!!)
  PAW_PBE Si 05Jan2001                  :
 energy of atom  2       EATOM= -103.0669
 kinetic energy error for atom=    0.0003 (will be added to EATOM!!)
  PAW_PBE O 08Apr2002                   :
 energy of atom  3       EATOM= -432.3788
 kinetic energy error for atom=    0.0168 (will be added to EATOM!!)
 
 
 POSCAR: Ca Si  O                                
  positions in direct lattice
  No initial velocities read in
 exchange correlation table for  LEXCH =        8
   RHO(1)=    0.500       N(1)  =     2000
   RHO(2)=  100.500       N(2)  =     4000
 


--------------------------------------------------------------------------------------------------------


 ion  position               nearest neighbor table
   1  0.338  0.591  0.869-  71 2.05 135 2.07 134 2.22  29 3.04
   2  0.127  0.309  0.341-  60 2.06  95 2.18  17 2.74
   3  0.921  0.694  0.857- 104 2.15 111 2.23  56 2.43 131 2.47  48 2.59  41 2.86
   4  0.058  0.468  0.164-  95 2.15  68 2.43
   5  0.254  0.408  0.609- 100 2.06 124 2.40 127 2.53
   6  0.671  0.176  0.537-  93 2.06 117 2.37  51 2.89
   7  0.804  0.938  0.476-  69 2.27  84 2.35 117 2.40  92 2.43
   8  0.997  0.376  0.802-  81 2.09 108 2.55  41 2.83
   9  0.561  0.665  0.326-  62 1.99
  10  0.197  0.771  0.881- 134 1.97 131 2.25  50 3.10
  11  0.150  0.946  0.289- 110 2.11  91 2.24
  12  0.640  0.566  0.104-  62 2.31 116 2.54 123 2.57
  13  0.095  0.045  0.081-  82 2.29  70 2.33 114 2.35 105 2.39  80 2.45  32 3.16
  14  0.253  0.156  0.825- 121 2.02 124 2.51
  15  0.342  0.145  0.553-  73 2.40  86 2.42  61 2.47  47 3.11
  16  0.654  0.724  0.662- 133 2.30  98 2.45 122 2.50  48 2.76
  17  0.307  0.385  0.335-  60 1.97 112 2.36  95 2.54   2 2.74
  18  0.775  0.212  0.846- 109 2.12 125 2.18
  19  0.332  0.833  0.513- 115 2.50 128 2.56  31 2.91
  20  0.013  0.737  0.577- 113 1.99  77 2.25
  21  0.138  0.636  0.350- 126 1.92
  22  0.652  0.425  0.776-  78 2.16 109 2.33 107 2.40  33 2.54  40 2.87
  23  0.905  0.934  0.981- 114 2.01 111 2.31  80 2.44
  24  0.705  0.819  0.113-  72 2.07  62 2.45
  25  0.406  0.905  0.243-  74 2.04  94 2.28  28 3.07
  26  0.797  0.435  0.468-  79 2.32  88 2.36  54 3.13
  27  0.652  0.071  0.303- 101 2.07  66 2.10  84 2.41  53 2.87
  28  0.543  0.905  0.414-  94 1.51 128 1.55  84 1.65  25 3.07
  29  0.383  0.681  0.061- 135 1.64  59 1.91 123 2.42   1 3.04
  30  0.559  0.395  0.328- 112 1.67  88 1.72 116 1.75
  31  0.268  0.645  0.571- 115 1.70  99 1.81 126 1.92 100 2.06  19 2.91  50 2.97  37 3.11
  32  0.033  0.124  0.879- 121 1.70 125 1.71 114 1.87  82 1.98  34 2.91  13 3.16
  33  0.545  0.384  0.635-  57 1.66  78 1.69 107 1.69  22 2.54  37 2.61  40 3.03
  34  0.007  0.266  0.028-  68 1.53 105 1.78  82 2.18  32 2.91
  35  0.850  0.692  0.410-  69 1.51  79 1.67 113 1.76 103 1.76  52 2.91
  36  0.540  0.732  0.881-  71 1.53  98 1.71 123 1.79  65 1.79
  37  0.466  0.548  0.594- 133 1.58  57 1.65 127 1.82 115 2.12  33 2.61  31 3.11
  38  0.451  0.162  0.159-  66 1.61  87 1.63 130 1.88
  39  0.761  0.288  0.132- 129 1.57 102 1.60  64 1.66  96 1.88  43 2.23
  40  0.535  0.261  0.813- 107 1.59 109 1.74  55 1.79  97 2.01  22 2.87  33 3.03
  41  0.875  0.500  0.904- 120 1.68  56 1.73  89 1.75  81 1.79   8 2.83   3 2.86
  42  0.143  0.017  0.531-  61 1.48  63 1.62 110 1.67  86 2.12
  43  0.824  0.433  0.142-  83 1.52  64 1.59  89 1.79 129 1.87  39 2.23
  44  0.076  0.730  0.086- 119 1.76  67 1.79 131 1.91  52 3.10
  45  0.309  0.958  0.030- 118 1.71  85 1.72  70 1.78 130 2.17
  46  0.097  0.222  0.666-  58 1.63  86 1.78 124 1.80 121 2.17  54 3.14
  47  0.513  0.065  0.669- 132 1.59  90 1.66  97 1.70  73 2.10  15 3.11  49 3.11
  48  0.765  0.782  0.814- 104 1.54 122 1.59 111 1.62  98 2.16   3 2.59  16 2.76  49 2.92
  49  0.641  0.950  0.810-  90 1.48  75 1.64 122 1.83  65 1.84  48 2.92  47 3.11
  50  0.147  0.607  0.741- 134 1.55 108 1.64  77 1.73  99 2.05  31 2.97  10 3.10
  51  0.867  0.158  0.474- 117 1.57  92 1.76  76 1.81  93 2.46  54 2.47   6 2.89
  52  0.917  0.778  0.233- 103 1.59  72 1.69  91 1.87  67 1.92  35 2.91  44 3.10
  53  0.814  0.060  0.179- 101 1.45  96 1.67  80 1.83  27 2.87
  54  0.892  0.281  0.598- 106 1.52  93 1.64  76 1.70  58 1.95  51 2.47  26 3.13  46 3.14
  55  0.429  0.203  0.853-  40 1.79
  56  0.983  0.552  0.935-  41 1.73   3 2.43
  57  0.518  0.455  0.545-  37 1.65  33 1.66
  58  0.982  0.210  0.677-  46 1.63  54 1.95
  59  0.432  0.674  0.188-  29 1.91
  60  0.248  0.293  0.423-  17 1.97   2 2.06
  61  0.246  0.004  0.509-  42 1.48  15 2.47
  62  0.644  0.690  0.213-   9 1.99  12 2.31  24 2.45
  63  0.082  0.929  0.574-  42 1.62
  64  0.872  0.331  0.135-  43 1.59  39 1.66
  65  0.573  0.856  0.872-  36 1.79  49 1.84
  66  0.542  0.121  0.214-  38 1.61  27 2.10
  67  0.963  0.695  0.134-  44 1.79  52 1.92
  68  0.045  0.369  0.023-  34 1.53   4 2.43
  69  0.796  0.784  0.427-  35 1.51   7 2.27
  70  0.215  0.935  0.112-  45 1.78  13 2.33
  71  0.446  0.687  0.850-  36 1.53   1 2.05
  72  0.842  0.843  0.165-  52 1.69  24 2.07
  73  0.366  0.040  0.686-  47 2.10  15 2.40
  74  0.326  0.820  0.330-  25 2.04
  75  0.740  0.982  0.861-  49 1.64
  76  0.930  0.271  0.484-  54 1.70  51 1.81
  77  0.050  0.681  0.722-  50 1.73  20 2.25
  78  0.665  0.398  0.625-  33 1.69  22 2.16
  79  0.782  0.597  0.433-  35 1.67  26 2.32
  80  0.929  0.021  0.130-  53 1.83  23 2.44  13 2.45
  81  0.863  0.378  0.868-  41 1.79   8 2.09
  82  0.121  0.171  0.979-  32 1.98  34 2.18  13 2.29
  83  0.878  0.495  0.214-  43 1.52
  84  0.657  0.925  0.394-  28 1.65   7 2.35  27 2.41
  85  0.398  0.873  0.026-  45 1.72
  86  0.174  0.151  0.594-  46 1.78  42 2.12  15 2.42
  87  0.441  0.260  0.097-  38 1.63
  88  0.675  0.379  0.365-  30 1.72  26 2.36
  89  0.847  0.472  0.023-  41 1.75  43 1.79
  90  0.569  0.995  0.746-  49 1.48  47 1.66
  91  0.026  0.851  0.255-  52 1.87  11 2.24
  92  0.878  0.069  0.562-  51 1.76   7 2.43
  93  0.785  0.237  0.609-  54 1.64   6 2.06  51 2.46
  94  0.473  0.976  0.373-  28 1.51  25 2.28
  95  0.146  0.455  0.289-   4 2.15   2 2.18  17 2.54
  96  0.777  0.172  0.198-  53 1.67  39 1.88
  97  0.540  0.180  0.694-  47 1.70  40 2.01
  98  0.644  0.690  0.833-  36 1.71  48 2.16  16 2.45
  99  0.222  0.711  0.672-  31 1.81  50 2.05
 100  0.287  0.512  0.511-  31 2.06   5 2.06
 101  0.737  0.998  0.208-  53 1.45  27 2.07
 102  0.727  0.258  0.027-  39 1.60
 103  0.871  0.689  0.286-  52 1.59  35 1.76
 104  0.816  0.711  0.747-  48 1.54   3 2.15
 105  0.013  0.188  0.127-  34 1.78  13 2.39
 106  0.917  0.380  0.636-  54 1.52
 107  0.505  0.344  0.742-  40 1.59  33 1.69  22 2.40
 108  0.124  0.492  0.743-  50 1.64   8 2.55
 109  0.644  0.286  0.867-  40 1.74  18 2.12  22 2.33
 110  0.109  0.014  0.417-  42 1.67  11 2.11
 111  0.824  0.809  0.909-  48 1.62   3 2.23  23 2.31
 112  0.464  0.369  0.395-  30 1.67  17 2.36
 113  0.969  0.699  0.447-  35 1.76  20 1.99
 114  0.021  0.004  0.936-  32 1.87  23 2.01  13 2.35
 115  0.384  0.665  0.544-  31 1.70  37 2.12  19 2.50
 116  0.556  0.488  0.244-  30 1.75  12 2.54
 117  0.780  0.102  0.432-  51 1.57   6 2.37   7 2.40
 118  0.278  0.992  0.918-  45 1.71
 119  0.170  0.664  0.136-  44 1.76
 120  0.816  0.524  0.802-  41 1.68
 121  0.116  0.130  0.790-  32 1.70  14 2.02  46 2.17
 122  0.720  0.865  0.750-  48 1.59  49 1.83  16 2.50
 123  0.544  0.680  0.998-  36 1.79  29 2.42  12 2.57
 124  0.196  0.287  0.716-  46 1.80   5 2.40  14 2.51
 125  0.925  0.180  0.872-  32 1.71  18 2.18
 126  0.165  0.659  0.482-  21 1.92  31 1.92
 127  0.371  0.526  0.680-  37 1.82   5 2.53
 128  0.506  0.812  0.462-  28 1.55  19 2.56
 129  0.703  0.380  0.158-  39 1.57  43 1.87
 130  0.375  0.055  0.131-  38 1.88  45 2.17
 131  0.055  0.756  0.954-  44 1.91  10 2.25   3 2.47
 132  0.511  0.043  0.558-  47 1.59
 133  0.548  0.599  0.652-  37 1.58  16 2.30
 134  0.189  0.638  0.838-  50 1.55  10 1.97   1 2.22
 135  0.291  0.659  0.992-  29 1.64   1 2.07
 

IMPORTANT INFORMATION: All symmetrisations will be switched off!
NOSYMM: (Re-)initialisation of all symmetry stuff for point group C_1.

 
 

Automatic generation of k-mesh.
 generate k-points for:    2    2    2
Space group operators:
 irot       det(A)        alpha          n_x          n_y          n_z        tau_x        tau_y        tau_z
    1     1.000000     0.000000     1.000000     0.000000     0.000000     0.000000     0.000000     0.000000
 
 Subroutine IBZKPT returns following result:
 ===========================================
 
 Found      8 irreducible k-points:
 
 Following reciprocal coordinates:
            Coordinates               Weight
  0.000000  0.000000  0.000000      1.000000
  0.500000  0.000000  0.000000      1.000000
  0.000000  0.500000  0.000000      1.000000
  0.500000  0.500000  0.000000      1.000000
  0.000000  0.000000  0.500000      1.000000
  0.500000  0.000000  0.500000      1.000000
  0.000000  0.500000  0.500000      1.000000
  0.500000  0.500000  0.500000      1.000000
 
 Following cartesian coordinates:
            Coordinates               Weight
  0.000000  0.000000  0.000000      1.000000
  0.035682  0.000000  0.000000      1.000000
  0.000000  0.035682  0.000000      1.000000
  0.035682  0.035682  0.000000      1.000000
  0.000000  0.000000  0.035682      1.000000
  0.035682  0.000000  0.035682      1.000000
  0.000000  0.035682  0.035682      1.000000
  0.035682  0.035682  0.035682      1.000000
 


--------------------------------------------------------------------------------------------------------




 Dimension of arrays:
   k-points           NKPTS =      8   k-points in BZ     NKDIM =      8   number of bands    NBANDS=    520
   number of dos      NEDOS =    301   number of ions     NIONS =    135
   non local maximal  LDIM  =      6   non local SUM 2l+1 LMDIM =     18
   total plane-waves  NPLWV = ******
   max r-space proj   IRMAX =   6854   max aug-charges    IRDMAX= 195070
   dimension x,y,z NGX =   112 NGY =  112 NGZ =  112
   dimension x,y,z NGXF=   224 NGYF=  224 NGZF=  224
   support grid    NGXF=   448 NGYF=  448 NGZF=  448
   ions per type =              27  27  81
   NGX,Y,Z   is equivalent  to a cutoff of  13.29, 13.29, 13.29 a.u.
   NGXF,Y,Z  is equivalent  to a cutoff of  26.58, 26.58, 26.58 a.u.

 SYSTEM =  unknown system                          
 POSCAR =  Ca Si  O                                

 Startparameter for this run:
   NWRITE =      2    write-flag & timer
   PREC   = a         normal or accurate (medium, high low for compatibility)
   ISTART =      0    job   : 0-new  1-cont  2-samecut
   ICHARG =      2    charge: 1-file 2-atom 10-const
   ISPIN  =      1    spin polarized calculation?
   LNONCOLLINEAR =      F non collinear calculations
   LSORBIT =      F    spin-orbit coupling
   INIWAV =      1    electr: 0-lowe 1-rand  2-diag
   LASPH  =      F    aspherical Exc in radial PAW
   METAGGA=      F    non-selfconsistent MetaGGA calc.

 Electronic Relaxation 1
   ENCUT  =  600.0 eV  44.10 Ry    6.64 a.u.  27.99 27.99 27.99*2*pi/ulx,y,z
   ENINI  =  600.0     initial cutoff
   ENAUG  =  605.4 eV  augmentation charge cutoff
   NELM   =     60;   NELMIN=  2; NELMDL= -5     # of ELM steps 
   EDIFF  = 0.1E-05   stopping-criterion for ELM
   LREAL  =      T    real-space projection
   NLSPLINE    = F    spline interpolate recip. space projectors
   LCOMPAT=      F    compatible to vasp.4.4
   GGA_COMPAT  = T    GGA compatible to vasp.4.4-vasp.4.6
   LMAXPAW     = -100 max onsite density
   LMAXMIX     =    2 max onsite mixed and CHGCAR
   VOSKOWN=      0    Vosko Wilk Nusair interpolation
   ROPT   =   -0.00025  -0.00025  -0.00025
 Ionic relaxation
   EDIFFG = -.1E-01   stopping-criterion for IOM
   NSW    =      1    number of steps for IOM
   NBLOCK =      1;   KBLOCK =      1    inner block; outer block 
   IBRION =     -1    ionic relax: 0-MD 1-quasi-New 2-CG
   NFREE  =      0    steps in history (QN), initial steepest desc. (CG)
   ISIF   =      2    stress and relaxation
   IWAVPR =     10    prediction:  0-non 1-charg 2-wave 3-comb
   ISYM   =      0    0-nonsym 1-usesym 2-fastsym
   LCORR  =      T    Harris-Foulkes like correction to forces

   POTIM  = 1.0000    time-step for ionic-motion
   TEIN   =    0.0    initial temperature
   TEBEG  =    0.0;   TEEND  =   0.0 temperature during run
   SMASS  =  -3.00    Nose mass-parameter (am)
   estimated Nose-frequenzy (Omega)   =  0.10E-29 period in steps =****** mass=  -0.449E-26a.u.
   SCALEE = 1.0000    scale energy and forces
   NPACO  =    256;   APACO  = 16.0  distance and # of slots for P.C.
   PSTRESS=    0.0 pullay stress

  Mass of Ions in am
   POMASS =  40.08 28.09 16.00
  Ionic Valenz
   ZVAL   =  10.00  4.00  6.00
  Atomic Wigner-Seitz radii
   RWIGS  =  -1.00 -1.00 -1.00
  virtual crystal weights 
   VCA    =   1.00  1.00  1.00
   NELECT =     864.0000    total number of electrons
   NUPDOWN=      -1.0000    fix difference up-down

 DOS related values:
   EMIN   =  10.00;   EMAX   =-10.00  energy-range for DOS
   EFERMI =   0.00
   ISMEAR =     0;   SIGMA  =   0.05  broadening in eV -4-tet -1-fermi 0-gaus

 Electronic relaxation 2 (details)
   IALGO  =     38    algorithm
   LDIAG  =      T    sub-space diagonalisation (order eigenvalues)
   LSUBROT=      F    optimize rotation matrix (better conditioning)
   TURBO    =      0    0=normal 1=particle mesh
   IRESTART =      0    0=no restart 2=restart with 2 vectors
   NREBOOT  =      0    no. of reboots
   NMIN     =      0    reboot dimension
   EREF     =   0.00    reference energy to select bands
   IMIX   =      4    mixing-type and parameters
     AMIX     =   0.40;   BMIX     =  1.00
     AMIX_MAG =   1.60;   BMIX_MAG =  1.00
     AMIN     =   0.10
     WC   =   100.;   INIMIX=   1;  MIXPRE=   1;  MAXMIX= -45

 Intra band minimization:
   WEIMIN = 0.0000     energy-eigenvalue tresh-hold
   EBREAK =  0.48E-09  absolut break condition
   DEPER  =   0.30     relativ break condition  

   TIME   =   0.40     timestep for ELM

  volume/ion in A,a.u.               =      20.38       137.54
  Fermi-wavevector in a.u.,A,eV,Ry     =   1.112727  2.102749 16.846204  1.238161
  Thomas-Fermi vector in A             =   2.249304
 
 Write flags
   LWAVE        =      F    write WAVECAR
   LDOWNSAMPLE  =      F    k-point downsampling of WAVECAR
   LCHARG       =      F    write CHGCAR
   LVTOT        =      F    write LOCPOT, total local potential
   LVHAR        =      F    write LOCPOT, Hartree potential only
   LELF         =      F    write electronic localiz. function (ELF)
   LORBIT       =      0    0 simple, 1 ext, 2 COOP (PROOUT), +10 PAW based schemes


 Dipole corrections
   LMONO  =      F    monopole corrections only (constant potential shift)
   LDIPOL =      F    correct potential (dipole corrections)
   IDIPOL =      0    1-x, 2-y, 3-z, 4-all directions 
   EPSILON=  1.0000000 bulk dielectric constant

 Exchange correlation treatment:
   GGA     =    --    GGA type
   LEXCH   =     8    internal setting for exchange type
   VOSKOWN=      0    Vosko Wilk Nusair interpolation
   LHFCALC =     F    Hartree Fock is set to
   LHFONE  =     F    Hartree Fock one center treatment
   AEXX    =    0.0000 exact exchange contribution

 Linear response parameters
   LEPSILON=     F    determine dielectric tensor
   LRPA    =     F    only Hartree local field effects (RPA)
   LNABLA  =     F    use nabla operator in PAW spheres
   LVEL    =     F    velocity operator in full k-point grid
   LINTERFAST=   F  fast interpolation
   KINTER  =     0    interpolate to denser k-point grid
   CSHIFT  =0.1000    complex shift for real part using Kramers Kronig
   OMEGAMAX=  -1.0    maximum frequency
   DEG_THRESHOLD= 0.2000000E-02 threshold for treating states as degnerate
   RTIME   =   -0.100 relaxation time in fs
  (WPLASMAI=    0.000 imaginary part of plasma frequency in eV, 0.658/RTIME)
   DFIELD  = 0.0000000 0.0000000 0.0000000 field for delta impulse in time
 
 Orbital magnetization related:
   ORBITALMAG=     F  switch on orbital magnetization
   LCHIMAG   =     F  perturbation theory with respect to B field
   DQ        =  0.001000  dq finite difference perturbation B field
   LLRAUG    =     F  two centre corrections for induced B field



--------------------------------------------------------------------------------------------------------


 Static calculation
 charge density and potential will be updated during run
 non-spin polarized calculation
 Variant of blocked Davidson
 Davidson routine will perform the subspace rotation
 perform sub-space diagonalisation
    after iterative eigenvector-optimisation
 modified Broyden-mixing scheme, WC =      100.0
 initial mixing is a Kerker type mixing with AMIX =  0.4000 and BMIX =      1.0000
 Hartree-type preconditioning will be used
 using additional bands           88
 real space projection scheme for non local part
 use partial core corrections
 calculate Harris-corrections to forces 
   (improved forces if not selfconsistent)
 use gradient corrections 
 use of overlap-Matrix (Vanderbilt PP)
 Gauss-broadening in eV      SIGMA  =   0.05


--------------------------------------------------------------------------------------------------------


  energy-cutoff  :      600.00
  volume of cell :     2751.52
      direct lattice vectors                 reciprocal lattice vectors
    14.012776000  0.000000000  0.000000000     0.071363447  0.000000000  0.000000000
     0.000000000 14.012776000  0.000000000     0.000000000  0.071363447  0.000000000
     0.000000000  0.000000000 14.012776000     0.000000000  0.000000000  0.071363447

  length of vectors
    14.012776000 14.012776000 14.012776000     0.071363447  0.071363447  0.071363447


 
 k-points in units of 2pi/SCALE and weight: read from INCAR                         
   0.00000000  0.00000000  0.00000000       0.125
   0.03568172  0.00000000  0.00000000       0.125
   0.00000000  0.03568172  0.00000000       0.125
   0.03568172  0.03568172  0.00000000       0.125
   0.00000000  0.00000000  0.03568172       0.125
   0.03568172  0.00000000  0.03568172       0.125
   0.00000000  0.03568172  0.03568172       0.125
   0.03568172  0.03568172  0.03568172       0.125
 
 k-points in reciprocal lattice and weights: read from INCAR                         
   0.00000000  0.00000000  0.00000000       0.125
   0.50000000  0.00000000  0.00000000       0.125
   0.00000000  0.50000000  0.00000000       0.125
   0.50000000  0.50000000  0.00000000       0.125
   0.00000000  0.00000000  0.50000000       0.125
   0.50000000  0.00000000  0.50000000       0.125
   0.00000000  0.50000000  0.50000000       0.125
   0.50000000  0.50000000  0.50000000       0.125
 
 position of ions in fractional coordinates (direct lattice) 
   0.33783774  0.59057695  0.86903496
   0.12728068  0.30916379  0.34061135
   0.92111286  0.69362702  0.85712122
   0.05811909  0.46809929  0.16369434
   0.25371225  0.40771059  0.60910886
   0.67121945  0.17569527  0.53736098
   0.80352830  0.93831702  0.47609320
   0.99657245  0.37625719  0.80163438
   0.56097154  0.66496058  0.32551894
   0.19733774  0.77124232  0.88052095
   0.15047212  0.94592908  0.28862938
   0.64019329  0.56601195  0.10372334
   0.09450102  0.04523282  0.08061847
   0.25281182  0.15643362  0.82490976
   0.34170172  0.14538320  0.55293276
   0.65358956  0.72411739  0.66217751
   0.30737230  0.38512922  0.33456913
   0.77468440  0.21241984  0.84620438
   0.33234546  0.83305053  0.51307192
   0.01260225  0.73663142  0.57669347
   0.13849864  0.63624324  0.34957143
   0.65202601  0.42500699  0.77576153
   0.90463351  0.93355761  0.98088916
   0.70522828  0.81939853  0.11329777
   0.40599998  0.90502322  0.24305448
   0.79685805  0.43508238  0.46766649
   0.65212553  0.07105880  0.30338041
   0.54274032  0.90525015  0.41441692
   0.38296562  0.68050388  0.06108840
   0.55907404  0.39485568  0.32770576
   0.26779828  0.64481628  0.57136838
   0.03302069  0.12391816  0.87866676
   0.54538899  0.38396033  0.63529842
   0.00749982  0.26640916  0.02759897
   0.84952019  0.69199063  0.40950045
   0.53990962  0.73241000  0.88141097
   0.46587624  0.54768980  0.59425671
   0.45061942  0.16207738  0.15877506
   0.76090590  0.28763538  0.13219364
   0.53545242  0.26063550  0.81270195
   0.87464524  0.50022646  0.90440901
   0.14346963  0.01706665  0.53103617
   0.82407349  0.43332385  0.14241618
   0.07607762  0.73037882  0.08618125
   0.30940902  0.95803826  0.03045292
   0.09719740  0.22170586  0.66619327
   0.51282030  0.06482450  0.66889984
   0.76502552  0.78228440  0.81407057
   0.64072516  0.94966291  0.80953920
   0.14651150  0.60667332  0.74123308
   0.86707276  0.15849575  0.47434647
   0.91728182  0.77759138  0.23313469
   0.81409389  0.05994740  0.17891277
   0.89213221  0.28132468  0.59847121
   0.42850111  0.20325006  0.85295752
   0.98265685  0.55165008  0.93509703
   0.51798432  0.45460297  0.54466465
   0.98223620  0.21044060  0.67720894
   0.43207678  0.67398453  0.18783895
   0.24780801  0.29313388  0.42276982
   0.24601490  0.00425600  0.50918764
   0.64393214  0.68954272  0.21298549
   0.08229494  0.92892753  0.57394861
   0.87158463  0.33050847  0.13490140
   0.57348609  0.85557116  0.87174835
   0.54240289  0.12103826  0.21385706
   0.96293692  0.69467816  0.13434567
   0.04498381  0.36858351  0.02255872
   0.79598680  0.78384806  0.42688561
   0.21483021  0.93454687  0.11183080
   0.44583121  0.68712014  0.85020900
   0.84152396  0.84283049  0.16530860
   0.36615998  0.03973880  0.68565873
   0.32613226  0.82008301  0.32980011
   0.74042687  0.98176210  0.86109044
   0.92957009  0.27091627  0.48364698
   0.04969385  0.68131491  0.72242848
   0.66463611  0.39840316  0.62467867
   0.78196802  0.59662495  0.43310850
   0.92885621  0.02090926  0.12986054
   0.86292572  0.37840208  0.86819717
   0.12059795  0.17058967  0.97930338
   0.87794000  0.49467365  0.21420747
   0.65733812  0.92506529  0.39438413
   0.39847347  0.87334521  0.02615784
   0.17403825  0.15114561  0.59350841
   0.44072388  0.26007783  0.09699046
   0.67505724  0.37949889  0.36511812
   0.84712637  0.47243041  0.02305503
   0.56924076  0.99462638  0.74571606
   0.02642495  0.85094802  0.25491454
   0.87806043  0.06889311  0.56191264
   0.78455578  0.23657211  0.60852994
   0.47294547  0.97625810  0.37309864
   0.14612107  0.45485968  0.28901578
   0.77657537  0.17156166  0.19793133
   0.54048121  0.18018529  0.69374932
   0.64350500  0.68985039  0.83301643
   0.22192344  0.71140215  0.67170125
   0.28705150  0.51239731  0.51134904
   0.73689208  0.99777062  0.20764443
   0.72734779  0.25790057  0.02684831
   0.87052730  0.68854247  0.28560897
   0.81582767  0.71114321  0.74705550
   0.01349989  0.18770693  0.12740056
   0.91748407  0.37992486  0.63579538
   0.50476571  0.34376240  0.74162983
   0.12386050  0.49209361  0.74254975
   0.64439438  0.28635503  0.86676542
   0.10938557  0.01351501  0.41655539
   0.82446244  0.80897057  0.90929651
   0.46370781  0.36914444  0.39464643
   0.96933302  0.69937904  0.44680115
   0.02071085  0.00432612  0.93603072
   0.38421174  0.66505116  0.54385029
   0.55631603  0.48820264  0.24441783
   0.78033534  0.10188687  0.43163980
   0.27777176  0.99160150  0.91780333
   0.17043035  0.66379383  0.13614158
   0.81598072  0.52391375  0.80218282
   0.11566013  0.12981792  0.78967616
   0.71963162  0.86457436  0.74994843
   0.54364664  0.68017095  0.99761975
   0.19617913  0.28652762  0.71570537
   0.92455508  0.18009578  0.87191691
   0.16534231  0.65921794  0.48162384
   0.37079529  0.52600587  0.67959487
   0.50602003  0.81222905  0.46154815
   0.70256535  0.38003555  0.15759162
   0.37510404  0.05505549  0.13134280
   0.05495583  0.75612183  0.95373746
   0.51111764  0.04326830  0.55753060
   0.54798766  0.59906610  0.65249572
   0.18941419  0.63750273  0.83819283
   0.29120165  0.65880105  0.99183613
 
 position of ions in cartesian coordinates  (Angst):
   4.73404458  8.27562246 12.17759218
   1.78355572  4.33224287  4.77291062
  12.90734817  9.71964003 12.01064768
   0.81440974  6.55937043  2.29381207
   3.55521295  5.71315713  8.53530600
   9.40564784  2.46197847  7.52991911
  11.25966213 13.14842622  6.67138741
  13.96474652  5.27240771 11.23312300
   7.86076848  9.31794361  4.56142393
   2.76524950 10.80724590 12.33854280
   2.10853214 13.25509225  4.04449884
   8.97088518  7.93139867  1.45345195
   1.32422162  0.63383734  1.12968850
   3.54259544  2.19206930 11.55927564
   4.78818972  2.03722224  7.74812285
   9.15860405 10.14689479  9.27894517
   4.30713918  5.39672950  4.68824229
  10.85547891  2.97659162 11.85767242
   4.65708244 11.67335041  7.18956190
   0.17659253 10.32225112  8.08107639
   1.94075043  8.91553395  4.89846621
   9.13669446  5.95552768 10.87057257
  12.67642669 13.08173363 13.74498007
   9.88220591 11.48204808  1.58761626
   5.68918684 12.68188764  3.40586796
  11.16619335  6.09671200  6.55330577
   9.13808901  0.99573099  4.25120176
   7.60529848 12.68506758  5.80713145
   5.36641144  9.53574841  0.85601804
   7.83417934  5.53302417  4.59206747
   3.75259728  9.03566608  8.00645714
   0.46271150  1.73643741 12.31256051
   7.64241377  5.38035003  8.90229451
   0.10509324  3.73313191  0.38673818
  11.90413617  9.69670972  5.73823812
   7.56563255 10.26309723 12.35101452
   6.52821943  7.67465445  8.32718613
   6.31442893  2.27115406  2.22487931
  10.66240397  4.03057011  1.85239984
   7.50317488  3.65222685 11.38821043
  12.25620789  7.00956128 12.67328093
   2.01040785  0.23915108  7.44129084
  11.54755719  6.07207004  1.99564599
   1.06605859 10.23463480  1.20763859
   4.33567934 13.42477551  0.42672994
   1.36200543  3.10671461  9.33521704
   7.18603606  0.90837115  9.37314367
  10.72013121 10.96197610 11.40738859
   8.97833809 13.30741362 11.34389147
   2.05303290  8.50117731 10.38673318
  12.15009634  2.22096547  6.64691077
  12.85366463 10.89621389  3.26686421
  11.40771533  0.84002953  2.50706459
  12.50124886  3.94213975  8.38624303
   6.00449007  2.84809762 11.95230264
  13.76975028  7.73014907 13.10330518
   7.25839831  6.37024960  7.63226376
  13.76385588  2.94885696  9.48957712
   6.05459513  9.44439427  2.63214511
   3.47247810  4.10761937  5.92417882
   3.44735163  0.05963843  7.13513238
   9.02327685  9.66240769  2.98451796
   1.15318053 13.01685343  8.04261332
  12.21332014  4.63134121  1.89034317
   8.03613206 11.98892701 12.21561438
   7.60057020  1.69608201  2.99673113
  13.49341934  9.73436946  1.88255575
   0.63034805  5.16487823  0.31611034
  11.15398471 10.98388727  5.98185237
   3.01036758 13.09559598  1.56706000
   6.24733288  9.62846060 11.91378832
  11.79208671 11.81039485  2.31643241
   5.13091779  0.55685087  9.60798220
   4.57001829 11.49163951  4.62141508
  10.37543585 13.75721237 12.06626740
  13.02585747  3.79628895  6.77723686
   0.69634872  9.54711318 10.12322853
   9.31339689  5.58273429  8.75348228
  10.95754275  8.36037174  6.06905241
  13.01585405  0.29299672  1.81970660
  12.09198482  5.30246357 12.16585248
   1.68991209  2.39043482 13.72275895
  12.30237657  6.93175111  3.00164128
   9.21113181 12.96273270  5.52641650
   5.58371945 12.23799076  0.36654391
   2.43875905  2.11796954  8.31670037
   6.17576502  3.64441237  1.35910560
   9.45942595  5.31783299  5.11631839
  11.87059208  6.62006157  0.32306492
   7.97664329 13.93747664 10.44955215
   0.37028691 11.92414406  3.57206041
  12.30406412  0.96538370  7.87395601
  10.99380435  3.31503197  8.52719379
   6.62727897 13.68008611  5.22814767
   2.04756187  6.37384677  4.04991343
  10.88197671  2.40405512  2.77356736
   7.57364214  2.52489616  9.72135385
   9.01729141  9.66671896 11.67287258
   3.10976344  9.96871896  9.41239920
   4.02238843  7.18010872  7.16541952
  10.32590372 13.98153619  2.90967484
  10.19216171  3.61390288  0.37621930
  12.19850412  9.64839136  4.00217455
  11.43201045  9.96509052 10.46832138
   0.18917090  2.63029513  1.78523557
  12.85649874  5.32380193  8.90925824
   7.07316882  4.81706547 10.39229264
   1.73562941  6.89559748 10.40518328
   9.02975414  4.01262889 12.14578973
   1.53279554  0.18938280  5.83709739
  11.55300750 11.33592335 12.74176825
   6.49783366  5.17273840  5.53009196
  13.58304653  9.80024180  6.26092450
   0.29021654  0.06062089 13.11638883
   5.38387300  9.31921290  7.62085227
   7.79553193  6.84107426  3.42497228
  10.93466438  1.42771790  6.04847179
   3.89235351 13.89508970 12.86097249
   2.38820231  9.30159423  1.90772149
  11.43415502  7.34148606 11.24080810
   1.62071945  1.81910940 11.06555512
  10.08403666 12.11508684 10.50885943
   7.61799856  9.53108318 13.97942209
   2.74901414  4.01504732 10.02901902
  12.95558329  2.52364181 12.21797631
   2.31690478  9.23747336  6.74888699
   5.19587130  7.37080239  9.52301066
   7.09074540 11.38158372  6.46757078
   9.84489087  5.32535306  2.20829608
   5.25624886  0.77148025  1.84047725
   0.77008369 10.59536587 13.36450943
   7.16217706  0.60630900  7.81255148
   7.67882839  8.39457908  9.14327643
   2.65421859  8.93318296 11.74540842
   4.08054349  9.23163160 13.89837747
 


--------------------------------------------------------------------------------------------------------


 k-point  1 :   0.0000 0.0000 0.0000  plane waves:   91911
 k-point  2 :   0.5000 0.0000 0.0000  plane waves:   91744
 k-point  3 :   0.0000 0.5000 0.0000  plane waves:   91744
 k-point  4 :   0.5000 0.5000 0.0000  plane waves:   91656
 k-point  5 :   0.0000 0.0000 0.5000  plane waves:   91744
 k-point  6 :   0.5000 0.0000 0.5000  plane waves:   91656
 k-point  7 :   0.0000 0.5000 0.5000  plane waves:   91656
 k-point  8 :   0.5000 0.5000 0.5000  plane waves:   92096

 maximum and minimum number of plane-waves per node :      7114     6990

 maximum number of plane-waves:     92096
 maximum index in each direction: 
   IXMAX=   27   IYMAX=   27   IZMAX=   27
   IXMIN=  -28   IYMIN=  -28   IZMIN=  -28


 real space projection operators:
  total allocation   :      47000.48 KBytes
  max/ min on nodes  :       3850.95       3287.28


 parallel 3D FFT for wavefunctions:
    minimum data exchange during FFTs selected (reduces bandwidth)
 parallel 3D FFT for charge:
    minimum data exchange during FFTs selected (reduces bandwidth)


 total amount of memory used by VASP MPI-rank0   227705. kBytes
=======================================================================

   base      :      30000. kBytes
   nonlr-proj:      20300. kBytes
   fftplans  :      36399. kBytes
   grid      :      20695. kBytes
   one-center:        171. kBytes
   wavefun   :     120140. kBytes
 
     INWAV:  cpu time    0.0000: real time    0.0000
 Broyden mixing: mesh for mixing (old mesh)
   NGX = 55   NGY = 55   NGZ = 55
  (NGX  =224   NGY  =224   NGZ  =224)
  gives a total of 166375 points

 initial charge density was supplied:
 charge density of overlapping atoms calculated
 number of electron     864.0000000 magnetization 
 keeping initial charge density in first step


--------------------------------------------------------------------------------------------------------


 Maximum index for non-local projection operator          666
 Maximum index for augmentation-charges         5037 (set IRDMAX)


--------------------------------------------------------------------------------------------------------


 First call to EWALD:  gamma=   0.126
 Maximum number of real-space cells 3x 3x 3
 Maximum number of reciprocal cells 3x 3x 3

    FEWALD:  cpu time    0.0047: real time    0.0052


--------------------------------------- Iteration      1(   1)  ---------------------------------------


    POTLOK:  cpu time    0.2419: real time    0.2479
    SETDIJ:  cpu time    0.3967: real time    0.3968
     EDDAV:  cpu time   55.0418: real time   55.0476
       DOS:  cpu time    0.0027: real time    0.0027
    --------------------------------------------
      LOOP:  cpu time   55.6832: real time   55.6951

 eigenvalue-minimisations  :  8320
 total energy-change (2. order) : 0.9051603E+04  (-0.4514636E+05)
 number of electron     864.0000000 magnetization 
 augmentation part      864.0000000 magnetization 

 Free energy of the ion-electron system (eV)
  ---------------------------------------------------
  alpha Z        PSCENC =      1736.69897902
  Ewald energy   TEWEN  =    -32507.50112713
  -Hartree energ DENC   =    -27129.31375765
  -exchange      EXHF   =         0.00000000
  -V(xc)+E(xc)   XCENC  =      3103.21603644
  PAW double counting   =     50594.51003143   -49994.65612350
  entropy T*S    EENTRO =        -0.04098013
  eigenvalues    EBANDS =     -1719.85073945
  atomic energy  EATOM  =     64968.54023382
  Solvation  Ediel_sol  =         0.00000000
  ---------------------------------------------------
  free energy    TOTEN  =      9051.60255285 eV

  energy without entropy =     9051.64353299  energy(sigma->0) =     9051.62304292


--------------------------------------------------------------------------------------------------------




--------------------------------------- Iteration      1(   2)  ---------------------------------------


     EDDAV:  cpu time   65.4106: real time   65.4311
       DOS:  cpu time    0.0010: real time    0.0010
    --------------------------------------------
      LOOP:  cpu time   65.4117: real time   65.4322

 eigenvalue-minimisations  : 10400
 total energy-change (2. order) :-0.9006312E+04  (-0.8739003E+04)
 number of electron     864.0000000 magnetization 
 augmentation part      864.0000000 magnetization 

 Free energy of the ion-electron system (eV)
  ---------------------------------------------------
  alpha Z        PSCENC =      1736.69897902
  Ewald energy   TEWEN  =    -32507.50112713
  -Hartree energ DENC   =    -27129.31375765
  -exchange      EXHF   =         0.00000000
  -V(xc)+E(xc)   XCENC  =      3103.21603644
  PAW double counting   =     50594.51003143   -49994.65612350
  entropy T*S    EENTRO =        -0.00000000
  eigenvalues    EBANDS =    -10726.20401572
  atomic energy  EATOM  =     64968.54023382
  Solvation  Ediel_sol  =         0.00000000
  ---------------------------------------------------
  free energy    TOTEN  =        45.29025672 eV

  energy without entropy =       45.29025672  energy(sigma->0) =       45.29025672


--------------------------------------------------------------------------------------------------------




--------------------------------------- Iteration      1(   3)  ---------------------------------------


     EDDAV:  cpu time   64.9690: real time   64.9851
       DOS:  cpu time    0.0010: real time    0.0010
    --------------------------------------------
      LOOP:  cpu time   64.9699: real time   64.9861

 eigenvalue-minimisations  : 10304
 total energy-change (2. order) :-0.1050360E+04  (-0.1042759E+04)
 number of electron     864.0000000 magnetization 
 augmentation part      864.0000000 magnetization 

 Free energy of the ion-electron system (eV)
  ---------------------------------------------------
  alpha Z        PSCENC =      1736.69897902
  Ewald energy   TEWEN  =    -32507.50112713
  -Hartree energ DENC   =    -27129.31375765
  -exchange      EXHF   =         0.00000000
  -V(xc)+E(xc)   XCENC  =      3103.21603644
  PAW double counting   =     50594.51003143   -49994.65612350
  entropy T*S    EENTRO =        -0.00000000
  eigenvalues    EBANDS =    -11776.56434068
  atomic energy  EATOM  =     64968.54023382
  Solvation  Ediel_sol  =         0.00000000
  ---------------------------------------------------
  free energy    TOTEN  =     -1005.07006824 eV

  energy without entropy =    -1005.07006824  energy(sigma->0) =    -1005.07006824


--------------------------------------------------------------------------------------------------------




--------------------------------------- Iteration      1(   4)  ---------------------------------------


     EDDAV:  cpu time   69.1006: real time   69.1290
       DOS:  cpu time    0.0010: real time    0.0010
    --------------------------------------------
      LOOP:  cpu time   69.1016: real time   69.1300

 eigenvalue-minimisations  : 11072
 total energy-change (2. order) :-0.4741118E+02  (-0.4723104E+02)
 number of electron     864.0000000 magnetization 
 augmentation part      864.0000000 magnetization 

 Free energy of the ion-electron system (eV)
  ---------------------------------------------------
  alpha Z        PSCENC =      1736.69897902
  Ewald energy   TEWEN  =    -32507.50112713
  -Hartree energ DENC   =    -27129.31375765
  -exchange      EXHF   =         0.00000000
  -V(xc)+E(xc)   XCENC  =      3103.21603644
  PAW double counting   =     50594.51003143   -49994.65612350
  entropy T*S    EENTRO =        -0.00000000
  eigenvalues    EBANDS =    -11823.97551712
  atomic energy  EATOM  =     64968.54023382
  Solvation  Ediel_sol  =         0.00000000
  ---------------------------------------------------
  free energy    TOTEN  =     -1052.48124468 eV

  energy without entropy =    -1052.48124468  energy(sigma->0) =    -1052.48124468


--------------------------------------------------------------------------------------------------------




--------------------------------------- Iteration      1(   5)  ---------------------------------------


     EDDAV:  cpu time   90.1315: real time   90.1590
       DOS:  cpu time    0.0011: real time    0.0011
    CHARGE:  cpu time    2.7577: real time    2.7577
    MIXING:  cpu time    0.0104: real time    0.0105
    --------------------------------------------
      LOOP:  cpu time   92.9007: real time   92.9284

 eigenvalue-minimisations  : 15256
 total energy-change (2. order) :-0.6381577E+01  (-0.6378566E+01)
 number of electron     864.0000007 magnetization 
 augmentation part      133.6184277 magnetization 

 Broyden mixing:
  rms(total) = 0.84317E+01    rms(broyden)= 0.84306E+01
  rms(prec ) = 0.99180E+01
  weight for this iteration     100.00

 Free energy of the ion-electron system (eV)
  ---------------------------------------------------
  alpha Z        PSCENC =      1736.69897902
  Ewald energy   TEWEN  =    -32507.50112713
  -Hartree energ DENC   =    -27129.31375765
  -exchange      EXHF   =         0.00000000
  -V(xc)+E(xc)   XCENC  =      3103.21603644
  PAW double counting   =     50594.51003143   -49994.65612350
  entropy T*S    EENTRO =        -0.00000000
  eigenvalues    EBANDS =    -11830.35709451
  atomic energy  EATOM  =     64968.54023382
  Solvation  Ediel_sol  =         0.00000000
  ---------------------------------------------------
  free energy    TOTEN  =     -1058.86282207 eV

  energy without entropy =    -1058.86282207  energy(sigma->0) =    -1058.86282207


--------------------------------------------------------------------------------------------------------




--------------------------------------- Iteration      1(   6)  ---------------------------------------


    POTLOK:  cpu time    0.2040: real time    0.2181
    SETDIJ:  cpu time    0.3873: real time    0.3873
     EDDAV:  cpu time   64.1106: real time   64.1124
       DOS:  cpu time    0.0025: real time    0.0025
    CHARGE:  cpu time    2.7430: real time    2.7430
    MIXING:  cpu time    0.0101: real time    0.0101
    --------------------------------------------
      LOOP:  cpu time   67.4575: real time   67.4734

 eigenvalue-minimisations  : 10128
 total energy-change (2. order) : 0.1740705E+03  (-0.9047275E+02)
 number of electron     864.0000006 magnetization 
 augmentation part      116.8252695 magnetization 

 Broyden mixing:
  rms(total) = 0.39695E+01    rms(broyden)= 0.39675E+01
  rms(prec ) = 0.42933E+01
  weight for this iteration     100.00

 eigenvalues of (default mixing * dielectric matrix)
  average eigenvalue GAMMA=   0.8520
  0.8520

 Free energy of the ion-electron system (eV)
  ---------------------------------------------------
  alpha Z        PSCENC =      1736.69897902
  Ewald energy   TEWEN  =    -32507.50112713
  -Hartree energ DENC   =    -28834.85494815
  -exchange      EXHF   =         0.00000000
  -V(xc)+E(xc)   XCENC  =      3207.88537153
  PAW double counting   =     62656.00802346   -62199.07499585
  entropy T*S    EENTRO =        -0.01200959
  eigenvalues    EBANDS =     -9912.48188527
  atomic energy  EATOM  =     64968.54023382
  Solvation  Ediel_sol  =         0.00000000
  ---------------------------------------------------
  free energy    TOTEN  =      -884.79235816 eV

  energy without entropy =     -884.78034857  energy(sigma->0) =     -884.78635336


--------------------------------------------------------------------------------------------------------




--------------------------------------- Iteration      1(   7)  ---------------------------------------


    POTLOK:  cpu time    0.2364: real time    0.2539
    SETDIJ:  cpu time    0.4007: real time    0.4007
     EDDAV:  cpu time   62.8440: real time   62.8458
       DOS:  cpu time    0.0019: real time    0.0019
    CHARGE:  cpu time    2.7583: real time    2.7583
    MIXING:  cpu time    0.0089: real time    0.0089
    --------------------------------------------
      LOOP:  cpu time   66.2501: real time   66.2694

 eigenvalue-minimisations  :  9872
 total energy-change (2. order) :-0.2930518E+00  (-0.9560174E+01)
 number of electron     864.0000006 magnetization 
 augmentation part      118.3129987 magnetization 

 Broyden mixing:
  rms(total) = 0.20683E+01    rms(broyden)= 0.20680E+01
  rms(prec ) = 0.23773E+01
  weight for this iteration     100.00

 eigenvalues of (default mixing * dielectric matrix)
  average eigenvalue GAMMA=   0.9771
  0.9771  0.9771

 Free energy of the ion-electron system (eV)
  ---------------------------------------------------
  alpha Z        PSCENC =      1736.69897902
  Ewald energy   TEWEN  =    -32507.50112713
  -Hartree energ DENC   =    -28809.29220667
  -exchange      EXHF   =         0.00000000
  -V(xc)+E(xc)   XCENC  =      3201.65642676
  PAW double counting   =     70637.92294879   -70226.18204465
  entropy T*S    EENTRO =        -0.00000086
  eigenvalues    EBANDS =     -9886.92861902
  atomic energy  EATOM  =     64968.54023382
  Solvation  Ediel_sol  =         0.00000000
  ---------------------------------------------------
  free energy    TOTEN  =      -885.08540994 eV

  energy without entropy =     -885.08540908  energy(sigma->0) =     -885.08540951


--------------------------------------------------------------------------------------------------------




--------------------------------------- Iteration      1(   8)  ---------------------------------------


    POTLOK:  cpu time    0.2133: real time    0.2344
    SETDIJ:  cpu time    0.3950: real time    0.3951
     EDDAV:  cpu time   74.3486: real time   74.3522
       DOS:  cpu time    0.0022: real time    0.0022
    CHARGE:  cpu time    2.7278: real time    2.7279
    MIXING:  cpu time    0.0078: real time    0.0078
    --------------------------------------------
      LOOP:  cpu time   77.6948: real time   77.7196

 eigenvalue-minimisations  : 12152
 total energy-change (2. order) : 0.4808576E+01  (-0.2162774E+01)
 number of electron     864.0000006 magnetization 
 augmentation part      117.1044799 magnetization 

 Broyden mixing:
  rms(total) = 0.14277E+01    rms(broyden)= 0.14273E+01
  rms(prec ) = 0.17252E+01
  weight for this iteration     100.00

 eigenvalues of (default mixing * dielectric matrix)
  average eigenvalue GAMMA=   1.0216
  1.3776  1.1100  0.5773

 Free energy of the ion-electron system (eV)
  ---------------------------------------------------
  alpha Z        PSCENC =      1736.69897902
  Ewald energy   TEWEN  =    -32507.50112713
  -Hartree energ DENC   =    -28893.00380138
  -exchange      EXHF   =         0.00000000
  -V(xc)+E(xc)   XCENC  =      3203.89809073
  PAW double counting   =     74883.78949097   -74508.26282586
  entropy T*S    EENTRO =        -0.00149149
  eigenvalues    EBANDS =     -9764.43438234
  atomic energy  EATOM  =     64968.54023382
  Solvation  Ediel_sol  =         0.00000000
  ---------------------------------------------------
  free energy    TOTEN  =      -880.27683365 eV

  energy without entropy =     -880.27534216  energy(sigma->0) =     -880.27608791


--------------------------------------------------------------------------------------------------------




--------------------------------------- Iteration      1(   9)  ---------------------------------------


    POTLOK:  cpu time    0.2016: real time    0.2188
    SETDIJ:  cpu time    0.3836: real time    0.3836
     EDDAV:  cpu time   68.1867: real time   68.1875
       DOS:  cpu time    0.0027: real time    0.0027
    CHARGE:  cpu time    2.7424: real time    2.7424
    MIXING:  cpu time    0.0083: real time    0.0083
    --------------------------------------------
      LOOP:  cpu time   71.5253: real time   71.5434

 eigenvalue-minimisations  : 10896
 total energy-change (2. order) :-0.6044577E+00  (-0.1115789E+01)
 number of electron     864.0000006 magnetization 
 augmentation part      117.4242575 magnetization 

 Broyden mixing:
  rms(total) = 0.10369E+01    rms(broyden)= 0.10364E+01
  rms(prec ) = 0.12911E+01
  weight for this iteration     100.00

 eigenvalues of (default mixing * dielectric matrix)
  average eigenvalue GAMMA=   0.9822
  1.8691  0.9913  0.6103  0.4582

 Free energy of the ion-electron system (eV)
  ---------------------------------------------------
  alpha Z        PSCENC =      1736.69897902
  Ewald energy   TEWEN  =    -32507.50112713
  -Hartree energ DENC   =    -28949.82633491
  -exchange      EXHF   =         0.00000000
  -V(xc)+E(xc)   XCENC  =      3204.94049279
  PAW double counting   =     78218.54362820   -77865.21835145
  entropy T*S    EENTRO =        -0.05822753
  eigenvalues    EBANDS =     -9687.00058422
  atomic energy  EATOM  =     64968.54023382
  Solvation  Ediel_sol  =         0.00000000
  ---------------------------------------------------
  free energy    TOTEN  =      -880.88129140 eV

  energy without entropy =     -880.82306386  energy(sigma->0) =     -880.85217763


--------------------------------------------------------------------------------------------------------




--------------------------------------- Iteration      1(  10)  ---------------------------------------


    POTLOK:  cpu time    0.2263: real time    0.2442
    SETDIJ:  cpu time    0.4113: real time    0.4113
     EDDAV:  cpu time   69.8890: real time   69.8887
       DOS:  cpu time    0.0023: real time    0.0023
    CHARGE:  cpu time    2.7692: real time    2.7692
    MIXING:  cpu time    0.0090: real time    0.0090
    --------------------------------------------
      LOOP:  cpu time   73.3070: real time   73.3247

 eigenvalue-minimisations  : 11232
 total energy-change (2. order) : 0.1256507E+01  (-0.8065427E+00)
 number of electron     864.0000006 magnetization 
 augmentation part      117.4876794 magnetization 

 Broyden mixing:
  rms(total) = 0.66655E+00    rms(broyden)= 0.66638E+00
  rms(prec ) = 0.87519E+00
  weight for this iteration     100.00

 eigenvalues of (default mixing * dielectric matrix)
  average eigenvalue GAMMA=   0.9332
  2.0513  0.9342  0.6662  0.5073  0.5073

 Free energy of the ion-electron system (eV)
  ---------------------------------------------------
  alpha Z        PSCENC =      1736.69897902
  Ewald energy   TEWEN  =    -32507.50112713
  -Hartree energ DENC   =    -29008.24559694
  -exchange      EXHF   =         0.00000000
  -V(xc)+E(xc)   XCENC  =      3207.12839881
  PAW double counting   =     80483.57006851   -80143.53566522
  entropy T*S    EENTRO =        -0.00008459
  eigenvalues    EBANDS =     -9616.27999046
  atomic energy  EATOM  =     64968.54023382
  Solvation  Ediel_sol  =         0.00000000
  ---------------------------------------------------
  free energy    TOTEN  =      -879.62478418 eV

  energy without entropy =     -879.62469960  energy(sigma->0) =     -879.62474189


--------------------------------------------------------------------------------------------------------




--------------------------------------- Iteration      1(  11)  ---------------------------------------


    POTLOK:  cpu time    0.2367: real time    0.2532
    SETDIJ:  cpu time    0.4075: real time    0.4075
     EDDAV:  cpu time   68.3670: real time   68.3686
       DOS:  cpu time    0.0022: real time    0.0022
    CHARGE:  cpu time    2.7517: real time    2.7517
    MIXING:  cpu time    0.0094: real time    0.0094
    --------------------------------------------
      LOOP:  cpu time   71.7746: real time   71.7927

 eigenvalue-minimisations  : 10952
 total energy-change (2. order) : 0.4755100E+00  (-0.2473236E+00)
 number of electron     864.0000006 magnetization 
 augmentation part      116.9112002 magnetization 

 Broyden mixing:
  rms(total) = 0.90651E+00    rms(broyden)= 0.90579E+00
  rms(prec ) = 0.12257E+01
  weight for this iteration     100.00

 eigenvalues of (default mixing * dielectric matrix)
  average eigenvalue GAMMA=   0.8397
  2.1018  0.9583  0.6414  0.5774  0.5774  0.1820

 Free energy of the ion-electron system (eV)
  ---------------------------------------------------
  alpha Z        PSCENC =      1736.69897902
  Ewald energy   TEWEN  =    -32507.50112713
  -Hartree energ DENC   =    -29041.01983530
  -exchange      EXHF   =         0.00000000
  -V(xc)+E(xc)   XCENC  =      3208.51945390
  PAW double counting   =     81271.91118606   -80936.10170700
  entropy T*S    EENTRO =        -0.03489475
  eigenvalues    EBANDS =     -9580.16156284
  atomic energy  EATOM  =     64968.54023382
  Solvation  Ediel_sol  =         0.00000000
  ---------------------------------------------------
  free energy    TOTEN  =      -879.14927421 eV

  energy without entropy =     -879.11437946  energy(sigma->0) =     -879.13182684


--------------------------------------------------------------------------------------------------------




--------------------------------------- Iteration      1(  12)  ---------------------------------------


    POTLOK:  cpu time    0.2288: real time    0.2465
    SETDIJ:  cpu time    0.4021: real time    0.4021
     EDDAV:  cpu time   73.4288: real time   73.4297
       DOS:  cpu time    0.0025: real time    0.0025
    CHARGE:  cpu time    2.6998: real time    2.6998
    MIXING:  cpu time    0.0107: real time    0.0107
    --------------------------------------------
      LOOP:  cpu time   76.7726: real time   76.7913

 eigenvalue-minimisations  : 11960
 total energy-change (2. order) :-0.4696931E-03  (-0.1232918E+00)
 number of electron     864.0000006 magnetization 
 augmentation part      117.0231856 magnetization 

 Broyden mixing:
  rms(total) = 0.10919E+01    rms(broyden)= 0.10911E+01
  rms(prec ) = 0.14534E+01
  weight for this iteration     100.00

 eigenvalues of (default mixing * dielectric matrix)
  average eigenvalue GAMMA=   0.8153
  2.2554  0.9763  0.7891  0.7891  0.5617  0.1678  0.1678

 Free energy of the ion-electron system (eV)
  ---------------------------------------------------
  alpha Z        PSCENC =      1736.69897902
  Ewald energy   TEWEN  =    -32507.50112713
  -Hartree energ DENC   =    -29045.76150323
  -exchange      EXHF   =         0.00000000
  -V(xc)+E(xc)   XCENC  =      3208.71675762
  PAW double counting   =     81403.53410822   -81068.19079729
  entropy T*S    EENTRO =        -0.02753780
  eigenvalues    EBANDS =     -9575.15885714
  atomic energy  EATOM  =     64968.54023382
  Solvation  Ediel_sol  =         0.00000000
  ---------------------------------------------------
  free energy    TOTEN  =      -879.14974390 eV

  energy without entropy =     -879.12220610  energy(sigma->0) =     -879.13597500


--------------------------------------------------------------------------------------------------------




--------------------------------------- Iteration      1(  13)  ---------------------------------------


    POTLOK:  cpu time    0.2340: real time    0.2533
    SETDIJ:  cpu time    0.4100: real time    0.4100
     EDDAV:  cpu time   70.0724: real time   70.0729
       DOS:  cpu time    0.0023: real time    0.0023
    CHARGE:  cpu time    2.7187: real time    2.7187
    MIXING:  cpu time    0.0121: real time    0.0121
    --------------------------------------------
      LOOP:  cpu time   73.4496: real time   73.4694

 eigenvalue-minimisations  : 11288
 total energy-change (2. order) : 0.1608006E+00  (-0.1007665E+00)
 number of electron     864.0000006 magnetization 
 augmentation part      117.0471185 magnetization 

 Broyden mixing:
  rms(total) = 0.46895E+00    rms(broyden)= 0.46776E+00
  rms(prec ) = 0.59738E+00
  weight for this iteration     100.00

 eigenvalues of (default mixing * dielectric matrix)
  average eigenvalue GAMMA=   0.7838
  2.2581  1.0145  0.8922  0.8922  0.4546  0.4546  0.1522  0.1522

 Free energy of the ion-electron system (eV)
  ---------------------------------------------------
  alpha Z        PSCENC =      1736.69897902
  Ewald energy   TEWEN  =    -32507.50112713
  -Hartree energ DENC   =    -29067.47824514
  -exchange      EXHF   =         0.00000000
  -V(xc)+E(xc)   XCENC  =      3209.59354583
  PAW double counting   =     81771.26192561   -81437.44337195
  entropy T*S    EENTRO =        -0.03811437
  eigenvalues    EBANDS =     -9552.62276895
  atomic energy  EATOM  =     64968.54023382
  Solvation  Ediel_sol  =         0.00000000
  ---------------------------------------------------
  free energy    TOTEN  =      -878.98894326 eV

  energy without entropy =     -878.95082889  energy(sigma->0) =     -878.96988607


--------------------------------------------------------------------------------------------------------




--------------------------------------- Iteration      1(  14)  ---------------------------------------


    POTLOK:  cpu time    0.2231: real time    0.2449
    SETDIJ:  cpu time    0.3960: real time    0.3960
     EDDAV:  cpu time   67.3685: real time   67.3699
       DOS:  cpu time    0.0023: real time    0.0023
    CHARGE:  cpu time    2.7326: real time    2.7326
    MIXING:  cpu time    0.0105: real time    0.0105
    --------------------------------------------
      LOOP:  cpu time   70.7330: real time   70.7563

 eigenvalue-minimisations  : 10752
 total energy-change (2. order) : 0.7850506E-02  (-0.8108623E-01)
 number of electron     864.0000006 magnetization 
 augmentation part      117.1584449 magnetization 

 Broyden mixing:
  rms(total) = 0.31505E+00    rms(broyden)= 0.31480E+00
  rms(prec ) = 0.42404E+00
  weight for this iteration     100.00

 eigenvalues of (default mixing * dielectric matrix)
  average eigenvalue GAMMA=   0.7733
  2.3930  0.9965  0.9965  0.7048  0.7048  0.5013  0.3454  0.1589  0.1589

 Free energy of the ion-electron system (eV)
  ---------------------------------------------------
  alpha Z        PSCENC =      1736.69897902
  Ewald energy   TEWEN  =    -32507.50112713
  -Hartree energ DENC   =    -29075.44800801
  -exchange      EXHF   =         0.00000000
  -V(xc)+E(xc)   XCENC  =      3209.84547626
  PAW double counting   =     81807.05829818   -81473.02980092
  entropy T*S    EENTRO =        -0.03589893
  eigenvalues    EBANDS =     -9545.10924505
  atomic energy  EATOM  =     64968.54023382
  Solvation  Ediel_sol  =         0.00000000
  ---------------------------------------------------
  free energy    TOTEN  =      -878.98109275 eV

  energy without entropy =     -878.94519383  energy(sigma->0) =     -878.96314329


--------------------------------------------------------------------------------------------------------




--------------------------------------- Iteration      1(  15)  ---------------------------------------


    POTLOK:  cpu time    0.2238: real time    0.2430
    SETDIJ:  cpu time    0.4044: real time    0.4044
     EDDAV:  cpu time   68.5923: real time   68.5961
       DOS:  cpu time    0.0026: real time    0.0026
    CHARGE:  cpu time    2.7577: real time    2.7577
    MIXING:  cpu time    0.0107: real time    0.0107
    --------------------------------------------
      LOOP:  cpu time   71.9915: real time   72.0145

 eigenvalue-minimisations  : 10984
 total energy-change (2. order) : 0.7265097E-01  (-0.4040737E-01)
 number of electron     864.0000006 magnetization 
 augmentation part      117.1396099 magnetization 

 Broyden mixing:
  rms(total) = 0.23650E+00    rms(broyden)= 0.23642E+00
  rms(prec ) = 0.33932E+00
  weight for this iteration     100.00

 eigenvalues of (default mixing * dielectric matrix)
  average eigenvalue GAMMA=   0.7731
  2.4001  1.1998  0.8545  0.8545  0.7231  0.5237  0.5237  0.3367  0.1571  0.1571

 Free energy of the ion-electron system (eV)
  ---------------------------------------------------
  alpha Z        PSCENC =      1736.69897902
  Ewald energy   TEWEN  =    -32507.50112713
  -Hartree energ DENC   =    -29087.19393370
  -exchange      EXHF   =         0.00000000
  -V(xc)+E(xc)   XCENC  =      3210.26820314
  PAW double counting   =     81979.28040097   -81645.51953881
  entropy T*S    EENTRO =        -0.02194139
  eigenvalues    EBANDS =     -9533.45971772
  atomic energy  EATOM  =     64968.54023382
  Solvation  Ediel_sol  =         0.00000000
  ---------------------------------------------------
  free energy    TOTEN  =      -878.90844179 eV

  energy without entropy =     -878.88650040  energy(sigma->0) =     -878.89747109


--------------------------------------------------------------------------------------------------------




--------------------------------------- Iteration      1(  16)  ---------------------------------------


    POTLOK:  cpu time    0.2352: real time    0.2537
    SETDIJ:  cpu time    0.4073: real time    0.4073
     EDDAV:  cpu time   65.6526: real time   65.6527
       DOS:  cpu time    0.0025: real time    0.0025
    CHARGE:  cpu time    2.7489: real time    2.7489
    MIXING:  cpu time    0.0111: real time    0.0111
    --------------------------------------------
      LOOP:  cpu time   69.0576: real time   69.0763

 eigenvalue-minimisations  : 10376
 total energy-change (2. order) : 0.2622366E-01  (-0.7230016E-02)
 number of electron     864.0000006 magnetization 
 augmentation part      116.9922692 magnetization 

 Broyden mixing:
  rms(total) = 0.29871E+00    rms(broyden)= 0.29852E+00
  rms(prec ) = 0.40167E+00
  weight for this iteration     100.00

 eigenvalues of (default mixing * dielectric matrix)
  average eigenvalue GAMMA=   0.7750
  2.3982  1.2620  0.8576  0.8576  0.8475  0.8475  0.3832  0.3832  0.3736  0.1572
  0.1572

 Free energy of the ion-electron system (eV)
  ---------------------------------------------------
  alpha Z        PSCENC =      1736.69897902
  Ewald energy   TEWEN  =    -32507.50112713
  -Hartree energ DENC   =    -29093.39709179
  -exchange      EXHF   =         0.00000000
  -V(xc)+E(xc)   XCENC  =      3210.44210183
  PAW double counting   =     81954.23421655   -81619.86532707
  entropy T*S    EENTRO =        -0.04047684
  eigenvalues    EBANDS =     -9527.99372652
  atomic energy  EATOM  =     64968.54023382
  Solvation  Ediel_sol  =         0.00000000
  ---------------------------------------------------
  free energy    TOTEN  =      -878.88221812 eV

  energy without entropy =     -878.84174128  energy(sigma->0) =     -878.86197970


--------------------------------------------------------------------------------------------------------




--------------------------------------- Iteration      1(  17)  ---------------------------------------


    POTLOK:  cpu time    0.2465: real time    0.2617
    SETDIJ:  cpu time    0.4123: real time    0.4144
     EDDAV:  cpu time   73.3253: real time   73.3253
       DOS:  cpu time    0.0026: real time    0.0026
    CHARGE:  cpu time    2.7659: real time    2.7659
    MIXING:  cpu time    0.0116: real time    0.0116
    --------------------------------------------
      LOOP:  cpu time   76.7641: real time   76.7814

 eigenvalue-minimisations  : 11912
 total energy-change (2. order) :-0.4474847E-01  (-0.1315980E-01)
 number of electron     864.0000006 magnetization 
 augmentation part      117.1694260 magnetization 

 Broyden mixing:
  rms(total) = 0.26352E+00    rms(broyden)= 0.26313E+00
  rms(prec ) = 0.39495E+00
  weight for this iteration     100.00

 eigenvalues of (default mixing * dielectric matrix)
  average eigenvalue GAMMA=   0.8043
  2.4049  1.5254  1.0577  1.0577  0.7703  0.7389  0.7389  0.3538  0.3447  0.3447
  0.1572  0.1572

 Free energy of the ion-electron system (eV)
  ---------------------------------------------------
  alpha Z        PSCENC =      1736.69897902
  Ewald energy   TEWEN  =    -32507.50112713
  -Hartree energ DENC   =    -29097.89117277
  -exchange      EXHF   =         0.00000000
  -V(xc)+E(xc)   XCENC  =      3210.52269908
  PAW double counting   =     81919.49149562   -81584.70167165
  entropy T*S    EENTRO =        -0.01466963
  eigenvalues    EBANDS =     -9524.07173296
  atomic energy  EATOM  =     64968.54023382
  Solvation  Ediel_sol  =         0.00000000
  ---------------------------------------------------
  free energy    TOTEN  =      -878.92696660 eV

  energy without entropy =     -878.91229696  energy(sigma->0) =     -878.91963178


--------------------------------------------------------------------------------------------------------




--------------------------------------- Iteration      1(  18)  ---------------------------------------


    POTLOK:  cpu time    0.2314: real time    0.2518
    SETDIJ:  cpu time    0.4002: real time    0.4001
     EDDAV:  cpu time   63.4313: real time   63.4319
       DOS:  cpu time    0.0026: real time    0.0026
    CHARGE:  cpu time    2.7536: real time    2.7536
    MIXING:  cpu time    0.0116: real time    0.0116
    --------------------------------------------
      LOOP:  cpu time   66.8306: real time   66.8516

 eigenvalue-minimisations  :  9888
 total energy-change (2. order) : 0.4271536E-01  (-0.1182421E-01)
 number of electron     864.0000006 magnetization 
 augmentation part      117.0063795 magnetization 

 Broyden mixing:
  rms(total) = 0.41494E+00    rms(broyden)= 0.41466E+00
  rms(prec ) = 0.55074E+00
  weight for this iteration     100.00

 eigenvalues of (default mixing * dielectric matrix)
  average eigenvalue GAMMA=   0.8048
  2.4121  1.9884  0.9893  0.9893  0.7597  0.7597  0.7704  0.4135  0.4135  0.3260
  0.3260  0.1573  0.1573

 Free energy of the ion-electron system (eV)
  ---------------------------------------------------
  alpha Z        PSCENC =      1736.69897902
  Ewald energy   TEWEN  =    -32507.50112713
  -Hartree energ DENC   =    -29106.05388482
  -exchange      EXHF   =         0.00000000
  -V(xc)+E(xc)   XCENC  =      3210.74214353
  PAW double counting   =     81869.32911533   -81533.76435977
  entropy T*S    EENTRO =        -0.05194834
  eigenvalues    EBANDS =     -9516.82340287
  atomic energy  EATOM  =     64968.54023382
  Solvation  Ediel_sol  =         0.00000000
  ---------------------------------------------------
  free energy    TOTEN  =      -878.88425123 eV

  energy without entropy =     -878.83230289  energy(sigma->0) =     -878.85827706


--------------------------------------------------------------------------------------------------------




--------------------------------------- Iteration      1(  19)  ---------------------------------------


    POTLOK:  cpu time    0.2327: real time    0.2581
    SETDIJ:  cpu time    0.4022: real time    0.4022
     EDDAV:  cpu time   67.9283: real time   67.9280
       DOS:  cpu time    0.0027: real time    0.0027
    CHARGE:  cpu time    2.7551: real time    2.7552
    MIXING:  cpu time    0.0108: real time    0.0108
    --------------------------------------------
      LOOP:  cpu time   71.3317: real time   71.3569

 eigenvalue-minimisations  : 10840
 total energy-change (2. order) : 0.1355494E-01  (-0.2741249E-01)
 number of electron     864.0000006 magnetization 
 augmentation part      116.9995884 magnetization 

 Broyden mixing:
  rms(total) = 0.21457E+00    rms(broyden)= 0.21404E+00
  rms(prec ) = 0.29596E+00
  weight for this iteration     100.00

 eigenvalues of (default mixing * dielectric matrix)
  average eigenvalue GAMMA=   0.7953
  2.5021  2.2035  0.9610  0.9610  0.7499  0.7499  0.6741  0.5628  0.5628  0.3126
  0.3126  0.1573  0.1573  0.2677

 Free energy of the ion-electron system (eV)
  ---------------------------------------------------
  alpha Z        PSCENC =      1736.69897902
  Ewald energy   TEWEN  =    -32507.50112713
  -Hartree energ DENC   =    -29109.86397643
  -exchange      EXHF   =         0.00000000
  -V(xc)+E(xc)   XCENC  =      3210.83972250
  PAW double counting   =     81838.27205650   -81502.37375484
  entropy T*S    EENTRO =        -0.05672132
  eigenvalues    EBANDS =     -9513.42610841
  atomic energy  EATOM  =     64968.54023382
  Solvation  Ediel_sol  =         0.00000000
[...]
   0.124E+02 0.654E+02 0.455E+02   0.857E+01 -.669E+02 -.445E+02   -.234E+02 0.770E+00 -.642E+00   0.247E-03 -.126E-02 0.468E-03
   0.895E+02 -.706E+02 -.401E+02   -.831E+02 0.694E+02 0.408E+02   -.914E+01 0.209E+01 0.847E+00   0.514E-03 -.204E-03 0.129E-02
   0.873E+02 0.804E+00 -.401E+02   -.104E+03 -.169E+01 0.354E+02   0.136E+02 0.387E+01 0.669E+00   -.132E-02 0.135E-02 -.435E-03
   -.377E+02 -.256E+02 -.607E+02   0.483E+02 0.342E+02 0.628E+02   -.129E+02 -.108E+02 -.253E+01   -.140E-02 0.178E-02 0.163E-02
   -.122E+03 0.128E+03 -.123E+03   0.128E+03 -.142E+03 0.143E+03   -.466E+01 0.159E+02 -.222E+02   0.262E-02 0.237E-03 -.211E-02
   0.334E+02 0.169E+02 -.727E+02   -.545E+02 -.227E+02 0.823E+02   0.227E+02 0.622E+01 -.102E+02   0.705E-03 -.154E-02 -.154E-02
   0.108E+03 -.181E+03 0.233E+02   -.132E+03 0.209E+03 -.322E+02   0.228E+02 -.254E+02 0.682E+01   0.294E-02 0.561E-02 0.226E-02
   -.765E+02 -.280E+02 0.297E+02   0.787E+02 0.334E+02 -.272E+02   -.185E+01 -.617E+01 -.242E+01   0.673E-04 -.128E-02 -.737E-03
   0.128E+02 -.699E+02 -.485E+02   -.193E+02 0.803E+02 0.589E+02   0.681E+01 -.987E+01 -.104E+02   0.308E-03 -.309E-03 0.943E-03
   0.223E+02 0.480E+01 -.236E+02   -.216E+02 0.132E+02 0.196E+02   0.659E+00 -.187E+02 0.411E+01   -.860E-03 -.364E-03 -.166E-04
   0.296E+02 0.126E+03 -.663E+02   -.161E+02 -.144E+03 0.620E+02   -.127E+02 0.196E+02 0.364E+01   -.355E-03 0.995E-03 -.543E-03
   -.629E+02 -.174E+03 -.273E+01   0.583E+02 0.193E+03 0.151E+02   0.618E+01 -.224E+02 -.151E+02   -.152E-02 0.166E-02 0.401E-03
   0.246E+01 0.106E+02 0.185E+03   0.107E+01 -.137E+02 -.196E+03   -.427E+01 0.521E+01 0.105E+02   -.484E-03 -.141E-02 0.949E-03
   0.759E+02 0.733E+02 0.903E+02   -.104E+03 -.104E+03 -.819E+02   0.228E+02 0.250E+02 -.738E+01   0.123E-02 0.900E-03 0.850E-03
   0.196E+03 0.101E+03 0.257E+02   -.209E+03 -.107E+03 -.532E+02   0.137E+02 0.406E+01 0.280E+02   -.112E-02 -.986E-03 0.427E-04
   0.263E+02 0.117E+03 0.511E+01   -.370E+02 -.146E+03 -.142E+02   0.105E+02 0.290E+02 0.114E+02   0.832E-03 0.685E-03 0.581E-03
   -.537E+02 0.449E+02 0.232E+03   0.683E+02 -.698E+02 -.255E+03   -.144E+02 0.241E+02 0.208E+02   0.929E-03 0.185E-02 -.151E-02
   -.787E+02 -.645E+02 -.210E+03   0.754E+02 0.523E+02 0.228E+03   0.297E+01 0.153E+02 -.199E+02   0.614E-03 -.381E-03 0.507E-03
   -.619E+02 -.201E+03 0.854E+02   0.707E+02 0.237E+03 -.726E+02   -.871E+01 -.329E+02 -.125E+02   0.312E-03 -.189E-02 -.107E-02
   0.223E+03 -.411E+02 -.108E+03   -.247E+03 0.508E+02 0.110E+03   0.242E+02 -.519E+01 -.368E+01   -.664E-03 -.141E-02 -.783E-03
   -.323E+02 0.108E+03 0.586E+01   0.268E+02 -.134E+03 -.255E+01   0.656E+01 0.260E+02 -.491E+01   0.675E-03 -.384E-03 0.326E-03
   0.166E+03 0.299E+02 -.199E+03   -.151E+03 -.263E+02 0.219E+03   -.196E+02 -.325E+01 -.235E+02   -.142E-02 -.141E-02 -.132E-03
   0.102E+03 -.123E+03 0.724E+02   -.110E+03 0.122E+03 -.887E+02   0.638E+01 0.313E+01 0.160E+02   -.202E-02 0.167E-03 0.496E-02
   0.389E+02 -.551E+02 -.969E+02   -.285E+02 0.632E+02 0.120E+03   -.112E+02 -.856E+01 -.231E+02   0.704E-03 0.117E-02 -.390E-03
   0.305E+02 0.951E+02 0.665E+02   -.477E+02 -.100E+03 -.463E+02   0.192E+02 0.505E+01 -.228E+02   0.134E-03 -.125E-02 0.250E-04
   -.299E+02 0.546E+02 0.352E+02   0.472E+02 -.540E+02 -.371E+02   -.201E+02 -.200E+01 0.267E-01   0.111E-03 0.208E-02 0.741E-03
   -.906E+02 0.607E+02 0.160E+03   0.955E+02 -.749E+02 -.158E+03   -.352E+01 0.181E+02 -.338E+01   0.575E-03 0.246E-03 -.101E-02
   -.104E+03 -.498E+02 0.716E+02   0.124E+03 0.588E+02 -.802E+02   -.204E+02 -.865E+01 0.919E+01   -.303E-04 -.112E-02 0.283E-02
   0.163E+03 0.680E+02 0.770E+02   -.165E+03 -.534E+02 -.923E+02   0.165E+01 -.168E+02 0.178E+02   -.910E-04 -.226E-02 -.518E-03
   -.252E+02 -.296E+02 0.133E+03   0.736E+01 0.129E+02 -.144E+03   0.144E+02 0.180E+02 0.811E+01   0.342E-02 0.125E-02 0.883E-03
   -.843E+02 -.130E+02 0.825E+02   0.803E+02 0.173E+02 -.107E+03   0.411E+01 -.452E+01 0.280E+02   0.143E-03 0.147E-02 -.186E-02
   -.147E+03 0.925E+02 -.610E+02   0.168E+03 -.104E+03 0.682E+02   -.246E+02 0.136E+02 -.832E+01   -.176E-02 -.164E-02 -.194E-02
   0.895E+02 -.563E+02 0.119E+03   -.987E+02 0.606E+02 -.144E+03   0.918E+01 -.316E+01 0.269E+02   0.101E-05 0.500E-03 -.133E-02
   0.110E+02 0.141E+03 0.562E+02   0.131E+01 -.148E+03 -.697E+02   -.168E+02 0.774E+01 0.129E+02   0.702E-03 -.100E-02 -.188E-02
   -.312E+02 -.140E+03 0.180E+03   0.346E+02 0.154E+03 -.201E+03   -.605E+01 -.142E+02 0.190E+02   0.422E-03 0.127E-02 -.719E-03
   0.412E+02 0.622E+02 -.909E+02   -.371E+02 -.685E+02 0.106E+03   -.474E+01 0.696E+01 -.152E+02   -.596E-04 -.686E-04 -.126E-02
   -.107E+03 -.876E+02 -.824E+02   0.123E+03 0.974E+02 0.922E+02   -.188E+02 -.104E+02 -.112E+02   0.224E-03 -.175E-02 0.117E-03
   0.183E+02 0.832E+02 -.123E+02   -.366E+02 -.743E+02 0.111E+02   0.220E+02 -.973E+01 0.199E+01   0.736E-03 -.147E-02 -.982E-03
   0.270E+01 -.428E+01 -.174E+02   -.129E+02 0.483E+01 0.158E+02   0.135E+02 0.804E+00 0.679E+01   -.259E-02 0.363E-03 0.243E-02
   -.892E+00 0.547E+02 -.145E+03   -.107E+02 -.550E+02 0.158E+03   0.136E+02 -.427E+00 -.149E+02   -.336E-03 -.910E-03 0.619E-03
   -.298E+02 0.106E+03 -.852E+02   0.186E+02 -.136E+03 0.100E+03   0.111E+02 0.283E+02 -.139E+02   0.367E-02 0.789E-03 0.387E-02
   0.248E+03 -.764E+01 -.460E+02   -.282E+03 0.252E+02 0.543E+02   0.351E+02 -.138E+02 -.701E+01   -.801E-03 -.102E-02 0.401E-03
   0.472E+01 -.148E+03 0.377E+02   -.110E+02 0.139E+03 -.360E+02   0.722E+01 0.106E+02 -.141E+01   -.373E-03 0.328E-02 -.188E-02
   -.242E+02 -.696E+02 -.384E+02   0.183E+02 0.703E+02 0.249E+02   0.692E+01 -.385E+00 0.180E+02   0.146E-03 0.549E-03 -.615E-03
   0.288E+01 0.415E+02 0.910E+02   -.742E+01 -.506E+02 -.121E+03   0.645E+01 0.976E+01 0.297E+02   -.115E-02 0.107E-02 0.191E-02
   -.387E+02 -.522E+02 -.181E+02   0.561E+02 0.633E+02 0.361E+02   -.159E+02 -.103E+02 -.184E+02   0.378E-04 -.495E-03 0.381E-03
   -.145E+02 0.125E+03 -.857E+02   0.183E+02 -.124E+03 0.112E+03   -.161E+01 -.237E+01 -.250E+02   -.167E-03 -.362E-04 0.124E-03
   -.257E+01 0.974E+02 -.189E+03   -.242E+02 -.101E+03 0.182E+03   0.291E+02 0.459E+01 0.956E+01   -.130E-02 -.138E-02 -.139E-02
 -----------------------------------------------------------------------------------------------
   0.327E+02 -.826E+02 0.183E+02   0.341E-12 0.327E-12 -.171E-12   -.327E+02 0.826E+02 -.183E+02   0.122E-01 0.106E-01 0.320E-02
 
 
 POSITION                                       TOTAL-FORCE (eV/Angst)
 -----------------------------------------------------------------------------------
      4.73404      8.27562     12.17759         0.104842     -2.203230     -2.478539
      1.78356      4.33224      4.77291        -1.939583     -0.814654      0.508287
     12.90735      9.71964     12.01065         3.998429     -1.893417      0.308685
      0.81441      6.55937      2.29381        -1.229225      1.162545     -1.297419
      3.55521      5.71316      8.53531        -0.086972      0.405260      1.095345
      9.40565      2.46198      7.52992        -2.144905     -0.311986      0.512396
     11.25966     13.14843      6.67139         0.096289     -0.850376     -0.519280
     13.96475      5.27241     11.23312         1.047992      0.829253     -0.876299
      7.86077      9.31794      4.56142        -0.513400     -0.614620     -0.321316
      2.76525     10.80725     12.33854        -0.153162      2.826739      0.885436
      2.10853     13.25509      4.04450         0.115724     -1.817422      0.085252
      8.97089      7.93140      1.45345        -1.216535      0.811389      1.763823
      1.32422      0.63384      1.12969        -0.711559      0.605751     -0.857617
      3.54260      2.19207     11.55928         3.594685     -0.633670      1.144310
      4.78819      2.03722      7.74812        -1.012058     -2.032325      0.237488
      9.15860     10.14689      9.27895        -0.245718     -1.263848      0.275864
      4.30714      5.39673      4.68824         2.652467      2.666603     -0.195140
     10.85548      2.97659     11.85767         0.865231     -0.118496      1.878493
      4.65708     11.67335      7.18956         0.569179      0.894474     -1.953428
      0.17659     10.32225      8.08108         1.966380      1.145733      1.696854
      1.94075      8.91553      4.89847        -0.750767     -0.275231     -2.621285
      9.13669      5.95553     10.87057         3.687442      2.381159      2.629529
     12.67643     13.08173     13.74498        -1.659092     -0.810891      0.697928
      9.88221     11.48205      1.58762        -0.584459     -0.854205      1.046721
      5.68919     12.68189      3.40587        -0.512293      0.184239     -1.512172
     11.16619      6.09671      6.55331        -1.247182      1.897797     -0.685536
      9.13809      0.99573      4.25120        -1.056058      0.380275      0.969794
      7.60530     12.68507      5.80713         3.908310     -0.043361      1.504010
      5.36641      9.53575      0.85602         2.755750      2.160660      4.185416
      7.83418      5.53302      4.59207         1.582549      3.389112      0.022786
      3.75260      9.03567      8.00646        -1.198083     -3.328895     -2.361321
      0.46271      1.73644     12.31256         1.298320     -2.219551      2.488113
      7.64241      5.38035      8.90229         1.566376     -1.142713     -3.359279
      0.10509      3.73313      0.38674         2.002724     -6.022095      4.126695
     11.90414      9.69671      5.73824         3.330062     -4.699463     -1.946421
      7.56563     10.26310     12.35101         4.542485      1.766226      2.506362
      6.52822      7.67465      8.32719        -5.725494      2.803531      3.397329
      6.31443      2.27115      2.22488        -0.942809     -1.765095     -3.611858
     10.66240      4.03057      1.85240         0.043857     -7.471019     -3.964336
      7.50317      3.65223     11.38821        -3.060238     -6.793345      2.955547
     12.25621      7.00956     12.67328         0.636038     -2.978850      1.534622
      2.01041      0.23915      7.44129        -6.084624     -0.723498     -0.382489
     11.54756      6.07207      1.99565         0.197121      3.073864     -3.703772
      1.06606     10.23463      1.20764        -1.350579     -3.631046     -0.446062
      4.33568     13.42478      0.42673         0.266892     -0.587737     -0.493083
      1.36201      3.10671      9.33522         6.087187     -3.677432      2.014519
      7.18604      0.90837      9.37314        -5.359048      0.269256      1.938454
     10.72013     10.96198     11.40739        -2.811184      0.503877      2.373013
      8.97834     13.30741     11.34389         5.752905     -6.746911      5.957544
      2.05303      8.50118     10.38673        -4.916081      1.506146     -1.627249
     12.15010      2.22097      6.64691         2.680207     -3.613152      3.837733
     12.85366     10.89621      3.26686         2.636254      1.778784     -4.584319
     11.40772      0.84003      2.50706         9.851389      4.678714     -4.488434
     12.50125      3.94214      8.38624         1.476508     -1.959300      2.838153
      6.00449      2.84810     11.95230         3.910383      2.612778     -1.105288
     13.76975      7.73015     13.10331        -3.208081     -0.784107     -2.559631
      7.25840      6.37025      7.63226        -1.732652     -0.006140     -0.025437
     13.76386      2.94886      9.48958        -0.444984      1.763818     -1.907282
      6.05460      9.44439      2.63215        -2.413072      0.121850     -5.060466
      3.47248      4.10762      5.92418        -0.608364     -1.074817      1.109108
      3.44735      0.05964      7.13513         8.714182     -0.817025     -0.142714
      9.02328      9.66241      2.98452         0.973379      0.548733     -2.251185
      1.15318     13.01685      8.04261         0.068151      0.495777      1.009901
     12.21332      4.63134      1.89034         0.776953     -2.641104      0.419862
      8.03613     11.98893     12.21561         0.054186      0.063004     -0.353687
      7.60057      1.69608      2.99673        -1.140582      0.871828     -0.006670
     13.49342      9.73437      1.88256         3.181624      2.435727     -0.289750
      0.63035      5.16488      0.31611         0.601547      1.815199     -0.233740
     11.15398     10.98389      5.98185        -1.927435      5.039995      2.254804
      3.01037     13.09560      1.56706         1.336225      0.985098     -0.971459
      6.24733      9.62846     11.91379        -2.136839      0.321316     -2.074547
     11.79209     11.81039      2.31643         1.141835     -1.220256      0.932296
      5.13092      0.55685      9.60798         3.457714      2.091981     -0.669649
      4.57002     11.49164      4.62142        -1.310829      0.516718      1.565343
     10.37544     13.75721     12.06627        -2.110987      2.621081      0.818827
     13.02586      3.79629      6.77724        -1.662039     -2.228600     -0.822435
      0.69635      9.54711     10.12323         0.640195     -1.596897      0.445385
      9.31340      5.58273      8.75348        -2.003415     -1.065362      1.069910
     10.95754      8.36037      6.06905         1.124328     -0.552652      0.752669
     13.01585      0.29300      1.81971        -4.834484      1.303018      1.328606
     12.09198      5.30246     12.16585         0.557589     -0.054227      0.597969
      1.68991      2.39043     13.72276        -3.360724      1.011429     -3.041781
     12.30238      6.93175      3.00164         1.206907      1.186922      1.857457
      9.21113     12.96273      5.52642        -1.380369      0.635674      0.732487
      5.58372     12.23799      0.36654        -2.006943      0.360801      1.232815
      2.43876      2.11797      8.31670        -3.562541     -0.121343      0.122838
      6.17577      3.64441      1.35911        -0.301635     -1.969307      2.412847
      9.45943      5.31783      5.11632        -2.487984     -0.683631      0.362362
     11.87059      6.62006      0.32306        -2.670610      0.855435      1.608358
      7.97664     13.93748     10.44955        -3.271271      2.986643     -4.079605
      0.37029     11.92414      3.57206        -2.374444     -2.285501     -0.426288
     12.30406      0.96538      7.87396         1.132769      2.303161     -1.881818
     10.99380      3.31503      8.52719         1.674301      0.475861     -0.561362
      6.62728     13.68009      5.22815        -1.669193      2.273973     -2.117003
      2.04756      6.37385      4.04991         0.288697     -0.764340      0.105108
     10.88198      2.40406      2.77357         0.299249      0.540139     -0.040997
      7.57364      2.52490      9.72135         1.394491     -0.693206      0.127093
      9.01729      9.66672     11.67287         0.830883      1.444899     -0.656529
      3.10976      9.96872      9.41240         1.558885     -3.506527     -2.727001
      4.02239      7.18011      7.16542        -0.734607      2.103739      0.353883
     10.32590     13.98154      2.90967        -4.849785     -5.515429      0.942378
     10.19216      3.61390      0.37622         0.906239     -1.105393      0.502659
     12.19850      9.64839      4.00217        -0.240130      0.211984      2.300363
     11.43201      9.96509     10.46832         0.308660     -0.740375     -2.421696
      0.18917      2.63030      1.78524        -0.351126      3.080502     -2.290413
     12.85650      5.32380      8.90926         0.055407      2.718396      0.354923
      7.07317      4.81707     10.39229        -0.022668      4.426936     -2.091861
      1.73563      6.89560     10.40518         1.043323      0.664060     -1.597106
      9.02975      4.01263     12.14579        -4.303233      0.269964     -3.061297
      1.53280      0.18938      5.83710        -1.281982      1.988362     -0.258172
     11.55301     11.33592     12.74177        -0.810509     -0.491395      0.177578
      6.49783      5.17274      5.53009         1.912499     -0.255480     -2.673642
     13.58305      9.80024      6.26092        -2.856948     -1.379605     -1.915544
      0.29022      0.06062     13.11639         1.316048      3.933730     -2.267905
      5.38387      9.31921      7.62085        -0.382097      0.310357      0.598838
      7.79553      6.84107      3.42497        -0.377195     -2.191889      2.472860
     10.93466      1.42772      6.04847        -3.415263      1.366654     -3.222320
      3.89235     13.89509     12.86097         0.155514     -0.151905      3.137523
      2.38820      9.30159      1.90772        -3.702644      2.347327     -1.163137
     11.43416      7.34149     11.24081        -0.111580      1.233581      2.175679
      1.62072      1.81911     11.06556        -4.545761      0.362979     -0.639036
     10.08404     12.11509     10.50886        -2.634696      0.408478     -2.546378
      7.61800      9.53108     13.97942        -0.718539      0.605572     -0.000704
      2.74901      4.01505     10.02902        -3.396607     -0.607693     -1.437433
     12.95558      2.52364     12.21798         3.773346     -0.822276      0.748020
      2.31690      9.23747      6.74889         3.322366      1.354584      5.263953
      5.19587      7.37080      9.52301         1.962915     -0.775233     -1.435998
      7.09075     11.38158      6.46757        -0.005087     -1.611170      0.904183
      9.84489      5.32535      2.20830         1.086940      3.769169      1.269130
      5.25625      0.77148      1.84048         0.897530      1.473762      0.337131
      0.77008     10.59537     13.36451         1.053900      0.272845      4.461664
      7.16218      0.60631      7.81255         1.909669      0.687706     -0.791446
      7.67883      8.39458      9.14328         1.451532      0.846067     -0.322384
      2.65422      8.93318     11.74541         2.199671     -1.457943      1.707394
      4.08054      9.23163     13.89838         2.277410      0.827666      2.438739
 -----------------------------------------------------------------------------------
    total drift:                                0.014493      0.006522     -0.023067


--------------------------------------------------------------------------------------------------------



  FREE ENERGIE OF THE ION-ELECTRON SYSTEM (eV)
  ---------------------------------------------------
  free  energy   TOTEN  =      -878.87184503 eV

  energy  without entropy=     -878.81712543  energy(sigma->0) =     -878.84448523
 


--------------------------------------------------------------------------------------------------------


    POTLOK:  cpu time    0.5591: real time    0.5591


--------------------------------------------------------------------------------------------------------


     LOOP+:  cpu time 2199.5400: real time 2200.1980
    4ORBIT:  cpu time    0.0000: real time    0.0000

 total amount of memory used by VASP MPI-rank0   227705. kBytes
=======================================================================

   base      :      30000. kBytes
   nonlr-proj:      20300. kBytes
   fftplans  :      36399. kBytes
   grid      :      20695. kBytes
   one-center:        171. kBytes
   wavefun   :     120140. kBytes
 
  
  
 General timing and accounting informations for this job:
 ========================================================
  
                  Total CPU time used (sec):     2234.994
                            User time (sec):     2224.115
                          System time (sec):       10.879
                         Elapsed time (sec):     2235.835
  
                   Maximum memory used (kb):      383816.
                   Average memory used (kb):           0.
  
                          Minor page faults:       211620
                          Major page faults:            0
                 Voluntary context switches:         3075
