135
Time=99999.99999996 pbc="T T T" Lattice="9.94194835 0.00000000 0.00000000 0.00000000 9.94194835 0.00000000 0.00000000 0.00000000 9.94194835" energy=-781.57485222 virial="788.01338605 -2.53474475 -17.58415771 -2.53474475 754.81944558 -43.75577261 -17.58415771 -43.75577261 746.73644797" stress="0.84925148 -0.00257941 -0.01789398 -0.00257941 0.81547267 -0.04452673 -0.01789398 -0.04452673 0.80724726" Properties=species:S:1:pos:R:3
Ca 8.99799779 1.84471990 8.12616789
Ca 0.46199708 6.42279438 5.10092694
Ca 3.93851044 1.38301559 3.97447812
Ca 9.72493232 9.42155952 8.76269488
Ca 7.78260130 5.01307408 1.22742300
Ca 7.06965773 2.00287067 9.85309341
Ca 9.81695469 2.90306124 5.74827082
Ca 5.75027096 5.99345740 0.94807673
Ca 1.58467489 7.68089503 0.44862818
Ca 3.35300758 5.82721556 2.86763886
Ca 3.33879778 0.03143072 8.51486699
Ca 7.26032894 3.58547224 5.68508163
Ca 0.92713899 0.56362431 0.63794713
Ca 6.16618959 7.65613245 6.43199890
Ca 2.12005957 3.14596678 1.96245713
Ca 3.85720035 7.53443175 8.45798537
Ca 2.97714213 8.87675517 3.79180687
Ca 0.21769678 8.72659261 4.66528904
Ca 1.70000939 9.10441523 6.49696624
Ca 5.03498781 4.15065823 4.97115507
Ca 0.66765801 5.03902511 9.53887712
Ca 4.70678586 2.84083113 9.54043533
Ca 9.51847201 3.55520182 3.51376554
Ca 2.62745166 4.55038952 7.47404027
Ca 8.34883179 9.08986212 6.91895446
Ca 1.59692774 1.84226032 6.12220176
Ca 8.81316879 0.35276367 2.12437677
Si 5.36339507 5.30049313 7.81856332
Si 0.87968243 7.00429036 7.86973010
Si 3.12691395 5.13196277 0.06756138
Si 8.56819042 5.60932613 6.63868988
Si 7.99718376 5.71842420 4.08704749
Si 6.50223788 9.25439987 9.21291965
Si 7.62460328 4.26486404 8.26875317
Si 6.49637570 9.45310219 4.59087803
Si 3.31276799 6.71623515 5.78754147
Si 4.81334683 3.52411658 2.39791596
Si 8.36764484 0.80911990 4.97858179
Si 6.79306535 2.40263881 3.27928510
Si 7.90625765 6.91923794 8.83697510
Si 6.02885314 0.06432869 1.56616326
Si 0.58928984 5.62693201 2.09654897
Si 4.24441581 8.04536441 1.45000018
Si 5.68387158 6.51876605 3.74237931
Si 9.84532989 7.86773023 2.21661272
Si 7.28073109 7.96149637 1.89171291
Si 4.20612218 2.40268408 6.62054905
Si 1.11324889 0.98766597 3.36575698
Si 1.79900827 2.38970608 8.75999261
Si 9.38644164 2.89706080 0.71372187
Si 6.41804371 1.42479367 6.95248906
Si 3.53500404 0.72283351 1.11943277
Si 4.56792173 9.47015489 6.34647362
Si 2.36988437 3.96724986 4.44450438
O 9.68041276 0.59686412 6.16677875
O 2.99214233 7.65289926 2.29624130
O 3.52873581 8.43175878 6.59910605
O 3.12179408 5.27398203 4.97465368
O 4.22329294 5.13535446 8.90934230
O 9.82665872 8.94919407 1.08949066
O 8.84798889 3.62001255 9.44241852
O 2.05454553 5.70577974 1.18109034
O 1.71211799 8.36521755 8.38352053
O 2.89742570 2.19158539 7.81573806
O 8.41326538 5.42459171 9.19682463
O 6.12496210 3.49684084 1.31111972
O 9.64092940 7.25872548 9.02826333
O 2.76765799 1.67214327 0.05346042
O 6.18237175 9.77302088 6.18812501
O 4.37676635 7.18243141 4.43380723
O 9.62024438 6.48329747 1.15420909
O 8.53286043 8.15043074 3.17158662
O 0.55452834 2.03157730 2.05102693
O 8.30664459 7.00622379 5.05375470
O 6.05536627 6.81880089 8.75022024
O 5.39164304 2.84802616 3.72384339
O 6.53129042 9.27831034 2.85902951
O 3.23326195 2.80613390 5.42186350
O 7.85624481 8.54498961 8.92543757
O 0.68693044 2.40875386 9.79294010
O 5.45186424 7.42765978 2.25737085
O 6.51269007 7.75338845 4.33869664
O 8.89804544 0.59186076 9.85808351
O 2.35969835 7.35567719 4.98905407
O 3.83687518 6.87149296 0.34725841
O 5.64908538 8.58082804 0.40151364
O 7.30426121 3.98584247 3.34530726
O 4.03315698 4.59720764 1.18780923
O 9.14126456 5.46955140 3.25656192
O 1.35489643 0.78585969 8.30237705
O 4.41601643 6.12185623 6.87867659
O 2.32282788 6.69851523 6.98791467
O 6.77100754 1.08201046 4.36164417
O 5.50991975 5.10904732 2.91915176
O 5.49362073 2.22749890 5.76396089
O 1.27767163 4.74011641 3.15087741
O 1.65345199 0.41933360 4.73509374
O 1.25615155 4.11205864 5.45042035
O 7.03972029 5.08611800 7.02083675
O 5.64785155 8.97412078 7.96453336
O 8.21397615 2.41465635 4.19156654
O 4.83484896 9.54714384 4.72444232
O 0.11636204 7.94853611 6.62161401
O 8.16595369 7.03936909 7.21454538
O 2.50959603 0.81571463 2.53526756
O 4.60977109 3.82794216 7.18206069
O 3.46836588 0.79257033 6.26315843
O 0.79260849 9.40558947 2.78930315
O 3.69879678 3.53516168 3.47729195
O 4.19004659 2.18600980 1.86303498
O 7.48587647 7.18218961 0.51389774
O 2.01674239 6.20421212 8.80318387
O 6.65196632 5.75370209 4.97051027
O 6.15011963 4.65732599 9.28470465
O 8.01471691 1.74058944 6.24110226
O 7.42423937 9.40306504 0.99172483
O 2.37446526 3.80049537 9.66362333
O 4.50128915 9.58240030 2.23821842
O 8.23550133 2.98530707 1.73266704
O 7.91552462 9.23242884 4.94630853
O 0.97179226 3.53758167 7.94732285
O 9.85613239 4.24048851 1.40241664
O 1.74808927 2.30334735 3.80047231
O 6.68672891 1.41515155 2.17089834
O 7.20126273 6.52930558 2.73232321
O 9.71099147 0.74634318 3.97835078
O 8.85968728 4.86844691 5.46993594
O 5.36536200 0.92640713 0.12354325
O 0.77242604 7.06364883 3.22941847
O 3.41321083 9.38669448 0.47448651
O 8.76110777 3.82009580 6.94362644
O 7.14773184 2.81913526 8.00742684
O 4.88252241 1.32232736 8.11750148
O 0.08823577 5.69506196 7.18045252
O 7.24153452 0.66701710 8.25528422
135
Time=199999.99999918 pbc="T T T" Lattice="9.94194835 0.00000000 0.00000000 0.00000000 9.94194835 0.00000000 0.00000000 0.00000000 9.94194835" energy=-788.88702694 virial="749.35577932 20.16934984 52.98952136 20.16934984 772.28700571 -19.03541570 52.98952136 -19.03541570 740.46623150" stress="0.80991274 0.02052473 0.05392318 0.02052473 0.83324801 -0.01937081 0.05392318 -0.01937081 0.80086656" Properties=species:S:1:pos:R:3
Ca 8.86083438 1.94841916 8.18537898
Ca 0.46489578 6.91988272 4.98254952
Ca 4.19645802 2.13157356 3.59981918
Ca 9.58356925 9.46693511 8.94993449
Ca 7.83082344 5.00982361 1.93870085
Ca 7.18136495 1.73732679 0.93929538
Ca 8.79771636 1.21517548 5.67504502
Ca 5.81943854 6.10886788 0.06470128
Ca 1.29440180 7.85228885 0.89879147
Ca 3.13664269 6.11617697 2.15217918
Ca 3.45990799 0.37702832 8.18807040
Ca 7.06653293 3.29696100 6.42769373
Ca 1.09752671 0.85156872 0.36869493
Ca 7.77958371 6.55796783 7.40503894
Ca 2.52599296 3.05836945 1.60527030
Ca 3.48414046 7.40031526 8.18220173
Ca 3.85674581 9.36266354 4.12571566
Ca 9.67534061 9.11755089 5.19539911
Ca 1.85832352 9.19477278 6.51320314
Ca 5.04965744 4.96433509 4.51193554
Ca 9.73371886 4.84227887 9.28614164
Ca 4.66186195 3.26410727 8.85720749
Ca 9.61025627 3.69798259 4.15582323
Ca 2.64193892 4.76301324 6.89423654
Ca 8.24234065 9.22667944 7.15598260
Ca 1.19558567 2.11987205 6.02897353
Ca 9.02164162 0.19566254 2.30474854
Si 5.25137085 5.65430155 7.11942763
Si 0.99754314 7.26207935 7.73561178
Si 2.81793399 5.50056173 9.57806233
Si 9.91955064 4.32696187 6.77751409
Si 7.80784907 5.67302578 4.84959197
Si 6.22412028 8.95435692 9.67932025
Si 7.40240567 4.14770048 9.07677637
Si 6.26015712 9.75262910 2.74196897
Si 3.20362436 6.94323789 5.23954202
Si 4.99666633 4.03457773 1.76112540
Si 6.09596256 1.31127785 5.17702315
Si 7.37852987 2.96482340 3.27430729
Si 8.21165228 7.23024354 0.21813679
Si 8.42825899 7.35539490 3.00856735
Si 0.73959697 5.32311965 2.25771386
Si 3.93920567 8.37308431 0.94492199
Si 5.57733754 6.86152425 2.72244564
Si 1.42932092 8.63815452 3.27189318
Si 6.75167696 8.40145622 4.76474953
Si 4.14014635 2.56080808 6.26910118
Si 1.56076399 1.31024150 3.45257344
Si 1.98812023 2.63410533 8.78077172
Si 9.60422451 2.69435439 1.09862768
Si 6.14209251 0.98741571 8.19391364
Si 3.90601395 0.89698549 1.01937709
Si 5.29279318 8.46712729 6.73741240
Si 2.33206614 4.18017599 4.41570729
O 0.10212519 0.32054826 7.01032881
O 3.12079913 8.35824421 2.45076705
O 3.68218760 8.71386252 6.72986835
O 2.41440742 5.77181666 4.38029193
O 3.89700282 5.64522795 8.30024906
O 6.84284131 7.52973104 9.04468978
O 8.39405220 3.45361961 0.26549720
O 1.90507599 4.98724229 1.01202016
O 1.71538994 8.87450665 8.27936891
O 2.93358199 2.60687534 7.29918649
O 7.76175911 5.60859436 9.82948407
O 5.99165830 3.33567150 2.85441030
O 9.40662835 7.38307424 8.66476385
O 2.97256921 1.85365795 9.82720762
O 3.39006144 1.26510661 5.47925171
O 4.37307717 6.38342838 3.55642484
O 9.46258852 6.50648339 1.18591150
O 9.79065703 8.45806335 3.54894608
O 0.78748927 1.96663732 1.99913792
O 8.12441299 7.23089361 4.71266023
O 5.38034573 7.12452181 7.62558966
O 7.34624741 1.98881403 4.52255287
O 8.74827025 8.65755403 0.62304032
O 3.46615024 3.67301268 5.30165657
O 4.64374170 7.76704443 5.23614233
O 0.86426901 2.81308467 9.93841596
O 4.95394712 7.58699831 1.53844645
O 5.73898635 8.34146574 3.39222127
O 9.03015357 1.43688104 0.33241574
O 2.20426908 8.04901383 4.55276206
O 3.34279385 6.95977381 0.26768132
O 4.67840780 8.60090713 9.39409646
O 7.57321192 4.23843499 3.99898484
O 3.91366339 4.73836820 0.62510164
O 9.19858750 5.70046969 3.12747314
O 1.50104328 1.06548742 7.89403938
O 4.24657502 6.02171697 5.95792041
O 2.15042733 6.77357551 6.55570342
O 7.09084229 7.14938179 1.72590504
O 5.81021673 5.38612243 1.88938302
O 5.53407606 2.82981310 5.37124590
O 1.33964076 4.13005679 3.04751956
O 1.62147338 0.04834629 4.28590318
O 1.24831384 3.99310127 5.53583244
O 6.10199074 5.07044867 8.27567806
O 6.74602511 7.89381997 6.09236931
O 5.39882411 0.67931122 3.69991568
O 5.38305566 9.63534997 5.63871275
O 9.46217207 7.50473133 6.68215239
O 8.36751607 4.41839433 7.80484913
O 2.90045934 1.10996683 2.33290665
O 4.88028548 4.04449266 6.92087162
O 5.77195558 9.40602531 7.79918135
O 1.01337698 9.73061601 2.14752701
O 3.92639089 4.09000612 3.08108126
O 4.75800001 2.32974851 1.45183033
O 6.78713331 9.61818414 1.11885325
O 1.65668639 6.61651134 9.08928449
O 6.86651009 5.42616908 6.13437695
O 6.22405598 3.68923181 0.39669059
O 7.18204550 1.33042645 6.67560068
O 7.86408863 8.72974035 2.93649856
O 2.17849996 4.11914277 8.98711041
O 4.67739742 9.65685806 1.87578873
O 8.76939208 2.72485216 2.48763010
O 7.60993660 9.73149074 4.68663388
O 0.32460040 3.43665788 7.86823506
O 9.83841482 4.41078574 1.25035945
O 2.21730333 2.57271923 3.98280756
O 7.55382304 1.10760815 2.93474220
O 6.43051469 6.21098867 4.06976632
O 0.19541845 1.72217595 4.30168248
O 9.00787174 5.26357050 5.78475017
O 5.16967266 0.86061341 9.77856876
O 1.26464133 6.91487569 2.75266615
O 3.00568611 9.55889612 0.40115565
O 9.18586222 3.11395452 6.12729469
O 6.81012192 2.44419090 8.50922017
O 4.84079194 1.61620384 7.50600771
O 0.66748460 5.67622660 7.38070465
O 7.60360366 0.41089967 8.94799552
135
Time=299999.99999840 pbc="T T T" Lattice="9.94194835 0.00000000 0.00000000 0.00000000 9.94194835 0.00000000 0.00000000 0.00000000 9.94194835" energy=-792.31913935 virial="779.42589232 -26.42176247 58.33931514 -26.42176247 768.76008159 -38.93863437 58.33931514 -38.93863437 770.28478247" stress="0.84051268 -0.02688731 0.05936723 -0.02688731 0.82965894 -0.03962472 0.05936723 -0.03962472 0.83121050" Properties=species:S:1:pos:R:3
Ca 9.16746385 2.19377248 8.28258622
Ca 0.48217862 6.56284008 5.17064496
Ca 4.30359549 1.88230780 3.25110972
Ca 9.56955972 9.74382804 8.86539023
Ca 7.74840091 4.96076145 1.67941395
Ca 6.93890366 1.97022120 0.61426039
Ca 8.59787118 1.34114853 5.87684716
Ca 5.65865626 6.21711451 0.09962804
Ca 1.21534551 7.83482534 0.77457727
Ca 3.30119988 5.97477371 2.73449814
Ca 3.58044103 0.17575835 7.92687209
Ca 7.10373807 3.67272318 6.30093635
Ca 1.33532975 0.47027882 0.34405212
Ca 7.98089665 6.56350809 7.43470363
Ca 2.23678646 3.45679179 1.55089653
Ca 3.49574743 7.77215330 8.54646428
Ca 3.79637602 9.48739830 4.53081200
Ca 9.58563229 9.20851611 5.02417401
Ca 1.80697488 9.27219746 6.52819962
Ca 5.31805634 4.51806527 4.67312391
Ca 0.24446650 4.86590904 9.50796487
Ca 4.60143813 3.31328559 9.10168442
Ca 9.87091946 3.39292587 3.79422763
Ca 2.60557456 4.67448205 7.04173238
Ca 7.82867338 9.40580445 7.06460164
Ca 1.42385642 2.04372801 5.98606857
Ca 8.84036679 0.30938894 1.90264674
Si 5.35144186 5.68697989 7.26105215
Si 0.74144052 7.26272903 7.88709040
Si 2.90421559 5.70068796 9.80380027
Si 9.65359376 4.54038848 6.63364582
Si 8.02742005 5.72487953 4.38116193
Si 6.43834468 9.10347687 9.56315468
Si 7.23535031 4.19358769 8.97655567
Si 6.53090015 9.69991571 2.52024416
Si 3.14128457 6.96281033 5.72243607
Si 4.95462726 3.98984514 1.89296559
Si 6.19909415 1.04481778 5.08789863
Si 7.25073670 2.94243419 3.14930403
Si 8.31476883 7.15662679 0.28224053
Si 8.88518439 7.51130541 2.45809962
Si 0.65562610 5.45808064 2.47207789
Si 4.14628006 8.29302789 1.44108467
Si 6.12110509 6.94930603 2.88691649
Si 1.68639487 8.57139938 3.13461182
Si 7.00832253 7.86473700 4.67007995
Si 4.17128632 2.40975775 6.52193460
Si 1.35972788 1.24385436 3.00901306
Si 1.82975989 2.56559230 8.57840801
Si 9.48150725 2.66314634 0.86971840
Si 6.29372875 1.10171163 8.17045895
Si 4.04952866 0.81645177 0.80346875
Si 5.33116773 8.25869894 6.60756564
Si 2.58315712 4.15016152 4.31333450
O 9.54623064 0.19693611 6.76994923
O 3.18036307 8.52179198 2.59591337
O 5.69515264 9.39059190 7.96169941
O 2.52423850 5.77327875 4.79282711
O 3.99248559 5.55619589 8.65117787
O 7.33471797 8.22580759 8.69251188
O 8.45072807 3.49809048 9.79083117
O 1.72951354 5.59405980 0.97832283
O 9.05209184 8.49783945 0.78337332
O 2.97298607 2.56215443 7.52751979
O 7.52315543 5.77454769 9.48541448
O 5.79619212 3.30556296 3.13767186
O 9.46033714 7.19282906 9.09308242
O 3.25841429 1.79484311 9.60344250
O 1.61918686 9.92437695 4.18558871
O 5.72564595 0.37877850 3.75735968
O 9.35729996 6.43730970 1.34975131
O 1.46486732 8.55260266 8.68779037
O 0.70718248 1.87918228 1.84563354
O 4.77478923 7.31440816 2.34563881
O 5.22564282 7.18101680 7.79215553
O 6.98516180 1.53301221 2.39060916
O 6.89016873 7.33836056 1.18981791
O 3.44547509 3.53932243 5.48598989
O 3.77054167 8.62916835 6.56583569
O 0.85346604 2.64847634 9.68991264
O 5.50341214 5.40735468 2.25654532
O 4.96634064 9.80914612 1.71141854
O 9.13628436 1.27061860 0.04820019
O 6.49715455 6.25316671 4.39090665
O 3.36126580 6.96508215 0.64302007
O 8.73451402 7.48607986 4.81512454
O 7.41650687 4.31895447 3.85584354
O 3.98498346 4.66787939 0.99983505
O 9.32058378 5.47098466 3.39621219
O 1.25996559 1.15712738 8.07095712
O 4.26577197 5.84390185 6.31934712
O 2.13624922 7.19331426 6.80100983
O 6.16667833 8.34711973 3.41332833
O 7.69141905 6.60265804 2.87790894
O 7.67058487 2.14538537 4.39257841
O 1.55289654 4.45237428 3.18968964
O 2.42291075 8.11623229 4.57545481
O 1.23974431 4.01018918 5.43230053
O 5.97497470 5.02492816 8.55824741
O 7.14896439 9.78978606 4.85999702
O 5.28058380 2.24588754 5.09951850
O 6.77902499 7.86465689 6.36557682
O 9.80538144 7.86535326 6.64914144
O 8.54907799 4.61608904 7.88567750
O 1.03715800 9.34398545 2.00544643
O 5.01076191 3.92034665 7.15228363
O 5.33100849 9.84153142 6.15402534
O 0.23931538 7.94873325 3.41125416
O 3.76888856 4.17645858 3.40618167
O 4.79577629 2.37860355 1.43439280
O 7.02617162 9.61556158 1.09049819
O 1.53859793 6.39173240 8.83553151
O 6.55971795 5.50566203 6.12743101
O 6.33715304 3.85525603 0.37688835
O 6.80078338 1.61704113 6.49410471
O 8.30032149 8.99788268 3.04992198
O 2.43071316 4.04706156 9.35033485
O 5.13146772 8.06451404 0.09141312
O 8.44572404 3.28687951 2.12449689
O 3.33431101 1.12726661 5.99094535
O 0.85597127 3.74526702 7.55945618
O 0.20903271 4.11010991 1.59060377
O 2.09564138 2.41350775 3.91431067
O 2.74425916 0.84428804 1.97540212
O 4.66672972 7.53589582 4.99305375
O 9.56689205 1.04340948 3.65890753
O 8.70393829 5.23265302 5.61115147
O 5.64180861 0.75854953 9.73773368
O 1.59545286 6.96136471 2.79449376
O 3.37212698 9.33667134 0.11061972
O 8.97388435 3.00137620 6.43741106
O 6.84977734 2.62487999 8.33323297
O 4.84114859 1.67801504 7.64657896
O 0.58594040 5.81073873 7.10408318
O 7.73279654 0.55169417 8.59815939
135
Time=400000.00000008 pbc="T T T" Lattice="9.94194835 0.00000000 0.00000000 0.00000000 9.94194835 0.00000000 0.00000000 0.00000000 9.94194835" energy=-776.69166121 virial="780.67777587 2.07400613 5.86060588 2.07400613 816.36269783 34.15511858 5.86060588 34.15511858 818.66759572" stress="0.84178662 0.00211055 0.00596387 0.00211055 0.87810030 0.03475692 0.00596387 0.03475692 0.88044581" Properties=species:S:1:pos:R:3
Ca 9.30107135 1.72392607 8.30048909
Ca 0.15907908 6.64301650 5.12850880
Ca 3.18340757 2.20032264 3.62992423
Ca 9.46580819 9.08286853 9.29228306
Ca 8.00538201 4.33590729 1.85470580
Ca 6.90572787 1.81916699 0.78493277
Ca 9.04663804 1.48634365 4.88216522
Ca 5.91678574 6.54036537 9.90535125
Ca 1.03221293 7.43586809 0.47279660
Ca 3.53990060 6.04892506 2.55288876
Ca 3.81907463 0.47564813 8.08304012
Ca 7.07477860 3.40198819 6.54532754
Ca 1.54301890 0.37535259 0.13100144
Ca 8.14636326 6.32852900 7.22832439
Ca 2.66160486 3.06891076 1.21744708
Ca 3.52386414 7.77088835 8.65186359
Ca 3.83251300 9.93278779 3.93550038
Ca 9.81142471 9.16681389 5.19642594
Ca 1.71691485 9.81982658 6.39862592
Ca 4.45278810 5.15108674 4.66368076
Ca 0.30351542 4.88638080 9.20982220
Ca 4.88216826 3.88781559 8.69658422
Ca 8.72763307 3.85683052 3.88498970
Ca 2.30234225 4.97703180 7.09821382
Ca 7.77057280 9.16582947 7.07233682
Ca 1.37507271 2.12129810 6.04039785
Ca 8.72714006 9.86863704 1.90019389
Si 5.12941334 5.96271879 7.19323159
Si 0.74750627 7.20880149 7.73890178
Si 2.95045062 5.42861033 9.82127048
Si 9.57677623 4.23196036 6.82430747
Si 7.18836738 5.73993389 4.80396920
Si 6.30792037 9.12337212 9.45977081
Si 7.51888609 4.38491906 9.30912599
Si 6.42140140 9.31785545 2.55729039
Si 2.87047817 7.45551265 5.58794912
Si 5.29283081 3.76613444 1.74965238
Si 6.24206144 1.10285385 5.17959147
Si 5.98074314 3.02231523 3.87326705
Si 8.30032681 6.90157846 0.20682303
Si 8.75046712 7.06832413 2.47373611
Si 1.14526494 5.31426601 2.31311786
Si 4.10883469 8.36521782 1.44652239
Si 6.23809663 6.66736498 2.71030451
Si 1.58724711 8.41556130 2.94019513
Si 7.00725512 8.26050886 4.50795512
Si 4.03913297 2.92185536 6.20443169
Si 0.98693263 1.30135696 3.13960479
Si 2.14067348 2.42826547 8.56039100
Si 9.92217690 2.50690964 1.09442329
Si 6.40877426 1.42314077 8.20117300
Si 4.15153570 0.86151437 0.95486812
Si 5.09096506 8.49991309 6.44846644
Si 1.66471909 4.19563233 4.41270601
O 9.44778002 0.89715047 6.44987924
O 6.38100541 8.35690590 5.86010865
O 5.82111206 9.48914156 7.85188724
O 2.11435451 5.85883515 5.09607962
O 4.13984092 5.76699476 8.64372413
O 7.51022643 7.96916065 9.08366649
O 8.55467471 3.53617129 0.13574800
O 1.87458683 5.25236460 1.07270351
O 9.04980349 7.95097911 1.15965725
O 2.99363190 3.21387467 7.39055810
O 7.97213118 5.46186961 0.23521116
O 8.86354803 2.35779860 2.73674432
O 9.52127436 6.77533523 8.84111320
O 3.32948810 1.82627061 9.56314162
O 0.83539905 8.86393547 1.68143806
O 5.29624825 1.44618006 3.73579426
O 9.61556340 5.87781541 1.68121720
O 1.38727417 8.85294454 8.91304744
O 0.78417985 1.37439140 1.71768653
O 5.20561819 7.50410495 2.06581687
O 5.55130791 7.46469263 7.59761053
O 4.90440496 9.78103881 2.10091467
O 7.22814245 6.83404314 1.31453063
O 3.16317067 3.65908130 5.11568983
O 3.49990776 8.75186369 6.75986482
O 1.09075940 2.58084981 0.00034389
O 5.50121631 5.31515937 2.51303021
O 5.55761721 8.91669709 4.03337597
O 9.28298641 0.90031686 0.27110043
O 3.76988985 7.02502526 4.34266743
O 3.55418155 6.97485194 0.65634071
O 8.32611371 7.46314486 5.16473462
O 6.61862471 4.25371532 4.47642795
O 3.94578585 4.44074064 1.02027272
O 0.41233935 5.19306236 3.72919299
O 1.66552792 1.12717959 8.05016432
O 3.60249616 6.41138855 6.73874969
O 1.71547980 7.67802298 6.55802157
O 6.04874091 6.56145305 4.30996359
O 7.83181660 5.87965093 3.36957510
O 7.17672411 2.11473864 4.36365110
O 4.43622777 3.58343843 3.19419312
O 1.64174944 0.91316849 4.51680415
O 1.01734209 4.06344107 5.86719043
O 6.60444523 5.48220433 8.25890577
O 7.03786484 0.95309661 2.58819258
O 5.21743270 2.56971680 5.34878402
O 7.38641353 9.84185068 4.89678759
O 9.48164062 8.05962135 7.07107280
O 8.27195867 4.46151112 7.96502046
O 3.07147330 8.44640557 2.59994751
O 5.12477509 4.75323016 6.30614403
O 5.14909683 0.00246497 5.50588291
O 9.60413158 7.66594630 3.49687075
O 6.45039303 2.99098351 2.43188331
O 4.73002400 2.46228028 0.72756559
O 7.03414318 9.10286499 1.02162373
O 1.73208447 6.33024949 8.80352709
O 6.52115225 5.89878685 6.21179856
O 6.14731776 4.28308341 0.37605969
O 6.97874734 1.14123930 6.69039198
O 7.43248826 8.16558515 2.90725206
O 2.55213893 3.98235555 9.14037816
O 4.99129964 8.35606014 0.14926820
O 0.99193839 2.75466596 3.67999393
O 3.41964753 1.14615963 6.10868561
O 0.56714558 3.22824164 7.95128934
O 0.33950347 3.99578637 1.71219271
O 2.54576869 4.34570599 3.04574551
O 3.19151177 1.30184302 2.12603403
O 2.18243990 8.78496372 4.64056316
O 0.31169333 9.89696551 3.48421289
O 8.64000427 5.04250543 5.71893019
O 5.32217747 0.59846430 9.71479762
O 1.75964008 6.78281954 2.66713529
O 3.39507098 9.37314492 0.42188892
O 8.99303513 3.01464346 6.34771845
O 6.81011365 3.15300021 8.64430348
O 4.92475528 2.08779629 7.90667163
O 0.16119930 5.74090977 7.08097611
O 7.58523747 0.38961666 8.77456190
135
Time=500000.00000301 pbc="T T T" Lattice="9.94194835 0.00000000 0.00000000 0.00000000 9.94194835 0.00000000 0.00000000 0.00000000 9.94194835" energy=-783.43487662 virial="808.89410740 21.92864748 28.73462296 21.92864748 772.07284721 6.91861061 28.73462296 6.91861061 760.55362887" stress="0.87050011 0.02231502 0.02924092 0.02231502 0.83303007 0.00704051 0.02924092 0.00704051 0.82130789" Properties=species:S:1:pos:R:3
Ca 8.91218372 2.34536563 8.57884388
Ca 0.24167815 6.25595406 4.89402755
Ca 4.10178802 2.27483478 3.75982340
Ca 9.90994935 0.13274413 8.73363815
Ca 7.45880929 4.85583762 1.99358710
Ca 6.72158277 2.15475882 0.36760778
Ca 8.73498982 1.04447400 5.78694383
Ca 5.51850433 6.34683014 0.42583022
Ca 1.03844524 7.93339101 0.60418165
Ca 3.17581197 6.26804605 2.57822313
Ca 3.35563389 0.64866383 8.15511160
Ca 6.91313298 3.76671882 6.21317468
Ca 1.04041550 0.39606589 0.76713747
Ca 7.96144505 6.33909703 7.29011783
Ca 2.10213990 3.23532490 1.45447796
Ca 3.04418317 7.60974957 8.13223881
Ca 3.63994852 9.89209575 3.47007856
Ca 9.62485404 9.12545676 4.68442156
Ca 1.67928265 9.30636397 6.30147149
Ca 4.82391136 4.64571919 4.54785414
Ca 9.84204392 5.13767135 9.41167308
Ca 4.67288782 3.49937083 8.87021421
Ca 9.47137570 3.24789018 4.25314663
Ca 2.32907477 4.59889379 7.28023725
Ca 7.98160111 8.81812845 7.07993000
Ca 1.48119509 2.14402943 6.08896759
Ca 8.87079760 9.94050379 1.95386975
Si 4.98882554 5.81644544 7.20805084
Si 0.66475920 7.15401782 7.52041448
Si 2.65826135 5.48670579 9.83858904
Si 9.56191522 4.31157736 6.87112370
Si 7.41092638 5.99155172 4.85654429
Si 6.34000428 9.14948328 9.37664633
Si 7.07746148 4.43121977 9.06330476
Si 6.18005212 0.00776645 2.42803569
Si 2.79795016 7.06619576 5.24013505
Si 4.70910605 3.92732245 1.81115804
Si 6.41189679 1.00730499 5.16451034
Si 7.01568621 2.63009893 3.11972131
Si 8.49174929 7.55296883 9.79418794
Si 8.28911556 7.27969723 2.61017150
Si 0.48895187 5.47157363 1.99339536
Si 3.71351859 8.71202228 0.88594868
Si 5.14150023 7.40285063 3.35622579
Si 1.64049446 8.03064847 3.24308731
Si 6.96222769 8.29009276 4.36619224
Si 4.14535586 2.61257066 6.28238330
Si 1.07999929 1.10916740 3.24529638
Si 1.60586456 2.83419692 8.83911983
Si 9.19760611 2.62628006 1.03040784
Si 6.24483261 0.99096453 7.98429662
Si 3.73831149 1.18151050 0.80475176
Si 5.09315106 8.44437170 6.13725853
Si 2.06643581 4.01910589 3.94862066
O 9.89836268 0.10665940 6.77196741
O 8.20911668 7.30011382 4.57535352
O 6.07296844 9.27692720 7.73574649
O 2.25314673 5.76540579 4.38183786
O 3.97913420 5.40634627 8.48400469
O 7.14627255 7.85294724 8.94371363
O 8.23934449 3.76146797 0.40787165
O 1.82756949 5.45768330 1.28536672
O 9.00329942 8.98694919 0.20667744
O 2.89216472 2.80673119 7.66372399
O 7.67879852 5.79595339 9.67808648
O 9.69417634 1.09373590 4.19973157
O 9.33226061 7.53611918 8.41491045
O 2.76138651 1.91304692 9.74411525
O 2.39324413 8.81255502 1.86040074
O 5.65830213 0.95911767 3.54740900
O 9.28036552 6.26731424 0.98819990
O 1.55952083 8.58890566 8.16370393
O 2.54003846 1.32873178 2.15599028
O 7.60209569 8.86744412 2.99338433
O 5.19420355 7.59035715 7.52292338
O 4.55568636 9.81973239 1.52143141
O 7.23986208 7.22878196 1.12768272
O 3.21603235 3.46075529 5.42757041
O 3.51808938 8.49842403 6.13888800
O 0.67100913 2.33155188 0.09110137
O 5.17073811 5.34914997 2.46012658
O 6.54674983 7.83984787 5.69032636
O 8.62041765 1.39774094 0.24126829
O 6.21265763 5.53564927 5.96997881
O 3.35635597 7.06678038 0.49065402
O 9.49760788 8.07153171 2.87934679
O 7.11099056 4.69903533 3.88820760
O 3.84306686 4.66438563 0.57324822
O 8.93029018 5.81495742 3.13226699
O 1.46053089 1.19043277 8.19202266
O 3.68666689 6.09100293 6.30012011
O 1.69460482 6.62731016 6.46726728
O 4.76114228 6.80405540 4.72127097
O 6.53035941 6.97713227 3.36089410
O 7.51851560 2.22684731 4.56055460
O 3.40452257 4.14757988 3.05937378
O 3.03995819 7.86597032 3.72290003
O 1.09194287 4.30316564 5.79058353
O 5.92915187 4.01520949 0.49798825
O 7.45589643 1.32071024 2.40329718
O 5.37812389 2.46801411 5.17108974
O 7.56102997 9.77310988 4.86418313
O 9.77162133 8.03977829 6.44395855
O 8.34810021 4.31586930 8.00625203
O 4.80279155 7.67250656 1.95640996
O 5.07029441 4.08122394 6.92839499
O 5.25031971 0.12642350 5.44678625
O 2.10261433 0.21773180 4.36735383
O 5.74150808 3.22803372 2.74234458
O 4.38034662 2.41014473 1.61103311
O 6.76950138 9.26083217 1.00554596
O 1.53915674 6.61491311 9.28038465
O 6.17862285 5.51202244 8.20669700
O 8.53902402 3.10805181 2.49074131
O 7.01611968 1.38921022 6.64201175
O 0.87502977 9.63507772 2.65687206
O 1.86120723 4.18006278 9.57680078
O 4.96069015 8.40257002 9.90601027
O 1.67913583 2.46988511 3.84331712
O 3.40667948 1.29368822 5.81329741
O 0.43279121 3.49303494 7.91740429
O 0.13153606 4.03541628 1.52615807
O 0.70772843 4.48597245 3.42124247
O 1.33362741 7.95822842 4.74752939
O 5.48161887 8.80806313 3.72549668
O 0.22392671 1.56673269 2.03170855
O 8.70861524 5.10109492 5.48376348
O 5.25084578 0.88500068 9.68854680
O 1.00905138 6.66352726 2.65154490
O 2.92287487 9.56122095 9.82423706
O 8.87018519 3.00344874 6.19598863
O 6.86358333 2.86817141 8.35465307
O 5.12917055 1.87531797 7.58652993
O 0.38936982 5.54477943 7.24876406
O 7.42340358 0.58435903 9.05959337
135
Time=600000.00000594 pbc="T T T" Lattice="9.94194835 0.00000000 0.00000000 0.00000000 9.94194835 0.00000000 0.00000000 0.00000000 9.94194835" energy=-787.25072037 virial="754.87795612 -19.25628764 33.50043459 -19.25628764 765.51631301 19.80670340 33.50043459 19.80670340 821.99010631" stress="0.81553222 -0.01959558 0.03409070 -0.01959558 0.82635802 0.02015569 0.03409070 0.02015569 0.88382686" Properties=species:S:1:pos:R:3
Ca 8.92069155 2.16233400 7.99253501
Ca 0.71382975 6.31935443 4.64987807
Ca 3.95880397 2.35188055 3.88932008
Ca 9.63004142 9.57836234 8.76687033
Ca 7.34588947 4.91374454 1.86226424
Ca 6.34235093 1.90773369 0.61356002
Ca 9.03612163 1.29171857 5.25998806
Ca 5.58463625 6.33356374 0.04554179
Ca 1.27500751 7.82623408 0.28040069
Ca 3.16635194 6.18907962 2.17347225
Ca 3.32411426 0.63321517 8.73231834
Ca 6.88678749 3.46583290 6.34334273
Ca 0.75323557 0.93372980 0.52195726
Ca 7.88947134 6.70576753 7.57573202
Ca 1.60961261 3.31469727 1.69319317
Ca 3.45621261 7.61321189 8.35232845
Ca 3.42263959 9.74847244 4.12478152
Ca 9.90987005 8.93267270 4.97933980
Ca 2.00484614 9.62291039 6.56321679
Ca 4.95033205 4.73659926 4.67677606
Ca 0.20753980 4.88010577 9.33491464
Ca 4.61394024 3.51005436 8.77575909
Ca 9.27769598 3.70624591 3.78665928
Ca 2.52640457 5.12253738 6.74031105
Ca 7.77302815 9.37163056 7.10253168
Ca 1.53969013 1.99590104 5.90436667
Ca 8.82786455 0.24766087 1.96026574
Si 5.28666913 5.73486123 7.12205564
Si 0.37803843 7.29342197 7.66793627
Si 2.58202297 5.49402057 9.72345860
Si 0.12072775 4.41932966 6.61211253
Si 7.86133566 5.96366906 5.10306809
Si 6.27489902 9.15275805 9.25218779
Si 7.32279467 4.38980568 8.94640104
Si 6.06529293 9.47458678 2.21345913
Si 3.02852256 7.05296163 5.12300172
Si 4.60760816 4.16303700 1.70040683
Si 6.46800714 1.08110601 5.17947774
Si 6.63534272 2.14286205 3.06953077
Si 8.25618136 7.22379100 0.30956595
Si 8.16821375 7.23368041 2.82742714
Si 0.29845769 5.47042551 2.16971432
Si 3.84131372 8.80378830 0.92532959
Si 5.30367886 7.11586704 2.97299193
Si 1.24079028 8.26590252 2.69125267
Si 6.89737700 8.49010644 4.44594284
Si 3.96433695 2.47390577 6.42938935
Si 0.97321757 1.13579997 3.24144258
Si 1.68738727 2.87398777 8.76124159
Si 8.88399421 2.76085867 0.98627082
Si 6.29598950 1.31387352 7.76087510
Si 3.68422540 1.44301466 0.91664513
Si 4.94997327 8.58060555 6.51907013
Si 2.20438698 3.96007807 4.02781165
O 9.88847839 0.28786501 6.79007565
O 6.31719572 7.76729471 5.74113254
O 5.85039580 9.40084964 7.65402994
O 2.41266353 5.42644812 4.84165008
O 3.75819322 5.62815201 8.46129508
O 7.17217089 8.02218688 9.13975096
O 8.02514626 3.57478117 0.02176511
O 1.46910616 5.35064103 0.89029788
O 9.21522449 8.47823235 0.68799126
O 2.74828994 2.49772659 7.65902049
O 7.94598558 5.74838498 9.73449500
O 9.52969888 0.48117331 3.88074139
O 9.50149308 6.74726684 8.83916750
O 2.78250240 2.36031517 0.00142858
O 2.98722309 8.28888354 2.42730232
O 6.65179908 6.74975424 3.72121173
O 9.41148924 6.51443699 1.15624919
O 1.47330256 8.58798148 8.44664055
O 2.67705475 1.60435635 2.37268655
O 7.47130449 8.77454605 2.84924200
O 5.34450822 7.39038571 7.87977247
O 4.72960572 0.16369222 1.50615764
O 7.24930097 6.99566306 1.46109470
O 3.17948780 3.41234362 5.20777291
O 3.81810773 9.37030219 7.15161035
O 0.55656764 2.87669124 0.39323720
O 5.26092039 5.82233733 2.21321626
O 3.78077939 8.37795501 5.16735734
O 8.50198470 1.25957523 0.30160230
O 6.51201902 5.55858829 5.92256750
O 3.45987831 7.06863491 0.44720521
O 9.65615573 8.19644840 2.98182010
O 7.31550458 2.36321520 4.48366541
O 3.52171424 4.73183732 0.62150008
O 9.09569719 5.87952219 3.29809884
O 1.09327045 1.37779038 8.53316328
O 4.20073574 6.44918981 6.08385158
O 1.95051454 7.42318490 6.45283613
O 4.14605038 6.39170449 3.92612160
O 8.32271189 7.48258185 4.80881833
O 6.94698337 0.87469543 2.24497014
O 3.38203538 4.05663899 2.86849204
O 5.13766791 7.95796828 1.64827518
O 1.26866126 4.02433338 5.47748532
O 5.85231623 4.23986445 0.51870660