135
Time=99999.99999996 pbc="T T T" Lattice="12.52607000 0.00000000 0.00000000 0.00000000 12.52607000 0.00000000 0.00000000 0.00000000 12.52607000" energy=-902.67892656 virial="53.28021139 4.75045228 -16.03761187 4.75045228 43.92616934 42.09076573 -16.03761187 42.09076573 35.79208861" stress="0.05078628 0.00241708 -0.00816009 0.00241708 0.04602685 0.02141620 -0.00816009 0.02141620 0.04188815" Properties=species:S:1:pos:R:3
Ca 7.09754835 5.11442821 2.64731316
Ca 5.16780210 3.81780394 5.05279535
Ca 12.12837926 5.74264047 2.33143717
Ca 12.51591801 8.35439276 9.14849623
Ca 9.17996977 2.65254151 0.97683618
Ca 8.75331984 8.89700057 8.30304044
Ca 1.18600200 8.97690882 4.66322824
Ca 5.55098199 1.88075406 1.49063342
Ca 1.28220787 5.65578790 5.78141823
Ca 4.76169587 11.03264274 10.79980702
Ca 7.60201901 0.40062585 10.88317196
Ca 1.96088201 5.64689681 12.30415110
Ca 9.84859454 12.21674991 7.07641193
Ca 11.00080194 12.16597172 12.30990551
Ca 8.78472712 4.79037063 10.38740476
Ca 4.75981633 7.78218565 0.20559736
Ca 10.13758714 8.75206377 3.04976792
Ca 7.61482140 6.76351965 6.22753161
Ca 0.12419356 2.96907595 6.88929491
Ca 6.40848417 10.04607605 3.95019834
Ca 5.88798974 4.78587078 8.23301838
Ca 1.59754296 1.58859849 11.54832262
Ca 3.51204413 7.55880781 8.40438241
Ca 12.26798782 0.23944000 3.90346359
Ca 0.69971656 11.89778567 8.62440174
Ca 2.34586095 2.63970696 1.62665125
Ca 8.61590629 8.79270992 12.22770309
Si 1.89854559 9.14965144 11.12849116
Si 7.20391992 6.99633259 10.30898676
Si 10.78701839 9.50248358 6.16447683
Si 11.82828785 8.61718549 0.31377205
Si 8.88909663 1.71263789 4.80321860
Si 7.83305910 2.29998062 8.26431971
Si 2.72193866 6.59539708 3.26029693
Si 11.86609652 5.86100472 8.19651627
Si 0.75711913 10.88423319 2.13123139
Si 8.09247606 12.42612272 1.66062173
Si 2.68392504 11.28713075 0.20522621
Si 10.25028299 6.60345576 5.04270413
Si 10.77477004 0.65561191 9.48151548
Si 3.56703861 3.75149021 11.29083082
Si 2.04658977 2.03172815 4.37509310
Si 5.78619339 10.59483285 7.97700366
Si 11.76176231 3.18901550 0.95459705
Si 8.27967376 3.99652016 5.42640487
Si 6.43691382 0.80652952 3.84422229
Si 6.25393699 10.26049469 0.96515269
Si 3.29082119 4.10329339 8.62563138
Si 4.72156839 1.05116124 8.34076113
Si 3.54980131 10.26924428 6.59247472
Si 2.40133483 1.31052546 6.62199371
Si 6.33879977 4.97601664 12.52261765
Si 4.27134734 7.55039566 5.10062546
Si 12.14720085 3.48859509 10.55132568
O 2.88105651 6.96786157 1.65744741
O 7.52517838 6.06198432 11.70523006
O 4.29539876 6.15981595 3.72760506
O 9.42514949 5.30520597 5.80232267
O 3.96838368 0.22958184 9.28885695
O 9.32230070 2.68281149 5.93875241
O 12.18889278 1.88852498 10.06520138
O 7.22769208 3.52359663 6.91523385
O 8.72163521 12.48708727 0.32067483
O 9.68878005 8.03241745 5.81817230
O 8.45010798 2.94910780 9.65470202
O 11.14304384 7.12881807 0.66910256
O 6.75741008 4.97940229 4.67856679
O 4.19285595 9.44375110 8.22338643
O 3.46709497 2.84158288 3.56563712
O 2.51684586 7.60015808 4.53038764
O 8.59409602 7.80233854 10.17262642
O 6.12037186 11.27999240 9.36009947
O 0.68972645 3.46951404 11.64165101
O 0.56950160 10.91851511 3.65248144
O 10.71360990 10.43514481 4.82691737
O 7.29816808 6.08398300 8.87094284
O 0.55697197 4.22449676 1.04771672
O 11.09886413 11.46731703 9.10935119
O 4.73933713 2.40438644 11.60771670
O 3.69763640 9.34254212 5.18318258
O 6.06990919 7.95452588 10.28442440
O 0.00099987 9.03456803 2.06425952
O 4.32468169 7.15310539 6.63060086
O 6.23286638 12.35147709 0.72460571
O 11.96459167 4.97822097 6.66829875
O 6.16085561 8.12327707 5.01748460
O 7.33026152 10.36385825 11.65597103
O 2.14791680 10.83702926 11.17817994
O 1.86901454 9.40387756 9.57268552
O 5.35282991 9.88987014 2.39962622
O 0.53955856 2.41592634 4.12381864
O 10.54844378 9.78536326 11.79609455
O 2.12111338 10.19415357 1.27796427
O 1.61304122 5.77318587 3.56435647
O 9.85710781 0.78328751 10.83489586
O 2.24303985 2.86375619 6.01472475
O 0.17358453 8.29671095 11.64256581
O 3.11176884 8.04408386 11.51823481
O 5.88076409 2.03838218 4.53315043
O 7.57429656 1.01480464 2.49800134
O 4.67891224 11.34370860 6.91227755
O 9.71288231 6.51827895 3.45224359
O 10.50159311 6.81522124 8.31195442
O 3.95547910 1.01209672 7.02547267
O 7.10417619 9.74021761 7.62832692
O 7.70465401 0.40249084 4.94451860
O 3.48290586 4.16138021 0.25038909
O 2.02294316 0.47645663 5.02081547
O 9.70314635 10.12918143 7.12884920
O 2.01913023 0.13204323 1.01113751
O 4.53099338 3.05907864 8.06478457
O 11.26248307 1.08729885 7.56645996
O 11.99877138 4.37663841 9.29927295
O 5.29396530 0.11591214 3.36386997
O 2.71825861 4.92452354 7.55534405
O 6.51440347 1.20043158 8.47193566
O 11.74577166 7.32304637 4.40850700
O 11.01812261 3.72898073 11.80481248
O 3.44625866 4.77130452 10.16665319
O 4.26069015 11.80164277 0.21020992
O 11.65229184 1.46769734 0.72781443
O 11.19329512 3.95114589 2.41630658
O 8.43556759 11.05330052 2.55062663
O 11.90378874 11.51287370 1.40238969
O 10.11788707 1.19538309 4.00983941
O 12.14772133 9.01871038 6.65091576
O 7.89195591 3.06980468 4.07459617
O 0.78286873 6.63960633 8.07510752
O 5.40634192 5.73689843 0.88297073
O 6.01955232 4.58306571 10.79081044
O 7.19719702 3.70144180 0.76611784
O 1.45104667 1.13299387 7.90398840
O 2.29724370 2.91841415 9.78784113
O 8.83511341 0.76154784 8.27642736
O 1.89144208 10.48861597 7.08264629
135
Time=199999.99999918 pbc="T T T" Lattice="12.52607000 0.00000000 0.00000000 0.00000000 12.52607000 0.00000000 0.00000000 0.00000000 12.52607000" energy=-901.21853124 virial="-19.84966730 20.38376512 -12.83815086 20.38376512 20.35078656 25.21321151 -12.83815086 25.21321151 1.89186344" stress="0.01357707 0.01037146 -0.00653218 0.01037146 0.03403146 0.01282873 -0.00653218 0.01282873 0.02463938" Properties=species:S:1:pos:R:3
Ca 7.80130766 4.69956723 0.00159863
Ca 8.73307377 8.71727626 10.59382551
Ca 8.48241785 1.41815898 12.39022072
Ca 6.04536516 4.46666034 9.42187268
Ca 10.34686555 11.77158390 9.94428456
Ca 2.10239450 3.76408140 12.31225473
Ca 4.21005676 0.22355808 0.85527692
Ca 3.30491734 7.69228852 7.06626159
Ca 8.94150516 10.84063540 1.19367188
Ca 3.60105164 12.18050139 9.40589835
Ca 7.84966355 3.20940559 5.89761997
Ca 12.49851186 8.95267081 9.09692455
Ca 4.84214230 7.88894027 11.34221460
Ca 9.30193957 7.08523262 5.27586243
Ca 12.30139563 7.71091531 0.60141751
Ca 2.66223897 9.99371881 1.08826520
Ca 11.44055435 1.57926728 11.63957436
Ca 9.24174738 6.78670929 8.24679344
Ca 1.73615346 1.40050229 6.10201262
Ca 12.34950191 5.14029107 10.32830915
Ca 7.28346807 9.74919583 6.26218000
Ca 12.27975846 1.52043976 2.72672253
Ca 5.96137890 4.27989011 3.07345250
Ca 11.42161346 0.72081503 6.03297358
Ca 12.27897855 8.05424717 5.37098197
Ca 4.15874822 12.04644091 4.46916851
Ca 11.00841308 4.94640751 3.35261511
Si 2.56255100 5.77847366 9.49795787
Si 5.28784220 2.18624899 10.93976016
Si 3.36455990 4.48317043 5.70784652
Si 7.13018312 0.45184173 3.33600902
Si 0.62812274 1.74575203 9.08598936
Si 6.01865012 10.49061180 0.30860398
Si 3.44351991 3.10222603 8.18178410
Si 1.62922865 10.61598380 6.71840743
Si 4.26253308 7.96858745 3.16854441
Si 9.54809873 7.15768693 2.34315854
Si 1.62464959 0.53348684 11.55644786
Si 0.90606763 4.42947656 5.18518392
Si 9.08900249 10.93069832 4.59526087
Si 0.12490328 10.64074935 11.67049444
Si 6.15454913 6.48694587 5.58301551
Si 3.95308920 9.74297360 8.78606856
Si 3.36196203 5.91228924 0.83232687
Si 6.22239755 7.77030162 8.36697284
Si 8.80166946 2.71967999 3.11939479
Si 9.70415279 10.70285244 7.54067619
Si 2.13593673 7.01131863 3.02208820
Si 9.26038100 3.46301014 8.81330171
Si 1.37593577 11.83244631 3.75748342
Si 9.83951569 6.39743963 11.81949276
Si 11.53104627 11.31169184 2.11958658
Si 11.18832650 3.55772836 7.15618011
Si 5.74350964 0.75657138 7.01274927
O 9.94446295 2.64304794 7.13024893
O 5.96061399 6.74936359 7.20513011
O 0.66850525 11.99266099 7.16333054
O 4.18926050 6.44390218 9.46527438
O 1.74575686 5.00010981 6.37495819
O 3.96335922 3.37300024 6.76570301
O 2.41174296 12.29299830 2.74338299
O 0.93993877 1.76799626 12.41419015
O 1.08799376 9.25167786 7.09868962
O 9.42878827 12.39094599 6.04212187
O 1.10998213 5.70707654 4.14219168
O 1.67355745 10.04678133 11.29121488
O 0.15959897 2.90851611 4.75410249
O 10.59524715 6.42428691 1.35814150
O 5.42083348 0.36592785 2.86902374
O 5.76290379 11.86471216 7.53247398
O 9.97050573 8.62460421 1.11418553
O 10.52212206 7.71950559 6.97081657
O 0.51263177 0.03940712 4.88731685
O 3.74578867 2.15703979 11.69742145
O 3.03694349 10.70483284 7.78899282
O 0.20445559 10.84042749 3.30959361
O 11.14443593 10.29836222 7.58391337
O 1.07066504 8.12356049 2.91852231
O 8.44517961 10.40242733 8.54718880
O 11.38189400 9.96972067 11.22280480
O 0.15479242 3.06215263 10.31754090
O 11.86877362 4.71135481 5.89322024
O 6.90237512 11.74509250 0.47320229
O 4.47533907 10.52624764 0.15068998
O 0.13853151 10.49742374 1.09290062
O 4.41445629 5.78854646 5.52420336
O 1.56446825 6.05849657 0.66360936
O 2.02502687 5.49981584 11.00101339
O 7.39584127 2.10665897 4.08301855
O 7.00889443 1.67475229 7.29540440
O 9.00037216 2.63344700 10.26396792
O 6.62918025 9.07200077 12.03826370
O 3.01868018 7.70959444 4.31639260
O 7.99140238 6.61217810 2.40506918
O 11.90780505 0.45377662 8.67391538
O 7.10863279 7.18644844 9.49526590
O 3.06171676 4.48958464 8.75347284
O 3.49753026 7.45319464 1.70458554
O 11.35379044 0.43740236 0.96374683
O 7.34507724 11.27218596 4.40356225
O 9.50276429 3.27352153 4.45897650
O 10.22698725 2.32882147 2.52471056
O 1.11446199 6.41794569 8.89785964
O 5.25047814 8.87578594 7.53434683
O 6.24578418 3.61745868 11.54028285
O 10.82450438 4.28389972 8.73779261
O 2.41587700 1.84081770 8.71636543
O 8.08004506 0.77201225 2.09091655
O 4.62811064 9.60744907 2.88077726
O 7.05980407 5.50160897 4.90215452
O 2.99490043 8.70328494 9.43374463
O 5.05620475 2.61235040 9.09332708
O 5.65079323 8.16891923 5.22461921
O 9.31763574 11.93816801 11.81690666
O 5.66951935 6.69708000 3.16426516
O 7.56553498 3.46048075 2.06708627
O 10.31611044 4.91533080 11.77892251
O 3.88046182 4.47947183 1.30667077
O 10.84431672 7.12359700 3.49560701
O 10.77668296 7.30591837 10.75646742
O 4.54233370 6.37265959 0.08612959
O 0.08551070 12.35810580 11.47052876
O 9.90835262 11.79510574 3.61316637
O 5.00296387 10.30686321 9.82131784
O 2.46952351 3.52951637 4.71108422
O 1.65200097 0.23056269 9.84423130
O 3.03149833 12.15148693 11.79906005
O 0.11586866 2.78954653 7.66455870
O 2.39580102 11.22289630 5.27396956
O 8.00671973 8.26708456 7.25142207
O 4.39794729 1.04455165 6.01927886
O 8.34428471 5.00175377 8.10268245
O 6.48016427 0.89930190 11.05576393
O 9.37961714 9.65592298 5.35752151
O 8.34198454 6.37392462 11.31558565
135
Time=299999.99999840 pbc="T T T" Lattice="12.52607000 0.00000000 0.00000000 0.00000000 12.52607000 0.00000000 0.00000000 0.00000000 12.52607000" energy=-894.49981809 virial="88.37259210 28.45873130 -13.82043278 28.45873130 31.06489543 -7.86445746 -13.82043278 -7.86445746 59.74249240" stress="0.06864162 0.01448008 -0.00703197 0.01448008 0.03948290 -0.00400151 -0.00703197 -0.00400151 0.05407435" Properties=species:S:1:pos:R:3
Ca 10.22926003 2.59478599 10.44262197
Ca 3.30082350 8.94168946 7.44714223
Ca 1.38287244 3.94151762 8.17282757
Ca 4.54981418 11.49685522 0.05546903
Ca 0.89881578 0.34755916 9.65473167
Ca 10.15525928 11.58556998 8.26017008
Ca 6.91376742 2.25538814 8.22139482
Ca 5.80982471 11.21269988 5.54008835
Ca 3.13304313 7.08027080 12.22632121
Ca 1.69554704 1.34622028 4.11639858
Ca 0.09849331 8.26167216 1.92296259
Ca 7.87643491 11.29958192 1.73218775
Ca 11.55903878 2.90308208 2.59380551
Ca 2.67784300 0.00724788 7.54120594
Ca 9.19247797 9.00079872 0.70090235
Ca 11.28431971 5.01287078 12.44092823
Ca 1.66666247 11.53571441 1.16749172
Ca 6.27029878 8.36561525 10.71073755
Ca 8.88618314 0.73644562 4.92888137
Ca 6.12194172 2.89160281 11.31572880
Ca 9.65916854 8.33337689 8.90591584
Ca 5.24744731 5.63291167 7.38678610
Ca 9.66864808 5.60318069 5.64558018
Ca 0.00389802 7.21416300 5.94253329
Ca 3.72366770 3.18533260 3.03867000
Ca 8.30518995 8.60872872 3.24719272
Ca 0.18634540 7.69532502 10.25592945
Si 7.88089874 3.02330708 2.20167328
Si 5.02327071 1.43158721 5.59205333
Si 10.67599511 6.46546642 2.83594788
Si 11.91242358 10.51181183 11.12683885
Si 0.10480138 9.76757648 8.36220322
Si 5.78061686 8.41877382 5.06183173
Si 5.87858899 8.06664156 1.53799940
Si 7.44607955 10.10902792 8.67293455
Si 5.74048485 1.24172696 1.82182625
Si 9.65119771 5.34648751 8.44294475
Si 4.84282855 11.41021416 9.27200896
Si 7.06148643 5.32627127 4.20049895
Si 10.65780813 11.78357871 0.55258800
Si 7.43981521 12.38487509 10.64195862
Si 6.84209789 5.86336627 9.81901711
Si 2.62955603 9.79561497 10.74319501
Si 10.45029948 2.39673194 7.51268940
Si 10.95468864 10.77430923 3.44574996
Si 3.83683894 2.18191916 8.77457717
Si 0.81187595 2.03339064 0.16952182
Si 1.37119066 5.13227749 1.65158014
Si 1.57380896 9.75508925 4.00688659
Si 2.28153637 6.62580710 3.22471319
Si 7.34841741 5.70125675 0.04949296
Si 12.17414175 0.91908505 5.85508685
Si 2.52820484 5.14582007 5.40691612
Si 1.78151837 3.98678657 11.22488269
O 2.96725175 5.84856159 2.00250846
O 6.32915657 11.15868567 9.43355491
O 10.81167055 4.73680920 9.87168481
O 10.76230451 7.39760912 1.44716226
O 5.23767871 7.88991662 3.08294807
O 6.70881501 0.95193797 5.68828554
O 7.87252493 1.29533642 10.11065441
O 7.41258800 4.65156666 5.75450054
O 11.14566866 1.58493615 8.77289654
O 9.50563910 3.55558797 8.29705756
O 2.10233195 8.15777715 2.71805780
O 2.00907754 9.53647595 5.47935347
O 4.77907361 9.19971197 5.74772698
O 10.61819110 6.18552615 7.47303340
O 1.33673492 4.06505797 5.74757390
O 11.98300470 2.61577907 0.79717207
O 4.01451317 12.26889406 10.66261134
O 2.48142127 2.00780850 8.83868837
O 10.15874051 11.21906668 4.66124487
O 6.70081303 4.30508118 3.05452669
O 9.15191958 2.35795900 2.67373323
O 4.78206023 1.91839567 4.17449761
O 9.85623781 9.66082594 2.83884838
O 4.23527845 2.33721527 10.38039783
O 2.38119629 10.02977406 2.74743923
O 3.78631669 4.71115560 4.36871156
O 12.41506613 9.91117138 3.59316156
O 1.15787907 0.63106386 11.85794755
O 0.45909084 12.02374094 5.32067517
O 4.49413813 2.61332649 7.12190565
O 0.57539005 8.25970068 8.47323226
O 3.95890450 0.09213252 5.80927577
O 7.28111716 6.80119800 10.99277256
O 11.29940142 11.83415047 1.91230152
O 11.47332923 9.87701441 7.30306270
O 6.66615997 2.13779836 0.79740096
O 5.60492707 6.96833460 9.05545162
O 7.75153349 10.91024422 7.36823663
O 8.88713938 6.66782817 0.64128396
O 4.12603354 1.52937356 1.58393603
O 7.02216140 9.33033591 4.84991315
O 1.22259341 3.84924490 2.91020670
O 6.39474476 12.09667332 11.69026001
O 0.75302980 6.18742539 2.77063347
O 5.54037238 1.15599697 8.82211984
O 4.34634084 10.90420095 7.69209224
O 2.03584957 3.05152453 0.06917237
O 11.26304399 11.94693057 11.56938482
O 2.42655217 7.88832138 10.24094876
O 8.48078276 6.05442464 3.66697737
O 2.21678711 6.55201744 4.80317593
O 7.50457436 4.18726201 0.41877370
O 3.13890232 10.33788173 12.36185163
O 1.21539245 1.00144113 1.80610779
O 0.46692258 3.30969151 10.57522917
O 9.21197723 11.42184367 0.14207304
O 6.59489140 9.56901107 1.46551891
O 10.77907128 3.58545528 6.58282759
O 7.51510670 8.55115170 8.61816309
O 8.36889006 10.93066990 10.23598966
O 6.47488457 6.72808169 4.90953111
O 12.07958160 10.18635989 0.07851814
O 5.62099314 12.10184717 1.87889602
O 2.30601163 5.36516335 10.69851457
O 2.99210308 5.54881495 7.18441872
O 10.94675035 7.06224508 4.24513204
O 1.46052293 10.64785571 8.38904937
O 4.03587844 9.85286439 9.98806256
O 0.57026590 6.14471289 0.52514003
O 6.58576515 6.38438217 1.22658010
O 8.45670597 6.20691444 9.19534395
O 10.92512271 1.11001175 4.82429179
O 0.61235951 1.49913530 6.92015375
O 6.93277660 4.37371363 10.04590560
O 1.02169993 10.48225443 10.94413380
O 6.94963886 1.24872279 3.44715872
O 9.58759104 0.97096191 7.44087205
O 11.71475260 10.58739698 9.63860994
O 10.78319242 4.89583569 2.28847478
O 5.37678291 7.84814202 0.07221488
O 10.70932708 8.77685603 10.98663643
135
Time=400000.00000008 pbc="T T T" Lattice="12.52607000 0.00000000 0.00000000 0.00000000 12.52607000 0.00000000 0.00000000 0.00000000 12.52607000" energy=-918.94347912 virial="12.06246409 -1.30449471 -52.29148260 -1.30449471 37.37702797 3.16048360 -52.29148260 3.16048360 12.87565533" stress="0.02981428 -0.00066374 -0.02660642 -0.00066374 0.04269458 0.00160809 -0.02660642 0.00160809 0.03022804" Properties=species:S:1:pos:R:3
Ca 7.49220526 2.05056064 3.79596021
Ca 1.43686292 1.93728390 12.17278750
Ca 1.79166417 3.41957690 8.74234270
Ca 3.30350952 6.67087065 1.40952020
Ca 12.40348126 0.44416014 9.49363578
Ca 7.05297313 0.22725458 7.39745621
Ca 5.53533934 5.61271042 8.44505831
Ca 11.06443695 7.03351749 0.24857269
Ca 9.17479502 2.09632222 9.36094135
Ca 9.22224509 10.41101332 0.61426562
Ca 7.92737128 0.20971119 11.13187150
Ca 2.87158635 0.96157556 7.85699557
Ca 4.41864179 0.68522272 4.70611815
Ca 4.89560794 1.70689190 10.46367736
Ca 11.24419174 10.49290753 7.08875129
Ca 6.48672402 11.05468928 2.61937776
Ca 6.37281661 5.81401213 4.58696603
Ca 12.17158721 11.20065362 2.96030508
Ca 1.18330508 5.68012968 3.85710250
Ca 10.94051694 4.02591517 6.87862820
Ca 7.98434767 7.97711686 6.56066839
Ca 7.22805798 3.75026026 11.06701021
Ca 10.28491365 3.32830089 0.25571279
Ca 9.87162301 8.67120503 3.20533735
Ca 4.29918183 3.13666227 1.90430440
Ca 4.46126481 8.30382354 11.34420887
Ca 9.78815885 4.58235120 3.61699916
Si 1.54891907 2.79666968 3.04640441
Si 6.30372899 10.14545278 6.23272916
Si 3.90029914 10.80506602 8.45116043
Si 11.41860022 1.94029196 3.76150863
Si 3.37195445 9.93930899 3.22791857
Si 3.88368104 6.42863124 5.95978783
Si 2.32698879 10.90706219 5.73476139
Si 9.33339213 11.70558763 4.26426582
Si 10.84627436 0.32059850 12.22833194
Si 1.66903839 8.19474817 6.65844517
Si 0.32966046 4.84734399 1.07566083
Si 4.20378207 3.47727918 7.10632929
Si 7.60537465 3.53201009 6.61689138
Si 6.59645615 0.76763958 0.82965993
Si 8.04641474 8.32919920 9.88034133
Si 12.33078614 7.82680267 8.89647200
Si 8.69551002 10.57927380 8.66808388
Si 7.25211524 5.11425697 1.76664490
Si 12.25344351 5.07884456 11.00527710
Si 1.61368164 10.32037934 11.54418247
Si 0.59623051 8.74680718 2.04488577
Si 3.29436613 12.29685965 1.19410223
Si 5.19596920 5.02753007 12.06281100
Si 8.57500746 5.75199521 8.82424420
Si 11.39645769 7.11441750 5.87373937
Si 12.13516921 1.51262816 7.08835031
Si 7.66274823 7.76484432 1.14519708
O 3.97866982 6.38285486 4.41041444
O 5.88057754 11.51956372 5.28763208
O 7.84251633 4.36826793 5.28223252
O 12.22343716 9.17752484 3.46758076
O 9.14439352 7.56494234 0.91284272
O 3.51612687 5.12104191 7.02643643
O 3.13584690 2.82146580 3.72344033
O 6.75059377 5.02318907 12.48760835
O 2.33801370 11.33929974 0.43542688
O 7.76089201 8.98780597 2.20426179
O 11.83150040 5.75840899 1.96302034
O 8.75610359 4.29339746 9.55542144
O 7.91412017 10.39207936 6.98604712
O 1.94414269 9.68256523 2.18172974
O 5.97755897 9.04120845 4.96041597
O 10.00293040 11.41492098 11.56697240
O 11.87009612 9.23244804 9.48160454
O 10.28349547 10.84149406 5.22872346
O 3.76977772 11.77946644 2.71867529
O 5.60272254 6.33746481 6.39712840
O 1.34019250 7.76268828 8.10346511
O 6.75405861 2.22365792 6.24546093
O 4.04846877 9.68788520 9.64469388
O 1.35777574 4.06889004 2.11105497
O 2.14991578 8.88037165 11.63062168
O 4.75302266 0.21604697 0.47502075
O 4.17553911 3.13704431 8.77830668
O 5.67263106 4.78499993 2.54341770
O 9.19167120 10.97659032 2.88032006
O 4.40071751 6.46277999 12.15305925
O 12.34873716 3.41101914 0.63161053
O 6.83726390 1.91360404 12.23335540
O 6.68808124 7.43158168 9.31720339
O 3.27809326 7.66996855 6.83660278
O 0.92735330 5.66479492 12.48908694
O 8.32054873 0.19529444 4.74601492
O 8.28862940 6.06116076 2.54085237
O 8.64106511 6.69146078 10.13275604
O 3.67092951 2.30246149 6.20939120
O 4.42544462 9.08076419 2.34801490
O 5.55393650 5.23004215 10.50551158
O 0.37191404 2.52644521 4.25458663
O 2.82843903 11.53221251 7.12024877
O 9.28013286 12.04433067 8.54332553
O 11.83082631 1.00554707 11.30746082
O 9.44817442 1.53347718 12.21493356
O 12.25347812 12.27256971 7.19789115
O 8.62472197 6.00255653 7.14434051
O 2.38827872 1.17434880 1.45782482
O 11.99834385 8.85321468 0.75892498
O 6.35182373 1.29793861 2.31086191
O 10.62958304 5.11506814 11.54043193
O 1.02173023 2.11136564 7.00191895
O 0.64636989 7.61935104 5.30728960
O 10.88294357 0.39392098 3.77459192
O 9.92018001 7.74258491 5.55625116
O 11.13253468 12.06815345 1.21421119
O 1.40871302 9.78154977 6.33468382
O 7.07504483 1.44834760 9.50110234
O 7.46489164 10.12819533 9.98043509
O 8.03283877 3.56208575 1.74351680
O 11.49333774 5.55978509 5.21874505
O 1.30522367 7.28150794 2.06014223
O 10.64577552 3.25451512 2.88317682
O 11.49876500 7.16869680 7.52264900
O 6.60967340 7.44266448 12.24235529
O 11.32050916 1.96754818 8.31817314
O 1.23191826 11.21238349 10.28526441
O 12.20723742 6.64308927 9.86477686
O 2.65363502 1.69314583 10.19273523
O 3.05886676 9.80986250 4.67017226
O 5.68064852 3.96496923 7.13999442
O 1.85419989 12.12678360 5.17128369
O 4.27503330 3.69859778 12.11909342
O 0.28781739 3.87478765 9.97197672
O 4.37649198 12.52018875 9.15455695
O 7.18279422 11.84104360 0.69147578
O 9.30214685 9.00034517 8.58331049
O 11.23353000 1.99228738 5.73817419
O 5.16385758 10.27138880 7.43681110
O 9.13743853 2.79676940 7.06391577
135
Time=500000.00000301 pbc="T T T" Lattice="12.52607000 0.00000000 0.00000000 0.00000000 12.52607000 0.00000000 0.00000000 0.00000000 12.52607000" energy=-903.80923527 virial="41.09493931 21.90437674 -17.30284503 21.90437674 36.77402604 -28.14996430 -17.30284503 -28.14996430 25.07819398" stress="0.04458629 0.01114516 -0.00880386 0.01114516 0.04238777 -0.01432298 -0.00880386 -0.01432298 0.03643681" Properties=species:S:1:pos:R:3
Ca 3.28275469 1.51888756 0.20902043
Ca 7.39573011 4.18711772 9.23549611
Ca 10.74418825 7.88257618 0.78813606
Ca 6.58265581 0.83960392 11.55160825
Ca 6.79916216 9.74293436 10.29295152
Ca 11.44344507 10.95668779 2.87217390
Ca 9.30024633 1.69801906 2.98253551
Ca 10.11737301 5.74292091 7.31651272
Ca 3.09237877 11.27491514 2.10225268
Ca 9.62035805 1.86807424 6.64077381
Ca 10.98148519 4.99336431 10.46348812
Ca 6.51783991 6.66499909 7.09279837
Ca 3.96380902 3.93095058 8.40486712
Ca 1.49127867 10.40725126 6.40520700
Ca 4.38995069 7.34635476 10.33986023
Ca 1.10139738 11.65037023 10.11030285
Ca 7.29219814 6.04235506 12.32581561
Ca 3.21596577 3.06867337 2.38077872
Ca 3.12277126 5.95667952 1.32557989
Ca 5.12817889 7.92745713 3.58849483
Ca 8.48289986 7.46769004 4.57164163
Ca 3.94875214 12.32701565 7.85481409
Ca 5.85163916 11.00829340 4.61566837
Ca 1.87621531 8.47501503 3.20568624
Ca 11.53796157 1.75658416 11.21088208
Ca 0.35633049 3.16810873 5.09484592
Ca 6.04999069 3.44745373 5.86102482
Si 9.12259150 7.21179662 10.01718538
Si 12.20288937 4.55018061 0.88042992
Si 8.77707661 1.94093727 10.07416025
Si 3.59210570 11.07144911 10.99094415
Si 9.13318271 10.28955877 3.82234333
Si 5.55300480 9.19858252 0.65599843
Si 5.03857920 9.37482512 7.28572935
Si 4.17461421 5.77429247 4.69542372
Si 12.15076581 11.13636981 0.06457402
Si 11.72224994 6.04356419 3.54986144
Si 0.71484935 4.18323750 8.27652665
Si 0.52247142 1.30389959 7.27847275
Si 4.25515400 4.20223293 11.55075748
Si 9.65510529 9.27145137 6.64100796
Si 6.71347662 0.32337026 1.48003034
Si 9.73931621 3.95434205 4.33476085
Si 7.21570097 0.16816244 7.11305413
Si 11.61441152 8.65127216 4.72711257
Si 3.27107901 6.92622318 6.69854762
Si 1.37615332 8.67695531 12.17641892
Si 6.49334507 4.30582289 2.69394503
Si 8.89329964 11.92690866 9.42857185
Si 5.14706253 1.16968395 3.62978692
Si 8.29112132 8.98705208 1.57929361
Si 0.11500505 1.23697428 1.66863781
Si 11.09023567 9.21855924 8.79220137
Si 0.93012827 8.21185637 8.81186791
O 4.77005994 8.26886653 1.48358857
O 5.28923463 1.39180839 1.13243560
O 1.03272510 1.80276870 0.43619790
O 3.43992053 5.44553338 6.34747386
O 0.11416549 0.92695589 8.75998884
O 0.91892737 10.19330447 11.77470744
O 3.77192873 0.62274570 2.74920664
O 1.50181687 12.29046723 6.45794317
O 7.83688654 11.77661294 10.70821387
O 10.87090258 2.87166280 3.86978387
O 11.32939619 3.76489481 12.42761272
O 5.84436956 8.84827561 8.47710982
O 11.80316338 12.32591736 11.39750925
O 11.26904151 9.90883290 0.52023182
O 5.00698554 9.90934309 11.57606243
O 5.72050999 6.24431706 5.02945542
O 3.93919103 3.74776004 0.59173904
O 9.82961285 10.71036494 9.68435477
O 9.10861923 10.20128743 1.35686326
O 4.19338139 4.02080955 4.51376040
O 11.66640537 1.77113394 6.38716918
O 0.46078776 11.85223551 1.60991308
O 6.24759818 0.33270257 2.98530577
O 8.12219655 11.50293801 7.64228908
O 1.69216089 5.25543153 8.78258545
O 2.61677819 10.57414356 9.77785227
O 7.08730143 9.02731192 0.41912827
O 10.19521892 0.51330003 9.14081052
O 5.19180164 2.79666379 10.75863869
O 10.56233820 6.79678945 11.15464345
O 0.67382808 1.52409502 3.18301543
O 5.67154814 9.27421732 5.56058688
O 0.54403422 5.32580210 4.23639740
O 5.87719458 11.96792447 7.12880992
O 2.84709645 7.01940053 4.61394789
O 9.04171919 3.70062551 5.73139564
O 6.83994487 4.48168554 0.98622703
O 5.22079722 0.93249813 5.01956409
O 4.69015265 7.61832647 7.34174159
O 8.98024678 2.26409583 11.66116003
O 8.19142654 0.08442014 1.31380924
O 7.26937128 1.57368357 9.10773572
O 0.38826472 9.74960130 9.05155510
O 3.10527409 5.34787403 11.49145762
O 9.43619158 10.32283104 5.31145906
O 5.91680128 4.42221013 7.74189052
O 1.78241269 8.32613792 10.53549491
O 3.80265341 10.18237494 7.33705821
O 8.94960414 5.56879071 9.62633576
O 1.21349513 4.78657026 1.58714416
O 4.57277633 12.45712107 10.47227896
O 11.82600078 4.69066695 7.43879818
O 2.20805667 7.97496133 7.62556228
O 5.56644991 5.47905483 11.08482055
O 10.89253300 9.92340408 7.43815538
O 5.21996234 5.71813526 2.63569253
O 0.32069646 7.69509588 12.47082782
O 0.07412474 9.87621920 5.02133252
O 12.20233187 7.48657947 8.14927431
O 0.50705820 3.56519995 9.72497670
O 2.86474795 11.88857403 12.20389772
O 9.75171047 11.73304750 3.40052795
O 1.67986079 2.64571874 7.22180835
O 7.90318750 9.52502308 3.29413348
O 5.07330905 10.54740351 1.60755026
O 7.33870991 1.73895149 6.66276539
O 10.67491743 7.83217633 5.85623872
O 12.31074681 7.65328573 3.46575900
O 10.40304651 5.42401595 4.22997442
O 7.53391061 4.74002635 3.79623845
O 11.53132957 5.60632501 1.86794890
O 6.02847316 2.84068269 3.69420660
O 11.08451403 1.07200535 1.82833355
O 2.19846720 9.01158348 1.09535919
O 3.40450946 9.57250488 3.80141022
O 8.31452185 7.84292817 7.01373993
O 8.20481680 7.32793079 1.90214606
O 9.13981567 3.15242432 9.14512918
O 9.84152920 8.18484870 8.95712657
O 7.53683486 7.69765516 10.46914902
O 10.28206703 8.91678886 3.53439361
135
Time=600000.00000594 pbc="T T T" Lattice="12.52607000 0.00000000 0.00000000 0.00000000 12.52607000 0.00000000 0.00000000 0.00000000 12.52607000" energy=-885.88423063 virial="33.92202847 28.00766342 -18.28836856 28.00766342 11.06259553 14.14033598 -18.28836856 14.14033598 -1.55026369" stress="0.04093664 0.01425057 -0.00930530 0.01425057 0.02930554 0.00719474 -0.00930530 0.00719474 0.02288799" Properties=species:S:1:pos:R:3
Ca 11.91979635 12.37616304 8.49640844
Ca 4.64881473 7.02460343 10.44705495
Ca 4.50023118 8.93285202 4.16546509
Ca 1.11021072 10.34616902 7.45644143
Ca 10.65022741 8.39439304 5.16951989
Ca 0.79244391 4.41000528 2.71941815
Ca 9.81506817 3.58697208 7.03588641
Ca 7.56547817 5.43717487 11.30653481
Ca 5.88310427 3.12790643 2.13368406
Ca 7.34124425 6.98654303 7.19760386
Ca 7.24875759 0.93391631 12.10173197
Ca 11.02798924 9.10571092 0.83967111
Ca 12.07671253 10.96797003 3.28412463
Ca 7.04485234 6.74766159 3.86695072
Ca 3.38716677 1.62903276 7.86803999
Ca 7.03704958 9.30132089 0.15502017
Ca 9.04459116 1.24556101 5.27329537
Ca 9.82914508 2.07916652 10.36108135
Ca 6.28408965 9.46338387 9.15859915
Ca 2.81351105 3.09355005 11.94338335
Ca 3.52534696 5.17918264 2.83208553
Ca 12.51327910 5.58612720 6.25192948
Ca 2.34973120 0.04004661 3.54798339
Ca 3.52844127 9.24600947 1.56424485
Ca 5.69816740 1.43143211 6.43564922
Ca 11.98333226 5.81827574 11.35342446
Ca 3.90147036 5.19322140 6.28894386
Si 0.02262997 0.66415897 0.63230559
Si 5.55021071 4.24108031 9.21599699
Si 4.59988292 10.60126074 7.12819220
Si 5.74815373 6.78512449 1.30777092
Si 9.43717578 11.06293433 10.05177308
Si 8.07042733 0.19734142 8.23044229
Si 9.52760881 1.30046845 1.81512312
Si 1.76349792 8.70257129 4.79046057
Si 0.46035390 7.35069317 2.34103721
Si 5.91862329 12.40337566 9.79030306
Si 9.94119530 6.64095607 1.83790494
Si 2.39345676 4.38802599 9.05775760
Si 2.73440335 2.99438630 4.36881176
Si 9.89330790 5.41443840 3.98281521
Si 1.33039687 0.48282975 10.58409392
Si 0.37695240 2.92546097 9.38057969
Si 7.37738086 3.78590507 5.40219022
Si 0.93139907 7.75476362 11.61634857
Si 6.14403820 11.16638285 2.77639341
Si 7.91898909 9.80234937 5.06281825
Si 10.44655464 8.69834256 9.34553422
Si 8.98699511 5.71846686 8.83937166
Si 1.74178032 7.22195974 8.82416213
Si 9.11373096 11.35186683 2.41265482
Si 4.19548562 0.51057645 12.37554384
Si 10.26661531 3.84055157 0.40840756
Si 0.17311490 1.15443775 5.55325844
O 9.11982400 10.85373206 4.81185214
O 9.00170206 3.05384390 12.10984238
O 8.82162799 5.53853751 7.22597791
O 1.93779007 8.82480751 12.44305970
O 9.87845884 5.37817452 0.53949949
O 3.35617844 11.61430792 6.82985627
O 1.95895873 1.99971818 9.90433740
O 5.41003882 9.20027088 11.23930445
O 5.14620695 9.61552085 6.00217044
O 6.49514924 3.91392283 10.54855772
O 1.37350016 1.82360552 0.85822513
O 6.19933860 5.41916224 2.14903979
O 7.89488868 7.22785028 9.11881900
O 7.44969193 1.15649617 9.35460187
O 5.55219678 12.13317286 11.61137495
O 9.23173945 3.94458135 10.16120876
O 0.05502876 12.44978214 11.22464399
O 9.16448008 12.40184938 1.08440038
O 7.77313136 3.31841720 6.80986207
O 9.35980717 0.17534787 3.30792496
O 11.21938735 1.18899655 1.37254505
O 7.58268670 12.50967007 6.53918666
O 0.36740842 7.00541383 0.63412571
O 11.45271001 7.09224561 2.51077350
O 3.05647711 0.69585444 11.33670828
O 2.50802486 5.90057698 8.37324360
O 0.71429259 0.34935375 6.77522492
O 8.71237076 10.42182523 8.48906365
O 6.31017766 3.28004149 4.48554967
O 6.13145694 8.10411611 2.15626740
O 4.95255324 1.66561721 0.67424750
O 9.24954679 1.27600427 8.18797307