<?xml version="1.0" encoding="ISO-8859-1"?>
<modeling>
 <generator>
  <i name="program" type="string">vasp </i>
  <i name="version" type="string">5.4.4.18Apr17-6-g9f103f2a35  </i>
  <i name="subversion" type="string">(build Oct 31 2019 15:01:46) complex            parallel </i>
  <i name="platform" type="string">LinuxIFC </i>
  <i name="date" type="string">2024 04 20 </i>
  <i name="time" type="string">11:45:06 </i>
 </generator>
 <incar>
  <i type="int" name="ISTART">     0</i>
  <i type="string" name="PREC">anormal</i>
  <i type="logical" name="ADDGRID"> T  </i>
  <i type="int" name="IBRION">    -1</i>
  <i name="EDIFF">      0.00000100</i>
  <i name="EDIFFG">     -0.01000000</i>
  <i type="int" name="NSW">     1</i>
  <i type="int" name="ISIF">     2</i>
  <i type="int" name="ISYM">     2</i>
  <i name="ENCUT">    600.00000000</i>
  <i name="POTIM">      1.00000000</i>
  <i type="string" name="LREAL"> Auto.</i>
  <i type="int" name="ISMEAR">     0</i>
  <i name="SIGMA">      0.05000000</i>
  <i name="KSPACING">      0.25000000</i>
  <i type="logical" name="LWAVE"> F  </i>
  <i type="logical" name="LCHARG"> F  </i>
  <i type="logical" name="LSCALAPACK"> F  </i>
  <v type="int" name="KPOINT_BSE">    -1     0     0     0</v>
 </incar>
 <structure name="primitive_cell" >
  <crystal>
   <varray name="basis" >
    <v>      13.12862340       0.00000000       0.00000000 </v>
    <v>      -6.56431170      11.36972138       0.00000000 </v>
    <v>       0.00000000       0.00000000      26.82809424 </v>
   </varray>
   <i name="volume">   4004.59716953 </i>
   <varray name="rec_basis" >
    <v>       0.07616945       0.04397645       0.00000000 </v>
    <v>       0.00000000       0.08795290       0.00000000 </v>
    <v>       0.00000000       0.00000000       0.03727436 </v>
   </varray>
  </crystal>
  <varray name="positions" >
   <v>       0.08845541       0.16137687       0.45559299 </v>
   <v>       0.15733061       0.08124767       0.40934889 </v>
   <v>      -0.08119626       0.09116979       0.41593471 </v>
   <v>       0.24819793       0.23542188      -0.49672483 </v>
   <v>       0.01389726       0.25689509       0.49861502 </v>
   <v>       0.00385617      -0.00461995      -0.49727054 </v>
   <v>       0.16876212       0.33356501       0.40999398 </v>
   <v>       0.08085765      -0.07585805       0.45337397 </v>
   <v>       0.17472512       0.33058557      -0.45491867 </v>
   <v>      -0.09029114       0.07636982      -0.45667995 </v>
   <v>       0.16661517       0.07871096      -0.44871816 </v>
   <v>       0.32990863       0.16312262       0.45652173 </v>
   <v>       0.09131478       0.41558785       0.45735210 </v>
   <v>      -0.15873543       0.17253633       0.45211869 </v>
   <v>       0.34246567       0.42395288       0.44537104 </v>
   <v>      -0.18067286      -0.09625435       0.44936598 </v>
   <v>       0.09107718       0.15714975      -0.40622366 </v>
   <v>       0.25630947       0.01120614      -0.49947832 </v>
   <v>      -0.08715596      -0.16047940       0.41584817 </v>
   <v>       0.40789481       0.32995083       0.40602124 </v>
   <v>       0.24501504       0.49112161       0.49509913 </v>
   <v>      -0.24886433       0.00059410      -0.49967694 </v>
   <v>      -0.08631807       0.33412328       0.40531593 </v>
   <v>      -0.08698535      -0.17585399      -0.45672388 </v>
   <v>       0.42364388       0.33147418      -0.44892830 </v>
   <v>      -0.08068220       0.34149593      -0.44646155 </v>
   <v>       0.33172561       0.41226498      -0.41263428 </v>
   <v>       0.33360256       0.16431960      -0.41097472 </v>
   <v>      -0.16936943      -0.10020399      -0.41226868 </v>
   <v>       0.08039157      -0.08874895      -0.40575104 </v>
   <v>      -0.16904167       0.17489180      -0.40965624 </v>
   <v>      -0.00058280      -0.25223639       0.49518846 </v>
   <v>      -0.32650414       0.06959101       0.41144912 </v>
   <v>       0.49894222      -0.49779103       0.49520398 </v>
   <v>      -0.49410939       0.25742422      -0.49709455 </v>
   <v>       0.16318023      -0.17785422       0.40935986 </v>
   <v>       0.08826659       0.43224607      -0.40401791 </v>
   <v>      -0.24692129      -0.25974814      -0.49941328 </v>
   <v>       0.41983067      -0.41577505       0.40529470 </v>
   <v>       0.43115142       0.08351709       0.40647241 </v>
   <v>      -0.26000432       0.24018542       0.49573171 </v>
   <v>       0.15854367      -0.41498762       0.41418448 </v>
   <v>      -0.33544134      -0.18339503       0.40415532 </v>
   <v>      -0.00373157      -0.49952468      -0.49632645 </v>
   <v>       0.16864994      -0.16175598      -0.45748269 </v>
   <v>       0.32729747      -0.08072314       0.45112310 </v>
   <v>      -0.42531836       0.41601897       0.45159606 </v>
   <v>       0.42857849       0.08993822      -0.44987956 </v>
   <v>      -0.32653432       0.09337733      -0.45279415 </v>
   <v>       0.15444943      -0.42037891      -0.45141649 </v>
   <v>      -0.34128955      -0.16608841      -0.44907642 </v>
   <v>       0.33485764      -0.33589942       0.45245111 </v>
   <v>      -0.15970582       0.41771053       0.45138202 </v>
   <v>       0.42409640      -0.40141700      -0.45276436 </v>
   <v>      -0.17833801      -0.34498059       0.44376853 </v>
   <v>      -0.42052110      -0.08826861       0.45374442 </v>
   <v>       0.07884315      -0.33029527       0.45166303 </v>
   <v>      -0.41737910       0.16486648       0.45192226 </v>
   <v>      -0.40756677      -0.33639932       0.45505312 </v>
   <v>      -0.42760905       0.41824581      -0.40806591 </v>
   <v>       0.34127326      -0.08322006      -0.40772614 </v>
   <v>      -0.18090536      -0.33684972      -0.40850679 </v>
   <v>      -0.33477423       0.33547301       0.41534623 </v>
   <v>       0.32437137      -0.33645574      -0.40471243 </v>
   <v>      -0.09359914      -0.41704370       0.40211935 </v>
   <v>       0.24857624      -0.25961421       0.49490090 </v>
   <v>      -0.49028259      -0.25264510      -0.49521128 </v>
   <v>      -0.49116080      -0.00276284      -0.49673968 </v>
   <v>      -0.33122219      -0.42550663       0.40151775 </v>
   <v>      -0.17845790       0.41281766      -0.40538338 </v>
   <v>      -0.42968117      -0.09725596      -0.40078534 </v>
   <v>      -0.08770692      -0.41138123      -0.45629622 </v>
   <v>      -0.32944111       0.34767843      -0.45551782 </v>
   <v>      -0.33378673      -0.40797435      -0.45004091 </v>
   <v>       0.09789732      -0.31285205      -0.40791668 </v>
   <v>      -0.42058761       0.17046449      -0.41118363 </v>
   <v>      -0.40690572      -0.32021069      -0.40522345 </v>
   <v>      -0.24110785      -0.49940130       0.49680590 </v>
   <v>       0.42924919      -0.15908613       0.40710870 </v>
   <v>       0.41449719      -0.16958328      -0.45078703 </v>
  </varray>
 </structure>
 <varray name="primitive_index" >
  <v type="int" >        1 </v>
  <v type="int" >       49 </v>
  <v type="int" >       61 </v>
  <v type="int" >       70 </v>
  <v type="int" >       66 </v>
  <v type="int" >       65 </v>
  <v type="int" >       50 </v>
  <v type="int" >        4 </v>
  <v type="int" >       18 </v>
  <v type="int" >       29 </v>
  <v type="int" >       17 </v>
  <v type="int" >        5 </v>
  <v type="int" >        2 </v>
  <v type="int" >       13 </v>
  <v type="int" >        6 </v>
  <v type="int" >       16 </v>
  <v type="int" >       33 </v>
  <v type="int" >       69 </v>
  <v type="int" >       64 </v>
  <v type="int" >       54 </v>
  <v type="int" >       71 </v>
  <v type="int" >       77 </v>
  <v type="int" >       62 </v>
  <v type="int" >       32 </v>
  <v type="int" >       22 </v>
  <v type="int" >       30 </v>
  <v type="int" >       38 </v>
  <v type="int" >       37 </v>
  <v type="int" >       48 </v>
  <v type="int" >       36 </v>
  <v type="int" >       45 </v>
  <v type="int" >       68 </v>
  <v type="int" >       57 </v>
  <v type="int" >       75 </v>
  <v type="int" >       74 </v>
  <v type="int" >       52 </v>
  <v type="int" >       34 </v>
  <v type="int" >       80 </v>
  <v type="int" >       55 </v>
  <v type="int" >       53 </v>
  <v type="int" >       78 </v>
  <v type="int" >       51 </v>
  <v type="int" >       60 </v>
  <v type="int" >       67 </v>
  <v type="int" >       20 </v>
  <v type="int" >        8 </v>
  <v type="int" >       10 </v>
  <v type="int" >       21 </v>
  <v type="int" >       25 </v>
  <v type="int" >       19 </v>
  <v type="int" >       28 </v>
  <v type="int" >        7 </v>
  <v type="int" >       14 </v>
  <v type="int" >       23 </v>
  <v type="int" >       15 </v>
  <v type="int" >       12 </v>
  <v type="int" >        3 </v>
  <v type="int" >        9 </v>
  <v type="int" >       11 </v>
  <v type="int" >       42 </v>
  <v type="int" >       40 </v>
  <v type="int" >       47 </v>
  <v type="int" >       58 </v>
  <v type="int" >       39 </v>
  <v type="int" >       63 </v>
  <v type="int" >       72 </v>
  <v type="int" >       76 </v>
  <v type="int" >       73 </v>
  <v type="int" >       59 </v>
  <v type="int" >       46 </v>
  <v type="int" >       44 </v>
  <v type="int" >       31 </v>
  <v type="int" >       26 </v>
  <v type="int" >       27 </v>
  <v type="int" >       35 </v>
  <v type="int" >       41 </v>
  <v type="int" >       43 </v>
  <v type="int" >       79 </v>
  <v type="int" >       56 </v>
  <v type="int" >       24 </v>
 </varray>
 <kpoints>
  <generation param="Gamma">
   <v type="int" name="divisions">       3        3        1 </v>
   <v name="usershift">      0.00000000       0.00000000       0.00000000 </v>
   <v name="genvec1">      0.33333333       0.00000000       0.00000000 </v>
   <v name="genvec2">      0.00000000       0.33333333       0.00000000 </v>
   <v name="genvec3">      0.00000000       0.00000000       1.00000000 </v>
   <v name="shift">      0.00000000       0.00000000       0.00000000 </v>
  </generation>
  <varray name="kpointlist" >
   <v>       0.00000000       0.00000000       0.00000000 </v>
   <v>       0.33333333      -0.00000000       0.00000000 </v>
   <v>       0.00000000       0.33333333       0.00000000 </v>
   <v>       0.33333333       0.33333333       0.00000000 </v>
   <v>      -0.33333333       0.33333333       0.00000000 </v>
  </varray>
  <varray name="weights" >
   <v>       0.11111111 </v>
   <v>       0.22222222 </v>
   <v>       0.22222222 </v>
   <v>       0.22222222 </v>
   <v>       0.22222222 </v>
  </varray>
 </kpoints>
 <parameters>
  <separator name="general" >
   <i type="string" name="SYSTEM">unknown system</i>
   <i type="logical" name="LCOMPAT"> F  </i>
  </separator>
  <separator name="electronic" >
   <i type="string" name="PREC">anorma</i>
   <i name="ENMAX">    600.00000000</i>
   <i name="ENAUG">    644.87300000</i>
   <i name="EDIFF">      0.00000100</i>
   <i type="int" name="IALGO">    38</i>
   <i type="int" name="IWAVPR">    10</i>
   <i type="int" name="NBANDS">   384</i>
   <i name="NELECT">    640.00000000</i>
   <i type="int" name="TURBO">     0</i>
   <i type="int" name="IRESTART">     0</i>
   <i type="int" name="NREBOOT">     0</i>
   <i type="int" name="NMIN">     0</i>
   <i name="EREF">      0.00000000</i>
   <separator name="electronic smearing" >
    <i type="int" name="ISMEAR">     0</i>
    <i name="SIGMA">      0.05000000</i>
    <i name="KSPACING">      0.25000000</i>
    <i type="logical" name="KGAMMA"> T  </i>
   </separator>
   <separator name="electronic projectors" >
    <i type="logical" name="LREAL"> T  </i>
    <v name="ROPT">     -0.00025000     -0.00025000     -0.00025000</v>
    <i type="int" name="LMAXPAW">  -100</i>
    <i type="int" name="LMAXMIX">     2</i>
    <i type="logical" name="NLSPLINE"> F  </i>
   </separator>
   <separator name="electronic startup" >
    <i type="int" name="ISTART">     0</i>
    <i type="int" name="ICHARG">     2</i>
    <i type="int" name="INIWAV">     1</i>
   </separator>
   <separator name="electronic spin" >
    <i type="int" name="ISPIN">     1</i>
    <i type="logical" name="LNONCOLLINEAR"> F  </i>
    <v name="MAGMOM">      1.00000000      1.00000000      1.00000000      1.00000000      1.00000000      1.00000000      1.00000000      1.00000000      1.00000000      1.00000000      1.00000000      1.00000000      1.00000000      1.00000000      1.00000000      1.00000000      1.00000000      1.00000000      1.00000000      1.00000000
      1.00000000      1.00000000      1.00000000      1.00000000      1.00000000      1.00000000      1.00000000      1.00000000      1.00000000      1.00000000      1.00000000      1.00000000      1.00000000      1.00000000      1.00000000      1.00000000      1.00000000      1.00000000      1.00000000      1.00000000
      1.00000000      1.00000000      1.00000000      1.00000000      1.00000000      1.00000000      1.00000000      1.00000000      1.00000000      1.00000000      1.00000000      1.00000000      1.00000000      1.00000000      1.00000000      1.00000000      1.00000000      1.00000000      1.00000000      1.00000000
      1.00000000      1.00000000      1.00000000      1.00000000      1.00000000      1.00000000      1.00000000      1.00000000      1.00000000      1.00000000      1.00000000      1.00000000      1.00000000      1.00000000      1.00000000      1.00000000      1.00000000      1.00000000      1.00000000      1.00000000
</v>
    <i name="NUPDOWN">     -1.00000000</i>
    <i type="logical" name="LSORBIT"> F  </i>
    <v name="SAXIS">      0.00000000      0.00000000      1.00000000</v>
    <i type="logical" name="LSPIRAL"> F  </i>
    <v name="QSPIRAL">      0.00000000      0.00000000      0.00000000</v>
    <i type="logical" name="LZEROZ"> F  </i>
   </separator>
   <separator name="electronic exchange-correlation" >
    <i type="logical" name="LASPH"> F  </i>
    <i type="logical" name="LMETAGGA"> F  </i>
   </separator>
   <separator name="electronic convergence" >
    <i type="int" name="NELM">    60</i>
    <i type="int" name="NELMDL">    -5</i>
    <i type="int" name="NELMIN">     2</i>
    <i name="ENINI">    600.00000000</i>
    <separator name="electronic convergence detail" >
     <i type="logical" name="LDIAG"> T  </i>
     <i type="logical" name="LSUBROT"> F  </i>
     <i name="WEIMIN">      0.00000000</i>
     <i name="EBREAK">      0.00000000</i>
     <i name="DEPER">      0.30000000</i>
     <i type="int" name="NRMM">     4</i>
     <i name="TIME">      0.40000000</i>
    </separator>
   </separator>
   <separator name="electronic mixer" >
    <i name="AMIX">      0.40000000</i>
    <i name="BMIX">      1.00000000</i>
    <i name="AMIN">      0.10000000</i>
    <i name="AMIX_MAG">      1.60000000</i>
    <i name="BMIX_MAG">      1.00000000</i>
    <separator name="electronic mixer details" >
     <i type="int" name="IMIX">     4</i>
     <i type="logical" name="MIXFIRST"> F  </i>
     <i type="int" name="MAXMIX">   -45</i>
     <i name="WC">    100.00000000</i>
     <i type="int" name="INIMIX">     1</i>
     <i type="int" name="MIXPRE">     1</i>
     <i type="int" name="MREMOVE">     5</i>
    </separator>
   </separator>
   <separator name="electronic dipolcorrection" >
    <i type="logical" name="LDIPOL"> F  </i>
    <i type="logical" name="LMONO"> F  </i>
    <i type="int" name="IDIPOL">     0</i>
    <i name="EPSILON">      1.00000000</i>
    <v name="DIPOL">   -100.00000000   -100.00000000   -100.00000000</v>
    <i name="EFIELD">      0.00000000</i>
   </separator>
  </separator>
  <separator name="grids" >
   <i type="int" name="NGX">   108</i>
   <i type="int" name="NGY">   108</i>
   <i type="int" name="NGZ">   216</i>
   <i type="int" name="NGXF">   216</i>
   <i type="int" name="NGYF">   216</i>
   <i type="int" name="NGZF">   432</i>
   <i type="logical" name="ADDGRID"> T  </i>
  </separator>
  <separator name="ionic" >
   <i type="int" name="NSW">     1</i>
   <i type="int" name="IBRION">    -1</i>
   <i type="int" name="MDALGO">     0</i>
   <i type="int" name="ISIF">     2</i>
   <i name="PSTRESS">      0.00000000</i>
   <i name="EDIFFG">     -0.01000000</i>
   <i type="int" name="NFREE">     0</i>
   <i name="POTIM">      1.00000000</i>
   <i name="SMASS">     -3.00000000</i>
   <i name="SCALEE">      1.00000000</i>
  </separator>
  <separator name="ionic md" >
   <i name="TEBEG">      0.00010000</i>
   <i name="TEEND">      0.00010000</i>
   <i type="int" name="NBLOCK">     1</i>
   <i type="int" name="KBLOCK">     1</i>
   <i type="int" name="NPACO">   256</i>
   <i name="APACO">     16.00000000</i>
  </separator>
  <separator name="symmetry" >
   <i type="int" name="ISYM">     2</i>
   <i name="SYMPREC">      0.00001000</i>
  </separator>
  <separator name="dos" >
   <i type="int" name="LORBIT">     0</i>
   <v name="RWIGS">     -1.00000000     -1.00000000     -1.00000000</v>
   <i type="int" name="NEDOS">   301</i>
   <i name="EMIN">     10.00000000</i>
   <i name="EMAX">    -10.00000000</i>
   <i name="EFERMI">      0.00000000</i>
  </separator>
  <separator name="writing" >
   <i type="int" name="NWRITE">     2</i>
   <i type="logical" name="LWAVE"> F  </i>
   <i type="logical" name="LDOWNSAMPLE"> F  </i>
   <i type="logical" name="LCHARG"> F  </i>
   <i type="logical" name="LPARD"> F  </i>
   <i type="logical" name="LVTOT"> F  </i>
   <i type="logical" name="LVHAR"> F  </i>
   <i type="logical" name="LELF"> F  </i>
   <i type="logical" name="LOPTICS"> F  </i>
   <v name="STM">      0.00000000      0.00000000      0.00000000      0.00000000      0.00000000      0.00000000      0.00000000</v>
  </separator>
  <separator name="performance" >
   <i type="int" name="NPAR">     4</i>
   <i type="int" name="NSIM">     4</i>
   <i type="int" name="NBLK">    -1</i>
   <i type="logical" name="LPLANE"> T  </i>
   <i type="logical" name="LSCALAPACK"> F  </i>
   <i type="logical" name="LSCAAWARE"> F  </i>
   <i type="logical" name="LSCALU"> F  </i>
   <i type="logical" name="LASYNC"> F  </i>
   <i type="logical" name="LORBITALREAL"> F  </i>
  </separator>
  <separator name="miscellaneous" >
   <i type="int" name="IDIOT">     3</i>
   <i type="int" name="ISPECIAL">     0</i>
   <i type="logical" name="LMUSIC"> F  </i>
   <v name="POMASS">     44.95600000     18.99800000     12.01100000</v>
   <v name="DARWINR">      0.00000000      0.00000000      0.00000000</v>
   <v name="DARWINV">      1.00000000      1.00000000      1.00000000</v>
   <i type="logical" name="LCORR"> T  </i>
  </separator>
  <i type="logical" name="GGA_COMPAT"> T  </i>
  <i type="logical" name="LBERRY"> F  </i>
  <i type="int" name="ICORELEVEL">     0</i>
  <i type="logical" name="LDAU"> F  </i>
  <i type="int" name="I_CONSTRAINED_M">     0</i>
  <separator name="electronic exchange-correlation" >
   <i type="string" name="GGA">--</i>
   <i type="int" name="VOSKOWN">     0</i>
   <i type="logical" name="LHFCALC"> F  </i>
   <i type="string" name="PRECFOCK"></i>
   <i type="logical" name="LSYMGRAD"> F  </i>
   <i type="logical" name="LHFONE"> F  </i>
   <i type="logical" name="LRHFCALC"> F  </i>
   <i type="logical" name="LTHOMAS"> F  </i>
   <i type="logical" name="LMODELHF"> F  </i>
   <i name="ENCUT4O">     -1.00000000</i>
   <i type="int" name="EXXOEP">     0</i>
   <i type="int" name="FOURORBIT">     0</i>
   <i name="AEXX">      0.00000000</i>
   <i name="HFALPHA">      0.00000000</i>
   <i name="MCALPHA">      0.00000000</i>
   <i name="ALDAX">      1.00000000</i>
   <i name="AGGAX">      1.00000000</i>
   <i name="ALDAC">      1.00000000</i>
   <i name="AGGAC">      1.00000000</i>
   <i type="int" name="NKREDX">     1</i>
   <i type="int" name="NKREDY">     1</i>
   <i type="int" name="NKREDZ">     1</i>
   <i type="logical" name="SHIFTRED"> F  </i>
   <i type="logical" name="ODDONLY"> F  </i>
   <i type="logical" name="EVENONLY"> F  </i>
   <i type="int" name="LMAXFOCK">     0</i>
   <i type="int" name="NMAXFOCKAE">     0</i>
   <i type="logical" name="LFOCKAEDFT"> F  </i>
   <i name="HFSCREEN">      0.00000000</i>
   <i name="HFSCREENC">      0.00000000</i>
   <i type="int" name="NBANDSGWLOW">     0</i>
  </separator>
  <separator name="vdW DFT" >
   <i type="logical" name="LUSE_VDW"> F  </i>
   <i name="Zab_VDW">     -0.84910000</i>
   <i name="PARAM1">      0.12340000</i>
   <i name="PARAM2">      1.00000000</i>
   <i name="PARAM3">      0.00000000</i>
  </separator>
  <separator name="model GW" >
   <i type="int" name="MODEL_GW">     0</i>
   <i name="MODEL_EPS0">     30.03447877</i>
   <i name="MODEL_ALPHA">      1.00000000</i>
  </separator>
  <separator name="linear response parameters" >
   <i type="logical" name="LEPSILON"> F  </i>
   <i type="logical" name="LRPA"> F  </i>
   <i type="logical" name="LNABLA"> F  </i>
   <i type="logical" name="LVEL"> F  </i>
   <i type="int" name="KINTER">     0</i>
   <i name="CSHIFT">      0.10000000</i>
   <i name="OMEGAMAX">     -1.00000000</i>
   <i name="DEG_THRESHOLD">      0.00200000</i>
   <i name="RTIME">     -0.10000000</i>
   <i name="WPLASMAI">      0.00000000</i>
   <v name="DFIELD">      0.00000000      0.00000000      0.00000000</v>
   <v name="WPLASMA">      0.00000000      0.00000000      0.00000000      0.00000000      0.00000000      0.00000000      0.00000000      0.00000000      0.00000000</v>
  </separator>
  <separator name="orbital magnetization" >
   <i type="logical" name="NUCIND"> F  </i>
   <v name="MAGPOS">      0.00000000      0.00000000      0.00000000</v>
   <i type="logical" name="LNICSALL"> T  </i>
   <i type="logical" name="ORBITALMAG"> F  </i>
   <i type="logical" name="LMAGBLOCH"> F  </i>
   <i type="logical" name="LCHIMAG"> F  </i>
   <i type="logical" name="LGAUGE"> T  </i>
   <i type="int" name="MAGATOM">     0</i>
   <v name="MAGDIPOL">      0.00000000      0.00000000      0.00000000</v>
   <v name="AVECCONST">      0.00000000      0.00000000      0.00000000</v>
  </separator>
  <separator name="response functions" >
   <i type="logical" name="LADDER"> F  </i>
   <i type="logical" name="LRPAFORCE"> F  </i>
   <i type="logical" name="LFXC"> F  </i>
   <i type="logical" name="LHARTREE"> T  </i>
   <i type="int" name="IBSE">     0</i>
   <v type="int" name="KPOINT">    -1     0     0     0</v>
   <i type="logical" name="LTCTE"> F  </i>
   <i type="logical" name="LTETE"> F  </i>
   <i type="logical" name="LTRIPLET"> F  </i>
   <i type="logical" name="LFXCEPS"> F  </i>
   <i type="logical" name="LFXHEG"> F  </i>
   <i type="int" name="NATURALO">     2</i>
   <i type="logical" name="L2ORDER"> F  </i>
   <i type="logical" name="LMP2LT"> F  </i>
   <i type="logical" name="LUSEW"> F  </i>
   <i name="ENCUTGW">     -2.00000000</i>
   <i name="ENCUTGWSOFT">     -2.00000000</i>
   <i name="ENCUTLF">     -1.00000000</i>
   <i type="int" name="LMAXMP2">    -1</i>
   <i name="SCISSOR">      0.00000000</i>
   <i type="int" name="NOMEGA">     0</i>
   <i type="int" name="NOMEGAR">     0</i>
   <i type="int" name="NBANDSGW">    -1</i>
   <i type="int" name="NBANDSO">    -1</i>
   <i type="int" name="NBANDSV">    -1</i>
   <i type="int" name="NELM">     1</i>
   <i type="int" name="NELMHF">     1</i>
   <i type="int" name="DIM">     3</i>
   <i type="int" name="ANTIRES">     0</i>
   <i name="OMEGAMAX">    -30.00000000</i>
   <i name="OMEGAMIN">    -30.00000000</i>
   <i name="OMEGATL">   -200.00000000</i>
   <i type="int" name="OMEGAGRID">   140</i>
   <i name="CSHIFT">     -0.10000000</i>
   <i type="logical" name="SELFENERGY"> F  </i>
   <i type="logical" name="LSPECTRAL"> F  </i>
   <i type="logical" name="LSPECTRALGW"> F  </i>
   <i type="logical" name="LSINGLES"> F  </i>
   <i type="logical" name="LFERMIGW"> F  </i>
   <i type="logical" name="ODDONLYGW"> F  </i>
   <i type="logical" name="EVENONLYGW"> F  </i>
   <i type="int" name="NKREDLFX">     1</i>
   <i type="int" name="NKREDLFY">     1</i>
   <i type="int" name="NKREDLFZ">     1</i>
   <i type="int" name="MAXMEM">  2800</i>
   <i type="int" name="TELESCOPE">     0</i>
   <i type="int" name="TAUPAR">     1</i>
   <i type="int" name="OMEGAPAR">    -1</i>
   <i name="LAMBDA">      1.00000000</i>
  </separator>
  <separator name="External order field" >
   <i name="OFIELD_KAPPA">      0.00000000</i>
   <v name="OFIELD_K">      0.00000000      0.00000000      0.00000000</v>
   <i name="OFIELD_Q6_NEAR">      0.00000000</i>
   <i name="OFIELD_Q6_FAR">      0.00000000</i>
   <i name="OFIELD_A">      0.00000000</i>
  </separator>
 </parameters>
 <atominfo>
  <atoms>      80 </atoms>
  <types>       3 </types>
  <array name="atoms" >
   <dimension dim="1">ion</dimension>
   <field type="string">element</field>
   <field type="int">atomtype</field>
   <set>
    <rc><c>Sc</c><c>   1</c></rc>
    <rc><c>Sc</c><c>   1</c></rc>
    <rc><c>Sc</c><c>   1</c></rc>
    <rc><c>Sc</c><c>   1</c></rc>
    <rc><c>Sc</c><c>   1</c></rc>
    <rc><c>Sc</c><c>   1</c></rc>
    <rc><c>Sc</c><c>   1</c></rc>
    <rc><c>Sc</c><c>   1</c></rc>
    <rc><c>Sc</c><c>   1</c></rc>
    <rc><c>Sc</c><c>   1</c></rc>
    <rc><c>Sc</c><c>   1</c></rc>
    <rc><c>Sc</c><c>   1</c></rc>
    <rc><c>Sc</c><c>   1</c></rc>
    <rc><c>Sc</c><c>   1</c></rc>
    <rc><c>Sc</c><c>   1</c></rc>
    <rc><c>Sc</c><c>   1</c></rc>
    <rc><c>Sc</c><c>   1</c></rc>
    <rc><c>Sc</c><c>   1</c></rc>
    <rc><c>Sc</c><c>   1</c></rc>
    <rc><c>Sc</c><c>   1</c></rc>
    <rc><c>Sc</c><c>   1</c></rc>
    <rc><c>Sc</c><c>   1</c></rc>
    <rc><c>Sc</c><c>   1</c></rc>
    <rc><c>Sc</c><c>   1</c></rc>
    <rc><c>Sc</c><c>   1</c></rc>
    <rc><c>Sc</c><c>   1</c></rc>
    <rc><c>Sc</c><c>   1</c></rc>
    <rc><c>Sc</c><c>   1</c></rc>
    <rc><c>Sc</c><c>   1</c></rc>
    <rc><c>Sc</c><c>   1</c></rc>
    <rc><c>Sc</c><c>   1</c></rc>
    <rc><c>Sc</c><c>   1</c></rc>
    <rc><c>F </c><c>   2</c></rc>
    <rc><c>F </c><c>   2</c></rc>
    <rc><c>F </c><c>   2</c></rc>
    <rc><c>F </c><c>   2</c></rc>
    <rc><c>F </c><c>   2</c></rc>
    <rc><c>F </c><c>   2</c></rc>
    <rc><c>F </c><c>   2</c></rc>
    <rc><c>F </c><c>   2</c></rc>
    <rc><c>F </c><c>   2</c></rc>
    <rc><c>F </c><c>   2</c></rc>
    <rc><c>F </c><c>   2</c></rc>
    <rc><c>F </c><c>   2</c></rc>
    <rc><c>F </c><c>   2</c></rc>
    <rc><c>F </c><c>   2</c></rc>
    <rc><c>F </c><c>   2</c></rc>
    <rc><c>F </c><c>   2</c></rc>
    <rc><c>F </c><c>   2</c></rc>
    <rc><c>F </c><c>   2</c></rc>
    <rc><c>F </c><c>   2</c></rc>
    <rc><c>F </c><c>   2</c></rc>
    <rc><c>F </c><c>   2</c></rc>
    <rc><c>F </c><c>   2</c></rc>
    <rc><c>F </c><c>   2</c></rc>
    <rc><c>F </c><c>   2</c></rc>
    <rc><c>F </c><c>   2</c></rc>
    <rc><c>F </c><c>   2</c></rc>
    <rc><c>F </c><c>   2</c></rc>
    <rc><c>F </c><c>   2</c></rc>
    <rc><c>F </c><c>   2</c></rc>
    <rc><c>F </c><c>   2</c></rc>
    <rc><c>F </c><c>   2</c></rc>
    <rc><c>F </c><c>   2</c></rc>
    <rc><c>C </c><c>   3</c></rc>
    <rc><c>C </c><c>   3</c></rc>
    <rc><c>C </c><c>   3</c></rc>
    <rc><c>C </c><c>   3</c></rc>
    <rc><c>C </c><c>   3</c></rc>
    <rc><c>C </c><c>   3</c></rc>
    <rc><c>C </c><c>   3</c></rc>
    <rc><c>C </c><c>   3</c></rc>
    <rc><c>C </c><c>   3</c></rc>
    <rc><c>C </c><c>   3</c></rc>
    <rc><c>C </c><c>   3</c></rc>
    <rc><c>C </c><c>   3</c></rc>
    <rc><c>C </c><c>   3</c></rc>
    <rc><c>C </c><c>   3</c></rc>
    <rc><c>C </c><c>   3</c></rc>
    <rc><c>C </c><c>   3</c></rc>
   </set>
  </array>
  <array name="atomtypes" >
   <dimension dim="1">type</dimension>
   <field type="int">atomspertype</field>
   <field type="string">element</field>
   <field>mass</field>
   <field>valence</field>
   <field type="string">pseudopotential</field>
   <set>
    <rc><c>  32</c><c>Sc</c><c>     44.95600000</c><c>     11.00000000</c><c>  PAW_PBE Sc_sv 07Sep2000               </c></rc>
    <rc><c>  32</c><c>F </c><c>     18.99800000</c><c>      7.00000000</c><c>  PAW_PBE F 08Apr2002                   </c></rc>
    <rc><c>  16</c><c>C </c><c>     12.01100000</c><c>      4.00000000</c><c>  PAW_PBE C 08Apr2002                   </c></rc>
   </set>
  </array>
 </atominfo>
 <structure name="initialpos" >
  <crystal>
   <varray name="basis" >
    <v>      13.12862340       0.00000000       0.00000000 </v>
    <v>      -6.56431170      11.36972138       0.00000000 </v>
    <v>       0.00000000       0.00000000      26.82809424 </v>
   </varray>
   <i name="volume">   4004.59716953 </i>
   <varray name="rec_basis" >
    <v>       0.07616945       0.04397645       0.00000000 </v>
    <v>       0.00000000       0.08795290       0.00000000 </v>
    <v>       0.00000000       0.00000000       0.03727436 </v>
   </varray>
  </crystal>
  <varray name="positions" >
   <v>       0.08845541       0.16137687       0.45559299 </v>
   <v>       0.09131478       0.41558785       0.45735210 </v>
   <v>       0.07884315       0.66970473       0.45166303 </v>
   <v>       0.08085765       0.92414195       0.45337397 </v>
   <v>       0.32990863       0.16312262       0.45652173 </v>
   <v>       0.34246567       0.42395288       0.44537104 </v>
   <v>       0.33485764       0.66410058       0.45245111 </v>
   <v>       0.32729747       0.91927686       0.45112310 </v>
   <v>       0.58262090       0.16486648       0.45192226 </v>
   <v>       0.57468164       0.41601897       0.45159606 </v>
   <v>       0.59243323       0.66360068       0.45505312 </v>
   <v>       0.57947890       0.91173139       0.45374442 </v>
   <v>       0.84126457       0.17253633       0.45211869 </v>
   <v>       0.84029418       0.41771053       0.45138202 </v>
   <v>       0.82166199       0.65501941       0.44376853 </v>
   <v>       0.81932714       0.90374565       0.44936598 </v>
   <v>       0.16661517       0.07871096       0.55128184 </v>
   <v>       0.17472512       0.33058557       0.54508133 </v>
   <v>       0.15444943       0.57962109       0.54858351 </v>
   <v>       0.16864994       0.83824402       0.54251731 </v>
   <v>       0.42857849       0.08993822       0.55012044 </v>
   <v>       0.42364388       0.33147418       0.55107170 </v>
   <v>       0.42409640       0.59858300       0.54723564 </v>
   <v>       0.41449719       0.83041672       0.54921297 </v>
   <v>       0.67346568       0.09337733       0.54720585 </v>
   <v>       0.67055889       0.34767843       0.54448218 </v>
   <v>       0.66621327       0.59202565       0.54995909 </v>
   <v>       0.65871045       0.83391159       0.55092358 </v>
   <v>       0.90970886       0.07636982       0.54332005 </v>
   <v>       0.91931780       0.34149593       0.55353845 </v>
   <v>       0.91229308       0.58861877       0.54370378 </v>
   <v>       0.91301465       0.82414601       0.54327612 </v>
   <v>       0.09107718       0.15714975       0.59377634 </v>
   <v>       0.08826659       0.43224607       0.59598209 </v>
   <v>       0.09789732       0.68714795       0.59208332 </v>
   <v>       0.08039157       0.91125105       0.59424896 </v>
   <v>       0.33360256       0.16431960       0.58902528 </v>
   <v>       0.33172561       0.41226498       0.58736572 </v>
   <v>       0.32437137       0.66354426       0.59528757 </v>
   <v>       0.34127326       0.91677994       0.59227386 </v>
   <v>       0.57941239       0.17046449       0.58881637 </v>
   <v>       0.57239095       0.41824581       0.59193409 </v>
   <v>       0.59309428       0.67978931       0.59477655 </v>
   <v>       0.57031883       0.90274404       0.59921466 </v>
   <v>       0.83095833       0.17489180       0.59034376 </v>
   <v>       0.82154210       0.41281766       0.59461662 </v>
   <v>       0.81909464       0.66315028       0.59149321 </v>
   <v>       0.83063057       0.89979601       0.58773132 </v>
   <v>       0.15733061       0.08124767       0.40934889 </v>
   <v>       0.16876212       0.33356501       0.40999398 </v>
   <v>       0.15854367       0.58501238       0.41418448 </v>
   <v>       0.16318023       0.82214578       0.40935986 </v>
   <v>       0.43115142       0.08351709       0.40647241 </v>
   <v>       0.40789481       0.32995083       0.40602124 </v>
   <v>       0.41983067       0.58422495       0.40529470 </v>
   <v>       0.42924919       0.84091387       0.40710870 </v>
   <v>       0.67349586       0.06959101       0.41144912 </v>
   <v>       0.66522577       0.33547301       0.41534623 </v>
   <v>       0.66877781       0.57449337       0.40151775 </v>
   <v>       0.66455866       0.81660497       0.40415532 </v>
   <v>       0.91880374       0.09116979       0.41593471 </v>
   <v>       0.91368193       0.33412328       0.40531593 </v>
   <v>       0.90640086       0.58295630       0.40211935 </v>
   <v>       0.91284404       0.83952060       0.41584817 </v>
   <v>       0.00385617       0.99538005       0.50272946 </v>
   <v>       0.01389726       0.25689509       0.49861502 </v>
   <v>       0.99626843       0.50047532       0.50367355 </v>
   <v>       0.99941720       0.74776361       0.49518846 </v>
   <v>       0.25630947       0.01120614       0.50052168 </v>
   <v>       0.24819793       0.23542188       0.50327517 </v>
   <v>       0.24501504       0.49112161       0.49509913 </v>
   <v>       0.24857624       0.74038579       0.49490090 </v>
   <v>       0.50883920       0.99723716       0.50326032 </v>
   <v>       0.50589061       0.25742422       0.50290545 </v>
   <v>       0.49894222       0.50220897       0.49520398 </v>
   <v>       0.50971741       0.74735490       0.50478872 </v>
   <v>       0.75113567       0.00059410       0.50032306 </v>
   <v>       0.73999568       0.24018542       0.49573171 </v>
   <v>       0.75889215       0.50059870       0.49680590 </v>
   <v>       0.75307871       0.74025186       0.50058672 </v>
  </varray>
  <varray name="velocities" >
   <v>       0.00000000       0.00000000       0.00000000 </v>
   <v>       0.00000000       0.00000000       0.00000000 </v>
   <v>       0.00000000       0.00000000       0.00000000 </v>
   <v>       0.00000000       0.00000000       0.00000000 </v>
   <v>       0.00000000       0.00000000       0.00000000 </v>
   <v>       0.00000000       0.00000000       0.00000000 </v>
   <v>       0.00000000       0.00000000       0.00000000 </v>
   <v>       0.00000000       0.00000000       0.00000000 </v>
   <v>       0.00000000       0.00000000       0.00000000 </v>
   <v>       0.00000000       0.00000000       0.00000000 </v>
   <v>       0.00000000       0.00000000       0.00000000 </v>
   <v>       0.00000000       0.00000000       0.00000000 </v>
   <v>       0.00000000       0.00000000       0.00000000 </v>
   <v>       0.00000000       0.00000000       0.00000000 </v>
   <v>       0.00000000       0.00000000       0.00000000 </v>
   <v>       0.00000000       0.00000000       0.00000000 </v>
   <v>       0.00000000       0.00000000       0.00000000 </v>
   <v>       0.00000000       0.00000000       0.00000000 </v>
   <v>       0.00000000       0.00000000       0.00000000 </v>
   <v>       0.00000000       0.00000000       0.00000000 </v>
   <v>       0.00000000       0.00000000       0.00000000 </v>
   <v>       0.00000000       0.00000000       0.00000000 </v>
   <v>       0.00000000       0.00000000       0.00000000 </v>
   <v>       0.00000000       0.00000000       0.00000000 </v>
   <v>       0.00000000       0.00000000       0.00000000 </v>
   <v>       0.00000000       0.00000000       0.00000000 </v>
   <v>       0.00000000       0.00000000       0.00000000 </v>
   <v>       0.00000000       0.00000000       0.00000000 </v>
   <v>       0.00000000       0.00000000       0.00000000 </v>
   <v>       0.00000000       0.00000000       0.00000000 </v>
   <v>       0.00000000       0.00000000       0.00000000 </v>
   <v>       0.00000000       0.00000000       0.00000000 </v>
   <v>       0.00000000       0.00000000       0.00000000 </v>
   <v>       0.00000000       0.00000000       0.00000000 </v>
   <v>       0.00000000       0.00000000       0.00000000 </v>
   <v>       0.00000000       0.00000000       0.00000000 </v>
   <v>       0.00000000       0.00000000       0.00000000 </v>
   <v>       0.00000000       0.00000000       0.00000000 </v>
   <v>       0.00000000       0.00000000       0.00000000 </v>
   <v>       0.00000000       0.00000000       0.00000000 </v>
   <v>       0.00000000       0.00000000       0.00000000 </v>
   <v>       0.00000000       0.00000000       0.00000000 </v>
   <v>       0.00000000       0.00000000       0.00000000 </v>
   <v>       0.00000000       0.00000000       0.00000000 </v>
   <v>       0.00000000       0.00000000       0.00000000 </v>
   <v>       0.00000000       0.00000000       0.00000000 </v>
   <v>       0.00000000       0.00000000       0.00000000 </v>
   <v>       0.00000000       0.00000000       0.00000000 </v>
   <v>       0.00000000       0.00000000       0.00000000 </v>
   <v>       0.00000000       0.00000000       0.00000000 </v>
   <v>       0.00000000       0.00000000       0.00000000 </v>
   <v>       0.00000000       0.00000000       0.00000000 </v>
   <v>       0.00000000       0.00000000       0.00000000 </v>
   <v>       0.00000000       0.00000000       0.00000000 </v>
   <v>       0.00000000       0.00000000       0.00000000 </v>
   <v>       0.00000000       0.00000000       0.00000000 </v>
   <v>       0.00000000       0.00000000       0.00000000 </v>
   <v>       0.00000000       0.00000000       0.00000000 </v>
   <v>       0.00000000       0.00000000       0.00000000 </v>
   <v>       0.00000000       0.00000000       0.00000000 </v>
   <v>       0.00000000       0.00000000       0.00000000 </v>
   <v>       0.00000000       0.00000000       0.00000000 </v>
   <v>       0.00000000       0.00000000       0.00000000 </v>
   <v>       0.00000000       0.00000000       0.00000000 </v>
   <v>       0.00000000       0.00000000       0.00000000 </v>
   <v>       0.00000000       0.00000000       0.00000000 </v>
   <v>       0.00000000       0.00000000       0.00000000 </v>
   <v>       0.00000000       0.00000000       0.00000000 </v>
   <v>       0.00000000       0.00000000       0.00000000 </v>
   <v>       0.00000000       0.00000000       0.00000000 </v>
   <v>       0.00000000       0.00000000       0.00000000 </v>
   <v>       0.00000000       0.00000000       0.00000000 </v>
   <v>       0.00000000       0.00000000       0.00000000 </v>
   <v>       0.00000000       0.00000000       0.00000000 </v>
   <v>       0.00000000       0.00000000       0.00000000 </v>
   <v>       0.00000000       0.00000000       0.00000000 </v>
   <v>       0.00000000       0.00000000       0.00000000 </v>
   <v>       0.00000000       0.00000000       0.00000000 </v>
   <v>       0.00000000       0.00000000       0.00000000 </v>
   <v>       0.00000000       0.00000000       0.00000000 </v>
  </varray>
 </structure>
 <calculation>
  <scstep>
   <time name="dav">   46.59   46.59</time>
   <time name="total">   47.42   47.43</time>
   <energy>
    <i name="alphaZ">    871.83850952 </i>
    <i name="ewald"> 284956.04759214 </i>
    <i name="hartreedc">-339319.93195876 </i>
    <i name="XCdc">   3042.46149355 </i>
    <i name="pawpsdc">  50525.51240023 </i>
    <i name="pawaedc"> -50422.77561733 </i>
    <i name="eentropy">     -0.07514542 </i>
    <i name="bandstr">   -194.85628419 </i>
    <i name="atom">  64207.43592568 </i>
    <i name="e_fr_energy">  13665.65691541 </i>
    <i name="e_wo_entrp">  13665.73206084 </i>
    <i name="e_0_energy">  13665.69448813 </i>
   </energy>
  </scstep>
  <scstep>
   <time name="dav">   49.84   49.85</time>
   <time name="total">   49.84   49.86</time>
   <energy>
    <i name="e_fr_energy">   2490.05674290 </i>
    <i name="e_wo_entrp">   2490.10097116 </i>
    <i name="e_0_energy">   2490.07885703 </i>
   </energy>
  </scstep>
  <scstep>
   <time name="dav">   68.14   68.15</time>
   <time name="total">   68.14   68.15</time>
   <energy>
    <i name="e_fr_energy">   -376.22767905 </i>
    <i name="e_wo_entrp">   -376.22767905 </i>
    <i name="e_0_energy">   -376.22767905 </i>
   </energy>
  </scstep>
  <scstep>
   <time name="dav">   61.83   61.84</time>
   <time name="total">   61.83   61.84</time>
   <energy>
    <i name="e_fr_energy">   -737.45252945 </i>
    <i name="e_wo_entrp">   -737.45252945 </i>
    <i name="e_0_energy">   -737.45252945 </i>
   </energy>
  </scstep>
  <scstep>
   <time name="dav">   62.27   62.28</time>
   <time name="total">   65.86   65.87</time>
   <energy>
    <i name="e_fr_energy">   -752.11672342 </i>
    <i name="e_wo_entrp">   -752.11672342 </i>
    <i name="e_0_energy">   -752.11672342 </i>
   </energy>
  </scstep>
  <scstep>
   <time name="dav">   59.44   59.45</time>
   <time name="total">   63.91   63.93</time>
   <energy>
    <i name="e_fr_energy">   -596.16498522 </i>
    <i name="e_wo_entrp">   -596.16498522 </i>
    <i name="e_0_energy">   -596.16498522 </i>
   </energy>
  </scstep>
  <scstep>
   <time name="dav">   61.08   61.08</time>
   <time name="total">   65.55   65.56</time>
   <energy>
    <i name="e_fr_energy">   -596.36060450 </i>
    <i name="e_wo_entrp">   -596.36060450 </i>
    <i name="e_0_energy">   -596.36060450 </i>
   </energy>
  </scstep>
  <scstep>
   <time name="dav">   57.25   57.26</time>
   <time name="total">   61.76   61.77</time>
   <energy>
    <i name="e_fr_energy">   -594.90659718 </i>
    <i name="e_wo_entrp">   -594.90659718 </i>
    <i name="e_0_energy">   -594.90659718 </i>
   </energy>
  </scstep>
  <scstep>
   <time name="dav">   57.95   57.96</time>
   <time name="total">   62.35   62.36</time>
   <energy>
    <i name="e_fr_energy">   -594.39496561 </i>
    <i name="e_wo_entrp">   -594.39496561 </i>
    <i name="e_0_energy">   -594.39496561 </i>
   </energy>
  </scstep>
  <scstep>
   <time name="dav">   61.58   61.58</time>
   <time name="total">   66.00   66.02</time>
   <energy>
    <i name="e_fr_energy">   -594.35984347 </i>
    <i name="e_wo_entrp">   -594.35984347 </i>
    <i name="e_0_energy">   -594.35984347 </i>
   </energy>
  </scstep>
  <scstep>
   <time name="dav">   57.57   57.57</time>
   <time name="total">   62.01   62.03</time>
   <energy>
    <i name="e_fr_energy">   -594.24985294 </i>
    <i name="e_wo_entrp">   -594.24985294 </i>
    <i name="e_0_energy">   -594.24985294 </i>
   </energy>
  </scstep>
  <scstep>
   <time name="dav">   62.62   62.62</time>
   <time name="total">   67.13   67.14</time>
   <energy>
    <i name="e_fr_energy">   -594.21972391 </i>
    <i name="e_wo_entrp">   -594.21972391 </i>
    <i name="e_0_energy">   -594.21972391 </i>
   </energy>
  </scstep>
  <scstep>
   <time name="dav">   59.96   59.96</time>
   <time name="total">   64.43   64.44</time>
   <energy>
    <i name="e_fr_energy">   -594.21259642 </i>
    <i name="e_wo_entrp">   -594.21259642 </i>
    <i name="e_0_energy">   -594.21259642 </i>
   </energy>
  </scstep>
  <scstep>
   <time name="dav">   58.15   58.15</time>
   <time name="total">   62.60   62.61</time>
   <energy>
    <i name="e_fr_energy">   -594.20903109 </i>
    <i name="e_wo_entrp">   -594.20903109 </i>
    <i name="e_0_energy">   -594.20903109 </i>
   </energy>
  </scstep>
  <scstep>
   <time name="dav">   59.86   59.87</time>
   <time name="total">   64.37   64.38</time>
   <energy>
    <i name="e_fr_energy">   -594.21456657 </i>
    <i name="e_wo_entrp">   -594.21456657 </i>
    <i name="e_0_energy">   -594.21456657 </i>
   </energy>
  </scstep>
  <scstep>
   <time name="dav">   61.84   61.84</time>
   <time name="total">   66.33   66.34</time>
   <energy>
    <i name="e_fr_energy">   -594.21784929 </i>
    <i name="e_wo_entrp">   -594.21784929 </i>
    <i name="e_0_energy">   -594.21784929 </i>
   </energy>
  </scstep>
  <scstep>
   <time name="dav">   60.57   60.57</time>
   <time name="total">   65.01   65.02</time>
   <energy>
    <i name="e_fr_energy">   -594.22321950 </i>
    <i name="e_wo_entrp">   -594.22321950 </i>
    <i name="e_0_energy">   -594.22321950 </i>
   </energy>
  </scstep>
  <scstep>
   <time name="dav">   56.00   56.01</time>
   <time name="total">   60.43   60.44</time>
   <energy>
    <i name="e_fr_energy">   -594.22623837 </i>
    <i name="e_wo_entrp">   -594.22623837 </i>
    <i name="e_0_energy">   -594.22623837 </i>
   </energy>
  </scstep>
  <scstep>
   <time name="dav">   59.34   59.34</time>
   <time name="total">   63.80   63.81</time>
   <energy>
    <i name="e_fr_energy">   -594.22789797 </i>
    <i name="e_wo_entrp">   -594.22789797 </i>
    <i name="e_0_energy">   -594.22789797 </i>
   </energy>
  </scstep>
  <scstep>
   <time name="dav">   56.06   56.06</time>
   <time name="total">   60.46   60.47</time>
   <energy>
    <i name="e_fr_energy">   -594.23079788 </i>
    <i name="e_wo_entrp">   -594.23079788 </i>
    <i name="e_0_energy">   -594.23079788 </i>
   </energy>
  </scstep>
  <scstep>
   <time name="dav">   49.05   49.05</time>
   <time name="total">   53.51   53.52</time>
   <energy>
    <i name="e_fr_energy">   -594.23288506 </i>
    <i name="e_wo_entrp">   -594.23288506 </i>
    <i name="e_0_energy">   -594.23288506 </i>
   </energy>
  </scstep>
  <scstep>
   <time name="dav">   50.94   50.95</time>
   <time name="total">   55.30   55.31</time>
   <energy>
    <i name="e_fr_energy">   -594.23398790 </i>
    <i name="e_wo_entrp">   -594.23398790 </i>
    <i name="e_0_energy">   -594.23398790 </i>
   </energy>
  </scstep>
  <scstep>
   <time name="dav">   49.75   49.75</time>
   <time name="total">   54.27   54.28</time>
   <energy>
    <i name="e_fr_energy">   -594.23439076 </i>
    <i name="e_wo_entrp">   -594.23439076 </i>
    <i name="e_0_energy">   -594.23439076 </i>
   </energy>
  </scstep>
  <scstep>
   <time name="dav">   49.86   49.86</time>
   <time name="total">   54.37   54.38</time>
   <energy>
    <i name="e_fr_energy">   -594.23473997 </i>
    <i name="e_wo_entrp">   -594.23473997 </i>
    <i name="e_0_energy">   -594.23473997 </i>
   </energy>
  </scstep>
  <scstep>
   <time name="dav">   45.74   45.74</time>
   <time name="total">   50.20   50.22</time>
   <energy>
    <i name="e_fr_energy">   -594.23494239 </i>
    <i name="e_wo_entrp">   -594.23494239 </i>
    <i name="e_0_energy">   -594.23494239 </i>
   </energy>
  </scstep>
  <scstep>
   <time name="dav">   35.78   35.78</time>
   <time name="total">   40.31   40.32</time>
   <energy>
    <i name="e_fr_energy">   -594.23500723 </i>
    <i name="e_wo_entrp">   -594.23500723 </i>
    <i name="e_0_energy">   -594.23500723 </i>
   </energy>
  </scstep>
  <scstep>
   <time name="dav">   33.23   33.23</time>
   <time name="total">   37.72   37.73</time>
   <energy>
    <i name="e_fr_energy">   -594.23503162 </i>
    <i name="e_wo_entrp">   -594.23503162 </i>
    <i name="e_0_energy">   -594.23503162 </i>
   </energy>
  </scstep>
  <scstep>
   <time name="dav">   35.69   35.69</time>
   <time name="total">   40.13   40.14</time>
   <energy>
    <i name="e_fr_energy">   -594.23505954 </i>
    <i name="e_wo_entrp">   -594.23505954 </i>
    <i name="e_0_energy">   -594.23505954 </i>
   </energy>
  </scstep>
  <scstep>
   <time name="dav">   33.26   33.26</time>
   <time name="total">   37.71   37.72</time>
   <energy>
    <i name="e_fr_energy">   -594.23506772 </i>
    <i name="e_wo_entrp">   -594.23506772 </i>
    <i name="e_0_energy">   -594.23506772 </i>
   </energy>
  </scstep>
  <scstep>
   <time name="dav">   32.23   32.23</time>
   <time name="total">   36.69   36.69</time>
   <energy>
    <i name="e_fr_energy">   -594.23507066 </i>
    <i name="e_wo_entrp">   -594.23507066 </i>
    <i name="e_0_energy">   -594.23507066 </i>
   </energy>
  </scstep>
  <scstep>
   <time name="dav">   32.32   32.32</time>
   <time name="total">   36.77   36.78</time>
   <energy>
    <i name="e_fr_energy">   -594.23507181 </i>
    <i name="e_wo_entrp">   -594.23507181 </i>
    <i name="e_0_energy">   -594.23507181 </i>
   </energy>
  </scstep>
  <scstep>
   <time name="dav">   32.44   32.45</time>
   <time name="total">   36.89   36.91</time>
   <energy>
    <i name="e_fr_energy">   -594.23507299 </i>
    <i name="e_wo_entrp">   -594.23507299 </i>
    <i name="e_0_energy">   -594.23507299 </i>
   </energy>
  </scstep>
  <scstep>
   <time name="dav">   31.94   31.94</time>
   <time name="total">   32.82   32.83</time>
   <energy>
    <i name="alphaZ">    871.83850952 </i>
    <i name="ewald"> 284956.04759214 </i>
    <i name="hartreedc">-340473.19887955 </i>
    <i name="XCdc">   3053.80014551 </i>
    <i name="pawpsdc">  66395.52714231 </i>
    <i name="pawaedc"> -66388.25074394 </i>
    <i name="eentropy">     -0.00000000 </i>
    <i name="bandstr"> -13217.43476509 </i>
    <i name="atom">  64207.43592568 </i>
    <i name="e_fr_energy">   -594.23507341 </i>
    <i name="e_wo_entrp">   -594.23507341 </i>
    <i name="e_0_energy">   -594.23507341 </i>
   </energy>
  </scstep>
  <structure>
   <crystal>
    <varray name="basis" >
     <v>      13.12862340       0.00000000       0.00000000 </v>
     <v>      -6.56431170      11.36972138       0.00000000 </v>
     <v>       0.00000000       0.00000000      26.82809424 </v>
    </varray>
    <i name="volume">   4004.59716953 </i>
    <varray name="rec_basis" >
     <v>       0.07616945       0.04397645       0.00000000 </v>
     <v>       0.00000000       0.08795290       0.00000000 </v>
     <v>       0.00000000       0.00000000       0.03727436 </v>
    </varray>
   </crystal>
   <varray name="positions" >
    <v>       0.08845541       0.16137687       0.45559299 </v>
    <v>       0.09131478       0.41558785       0.45735210 </v>
    <v>       0.07884315       0.66970473       0.45166303 </v>
    <v>       0.08085765       0.92414195       0.45337397 </v>
    <v>       0.32990863       0.16312262       0.45652173 </v>
    <v>       0.34246567       0.42395288       0.44537104 </v>
    <v>       0.33485764       0.66410058       0.45245111 </v>
    <v>       0.32729747       0.91927686       0.45112310 </v>
    <v>       0.58262090       0.16486648       0.45192226 </v>
    <v>       0.57468164       0.41601897       0.45159606 </v>
    <v>       0.59243323       0.66360068       0.45505312 </v>
    <v>       0.57947890       0.91173139       0.45374442 </v>
    <v>       0.84126457       0.17253633       0.45211869 </v>
    <v>       0.84029418       0.41771053       0.45138202 </v>
    <v>       0.82166199       0.65501941       0.44376853 </v>
    <v>       0.81932714       0.90374565       0.44936598 </v>
    <v>       0.16661517       0.07871096       0.55128184 </v>
    <v>       0.17472512       0.33058557       0.54508133 </v>
    <v>       0.15444943       0.57962109       0.54858351 </v>
    <v>       0.16864994       0.83824402       0.54251731 </v>
    <v>       0.42857849       0.08993822       0.55012044 </v>
    <v>       0.42364388       0.33147418       0.55107170 </v>
    <v>       0.42409640       0.59858300       0.54723564 </v>
    <v>       0.41449719       0.83041672       0.54921297 </v>
    <v>       0.67346568       0.09337733       0.54720585 </v>
    <v>       0.67055889       0.34767843       0.54448218 </v>
    <v>       0.66621327       0.59202565       0.54995909 </v>
    <v>       0.65871045       0.83391159       0.55092358 </v>
    <v>       0.90970886       0.07636982       0.54332005 </v>
    <v>       0.91931780       0.34149593       0.55353845 </v>
    <v>       0.91229308       0.58861877       0.54370378 </v>
    <v>       0.91301465       0.82414601       0.54327612 </v>
    <v>       0.09107718       0.15714975       0.59377634 </v>
    <v>       0.08826659       0.43224607       0.59598209 </v>
    <v>       0.09789732       0.68714795       0.59208332 </v>
    <v>       0.08039157       0.91125105       0.59424896 </v>
    <v>       0.33360256       0.16431960       0.58902528 </v>
    <v>       0.33172561       0.41226498       0.58736572 </v>
    <v>       0.32437137       0.66354426       0.59528757 </v>
    <v>       0.34127326       0.91677994       0.59227386 </v>
    <v>       0.57941239       0.17046449       0.58881637 </v>
    <v>       0.57239095       0.41824581       0.59193409 </v>
    <v>       0.59309428       0.67978931       0.59477655 </v>
    <v>       0.57031883       0.90274404       0.59921466 </v>
    <v>       0.83095833       0.17489180       0.59034376 </v>
    <v>       0.82154210       0.41281766       0.59461662 </v>
    <v>       0.81909464       0.66315028       0.59149321 </v>
    <v>       0.83063057       0.89979601       0.58773132 </v>
    <v>       0.15733061       0.08124767       0.40934889 </v>
    <v>       0.16876212       0.33356501       0.40999398 </v>
    <v>       0.15854367       0.58501238       0.41418448 </v>
    <v>       0.16318023       0.82214578       0.40935986 </v>
    <v>       0.43115142       0.08351709       0.40647241 </v>
    <v>       0.40789481       0.32995083       0.40602124 </v>
    <v>       0.41983067       0.58422495       0.40529470 </v>
    <v>       0.42924919       0.84091387       0.40710870 </v>
    <v>       0.67349586       0.06959101       0.41144912 </v>
    <v>       0.66522577       0.33547301       0.41534623 </v>
    <v>       0.66877781       0.57449337       0.40151775 </v>
    <v>       0.66455866       0.81660497       0.40415532 </v>
    <v>       0.91880374       0.09116979       0.41593471 </v>
    <v>       0.91368193       0.33412328       0.40531593 </v>
    <v>       0.90640086       0.58295630       0.40211935 </v>
    <v>       0.91284404       0.83952060       0.41584817 </v>
    <v>       0.00385617       0.99538005       0.50272946 </v>
    <v>       0.01389726       0.25689509       0.49861502 </v>
    <v>       0.99626843       0.50047532       0.50367355 </v>
    <v>       0.99941720       0.74776361       0.49518846 </v>
    <v>       0.25630947       0.01120614       0.50052168 </v>
    <v>       0.24819793       0.23542188       0.50327517 </v>
    <v>       0.24501504       0.49112161       0.49509913 </v>
    <v>       0.24857624       0.74038579       0.49490090 </v>
    <v>       0.50883920       0.99723716       0.50326032 </v>
    <v>       0.50589061       0.25742422       0.50290545 </v>
    <v>       0.49894222       0.50220897       0.49520398 </v>
    <v>       0.50971741       0.74735490       0.50478872 </v>
    <v>       0.75113567       0.00059410       0.50032306 </v>
    <v>       0.73999568       0.24018542       0.49573171 </v>
    <v>       0.75889215       0.50059870       0.49680590 </v>
    <v>       0.75307871       0.74025186       0.50058672 </v>
   </varray>
  </structure>
  <varray name="forces" >
   <v>      -0.83239892       0.91110301      -0.15980114 </v>
   <v>      -1.26921109      -0.09286029      -2.10439074 </v>
   <v>       0.90433221      -0.68098634      -0.47493224 </v>
   <v>       0.36817593      -0.80822548      -0.07810215 </v>
   <v>       0.20295335       1.17051986      -0.70398870 </v>
   <v>      -1.08511293      -0.49946990       1.01010623 </v>
   <v>      -0.82142154      -0.24219217      -0.42898096 </v>
   <v>       1.32327831      -0.39826526       0.13489213 </v>
   <v>       0.51180004       0.20835921       0.16504145 </v>
   <v>       0.98791782      -0.50610268       0.02374002 </v>
   <v>      -1.38854825       0.24743802      -0.76018753 </v>
   <v>       0.00913633       0.84287229       0.02883314 </v>
   <v>      -0.63899806       0.04208221       0.06253013 </v>
   <v>      -0.50193644      -0.59801728      -0.10849055 </v>
   <v>       1.14070478       0.53235351       1.40749138 </v>
   <v>      -0.10144468       1.46095648       1.24717976 </v>
   <v>      -0.53504229       0.05940146       0.35983584 </v>
   <v>      -0.03211551      -0.22343142       0.65019227 </v>
   <v>       1.00059806       1.12310259       0.29860056 </v>
   <v>      -0.04725371      -0.68657950       1.28044251 </v>
   <v>      -0.62729901      -1.01330968      -0.59626937 </v>
   <v>      -1.75827586      -0.22298781      -1.14688628 </v>
   <v>      -0.51148327      -2.57591075       0.73188375 </v>
   <v>      -0.45203853       0.53375432       0.22991811 </v>
   <v>      -0.33438461      -0.57611840      -0.18231034 </v>
   <v>       0.70928202      -1.05845148       0.40464817 </v>
   <v>       0.26945733      -0.74073740      -0.59236747 </v>
   <v>       1.10454960       1.20089536       0.32824555 </v>
   <v>       1.07504434       0.24981587       1.16729509 </v>
   <v>       0.22435409      -0.18749584      -0.86555038 </v>
   <v>       0.58442910      -0.16874070       0.57823993 </v>
   <v>       0.14520278       1.08861418       1.16695009 </v>
   <v>      -0.62165489       0.44376878      -0.30389972 </v>
   <v>      -0.25021916      -0.58528064      -0.53974633 </v>
   <v>      -0.10547593      -0.47811062      -0.71678950 </v>
   <v>       0.35170497      -0.13897915      -0.94223627 </v>
   <v>       0.47523828       0.10249547       0.65332055 </v>
   <v>       0.30572073       0.45182492       0.16796868 </v>
   <v>       0.43734068       0.03741229      -1.03729953 </v>
   <v>      -0.34866820       0.08183533      -0.64309789 </v>
   <v>       0.80711358       0.41851134       0.57346459 </v>
   <v>       0.86252695       0.52547074       0.14489034 </v>
   <v>      -0.15238431      -0.78955241      -0.33426145 </v>
   <v>       0.33508654       0.01838087      -0.97287408 </v>
   <v>       0.41150767      -0.18318131       0.09093973 </v>
   <v>       0.27979358       0.13008322      -0.60540857 </v>
   <v>       0.71306046       0.07208301      -0.17785044 </v>
   <v>      -0.33525005       0.56191092       0.00598137 </v>
   <v>       0.57121285      -0.04088707      -0.11245294 </v>
   <v>       0.15040840      -0.15722073      -0.07293632 </v>
   <v>       0.55609539      -0.34245759      -0.58887888 </v>
   <v>      -0.06452782       0.94123315      -0.29835435 </v>
   <v>      -0.66922312      -0.34014906       0.39805473 </v>
   <v>       0.48823132      -0.03855680       0.32719790 </v>
   <v>       0.00791205       0.12190499       0.37351076 </v>
   <v>      -0.23896694      -0.40856710       0.49003948 </v>
   <v>      -0.36464296       0.29590251      -0.21064411 </v>
   <v>      -0.03402107      -0.19582283      -0.84591543 </v>
   <v>      -0.46800333       0.04099129       0.59846288 </v>
   <v>       0.05719185       0.31366617       0.77855203 </v>
   <v>       0.54468106      -0.83545114      -0.86262803 </v>
   <v>       0.09431534      -0.05893384       0.74280230 </v>
   <v>       0.47745053      -0.17227972       0.47830960 </v>
   <v>       0.59426854      -0.41404428      -1.47763467 </v>
   <v>      -0.90120489      -0.01301039      -0.66452955 </v>
   <v>      -1.25345069      -1.32537355       1.38590648 </v>
   <v>      -0.12519442      -0.39744041      -0.13748643 </v>
   <v>      -0.20290287       0.48168131       0.89161440 </v>
   <v>       0.77892539      -2.08385727      -0.36551951 </v>
   <v>      -0.15811244       1.20255804      -0.62720112 </v>
   <v>       1.64206766       1.82177545       1.54764009 </v>
   <v>      -0.31691662       1.52528404       1.29022011 </v>
   <v>      -1.26878955      -0.16652963      -0.56323787 </v>
   <v>      -0.42907711      -0.59681633      -0.80217569 </v>
   <v>       0.41847269      -0.10388838       1.21052795 </v>
   <v>      -1.25445615       0.44316623      -1.51986081 </v>
   <v>       0.17859997      -0.70676875       0.12811741 </v>
   <v>       1.04295872       1.60628346       1.17879031 </v>
   <v>      -1.41623688       0.33205329       0.14713814 </v>
   <v>      -1.22675718       0.21149620      -1.25433858 </v>
  </varray>
  <varray name="stress" >
   <v>       5.03061259       0.95947644       2.03565051 </v>
   <v>       0.95947646       3.82607755      -0.89812081 </v>
   <v>       2.03565051      -0.89812081      -4.81904317 </v>
  </varray>
  <energy>
   <i name="e_fr_energy">   -594.23507341 </i>
   <i name="e_wo_entrp">   -594.23507341 </i>
   <i name="e_0_energy">     -0.00000000 </i>
  </energy>
  <time name="totalsc"> 1880.75 1881.16</time>
  <eigenvalues>
   <array>
    <dimension dim="1">band</dimension>
    <dimension dim="2">kpoint</dimension>
    <dimension dim="3">spin</dimension>
    <field>eigene</field>
    <field>occ</field>
    <set>
     <set comment="spin 1">
      <set comment="kpoint 1">
       <r>  -52.1245    1.0000 </r>
       <r>  -52.0830    1.0000 </r>
       <r>  -51.9665    1.0000 </r>
       <r>  -51.9577    1.0000 </r>
       <r>  -51.9023    1.0000 </r>
       <r>  -51.8744    1.0000 </r>
       <r>  -51.7780    1.0000 </r>
       <r>  -51.7482    1.0000 </r>
       <r>  -51.7206    1.0000 </r>
       <r>  -51.6968    1.0000 </r>
       <r>  -51.6720    1.0000 </r>
       <r>  -51.6598    1.0000 </r>
       <r>  -51.6571    1.0000 </r>
       <r>  -51.6518    1.0000 </r>
       <r>  -51.5880    1.0000 </r>
       <r>  -51.5649    1.0000 </r>
       <r>  -51.5542    1.0000 </r>
       <r>  -51.5472    1.0000 </r>
       <r>  -51.5321    1.0000 </r>
       <r>  -51.4793    1.0000 </r>
       <r>  -51.4110    1.0000 </r>
       <r>  -51.4007    1.0000 </r>
       <r>  -51.3760    1.0000 </r>
       <r>  -51.3248    1.0000 </r>
       <r>  -51.2954    1.0000 </r>
       <r>  -51.2942    1.0000 </r>
       <r>  -51.2508    1.0000 </r>
       <r>  -51.2229    1.0000 </r>
       <r>  -51.2007    1.0000 </r>
       <r>  -51.1894    1.0000 </r>
       <r>  -51.1318    1.0000 </r>
       <r>  -50.7717    1.0000 </r>
       <r>  -31.1453    1.0000 </r>
       <r>  -30.9372    1.0000 </r>
       <r>  -30.9208    1.0000 </r>
       <r>  -30.9074    1.0000 </r>
       <r>  -30.8750    1.0000 </r>
       <r>  -30.8703    1.0000 </r>
       <r>  -30.8547    1.0000 </r>
       <r>  -30.8178    1.0000 </r>
       <r>  -30.8119    1.0000 </r>
       <r>  -30.7990    1.0000 </r>
       <r>  -30.7975    1.0000 </r>
       <r>  -30.7858    1.0000 </r>
       <r>  -30.7441    1.0000 </r>
       <r>  -30.7347    1.0000 </r>
       <r>  -30.7279    1.0000 </r>
       <r>  -30.7092    1.0000 </r>
       <r>  -30.6913    1.0000 </r>
       <r>  -30.6704    1.0000 </r>
       <r>  -30.6409    1.0000 </r>
       <r>  -30.6309    1.0000 </r>
       <r>  -30.5940    1.0000 </r>
       <r>  -30.5740    1.0000 </r>
       <r>  -30.5475    1.0000 </r>
       <r>  -30.5435    1.0000 </r>
       <r>  -30.5372    1.0000 </r>
       <r>  -30.5182    1.0000 </r>
       <r>  -30.5107    1.0000 </r>
       <r>  -30.5016    1.0000 </r>
       <r>  -30.4921    1.0000 </r>
       <r>  -30.4808    1.0000 </r>
       <r>  -30.4699    1.0000 </r>
       <r>  -30.4688    1.0000 </r>
       <r>  -30.4454    1.0000 </r>
       <r>  -30.4384    1.0000 </r>
       <r>  -30.4105    1.0000 </r>
       <r>  -30.3965    1.0000 </r>
       <r>  -30.3816    1.0000 </r>
       <r>  -30.3752    1.0000 </r>
       <r>  -30.3690    1.0000 </r>
       <r>  -30.3620    1.0000 </r>
       <r>  -30.3527    1.0000 </r>
       <r>  -30.3522    1.0000 </r>
       <r>  -30.3347    1.0000 </r>
       <r>  -30.3225    1.0000 </r>
       <r>  -30.3161    1.0000 </r>
       <r>  -30.3053    1.0000 </r>
       <r>  -30.2988    1.0000 </r>
       <r>  -30.2906    1.0000 </r>
       <r>  -30.2787    1.0000 </r>
       <r>  -30.2749    1.0000 </r>
       <r>  -30.2584    1.0000 </r>
       <r>  -30.2569    1.0000 </r>
       <r>  -30.2472    1.0000 </r>
       <r>  -30.2356    1.0000 </r>
       <r>  -30.2325    1.0000 </r>
       <r>  -30.2135    1.0000 </r>
       <r>  -30.2097    1.0000 </r>
       <r>  -30.2066    1.0000 </r>
       <r>  -30.1995    1.0000 </r>
       <r>  -30.1911    1.0000 </r>
       <r>  -30.1728    1.0000 </r>
       <r>  -30.1528    1.0000 </r>
       <r>  -30.1358    1.0000 </r>
       <r>  -30.1244    1.0000 </r>
       <r>  -30.1175    1.0000 </r>
       <r>  -30.1107    1.0000 </r>
       <r>  -30.0968    1.0000 </r>
       <r>  -30.0890    1.0000 </r>
       <r>  -30.0785    1.0000 </r>
       <r>  -30.0683    1.0000 </r>
       <r>  -30.0536    1.0000 </r>
       <r>  -30.0462    1.0000 </r>
       <r>  -30.0456    1.0000 </r>
       <r>  -30.0348    1.0000 </r>
       <r>  -30.0234    1.0000 </r>
       <r>  -30.0006    1.0000 </r>
       <r>  -29.9928    1.0000 </r>
       <r>  -29.9894    1.0000 </r>
       <r>  -29.9816    1.0000 </r>
       <r>  -29.9785    1.0000 </r>
       <r>  -29.9412    1.0000 </r>
       <r>  -29.9368    1.0000 </r>
       <r>  -29.9143    1.0000 </r>
       <r>  -29.9118    1.0000 </r>
       <r>  -29.9042    1.0000 </r>
       <r>  -29.8947    1.0000 </r>
       <r>  -29.8743    1.0000 </r>
       <r>  -29.8645    1.0000 </r>
       <r>  -29.8367    1.0000 </r>
       <r>  -29.8350    1.0000 </r>
       <r>  -29.8163    1.0000 </r>
       <r>  -29.8089    1.0000 </r>
       <r>  -29.7613    1.0000 </r>
       <r>  -29.5520    1.0000 </r>
       <r>  -29.5077    1.0000 </r>
       <r>  -29.4855    1.0000 </r>
       <r>  -27.3272    1.0000 </r>
       <r>  -27.0409    1.0000 </r>
       <r>  -26.9652    1.0000 </r>
       <r>  -26.9461    1.0000 </r>
       <r>  -26.9017    1.0000 </r>
       <r>  -26.8724    1.0000 </r>
       <r>  -26.8479    1.0000 </r>
       <r>  -26.8104    1.0000 </r>
       <r>  -26.8009    1.0000 </r>
       <r>  -26.7782    1.0000 </r>
       <r>  -26.7739    1.0000 </r>
       <r>  -26.7694    1.0000 </r>
       <r>  -26.7309    1.0000 </r>
       <r>  -26.6669    1.0000 </r>
       <r>  -26.6448    1.0000 </r>
       <r>  -26.6165    1.0000 </r>
       <r>  -26.6043    1.0000 </r>
       <r>  -26.5518    1.0000 </r>
       <r>  -26.5268    1.0000 </r>
       <r>  -26.4466    1.0000 </r>
       <r>  -26.4421    1.0000 </r>
       <r>  -26.3994    1.0000 </r>
       <r>  -26.3931    1.0000 </r>
       <r>  -26.3641    1.0000 </r>
       <r>  -26.3592    1.0000 </r>
       <r>  -26.2938    1.0000 </r>
       <r>  -26.2820    1.0000 </r>
       <r>  -26.2714    1.0000 </r>
       <r>  -26.1931    1.0000 </r>
       <r>  -26.0984    1.0000 </r>
       <r>  -26.0432    1.0000 </r>
       <r>  -25.9359    1.0000 </r>
       <r>  -12.1795    1.0000 </r>
       <r>  -11.8408    1.0000 </r>
       <r>  -11.7744    1.0000 </r>
       <r>  -11.7084    1.0000 </r>
       <r>  -11.6876    1.0000 </r>
       <r>  -11.6337    1.0000 </r>
       <r>  -11.5611    1.0000 </r>
       <r>  -11.2485    1.0000 </r>
       <r>  -11.1893    1.0000 </r>
       <r>  -11.1592    1.0000 </r>
       <r>  -11.0999    1.0000 </r>
       <r>  -11.0789    1.0000 </r>
       <r>  -11.0223    1.0000 </r>
       <r>  -10.9939    1.0000 </r>
       <r>  -10.9259    1.0000 </r>
       <r>  -10.9044    1.0000 </r>
       <r>   -9.7197    1.0000 </r>
       <r>   -9.6646    1.0000 </r>
       <r>   -9.3938    1.0000 </r>
       <r>   -9.3396    1.0000 </r>
       <r>   -9.2866    1.0000 </r>
       <r>   -9.2593    1.0000 </r>
       <r>   -9.1894    1.0000 </r>
       <r>   -9.1725    1.0000 </r>
       <r>   -9.1578    1.0000 </r>
       <r>   -9.1344    1.0000 </r>
       <r>   -9.1032    1.0000 </r>
       <r>   -9.0933    1.0000 </r>
       <r>   -9.0707    1.0000 </r>
       <r>   -9.0549    1.0000 </r>
       <r>   -9.0431    1.0000 </r>
       <r>   -9.0198    1.0000 </r>
       <r>   -8.9895    1.0000 </r>
       <r>   -8.9808    1.0000 </r>
       <r>   -8.9494    1.0000 </r>
       <r>   -8.9361    1.0000 </r>
       <r>   -8.9238    1.0000 </r>
       <r>   -8.8951    1.0000 </r>
       <r>   -8.8801    1.0000 </r>
       <r>   -8.8664    1.0000 </r>
       <r>   -8.8476    1.0000 </r>
       <r>   -8.8465    1.0000 </r>
       <r>   -8.8234    1.0000 </r>
       <r>   -8.8110    1.0000 </r>
       <r>   -8.8022    1.0000 </r>
       <r>   -8.7625    1.0000 </r>
       <r>   -8.7546    1.0000 </r>
       <r>   -8.7398    1.0000 </r>
       <r>   -8.7286    1.0000 </r>
       <r>   -8.7099    1.0000 </r>
       <r>   -8.7020    1.0000 </r>
       <r>   -8.6858    1.0000 </r>
       <r>   -8.6678    1.0000 </r>
       <r>   -8.6575    1.0000 </r>
       <r>   -8.6466    1.0000 </r>
       <r>   -8.6426    1.0000 </r>
       <r>   -8.6299    1.0000 </r>
       <r>   -8.6169    1.0000 </r>
       <r>   -8.5930    1.0000 </r>
       <r>   -8.5915    1.0000 </r>
       <r>   -8.5770    1.0000 </r>
       <r>   -8.5692    1.0000 </r>
       <r>   -8.5520    1.0000 </r>
       <r>   -8.5388    1.0000 </r>
       <r>   -8.5074    1.0000 </r>
       <r>   -8.5030    1.0000 </r>
       <r>   -8.4873    1.0000 </r>
       <r>   -8.4657    1.0000 </r>
       <r>   -8.4489    1.0000 </r>
       <r>   -8.4250    1.0000 </r>
       <r>   -8.4142    1.0000 </r>
       <r>   -8.4086    1.0000 </r>
       <r>   -8.3946    1.0000 </r>
       <r>   -8.3697    1.0000 </r>
       <r>   -8.3616    1.0000 </r>
       <r>   -8.3457    1.0000 </r>
       <r>   -8.3405    1.0000 </r>
       <r>   -8.3245    1.0000 </r>
       <r>   -8.3106    1.0000 </r>
       <r>   -8.3063    1.0000 </r>
       <r>   -8.2985    1.0000 </r>
       <r>   -8.2819    1.0000 </r>
       <r>   -8.2581    1.0000 </r>
       <r>   -8.2381    1.0000 </r>
       <r>   -8.2268    1.0000 </r>
       <r>   -8.2217    1.0000 </r>
       <r>   -8.2177    1.0000 </r>
       <r>   -8.1985    1.0000 </r>
       <r>   -8.1896    1.0000 </r>
       <r>   -8.1628    1.0000 </r>
       <r>   -8.1536    1.0000 </r>
       <r>   -8.1405    1.0000 </r>
       <r>   -8.1343    1.0000 </r>
       <r>   -8.0930    1.0000 </r>
       <r>   -8.0734    1.0000 </r>
       <r>   -8.0515    1.0000 </r>
       <r>   -8.0484    1.0000 </r>
       <r>   -8.0194    1.0000 </r>
       <r>   -8.0092    1.0000 </r>
       <r>   -7.9873    1.0000 </r>
       <r>   -7.9753    1.0000 </r>
       <r>   -7.9468    1.0000 </r>
       <r>   -7.9338    1.0000 </r>
       <r>   -7.9136    1.0000 </r>
       <r>   -7.8912    1.0000 </r>
       <r>   -7.8484    1.0000 </r>
       <r>   -7.8372    1.0000 </r>
       <r>   -7.8170    1.0000 </r>
       <r>   -7.7551    1.0000 </r>
       <r>   -7.7321    1.0000 </r>
       <r>   -7.7026    1.0000 </r>
       <r>   -7.6337    1.0000 </r>
       <r>   -5.3869    1.0000 </r>
       <r>   -5.2795    1.0000 </r>
       <r>   -5.2471    1.0000 </r>
       <r>   -5.0385    1.0000 </r>
       <r>   -5.0017    1.0000 </r>
       <r>   -4.9375    1.0000 </r>
       <r>   -4.8837    1.0000 </r>
       <r>   -4.8698    1.0000 </r>
       <r>   -4.8088    1.0000 </r>
       <r>   -4.6941    1.0000 </r>
       <r>   -4.5927    1.0000 </r>
       <r>   -4.5227    1.0000 </r>
       <r>   -4.4481    1.0000 </r>
       <r>   -4.4244    1.0000 </r>
       <r>   -4.4051    1.0000 </r>
       <r>   -4.3850    1.0000 </r>
       <r>   -4.3737    1.0000 </r>
       <r>   -4.3601    1.0000 </r>
       <r>   -4.3140    1.0000 </r>
       <r>   -4.2844    1.0000 </r>
       <r>   -4.2716    1.0000 </r>
       <r>   -4.2134    1.0000 </r>
       <r>   -4.2064    1.0000 </r>
       <r>   -4.1720    1.0000 </r>
       <r>   -4.1381    1.0000 </r>
       <r>   -4.1245    1.0000 </r>
       <r>   -4.0873    1.0000 </r>
       <r>   -4.0747    1.0000 </r>
       <r>   -4.0360    1.0000 </r>
       <r>   -4.0210    1.0000 </r>
       <r>   -3.9606    1.0000 </r>
       <r>   -3.9322    1.0000 </r>
       <r>   -3.8928    1.0000 </r>
       <r>   -3.8587    1.0000 </r>
       <r>   -3.8107    1.0000 </r>
       <r>   -3.7770    1.0000 </r>
       <r>   -3.7283    1.0000 </r>
       <r>   -3.4629    1.0000 </r>
       <r>   -3.4321    1.0000 </r>
       <r>   -3.3926    1.0000 </r>
       <r>   -3.3251    1.0000 </r>
       <r>   -3.2342    1.0000 </r>
       <r>   -3.2171    1.0000 </r>
       <r>   -3.2031    1.0000 </r>
       <r>   -3.1905    1.0000 </r>
       <r>   -3.1258    1.0000 </r>
       <r>   -2.9789    1.0000 </r>
       <r>   -2.9260    1.0000 </r>
       <r>   -1.9694    0.0000 </r>
       <r>   -1.9154    0.0000 </r>
       <r>   -1.9082    0.0000 </r>
       <r>   -1.4160    0.0000 </r>
       <r>   -1.3420    0.0000 </r>
       <r>   -1.2897    0.0000 </r>
       <r>   -1.2764    0.0000 </r>
       <r>   -1.2465    0.0000 </r>
       <r>   -1.1704    0.0000 </r>
       <r>   -0.6857    0.0000 </r>
       <r>   -0.6133    0.0000 </r>
       <r>   -0.5786    0.0000 </r>
       <r>   -0.5586    0.0000 </r>
       <r>   -0.5263    0.0000 </r>
       <r>   -0.4556    0.0000 </r>
       <r>   -0.4184    0.0000 </r>
       <r>   -0.4031    0.0000 </r>
       <r>   -0.3535    0.0000 </r>
       <r>   -0.3145    0.0000 </r>
       <r>   -0.2777    0.0000 </r>
       <r>   -0.2675    0.0000 </r>
       <r>   -0.2244    0.0000 </r>
       <r>   -0.1234    0.0000 </r>
       <r>   -0.0679    0.0000 </r>
       <r>    0.0901    0.0000 </r>
       <r>    0.1396    0.0000 </r>
       <r>    0.1577    0.0000 </r>
       <r>    0.2432    0.0000 </r>
       <r>    0.2596    0.0000 </r>
       <r>    0.2796    0.0000 </r>
       <r>    0.3432    0.0000 </r>
       <r>    0.3620    0.0000 </r>
       <r>    0.3734    0.0000 </r>
       <r>    0.4372    0.0000 </r>
       <r>    0.4539    0.0000 </r>
       <r>    0.4734    0.0000 </r>
       <r>    0.4963    0.0000 </r>
       <r>    0.5105    0.0000 </r>
       <r>    0.5546    0.0000 </r>
       <r>    0.5712    0.0000 </r>
       <r>    0.5970    0.0000 </r>
       <r>    0.6087    0.0000 </r>
       <r>    0.6305    0.0000 </r>
       <r>    0.6452    0.0000 </r>
       <r>    0.6723    0.0000 </r>
       <r>    0.7019    0.0000 </r>
       <r>    0.7371    0.0000 </r>
       <r>    0.7541    0.0000 </r>
       <r>    0.7897    0.0000 </r>
       <r>    0.8137    0.0000 </r>
       <r>    0.8229    0.0000 </r>
       <r>    0.8570    0.0000 </r>
       <r>    0.8627    0.0000 </r>
       <r>    0.8905    0.0000 </r>
       <r>    0.9033    0.0000 </r>
       <r>    0.9192    0.0000 </r>
       <r>    0.9328    0.0000 </r>
       <r>    0.9593    0.0000 </r>
       <r>    0.9871    0.0000 </r>
       <r>    0.9942    0.0000 </r>
       <r>    1.0248    0.0000 </r>
       <r>    1.0556    0.0000 </r>
       <r>    1.0576    0.0000 </r>
       <r>    1.0838    0.0000 </r>
      </set>
      <set comment="kpoint 2">
       <r>  -52.1245    1.0000 </r>
       <r>  -52.0830    1.0000 </r>
       <r>  -51.9665    1.0000 </r>
       <r>  -51.9577    1.0000 </r>
       <r>  -51.9023    1.0000 </r>
       <r>  -51.8744    1.0000 </r>
       <r>  -51.7780    1.0000 </r>
       <r>  -51.7482    1.0000 </r>
       <r>  -51.7206    1.0000 </r>
       <r>  -51.6968    1.0000 </r>
       <r>  -51.6720    1.0000 </r>
       <r>  -51.6598    1.0000 </r>
       <r>  -51.6571    1.0000 </r>
       <r>  -51.6518    1.0000 </r>
       <r>  -51.5880    1.0000 </r>
       <r>  -51.5649    1.0000 </r>
       <r>  -51.5542    1.0000 </r>
       <r>  -51.5472    1.0000 </r>
       <r>  -51.5321    1.0000 </r>
       <r>  -51.4793    1.0000 </r>
       <r>  -51.4110    1.0000 </r>
       <r>  -51.4007    1.0000 </r>
       <r>  -51.3760    1.0000 </r>
       <r>  -51.3248    1.0000 </r>
       <r>  -51.2954    1.0000 </r>
       <r>  -51.2941    1.0000 </r>
       <r>  -51.2508    1.0000 </r>
       <r>  -51.2229    1.0000 </r>
       <r>  -51.2007    1.0000 </r>
       <r>  -51.1894    1.0000 </r>
       <r>  -51.1318    1.0000 </r>
       <r>  -50.7717    1.0000 </r>
       <r>  -31.1447    1.0000 </r>
       <r>  -30.9350    1.0000 </r>
       <r>  -30.9206    1.0000 </r>
       <r>  -30.9068    1.0000 </r>
       <r>  -30.8730    1.0000 </r>
       <r>  -30.8693    1.0000 </r>
       <r>  -30.8561    1.0000 </r>
       <r>  -30.8160    1.0000 </r>
       <r>  -30.8116    1.0000 </r>
       <r>  -30.8016    1.0000 </r>
       <r>  -30.7966    1.0000 </r>
       <r>  -30.7871    1.0000 </r>
       <r>  -30.7444    1.0000 </r>
       <r>  -30.7347    1.0000 </r>
       <r>  -30.7271    1.0000 </r>
       <r>  -30.7099    1.0000 </r>
       <r>  -30.6920    1.0000 </r>
       <r>  -30.6707    1.0000 </r>
       <r>  -30.6441    1.0000 </r>
       <r>  -30.6281    1.0000 </r>
       <r>  -30.5940    1.0000 </r>
       <r>  -30.5750    1.0000 </r>
       <r>  -30.5494    1.0000 </r>
       <r>  -30.5444    1.0000 </r>
       <r>  -30.5416    1.0000 </r>
       <r>  -30.5214    1.0000 </r>
       <r>  -30.5116    1.0000 </r>
       <r>  -30.5083    1.0000 </r>
       <r>  -30.4901    1.0000 </r>
       <r>  -30.4791    1.0000 </r>
       <r>  -30.4719    1.0000 </r>
       <r>  -30.4633    1.0000 </r>
       <r>  -30.4499    1.0000 </r>
       <r>  -30.4392    1.0000 </r>
       <r>  -30.4106    1.0000 </r>
       <r>  -30.3999    1.0000 </r>
       <r>  -30.3838    1.0000 </r>
       <r>  -30.3799    1.0000 </r>
       <r>  -30.3759    1.0000 </r>
       <r>  -30.3636    1.0000 </r>
       <r>  -30.3553    1.0000 </r>
       <r>  -30.3404    1.0000 </r>
       <r>  -30.3325    1.0000 </r>
       <r>  -30.3215    1.0000 </r>
       <r>  -30.3127    1.0000 </r>
       <r>  -30.3028    1.0000 </r>
       <r>  -30.2900    1.0000 </r>
       <r>  -30.2827    1.0000 </r>
       <r>  -30.2771    1.0000 </r>
       <r>  -30.2741    1.0000 </r>
       <r>  -30.2608    1.0000 </r>
       <r>  -30.2571    1.0000 </r>
       <r>  -30.2471    1.0000 </r>
       <r>  -30.2391    1.0000 </r>
       <r>  -30.2342    1.0000 </r>
       <r>  -30.2184    1.0000 </r>
       <r>  -30.2114    1.0000 </r>
       <r>  -30.2034    1.0000 </r>
       <r>  -30.1982    1.0000 </r>
       <r>  -30.1865    1.0000 </r>
       <r>  -30.1724    1.0000 </r>
       <r>  -30.1529    1.0000 </r>
       <r>  -30.1344    1.0000 </r>
       <r>  -30.1222    1.0000 </r>
       <r>  -30.1162    1.0000 </r>
       <r>  -30.1060    1.0000 </r>
       <r>  -30.0956    1.0000 </r>
       <r>  -30.0911    1.0000 </r>
       <r>  -30.0741    1.0000 </r>
       <r>  -30.0687    1.0000 </r>
       <r>  -30.0524    1.0000 </r>
       <r>  -30.0488    1.0000 </r>
       <r>  -30.0398    1.0000 </r>
       <r>  -30.0314    1.0000 </r>
       <r>  -30.0227    1.0000 </r>
       <r>  -29.9999    1.0000 </r>
       <r>  -29.9960    1.0000 </r>
       <r>  -29.9885    1.0000 </r>
       <r>  -29.9825    1.0000 </r>
       <r>  -29.9792    1.0000 </r>
       <r>  -29.9464    1.0000 </r>
       <r>  -29.9353    1.0000 </r>
       <r>  -29.9214    1.0000 </r>
       <r>  -29.9119    1.0000 </r>
       <r>  -29.9046    1.0000 </r>
       <r>  -29.8956    1.0000 </r>
       <r>  -29.8736    1.0000 </r>
       <r>  -29.8651    1.0000 </r>
       <r>  -29.8374    1.0000 </r>
       <r>  -29.8353    1.0000 </r>
       <r>  -29.8162    1.0000 </r>
       <r>  -29.8104    1.0000 </r>
       <r>  -29.7631    1.0000 </r>
       <r>  -29.5521    1.0000 </r>
       <r>  -29.5080    1.0000 </r>
       <r>  -29.4857    1.0000 </r>
       <r>  -27.3270    1.0000 </r>
       <r>  -27.0405    1.0000 </r>
       <r>  -26.9652    1.0000 </r>
       <r>  -26.9461    1.0000 </r>
       <r>  -26.9015    1.0000 </r>
       <r>  -26.8712    1.0000 </r>
       <r>  -26.8498    1.0000 </r>
       <r>  -26.8104    1.0000 </r>
       <r>  -26.8005    1.0000 </r>
       <r>  -26.7781    1.0000 </r>
       <r>  -26.7744    1.0000 </r>
       <r>  -26.7680    1.0000 </r>
       <r>  -26.7312    1.0000 </r>
       <r>  -26.6685    1.0000 </r>
       <r>  -26.6445    1.0000 </r>
       <r>  -26.6147    1.0000 </r>
       <r>  -26.6054    1.0000 </r>
       <r>  -26.5512    1.0000 </r>
       <r>  -26.5275    1.0000 </r>
       <r>  -26.4465    1.0000 </r>
       <r>  -26.4415    1.0000 </r>
       <r>  -26.4002    1.0000 </r>
       <r>  -26.3928    1.0000 </r>
       <r>  -26.3646    1.0000 </r>
       <r>  -26.3589    1.0000 </r>
       <r>  -26.2939    1.0000 </r>
       <r>  -26.2820    1.0000 </r>
       <r>  -26.2713    1.0000 </r>
       <r>  -26.1930    1.0000 </r>
[...]
       <r>   -32.5301     0.0000    64.0000 </r>
       <r>   -32.3349     0.0000    64.0000 </r>
       <r>   -32.1397     0.0000    64.0000 </r>
       <r>   -31.9444     0.0000    64.0000 </r>
       <r>   -31.7492     0.0000    64.0000 </r>
       <r>   -31.5540     0.0000    64.0000 </r>
       <r>   -31.3587     0.0000    64.0000 </r>
       <r>   -31.1635     3.0480    64.5951 </r>
       <r>   -30.9683    10.3604    66.6178 </r>
       <r>   -30.7730   103.5741    86.8389 </r>
       <r>   -30.5778   106.2036   107.5735 </r>
       <r>   -30.3826   161.5624   139.1159 </r>
       <r>   -30.1873   215.7413   181.2359 </r>
       <r>   -29.9921   188.2052   217.9799 </r>
       <r>   -29.7969   145.7487   246.4350 </r>
       <r>   -29.6016    19.1360   250.1710 </r>
       <r>   -29.4064    29.7122   255.9718 </r>
       <r>   -29.2112     0.1442   256.0000 </r>
       <r>   -29.0159     0.0000   256.0000 </r>
       <r>   -28.8207     0.0000   256.0000 </r>
       <r>   -28.6255     0.0000   256.0000 </r>
       <r>   -28.4302     0.0000   256.0000 </r>
       <r>   -28.2350     0.0000   256.0000 </r>
       <r>   -28.0397     0.0000   256.0000 </r>
       <r>   -27.8445     0.0000   256.0000 </r>
       <r>   -27.6493     0.0000   256.0000 </r>
       <r>   -27.4540     0.0017   256.0003 </r>
       <r>   -27.2588     9.9671   257.9462 </r>
       <r>   -27.0636     2.9430   258.5208 </r>
       <r>   -26.8683    45.7538   267.4535 </r>
       <r>   -26.6731    81.4114   283.3478 </r>
       <r>   -26.4779    57.2619   294.5272 </r>
       <r>   -26.2826    73.8258   308.9405 </r>
       <r>   -26.0874    33.3578   315.4531 </r>
       <r>   -25.8922    22.1807   319.7835 </r>
       <r>   -25.6969     1.1087   320.0000 </r>
       <r>   -25.5017     0.0000   320.0000 </r>
       <r>   -25.3065     0.0000   320.0000 </r>
       <r>   -25.1112     0.0000   320.0000 </r>
       <r>   -24.9160     0.0000   320.0000 </r>
       <r>   -24.7208     0.0000   320.0000 </r>
       <r>   -24.5255     0.0000   320.0000 </r>
       <r>   -24.3303     0.0000   320.0000 </r>
       <r>   -24.1351     0.0000   320.0000 </r>
       <r>   -23.9398     0.0000   320.0000 </r>
       <r>   -23.7446     0.0000   320.0000 </r>
       <r>   -23.5494     0.0000   320.0000 </r>
       <r>   -23.3541     0.0000   320.0000 </r>
       <r>   -23.1589     0.0000   320.0000 </r>
       <r>   -22.9637     0.0000   320.0000 </r>
       <r>   -22.7684     0.0000   320.0000 </r>
       <r>   -22.5732     0.0000   320.0000 </r>
       <r>   -22.3780     0.0000   320.0000 </r>
       <r>   -22.1827     0.0000   320.0000 </r>
       <r>   -21.9875     0.0000   320.0000 </r>
       <r>   -21.7923     0.0000   320.0000 </r>
       <r>   -21.5970     0.0000   320.0000 </r>
       <r>   -21.4018     0.0000   320.0000 </r>
       <r>   -21.2066     0.0000   320.0000 </r>
       <r>   -21.0113     0.0000   320.0000 </r>
       <r>   -20.8161     0.0000   320.0000 </r>
       <r>   -20.6209     0.0000   320.0000 </r>
       <r>   -20.4256     0.0000   320.0000 </r>
       <r>   -20.2304     0.0000   320.0000 </r>
       <r>   -20.0352     0.0000   320.0000 </r>
       <r>   -19.8399     0.0000   320.0000 </r>
       <r>   -19.6447     0.0000   320.0000 </r>
       <r>   -19.4495     0.0000   320.0000 </r>
       <r>   -19.2542     0.0000   320.0000 </r>
       <r>   -19.0590     0.0000   320.0000 </r>
       <r>   -18.8638     0.0000   320.0000 </r>
       <r>   -18.6685     0.0000   320.0000 </r>
       <r>   -18.4733     0.0000   320.0000 </r>
       <r>   -18.2781     0.0000   320.0000 </r>
       <r>   -18.0828     0.0000   320.0000 </r>
       <r>   -17.8876     0.0000   320.0000 </r>
       <r>   -17.6924     0.0000   320.0000 </r>
       <r>   -17.4971     0.0000   320.0000 </r>
       <r>   -17.3019     0.0000   320.0000 </r>
       <r>   -17.1067     0.0000   320.0000 </r>
       <r>   -16.9114     0.0000   320.0000 </r>
       <r>   -16.7162     0.0000   320.0000 </r>
       <r>   -16.5210     0.0000   320.0000 </r>
       <r>   -16.3257     0.0000   320.0000 </r>
       <r>   -16.1305     0.0000   320.0000 </r>
       <r>   -15.9353     0.0000   320.0000 </r>
       <r>   -15.7400     0.0000   320.0000 </r>
       <r>   -15.5448     0.0000   320.0000 </r>
       <r>   -15.3496     0.0000   320.0000 </r>
       <r>   -15.1543     0.0000   320.0000 </r>
       <r>   -14.9591     0.0000   320.0000 </r>
       <r>   -14.7638     0.0000   320.0000 </r>
       <r>   -14.5686     0.0000   320.0000 </r>
       <r>   -14.3734     0.0000   320.0000 </r>
       <r>   -14.1781     0.0000   320.0000 </r>
       <r>   -13.9829     0.0000   320.0000 </r>
       <r>   -13.7877     0.0000   320.0000 </r>
       <r>   -13.5924     0.0000   320.0000 </r>
       <r>   -13.3972     0.0000   320.0000 </r>
       <r>   -13.2020     0.0000   320.0000 </r>
       <r>   -13.0067     0.0000   320.0000 </r>
       <r>   -12.8115     0.0000   320.0000 </r>
       <r>   -12.6163     0.0000   320.0000 </r>
       <r>   -12.4210     0.0000   320.0000 </r>
       <r>   -12.2258     0.1505   320.0294 </r>
       <r>   -12.0306    10.5222   322.0837 </r>
       <r>   -11.8353    14.6198   324.9379 </r>
       <r>   -11.6401    16.0952   328.0803 </r>
       <r>   -11.4449    22.6987   332.5118 </r>
       <r>   -11.2496    26.6990   337.7244 </r>
       <r>   -11.0544    33.2541   344.2167 </r>
       <r>   -10.8592    33.1218   350.6832 </r>
       <r>   -10.6639     6.7448   352.0000 </r>
       <r>   -10.4687     0.0000   352.0000 </r>
       <r>   -10.2735     0.0000   352.0000 </r>
       <r>   -10.0782     0.0000   352.0000 </r>
       <r>    -9.8830     0.0000   352.0000 </r>
       <r>    -9.6878    10.1545   353.9825 </r>
       <r>    -9.4925    10.3402   356.0013 </r>
       <r>    -9.2973    22.2014   360.3357 </r>
       <r>    -9.1021    68.8924   373.7859 </r>
       <r>    -8.9068   106.1579   394.5115 </r>
       <r>    -8.7116   128.8339   419.6642 </r>
       <r>    -8.5164   150.1412   448.9769 </r>
       <r>    -8.3211   140.7944   476.4647 </r>
       <r>    -8.1259   142.9921   504.3816 </r>
       <r>    -7.9307   105.4277   524.9646 </r>
       <r>    -7.7354    69.9422   538.6197 </r>
       <r>    -7.5402    27.4934   543.9874 </r>
       <r>    -7.3450     0.0647   544.0000 </r>
       <r>    -7.1497     0.0000   544.0000 </r>
       <r>    -6.9545     0.0000   544.0000 </r>
       <r>    -6.7593     0.0000   544.0000 </r>
       <r>    -6.5640     0.0000   544.0000 </r>
       <r>    -6.3688     0.0000   544.0000 </r>
       <r>    -6.1736     0.0000   544.0000 </r>
       <r>    -5.9783     0.0000   544.0000 </r>
       <r>    -5.7831     0.0000   544.0000 </r>
       <r>    -5.5879     0.0000   544.0000 </r>
       <r>    -5.3926     1.9787   544.3863 </r>
       <r>    -5.1974    20.4770   548.3841 </r>
       <r>    -5.0022    28.7076   553.9888 </r>
       <r>    -4.8069    37.0165   561.2157 </r>
       <r>    -4.6117    28.9294   566.8637 </r>
       <r>    -4.4165    39.6739   574.6094 </r>
       <r>    -4.2212    48.8258   584.1418 </r>
       <r>    -4.0260    61.8361   596.2143 </r>
       <r>    -3.8308    62.4592   608.4085 </r>
       <r>    -3.6355    49.9692   618.1642 </r>
       <r>    -3.4403    35.1385   625.0244 </r>
       <r>    -3.2451    37.1086   632.2693 </r>
       <r>    -3.0498    29.6289   638.0538 </r>
       <r>    -2.8546     9.9391   639.9943 </r>
       <r>    -2.6594     0.0294   640.0000 </r>
       <r>    -2.4641     0.0000   640.0000 </r>
       <r>    -2.2689     0.0000   640.0000 </r>
       <r>    -2.0737     0.0018   640.0004 </r>
       <r>    -1.8784     5.9655   641.1650 </r>
       <r>    -1.6832    12.0132   643.5104 </r>
       <r>    -1.4879    21.3902   647.6865 </r>
       <r>    -1.2927    14.8237   650.5806 </r>
       <r>    -1.0975    20.4613   654.5753 </r>
       <r>    -0.9022    26.0278   659.6568 </r>
       <r>    -0.7070    25.5137   664.6380 </r>
       <r>    -0.5118    30.8790   670.6666 </r>
       <r>    -0.3165    35.3769   677.5734 </r>
       <r>    -0.1213    30.4519   683.5186 </r>
       <r>     0.0739    30.0059   689.3768 </r>
       <r>     0.2692    31.7599   695.5774 </r>
       <r>     0.4644    53.6087   706.0436 </r>
       <r>     0.6596    93.8543   724.3671 </r>
       <r>     0.8549    97.2953   743.3625 </r>
       <r>     1.0501   101.1187   763.1043 </r>
       <r>     1.2453    25.0756   767.9999 </r>
       <r>     1.4406     0.0006   768.0000 </r>
       <r>     1.6358     0.0000   768.0000 </r>
       <r>     1.8310     0.0000   768.0000 </r>
       <r>     2.0263     0.0000   768.0000 </r>
       <r>     2.2215     0.0000   768.0000 </r>
       <r>     2.4167     0.0000   768.0000 </r>
       <r>     2.6120     0.0000   768.0000 </r>
       <r>     2.8072     0.0000   768.0000 </r>
       <r>     3.0024     0.0000   768.0000 </r>
       <r>     3.1977     0.0000   768.0000 </r>
       <r>     3.3929     0.0000   768.0000 </r>
       <r>     3.5881     0.0000   768.0000 </r>
       <r>     3.7834     0.0000   768.0000 </r>
      </set>
     </set>
    </array>
   </total>
  </dos>
 </calculation>
 <structure name="finalpos" >
  <crystal>
   <varray name="basis" >
    <v>      13.12862340       0.00000000       0.00000000 </v>
    <v>      -6.56431170      11.36972138       0.00000000 </v>
    <v>       0.00000000       0.00000000      26.82809424 </v>
   </varray>
   <i name="volume">   4004.59716953 </i>
   <varray name="rec_basis" >
    <v>       0.07616945       0.04397645       0.00000000 </v>
    <v>       0.00000000       0.08795290       0.00000000 </v>
    <v>       0.00000000       0.00000000       0.03727436 </v>
   </varray>
  </crystal>
  <varray name="positions" >
   <v>       0.08845541       0.16137687       0.45559299 </v>
   <v>       0.09131478       0.41558785       0.45735210 </v>
   <v>       0.07884315       0.66970473       0.45166303 </v>
   <v>       0.08085765       0.92414195       0.45337397 </v>
   <v>       0.32990863       0.16312262       0.45652173 </v>
   <v>       0.34246567       0.42395288       0.44537104 </v>
   <v>       0.33485764       0.66410058       0.45245111 </v>
   <v>       0.32729747       0.91927686       0.45112310 </v>
   <v>       0.58262090       0.16486648       0.45192226 </v>
   <v>       0.57468164       0.41601897       0.45159606 </v>
   <v>       0.59243323       0.66360068       0.45505312 </v>
   <v>       0.57947890       0.91173139       0.45374442 </v>
   <v>       0.84126457       0.17253633       0.45211869 </v>
   <v>       0.84029418       0.41771053       0.45138202 </v>
   <v>       0.82166199       0.65501941       0.44376853 </v>
   <v>       0.81932714       0.90374565       0.44936598 </v>
   <v>       0.16661517       0.07871096       0.55128184 </v>
   <v>       0.17472512       0.33058557       0.54508133 </v>
   <v>       0.15444943       0.57962109       0.54858351 </v>
   <v>       0.16864994       0.83824402       0.54251731 </v>
   <v>       0.42857849       0.08993822       0.55012044 </v>
   <v>       0.42364388       0.33147418       0.55107170 </v>
   <v>       0.42409640       0.59858300       0.54723564 </v>
   <v>       0.41449719       0.83041672       0.54921297 </v>
   <v>       0.67346568       0.09337733       0.54720585 </v>
   <v>       0.67055889       0.34767843       0.54448218 </v>
   <v>       0.66621327       0.59202565       0.54995909 </v>
   <v>       0.65871045       0.83391159       0.55092358 </v>
   <v>       0.90970886       0.07636982       0.54332005 </v>
   <v>       0.91931780       0.34149593       0.55353845 </v>
   <v>       0.91229308       0.58861877       0.54370378 </v>
   <v>       0.91301465       0.82414601       0.54327612 </v>
   <v>       0.09107718       0.15714975       0.59377634 </v>
   <v>       0.08826659       0.43224607       0.59598209 </v>
   <v>       0.09789732       0.68714795       0.59208332 </v>
   <v>       0.08039157       0.91125105       0.59424896 </v>
   <v>       0.33360256       0.16431960       0.58902528 </v>
   <v>       0.33172561       0.41226498       0.58736572 </v>
   <v>       0.32437137       0.66354426       0.59528757 </v>
   <v>       0.34127326       0.91677994       0.59227386 </v>
   <v>       0.57941239       0.17046449       0.58881637 </v>
   <v>       0.57239095       0.41824581       0.59193409 </v>
   <v>       0.59309428       0.67978931       0.59477655 </v>
   <v>       0.57031883       0.90274404       0.59921466 </v>
   <v>       0.83095833       0.17489180       0.59034376 </v>
   <v>       0.82154210       0.41281766       0.59461662 </v>
   <v>       0.81909464       0.66315028       0.59149321 </v>
   <v>       0.83063057       0.89979601       0.58773132 </v>
   <v>       0.15733061       0.08124767       0.40934889 </v>
   <v>       0.16876212       0.33356501       0.40999398 </v>
   <v>       0.15854367       0.58501238       0.41418448 </v>
   <v>       0.16318023       0.82214578       0.40935986 </v>
   <v>       0.43115142       0.08351709       0.40647241 </v>
   <v>       0.40789481       0.32995083       0.40602124 </v>
   <v>       0.41983067       0.58422495       0.40529470 </v>
   <v>       0.42924919       0.84091387       0.40710870 </v>
   <v>       0.67349586       0.06959101       0.41144912 </v>
   <v>       0.66522577       0.33547301       0.41534623 </v>
   <v>       0.66877781       0.57449337       0.40151775 </v>
   <v>       0.66455866       0.81660497       0.40415532 </v>
   <v>       0.91880374       0.09116979       0.41593471 </v>
   <v>       0.91368193       0.33412328       0.40531593 </v>
   <v>       0.90640086       0.58295630       0.40211935 </v>
   <v>       0.91284404       0.83952060       0.41584817 </v>
   <v>       0.00385617       0.99538005       0.50272946 </v>
   <v>       0.01389726       0.25689509       0.49861502 </v>
   <v>       0.99626843       0.50047532       0.50367355 </v>
   <v>       0.99941720       0.74776361       0.49518846 </v>
   <v>       0.25630947       0.01120614       0.50052168 </v>
   <v>       0.24819793       0.23542188       0.50327517 </v>
   <v>       0.24501504       0.49112161       0.49509913 </v>
   <v>       0.24857624       0.74038579       0.49490090 </v>
   <v>       0.50883920       0.99723716       0.50326032 </v>
   <v>       0.50589061       0.25742422       0.50290545 </v>
   <v>       0.49894222       0.50220897       0.49520398 </v>
   <v>       0.50971741       0.74735490       0.50478872 </v>
   <v>       0.75113567       0.00059410       0.50032306 </v>
   <v>       0.73999568       0.24018542       0.49573171 </v>
   <v>       0.75889215       0.50059870       0.49680590 </v>
   <v>       0.75307871       0.74025186       0.50058672 </v>
  </varray>
  <varray name="velocities" >
   <v>       0.00000000       0.00000000       0.00000000 </v>
   <v>       0.00000000       0.00000000       0.00000000 </v>
   <v>       0.00000000       0.00000000       0.00000000 </v>
   <v>       0.00000000       0.00000000       0.00000000 </v>
   <v>       0.00000000       0.00000000       0.00000000 </v>
   <v>       0.00000000       0.00000000       0.00000000 </v>
   <v>       0.00000000       0.00000000       0.00000000 </v>
   <v>       0.00000000       0.00000000       0.00000000 </v>
   <v>       0.00000000       0.00000000       0.00000000 </v>
   <v>       0.00000000       0.00000000       0.00000000 </v>
   <v>       0.00000000       0.00000000       0.00000000 </v>
   <v>       0.00000000       0.00000000       0.00000000 </v>
   <v>       0.00000000       0.00000000       0.00000000 </v>
   <v>       0.00000000       0.00000000       0.00000000 </v>
   <v>       0.00000000       0.00000000       0.00000000 </v>
   <v>       0.00000000       0.00000000       0.00000000 </v>
   <v>       0.00000000       0.00000000       0.00000000 </v>
   <v>       0.00000000       0.00000000       0.00000000 </v>
   <v>       0.00000000       0.00000000       0.00000000 </v>
   <v>       0.00000000       0.00000000       0.00000000 </v>
   <v>       0.00000000       0.00000000       0.00000000 </v>
   <v>       0.00000000       0.00000000       0.00000000 </v>
   <v>       0.00000000       0.00000000       0.00000000 </v>
   <v>       0.00000000       0.00000000       0.00000000 </v>
   <v>       0.00000000       0.00000000       0.00000000 </v>
   <v>       0.00000000       0.00000000       0.00000000 </v>
   <v>       0.00000000       0.00000000       0.00000000 </v>
   <v>       0.00000000       0.00000000       0.00000000 </v>
   <v>       0.00000000       0.00000000       0.00000000 </v>
   <v>       0.00000000       0.00000000       0.00000000 </v>
   <v>       0.00000000       0.00000000       0.00000000 </v>
   <v>       0.00000000       0.00000000       0.00000000 </v>
   <v>       0.00000000       0.00000000       0.00000000 </v>
   <v>       0.00000000       0.00000000       0.00000000 </v>
   <v>       0.00000000       0.00000000       0.00000000 </v>
   <v>       0.00000000       0.00000000       0.00000000 </v>
   <v>       0.00000000       0.00000000       0.00000000 </v>
   <v>       0.00000000       0.00000000       0.00000000 </v>
   <v>       0.00000000       0.00000000       0.00000000 </v>
   <v>       0.00000000       0.00000000       0.00000000 </v>
   <v>       0.00000000       0.00000000       0.00000000 </v>
   <v>       0.00000000       0.00000000       0.00000000 </v>
   <v>       0.00000000       0.00000000       0.00000000 </v>
   <v>       0.00000000       0.00000000       0.00000000 </v>
   <v>       0.00000000       0.00000000       0.00000000 </v>
   <v>       0.00000000       0.00000000       0.00000000 </v>
   <v>       0.00000000       0.00000000       0.00000000 </v>
   <v>       0.00000000       0.00000000       0.00000000 </v>
   <v>       0.00000000       0.00000000       0.00000000 </v>
   <v>       0.00000000       0.00000000       0.00000000 </v>
   <v>       0.00000000       0.00000000       0.00000000 </v>
   <v>       0.00000000       0.00000000       0.00000000 </v>
   <v>       0.00000000       0.00000000       0.00000000 </v>
   <v>       0.00000000       0.00000000       0.00000000 </v>
   <v>       0.00000000       0.00000000       0.00000000 </v>
   <v>       0.00000000       0.00000000       0.00000000 </v>
   <v>       0.00000000       0.00000000       0.00000000 </v>
   <v>       0.00000000       0.00000000       0.00000000 </v>
   <v>       0.00000000       0.00000000       0.00000000 </v>
   <v>       0.00000000       0.00000000       0.00000000 </v>
   <v>       0.00000000       0.00000000       0.00000000 </v>
   <v>       0.00000000       0.00000000       0.00000000 </v>
   <v>       0.00000000       0.00000000       0.00000000 </v>
   <v>       0.00000000       0.00000000       0.00000000 </v>
   <v>       0.00000000       0.00000000       0.00000000 </v>
   <v>       0.00000000       0.00000000       0.00000000 </v>
   <v>       0.00000000       0.00000000       0.00000000 </v>
   <v>       0.00000000       0.00000000       0.00000000 </v>
   <v>       0.00000000       0.00000000       0.00000000 </v>
   <v>       0.00000000       0.00000000       0.00000000 </v>
   <v>       0.00000000       0.00000000       0.00000000 </v>
   <v>       0.00000000       0.00000000       0.00000000 </v>
   <v>       0.00000000       0.00000000       0.00000000 </v>
   <v>       0.00000000       0.00000000       0.00000000 </v>
   <v>       0.00000000       0.00000000       0.00000000 </v>
   <v>       0.00000000       0.00000000       0.00000000 </v>
   <v>       0.00000000       0.00000000       0.00000000 </v>
   <v>       0.00000000       0.00000000       0.00000000 </v>
   <v>       0.00000000       0.00000000       0.00000000 </v>
   <v>       0.00000000       0.00000000       0.00000000 </v>
  </varray>
 </structure>
</modeling>
