 running on   52 total cores
 distrk:  each k-point on   52 cores,    1 groups
 distr:  one band on   13 cores,    4 groups
 using from now: INCAR     
 vasp.5.4.4.18Apr17-6-g9f103f2a35 (build Oct 31 2019 15:01:46) complex          
  
 POSCAR found type information on POSCAR  Sc F  C 
 POSCAR found :  3 types and      80 ions
 scaLAPACK is switched off
 LDA part: xc-table for Pade appr. of Perdew
 generate k-points for:    3    3    1
 POSCAR, INCAR and KPOINTS ok, starting setup
 FFT: planning ...
 WAVECAR not read
 entering main loop
       N       E                     dE             d eps       ncg     rms          rms(c)
DAV:   1     0.136677527804E+05    0.13668E+05   -0.27873E+05  4256   0.156E+03
DAV:   2     0.250834517613E+04   -0.11159E+05   -0.10854E+05  4600   0.532E+02
DAV:   3    -0.375271861422E+03   -0.28836E+04   -0.27691E+04  6832   0.295E+02
DAV:   4    -0.736659041163E+03   -0.36139E+03   -0.35712E+03  6064   0.139E+02
DAV:   5    -0.751343471101E+03   -0.14684E+02   -0.14618E+02  6080   0.355E+01    0.783E+01
DAV:   6    -0.594709510532E+03    0.15663E+03   -0.84459E+02  5752   0.649E+01    0.257E+01
DAV:   7    -0.594635893971E+03    0.73617E-01   -0.56095E+01  5960   0.219E+01    0.169E+01
DAV:   8    -0.593028884197E+03    0.16070E+01   -0.10648E+01  5576   0.866E+00    0.459E+00
DAV:   9    -0.592522842804E+03    0.50604E+00   -0.26463E+00  5464   0.531E+00    0.229E+00
DAV:  10    -0.592482368320E+03    0.40474E-01   -0.32677E-01  6072   0.177E+00    0.128E+00
DAV:  11    -0.592364085305E+03    0.11828E+00   -0.16196E-01  5576   0.111E+00    0.775E-01
DAV:  12    -0.592330685798E+03    0.33400E-01   -0.58060E-02  6024   0.652E-01    0.352E-01
DAV:  13    -0.592317633464E+03    0.13052E-01   -0.41869E-02  5720   0.507E-01    0.324E-01
DAV:  14    -0.592312853701E+03    0.47798E-02   -0.12195E-02  5968   0.278E-01    0.169E-01
DAV:  15    -0.592317804009E+03   -0.49503E-02   -0.10531E-02  5600   0.217E-01    0.132E-01
DAV:  16    -0.592321718137E+03   -0.39141E-02   -0.28291E-03  5504   0.156E-01    0.874E-02
DAV:  17    -0.592326700882E+03   -0.49827E-02   -0.30323E-03  5952   0.121E-01    0.976E-02
DAV:  18    -0.592330829005E+03   -0.41281E-02   -0.93494E-04  5536   0.876E-02    0.586E-02
DAV:  19    -0.592332649717E+03   -0.18207E-02   -0.42440E-04  5648   0.503E-02    0.232E-02
DAV:  20    -0.592335612903E+03   -0.29632E-02   -0.23227E-04  5696   0.300E-02    0.244E-02
DAV:  21    -0.592337728141E+03   -0.21152E-02   -0.71852E-05  4904   0.178E-02    0.186E-02
DAV:  22    -0.592339646395E+03   -0.19183E-02   -0.15904E-04  3960   0.202E-02    0.873E-03
DAV:  23    -0.592340124346E+03   -0.47795E-03   -0.33693E-05  4904   0.116E-02    0.715E-03
DAV:  24    -0.592340475860E+03   -0.35151E-03   -0.19725E-05  4616   0.828E-03    0.406E-03
DAV:  25    -0.592340703644E+03   -0.22778E-03   -0.57930E-06  4336   0.491E-03    0.188E-03
DAV:  26    -0.592340859218E+03   -0.15557E-03   -0.51112E-06  4048   0.344E-03    0.200E-03
DAV:  27    -0.592340898742E+03   -0.39524E-04   -0.58066E-07  2888   0.207E-03    0.156E-03
DAV:  28    -0.592340920909E+03   -0.22167E-04   -0.55925E-07  2736   0.210E-03    0.825E-04
DAV:  29    -0.592340934951E+03   -0.14042E-04   -0.46449E-07  2736   0.210E-03    0.980E-04
DAV:  30    -0.592340942692E+03   -0.77412E-05   -0.34333E-07  2656   0.174E-03    0.113E-03
DAV:  31    -0.592340946658E+03   -0.39666E-05   -0.21958E-07  2688   0.136E-03    0.778E-04
DAV:  32    -0.592340947979E+03   -0.13211E-05   -0.14117E-07  2568   0.114E-03    0.591E-04
DAV:  33    -0.592340948547E+03   -0.56793E-06   -0.10948E-07  2528   0.940E-04
   1 F= -.59234095E+03 E0= -.59234095E+03  d E =-.680228E-12
