 vasp.5.4.4.18Apr17-6-g9f103f2a35 (build Oct 31 2019 15:01:46) complex          
  
 executed on             LinuxIFC date 2024.04.20  06:00:54
 running on   52 total cores
 distrk:  each k-point on   52 cores,    1 groups
 distr:  one band on NCORES_PER_BAND=  13 cores,    4 groups


--------------------------------------------------------------------------------------------------------


 INCAR:
 POTCAR:    PAW_PBE Sc_sv 07Sep2000               
 POTCAR:    PAW_PBE F 08Apr2002                   
 POTCAR:    PAW_PBE C 08Apr2002                   
 POTCAR:    PAW_PBE Sc_sv 07Sep2000               
   VRHFIN =Sc: 3p4s3d                                                           
   LEXCH  = PE                                                                  
   EATOM  =  1273.2868 eV,   93.5839 Ry                                         
                                                                                
   TITEL  = PAW_PBE Sc_sv 07Sep2000                                             
   LULTRA =        F    use ultrasoft PP ?                                      
   IUNSCR =        1    unscreen: 0-lin 1-nonlin 2-no                           
   RPACOR =    2.200    partial core radius                                     
   POMASS =   44.956; ZVAL   =   11.000    mass and valenz                      
   RCORE  =    2.500    outmost cutoff radius                                   
   RWIGS  =    2.700; RWIGS  =    1.429    wigner-seitz radius (au A)           
   ENMAX  =  222.660; ENMIN  =  166.995 eV                                      
   RCLOC  =    1.805    cutoff for local pot                                    
   LCOR   =        T    correct aug charges                                     
   LPAW   =        T    paw PP                                                  
   EAUG   =  443.063                                                            
   RMAX   =    2.551    core radius for proj-oper                               
   RAUG   =    1.300    factor for augmentation sphere                          
   RDEP   =    2.650    radius for radial grids                                 
   RDEPT  =    2.038    core radius for aug-charge                              
                                                                                
   Atomic configuration                                                         
    8 entries                                                                   
     n  l   j            E        occ.                                          
     1  0  0.50     -4394.2533   2.0000                                         
     2  0  0.50      -471.0040   2.0000                                         
     2  1  1.50      -384.9788   6.0000                                         
     3  0  0.50       -52.1410   2.0000                                         
     4  0  0.50        -3.5584   1.0000                                         
     3  1  1.50       -30.8841   6.0000                                         
     3  2  2.50        -1.3655   2.0000                                         
     4  3  2.50        -1.3606   0.0000                                         
   Description                                                                  
     l       E           TYP  RCUT    TYP  RCUT                                 
     0    -52.1409870     23  1.800                                             
     0     -3.5583698     23  2.500                                             
     1    -30.8840697     23  2.300                                             
     1      4.0817478     23  2.300                                             
     2     -1.3655397     23  2.500                                             
     2      0.3564476     23  2.500                                             
  local pseudopotential read in
  partial core-charges read in
  partial kinetic energy density read in
  atomic valenz-charges read in
  non local Contribution for L=           0  read in
    real space projection operators read in
  non local Contribution for L=           0  read in
    real space projection operators read in
  non local Contribution for L=           1  read in
    real space projection operators read in
  non local Contribution for L=           1  read in
    real space projection operators read in
  non local Contribution for L=           2  read in
    real space projection operators read in
  non local Contribution for L=           2  read in
    real space projection operators read in
    PAW grid and wavefunctions read in
 
   number of l-projection  operators is LMAX  =           6
   number of lm-projection operators is LMMAX =          18
 
 POTCAR:    PAW_PBE F 08Apr2002                   
   VRHFIN =F: s2p5                                                              
   LEXCH  = PE                                                                  
   EATOM  =   659.6475 eV,   48.4827 Ry                                         
                                                                                
   TITEL  = PAW_PBE F 08Apr2002                                                 
   LULTRA =        F    use ultrasoft PP ?                                      
   IUNSCR =        1    unscreen: 0-lin 1-nonlin 2-no                           
   RPACOR =    1.200    partial core radius                                     
   POMASS =   18.998; ZVAL   =    7.000    mass and valenz                      
   RCORE  =    1.520    outmost cutoff radius                                   
   RWIGS  =    1.500; RWIGS  =    0.794    wigner-seitz radius (au A)           
   ENMAX  =  400.000; ENMIN  =  300.000 eV                                      
   ICORE  =        2    local potential                                         
   LCOR   =        T    correct aug charges                                     
   LPAW   =        T    paw PP                                                  
   EAUG   =  613.614                                                            
   RMAX   =    1.555    core radius for proj-oper                               
   RAUG   =    1.300    factor for augmentation sphere                          
   RDEP   =    1.539    radius for radial grids                                 
   RDEPT  =    1.299    core radius for aug-charge                              
                                                                                
   Atomic configuration                                                         
    4 entries                                                                   
     n  l   j            E        occ.                                          
     1  0  0.50      -663.3661   2.0000                                         
     2  0  0.50       -29.8995   2.0000                                         
     2  1  0.50       -11.1114   5.0000                                         
     3  2  1.50       -10.8847   0.0000                                         
   Description                                                                  
     l       E           TYP  RCUT    TYP  RCUT                                 
     0    -29.8995018     23  1.200                                             
     0     -9.5240782     23  1.200                                             
     1    -11.1113914     23  1.520                                             
     1      1.3605826     23  1.520                                             
     2    -10.8846608      7  1.500                                             
  local pseudopotential read in
  partial core-charges read in
  partial kinetic energy density read in
  atomic valenz-charges read in
  non local Contribution for L=           0  read in
    real space projection operators read in
  non local Contribution for L=           0  read in
    real space projection operators read in
  non local Contribution for L=           1  read in
    real space projection operators read in
  non local Contribution for L=           1  read in
    real space projection operators read in
    PAW grid and wavefunctions read in
 
   number of l-projection  operators is LMAX  =           4
   number of lm-projection operators is LMMAX =           8
 
 POTCAR:    PAW_PBE C 08Apr2002                   
   VRHFIN =C: s2p2                                                              
   LEXCH  = PE                                                                  
   EATOM  =   147.1560 eV,   10.8157 Ry                                         
                                                                                
   TITEL  = PAW_PBE C 08Apr2002                                                 
   LULTRA =        F    use ultrasoft PP ?                                      
   IUNSCR =        1    unscreen: 0-lin 1-nonlin 2-no                           
   RPACOR =    1.200    partial core radius                                     
   POMASS =   12.011; ZVAL   =    4.000    mass and valenz                      
   RCORE  =    1.500    outmost cutoff radius                                   
   RWIGS  =    1.630; RWIGS  =    0.863    wigner-seitz radius (au A)           
   ENMAX  =  400.000; ENMIN  =  300.000 eV                                      
   ICORE  =        2    local potential                                         
   LCOR   =        T    correct aug charges                                     
   LPAW   =        T    paw PP                                                  
   EAUG   =  644.873                                                            
   DEXC   =    0.000                                                            
   RMAX   =    1.529    core radius for proj-oper                               
   RAUG   =    1.300    factor for augmentation sphere                          
   RDEP   =    1.501    radius for radial grids                                 
   RDEPT  =    1.300    core radius for aug-charge                              
                                                                                
   Atomic configuration                                                         
    4 entries                                                                   
     n  l   j            E        occ.                                          
     1  0  0.50      -273.3789   2.0000                                         
     2  0  0.50       -13.7508   2.0000                                         
     2  1  0.50        -5.2854   2.0000                                         
     3  2  1.50        -5.4423   0.0000                                         
   Description                                                                  
     l       E           TYP  RCUT    TYP  RCUT                                 
     0    -13.7508458     23  1.200                                             
     0     -8.2022199     23  1.200                                             
     1     -5.2854383     23  1.500                                             
     1     34.0145650     23  1.500                                             
     2     -5.4423304      7  1.500                                             
  local pseudopotential read in
  partial core-charges read in
  partial kinetic energy density read in
  atomic valenz-charges read in
  non local Contribution for L=           0  read in
    real space projection operators read in
  non local Contribution for L=           0  read in
    real space projection operators read in
  non local Contribution for L=           1  read in
    real space projection operators read in
  non local Contribution for L=           1  read in
    real space projection operators read in
    PAW grid and wavefunctions read in
 
   number of l-projection  operators is LMAX  =           4
   number of lm-projection operators is LMMAX =           8
 
 Optimization of the real space projectors (new method)

 maximal supplied QI-value         = 15.12
 optimisation between [QCUT,QGAM] = [ 12.55, 25.10] = [ 44.09,176.36] Ry 
 Optimized for a Real-space Cutoff    1.56 Angstroem

   l    n(q)    QCUT    max X(q) W(low)/X(q) W(high)/X(q)  e(spline) 
   0     12    12.548     2.962    0.12E-05    0.11E-06    0.46E-07
   0     12    12.548    26.414    0.30E-04    0.15E-05    0.76E-07
   1     11    12.548     3.969    0.45E-05    0.12E-05    0.60E-07
   1     11    12.548     5.137    0.15E-04    0.18E-04    0.36E-06
   2     11    12.548   143.970    0.20E-03    0.19E-03    0.76E-06
   2     11    12.548   121.201    0.20E-03    0.19E-03    0.76E-06
 Optimization of the real space projectors (new method)

 maximal supplied QI-value         = 24.76
 optimisation between [QCUT,QGAM] = [ 12.38, 25.00] = [ 42.90,175.06] Ry 
 Optimized for a Real-space Cutoff    1.16 Angstroem

   l    n(q)    QCUT    max X(q) W(low)/X(q) W(high)/X(q)  e(spline) 
   0      9    12.378    14.049    0.11E-03    0.38E-05    0.23E-06
   0      9    12.378     8.945    0.15E-03    0.56E-05    0.30E-06
   1      8    12.378     7.086    0.18E-03    0.14E-03    0.29E-06
   1      8    12.378     6.747    0.16E-03    0.13E-03    0.26E-06
 Optimization of the real space projectors (new method)

 maximal supplied QI-value         = 25.13
 optimisation between [QCUT,QGAM] = [ 12.32, 24.88] = [ 42.47,173.37] Ry 
 Optimized for a Real-space Cutoff    1.16 Angstroem

   l    n(q)    QCUT    max X(q) W(low)/X(q) W(high)/X(q)  e(spline) 
   0      9    12.315   115.676    0.19E-03    0.80E-05    0.34E-06
   0      9    12.315    87.132    0.19E-03    0.82E-05    0.34E-06
   1      8    12.315     4.429    0.18E-03    0.13E-03    0.22E-06
   1      8    12.315     2.733    0.14E-03    0.10E-03    0.18E-06
  PAW_PBE Sc_sv 07Sep2000               :
 energy of atom  1       EATOM=-1273.2868
 kinetic energy error for atom=    0.0014 (will be added to EATOM!!)
  PAW_PBE F 08Apr2002                   :
 energy of atom  2       EATOM= -659.6475
 kinetic energy error for atom=    0.0256 (will be added to EATOM!!)
  PAW_PBE C 08Apr2002                   :
 energy of atom  3       EATOM= -147.1560
 kinetic energy error for atom=    0.0057 (will be added to EATOM!!)
 
 
 POSCAR: Sc  F  C                                
  positions in cartesian coordinates
  No initial velocities read in
 exchange correlation table for  LEXCH =        8
   RHO(1)=    0.500       N(1)  =     2000
   RHO(2)=  100.500       N(2)  =     4000
 


--------------------------------------------------------------------------------------------------------


 ion  position               nearest neighbor table
   1  0.096  0.162  0.447-  50 2.02  65 2.17  70 2.20  49 2.29  61 2.48  66 2.59   5 3.13   4 3.15
                             6 3.20  17 3.21  29 3.25  18 3.28  16 3.30
   2  0.091  0.427  0.452-  67 2.17  71 2.22  51 2.29  66 2.29  62 2.30  50 2.53  19 3.14   7 3.15
                             3 3.21  30 3.22   6 3.24  18 3.28  14 3.30
   3  0.078  0.665  0.450-  68 2.09  63 2.15  51 2.20  67 2.27  52 2.30  72 2.54  20 3.14   2 3.21
                             7 3.22   4 3.25  31 3.25  19 3.28  14 3.29  15 3.30   8 3.30
   4  0.087  0.917  0.453-  49 2.19  52 2.20  65 2.20  64 2.24  69 2.33  68 2.34  32 3.04  20 3.13
                             1 3.15  17 3.20   8 3.23   3 3.25  16 3.28   5 3.35
   5  0.340  0.174  0.459-  49 2.03  53 2.12  70 2.13  74 2.16  54 2.36  69 2.37  22 2.98  17 3.03
                             1 3.13  21 3.20   6 3.23   9 3.23  10 3.27   4 3.35   8 3.35
   6  0.331  0.414  0.448-  54 2.08  50 2.13  55 2.31  75 2.35  70 2.39  71 2.41   1 3.20   5 3.23
                             2 3.24  10 3.26  18 3.26  22 3.27  11 3.35  23 3.39   7 3.41
   7  0.327  0.671  0.454-  51 2.00  72 2.15  55 2.28  56 2.32  71 2.32  76 2.60   2 3.15  23 3.16
                             8 3.16  19 3.19   3 3.22  11 3.35  12 3.40   6 3.41  24 3.41
   8  0.332  0.915  0.456-  56 2.07  69 2.15  72 2.16  52 2.23  53 2.28  73 2.42  20 3.13  21 3.14
                             7 3.16   4 3.23   3 3.30  12 3.31   5 3.35  24 3.39   9 3.41
   9  0.588  0.178  0.454-  53 2.06  74 2.19  78 2.23  58 2.24  73 2.36  57 2.41  14 3.14  26 3.16
                             5 3.23  25 3.24  10 3.28  21 3.30  12 3.32  13 3.34   8 3.41
  10  0.585  0.427  0.454-  59 2.08  75 2.13  79 2.22  58 2.28  54 2.29  74 2.45  15 3.08  27 3.10
                            22 3.11  11 3.25   6 3.26   5 3.27   9 3.28  26 3.32  14 3.36
  11  0.582  0.673  0.451-  60 2.23  80 2.33  75 2.33  76 2.39  55 2.41  59 2.46  28 3.13  27 3.18
                            10 3.25  15 3.26  12 3.29  16 3.29  23 3.30   7 3.35   6 3.35
  12  0.589  0.926  0.458-  57 2.03  60 2.10  77 2.11  56 2.32  76 2.35  73 2.35  28 2.96  25 3.05
                            13 3.16  24 3.26  11 3.29   8 3.31   9 3.32  16 3.32   7 3.40
  13  0.833  0.162  0.447-  61 2.05  57 2.17  62 2.26  77 2.34  66 2.41  78 2.50  29 3.16  12 3.16
                            16 3.22  14 3.29  30 3.30   9 3.34  25 3.35
  14  0.832  0.411  0.457-  78 2.08  67 2.27  62 2.34  79 2.36  58 2.47  63 2.53  31 3.11  30 3.13
                             9 3.14  13 3.29   3 3.29   2 3.30  26 3.30  15 3.31  10 3.36
  15  0.823  0.658  0.449-  59 2.22  79 2.23  80 2.23  63 2.24  64 2.26  68 2.26  32 3.08  10 3.08
                            11 3.26  27 3.28   3 3.30  14 3.31  16 3.34  31 3.34
  16  0.838  0.919  0.449-  77 2.10  61 2.10  64 2.20  65 2.22  60 2.30  80 2.39  32 3.06  29 3.08
                            28 3.20  13 3.22   4 3.28  11 3.29   1 3.30  12 3.32  15 3.34
  17  0.175  0.087  0.548-  33 2.09  70 2.19  37 2.24  69 2.32  65 2.45  36 2.56   5 3.03  18 3.17
                             4 3.20   1 3.21  21 3.23  22 3.23  20 3.34  29 3.35
  18  0.166  0.324  0.548-  38 2.13  66 2.27  70 2.27  33 2.37  71 2.38  34 2.61  17 3.17  30 3.23
                            29 3.24   6 3.26  22 3.27   1 3.28   2 3.28  23 3.36  19 3.39
  19  0.161  0.579  0.549-  34 2.16  39 2.22  67 2.22  71 2.27  72 2.41  35 2.45   2 3.14  23 3.17
                             7 3.19  30 3.22  31 3.23  20 3.24   3 3.28  18 3.39
  20  0.157  0.824  0.547-  36 2.01  35 2.03  69 2.27  72 2.31  68 2.37  40 2.62   8 3.13   4 3.13
                             3 3.14  31 3.23  32 3.24  19 3.24  21 3.33  17 3.34
  21  0.414  0.074  0.552-  73 2.11  41 2.23  40 2.24  69 2.25  37 2.33  74 2.35   8 3.14   5 3.20
                            24 3.20  26 3.21  17 3.23  25 3.25   9 3.30  20 3.33  22 3.39
  22  0.420  0.335  0.547-  37 2.20  42 2.22  38 2.27  74 2.27  75 2.30  70 2.36   5 2.98  10 3.11
                            26 3.13  27 3.19  17 3.23  18 3.27   6 3.27  21 3.39
  23  0.408  0.592  0.549-  39 2.08  76 2.21  38 2.22  43 2.24  71 2.24  75 2.52  24 3.12   7 3.16
                            19 3.17  27 3.29  11 3.30  28 3.31  18 3.36   6 3.39
  24  0.430  0.839  0.559-  44 2.19  39 2.21  76 2.26  40 2.30  72 2.40  73 2.43  28 3.12  23 3.12
                            25 3.17  21 3.20  12 3.26   8 3.39   7 3.41
  25  0.666  0.084  0.550-  44 2.11  73 2.15  45 2.30  41 2.31  78 2.39  77 2.58  12 3.05  24 3.17
                            28 3.22  26 3.24   9 3.24  21 3.25  30 3.29  29 3.32  13 3.35
  26  0.653  0.323  0.554-  41 2.02  42 2.13  74 2.23  46 2.30  78 2.35  79 2.51  22 3.13   9 3.16
                            21 3.21  25 3.24  14 3.30  10 3.32  31 3.37  27 3.42
  27  0.655  0.585  0.548-  43 1.96  42 2.08  75 2.22  80 2.24  79 2.31  47 2.38  10 3.10  11 3.18
                            22 3.19  28 3.27  15 3.28  32 3.28  23 3.29  26 3.42
  28  0.665  0.838  0.544-  76 1.96  44 2.15  77 2.17  48 2.35  80 2.40  43 2.48  12 2.96  24 3.12
                            11 3.13  16 3.20  25 3.22  29 3.24  27 3.27  23 3.31  32 3.33
  29  0.917  0.080  0.542-  45 2.10  33 2.12  77 2.28  65 2.28  48 2.31  66 2.34  16 3.08  13 3.16
                            30 3.22  28 3.24  18 3.24   1 3.25  32 3.32  25 3.32  17 3.35
  30  0.922  0.328  0.548-  34 2.00  66 2.14  45 2.29  78 2.35  67 2.37  46 2.38  14 3.13  19 3.22
                             2 3.22  29 3.22  18 3.23  25 3.29  13 3.30  31 3.32
  31  0.913  0.576  0.549-  46 1.88  35 2.05  47 2.23  79 2.31  68 2.36  67 2.37  14 3.11  19 3.23
                            20 3.23   3 3.25  32 3.29  30 3.32  15 3.34  26 3.37
  32  0.912  0.825  0.539-  80 2.11  47 2.13  36 2.18  48 2.21  68 2.31  65 2.38   4 3.04  16 3.06
                            15 3.08  20 3.24  27 3.28  31 3.29  29 3.32  28 3.33
  33  0.068  0.137  0.586-  17 2.09  29 2.12  18 2.37
  34  0.060  0.421  0.593-  30 2.00  19 2.16  18 2.61
  35  0.065  0.677  0.589-  20 2.03  31 2.05  19 2.45
  36  0.065  0.881  0.586-  20 2.01  32 2.18  17 2.56
  37  0.339  0.177  0.594-  22 2.20  17 2.24  21 2.33
  38  0.329  0.418  0.587-  18 2.13  23 2.22  22 2.27
  39  0.327  0.662  0.593-  23 2.08  24 2.21  19 2.22
  40  0.342  0.921  0.605-  21 2.24  24 2.30  20 2.62
  41  0.582  0.174  0.594-  26 2.02  21 2.23  25 2.31
  42  0.590  0.428  0.587-  27 2.08  26 2.13  22 2.22
  43  0.578  0.649  0.589-  27 1.96  23 2.24  28 2.48
  44  0.605  0.929  0.592-  25 2.11  28 2.15  24 2.19
  45  0.844  0.153  0.590-  29 2.10  30 2.29  25 2.30
  46  0.839  0.434  0.586-  31 1.88  26 2.30  30 2.38
  47  0.843  0.678  0.588-  32 2.13  31 2.23  27 2.38
  48  0.842  0.910  0.588-  32 2.21  29 2.31  28 2.35
  49  0.200  0.081  0.413-   5 2.03   4 2.19   1 2.29
  50  0.172  0.312  0.408-   1 2.02   6 2.13   2 2.53
  51  0.183  0.603  0.410-   7 2.00   3 2.20   2 2.29
  52  0.173  0.841  0.408-   4 2.20   8 2.23   3 2.30
  53  0.425  0.096  0.420-   9 2.06   5 2.12   8 2.28
  54  0.415  0.343  0.408-   6 2.08  10 2.29   5 2.36
  55  0.403  0.587  0.403-   7 2.28   6 2.31  11 2.41
  56  0.417  0.851  0.412-   8 2.07  12 2.32   7 2.32
  57  0.663  0.067  0.411-  12 2.03  13 2.17   9 2.41
  58  0.656  0.336  0.404-   9 2.24  10 2.28  14 2.47
  59  0.660  0.565  0.403-  10 2.08  15 2.22  11 2.46
  60  0.657  0.845  0.411-  12 2.10  11 2.23  16 2.30
  61  0.900  0.074  0.408-  13 2.05  16 2.10   1 2.48
  62  0.922  0.334  0.405-  13 2.26   2 2.30  14 2.34
  63  0.924  0.595  0.404-   3 2.15  15 2.24  14 2.53
  64  0.920  0.833  0.409-  16 2.20   4 2.24  15 2.26
  65  0.004  0.004  0.492-   1 2.17   4 2.20  16 2.22  29 2.28  32 2.38  17 2.45
  66  0.004  0.260  0.500-  30 2.14  18 2.27   2 2.29  29 2.34  13 2.41   1 2.59
  67  0.007  0.500  0.498-   2 2.17  19 2.22  14 2.27   3 2.27  30 2.37  31 2.37
  68  0.992  0.734  0.493-   3 2.09  15 2.26  32 2.31   4 2.34  31 2.36  20 2.37
  69  0.255  0.993  0.502-   8 2.15  21 2.25  20 2.27  17 2.32   4 2.33   5 2.37
  70  0.246  0.241  0.499-   5 2.13  17 2.19   1 2.20  18 2.27  22 2.36   6 2.39
  71  0.247  0.502  0.501-   2 2.22  23 2.24  19 2.27   7 2.32  18 2.38   6 2.41
  72  0.265  0.759  0.502-   7 2.15   8 2.16  20 2.31  24 2.40  19 2.41   3 2.54
  73  0.507  0.014  0.507-  21 2.11  25 2.15  12 2.35   9 2.36   8 2.42  24 2.43
  74  0.499  0.244  0.502-   5 2.16   9 2.19  26 2.23  22 2.27  21 2.35  10 2.45
  75  0.501  0.500  0.497-  10 2.13  27 2.22  22 2.30  11 2.33   6 2.35  23 2.52
  76  0.513  0.760  0.510-  28 1.96  23 2.21  24 2.26  12 2.35  11 2.39   7 2.60
  77  0.753  0.987  0.493-  16 2.10  12 2.11  28 2.17  29 2.28  13 2.34  25 2.58
  78  0.750  0.259  0.500-  14 2.08   9 2.23  26 2.35  30 2.35  25 2.39  13 2.50
  79  0.746  0.505  0.501-  10 2.22  15 2.23  31 2.31  27 2.31  14 2.36  26 2.51
  80  0.752  0.743  0.499-  32 2.11  15 2.23  27 2.24  11 2.33  16 2.39  28 2.40
 
  LATTYP: Found a hexagonal cell.
 ALAT       =    13.1286233990
 C/A-ratio  =     2.0434811347
  
  Lattice vectors:
  
 A1 = (  13.1286234000,   0.0000000000,   0.0000000000)
 A2 = (  -6.5643117000,  11.3697213800,   0.0000000000)
 A3 = (   0.0000000000,   0.0000000000,  26.8280942400)


Analysis of symmetry for initial positions (statically):
=====================================================================
 Subroutine PRICEL returns:
 Original cell was already a primitive cell.
 

 Routine SETGRP: Setting up the symmetry group for a 
 hexagonal supercell.


 Subroutine GETGRP returns: Found  1 space group operations
 (whereof  1 operations were pure point group operations)
 out of a pool of 24 trial point group operations.


The static configuration has the point symmetry C_1 .


Analysis of symmetry for dynamics (positions and initial velocities):
=====================================================================
 Subroutine PRICEL returns:
 Original cell was already a primitive cell.
 

 Routine SETGRP: Setting up the symmetry group for a 
 hexagonal supercell.


 Subroutine GETGRP returns: Found  1 space group operations
 (whereof  1 operations were pure point group operations)
 out of a pool of 24 trial point group operations.


The dynamic configuration has the point symmetry C_1 .


 Subroutine INISYM returns: Found  1 space group operations
 (whereof  1 operations are pure point group operations),
 and found     1 'primitive' translations

 
 

Automatic generation of k-mesh.
 generate k-points for:    3    3    1
Space group operators:
 irot       det(A)        alpha          n_x          n_y          n_z        tau_x        tau_y        tau_z
    1     1.000000     0.000000     1.000000     0.000000     0.000000     0.000000     0.000000     0.000000
 
 Subroutine IBZKPT returns following result:
 ===========================================
 
 Found      5 irreducible k-points:
 
 Following reciprocal coordinates:
            Coordinates               Weight
  0.000000  0.000000  0.000000      1.000000
  0.333333 -0.000000  0.000000      2.000000
  0.000000  0.333333  0.000000      2.000000
  0.333333  0.333333  0.000000      2.000000
 -0.333333  0.333333  0.000000      2.000000
 
 Following cartesian coordinates:
            Coordinates               Weight
  0.000000  0.000000  0.000000      1.000000
  0.025390  0.014659  0.000000      2.000000
  0.000000  0.029318  0.000000      2.000000
  0.025390  0.043976  0.000000      2.000000
 -0.025390  0.014659  0.000000      2.000000
 


--------------------------------------------------------------------------------------------------------




 Dimension of arrays:
   k-points           NKPTS =      5   k-points in BZ     NKDIM =      5   number of bands    NBANDS=    384
   number of dos      NEDOS =    301   number of ions     NIONS =     80
   non local maximal  LDIM  =      6   non local SUM 2l+1 LMDIM =     18
   total plane-waves  NPLWV = ******
   max r-space proj   IRMAX =  10060   max aug-charges    IRDMAX= 222480
   dimension x,y,z NGX =   108 NGY =  108 NGZ =  216
   dimension x,y,z NGXF=   216 NGYF=  216 NGZF=  432
   support grid    NGXF=   432 NGYF=  432 NGZF=  864
   ions per type =              32  32  16
   NGX,Y,Z   is equivalent  to a cutoff of  13.68, 13.68, 13.38 a.u.
   NGXF,Y,Z  is equivalent  to a cutoff of  27.35, 27.35, 26.77 a.u.

 SYSTEM =  unknown system                          
 POSCAR =  Sc  F  C                                

 Startparameter for this run:
   NWRITE =      2    write-flag & timer
   PREC   = anorma    normal or accurate (medium, high low for compatibility)
   ISTART =      0    job   : 0-new  1-cont  2-samecut
   ICHARG =      2    charge: 1-file 2-atom 10-const
   ISPIN  =      1    spin polarized calculation?
   LNONCOLLINEAR =      F non collinear calculations
   LSORBIT =      F    spin-orbit coupling
   INIWAV =      1    electr: 0-lowe 1-rand  2-diag
   LASPH  =      F    aspherical Exc in radial PAW
   METAGGA=      F    non-selfconsistent MetaGGA calc.

 Electronic Relaxation 1
   ENCUT  =  600.0 eV  44.10 Ry    6.64 a.u.  26.22 26.22 53.58*2*pi/ulx,y,z
   ENINI  =  600.0     initial cutoff
   ENAUG  =  644.9 eV  augmentation charge cutoff
   NELM   =     60;   NELMIN=  2; NELMDL= -5     # of ELM steps 
   EDIFF  = 0.1E-05   stopping-criterion for ELM
   LREAL  =      T    real-space projection
   NLSPLINE    = F    spline interpolate recip. space projectors
   LCOMPAT=      F    compatible to vasp.4.4
   GGA_COMPAT  = T    GGA compatible to vasp.4.4-vasp.4.6
   LMAXPAW     = -100 max onsite density
   LMAXMIX     =    2 max onsite mixed and CHGCAR
   VOSKOWN=      0    Vosko Wilk Nusair interpolation
   ROPT   =   -0.00025  -0.00025  -0.00025
 Ionic relaxation
   EDIFFG = -.1E-01   stopping-criterion for IOM
   NSW    =      1    number of steps for IOM
   NBLOCK =      1;   KBLOCK =      1    inner block; outer block 
   IBRION =     -1    ionic relax: 0-MD 1-quasi-New 2-CG
   NFREE  =      0    steps in history (QN), initial steepest desc. (CG)
   ISIF   =      2    stress and relaxation
   IWAVPR =     10    prediction:  0-non 1-charg 2-wave 3-comb
   ISYM   =      2    0-nonsym 1-usesym 2-fastsym
   LCORR  =      T    Harris-Foulkes like correction to forces

   POTIM  = 1.0000    time-step for ionic-motion
   TEIN   =    0.0    initial temperature
   TEBEG  =    0.0;   TEEND  =   0.0 temperature during run
   SMASS  =  -3.00    Nose mass-parameter (am)
   estimated Nose-frequenzy (Omega)   =  0.10E-29 period in steps =****** mass=  -0.394E-26a.u.
   SCALEE = 1.0000    scale energy and forces
   NPACO  =    256;   APACO  = 16.0  distance and # of slots for P.C.
   PSTRESS=    0.0 pullay stress

  Mass of Ions in am
   POMASS =  44.96 19.00 12.01
  Ionic Valenz
   ZVAL   =  11.00  7.00  4.00
  Atomic Wigner-Seitz radii
   RWIGS  =  -1.00 -1.00 -1.00
  virtual crystal weights 
   VCA    =   1.00  1.00  1.00
   NELECT =     640.0000    total number of electrons
   NUPDOWN=      -1.0000    fix difference up-down

 DOS related values:
   EMIN   =  10.00;   EMAX   =-10.00  energy-range for DOS
   EFERMI =   0.00
   ISMEAR =     0;   SIGMA  =   0.05  broadening in eV -4-tet -1-fermi 0-gaus

 Electronic relaxation 2 (details)
   IALGO  =     38    algorithm
   LDIAG  =      T    sub-space diagonalisation (order eigenvalues)
   LSUBROT=      F    optimize rotation matrix (better conditioning)
   TURBO    =      0    0=normal 1=particle mesh
   IRESTART =      0    0=no restart 2=restart with 2 vectors
   NREBOOT  =      0    no. of reboots
   NMIN     =      0    reboot dimension
   EREF     =   0.00    reference energy to select bands
   IMIX   =      4    mixing-type and parameters
     AMIX     =   0.40;   BMIX     =  1.00
     AMIX_MAG =   1.60;   BMIX_MAG =  1.00
     AMIN     =   0.10
     WC   =   100.;   INIMIX=   1;  MIXPRE=   1;  MAXMIX= -45

 Intra band minimization:
   WEIMIN = 0.0000     energy-eigenvalue tresh-hold
   EBREAK =  0.65E-09  absolut break condition
   DEPER  =   0.30     relativ break condition  

   TIME   =   0.40     timestep for ELM

  volume/ion in A,a.u.               =      50.06       337.80
  Fermi-wavevector in a.u.,A,eV,Ry     =   0.888414  1.678858 10.738790  0.789279
  Thomas-Fermi vector in A             =   2.009840
 
 Write flags
   LWAVE        =      F    write WAVECAR
   LDOWNSAMPLE  =      F    k-point downsampling of WAVECAR
   LCHARG       =      F    write CHGCAR
   LVTOT        =      F    write LOCPOT, total local potential
   LVHAR        =      F    write LOCPOT, Hartree potential only
   LELF         =      F    write electronic localiz. function (ELF)
   LORBIT       =      0    0 simple, 1 ext, 2 COOP (PROOUT), +10 PAW based schemes


 Dipole corrections
   LMONO  =      F    monopole corrections only (constant potential shift)
   LDIPOL =      F    correct potential (dipole corrections)
   IDIPOL =      0    1-x, 2-y, 3-z, 4-all directions 
   EPSILON=  1.0000000 bulk dielectric constant

 Exchange correlation treatment:
   GGA     =    --    GGA type
   LEXCH   =     8    internal setting for exchange type
   VOSKOWN=      0    Vosko Wilk Nusair interpolation
   LHFCALC =     F    Hartree Fock is set to
   LHFONE  =     F    Hartree Fock one center treatment
   AEXX    =    0.0000 exact exchange contribution

 Linear response parameters
   LEPSILON=     F    determine dielectric tensor
   LRPA    =     F    only Hartree local field effects (RPA)
   LNABLA  =     F    use nabla operator in PAW spheres
   LVEL    =     F    velocity operator in full k-point grid
   LINTERFAST=   F  fast interpolation
   KINTER  =     0    interpolate to denser k-point grid
   CSHIFT  =0.1000    complex shift for real part using Kramers Kronig
   OMEGAMAX=  -1.0    maximum frequency
   DEG_THRESHOLD= 0.2000000E-02 threshold for treating states as degnerate
   RTIME   =   -0.100 relaxation time in fs
  (WPLASMAI=    0.000 imaginary part of plasma frequency in eV, 0.658/RTIME)
   DFIELD  = 0.0000000 0.0000000 0.0000000 field for delta impulse in time
 
 Orbital magnetization related:
   ORBITALMAG=     F  switch on orbital magnetization
   LCHIMAG   =     F  perturbation theory with respect to B field
   DQ        =  0.001000  dq finite difference perturbation B field
   LLRAUG    =     F  two centre corrections for induced B field



--------------------------------------------------------------------------------------------------------


 Static calculation
 charge density and potential will be updated during run
 non-spin polarized calculation
 Variant of blocked Davidson
 Davidson routine will perform the subspace rotation
 perform sub-space diagonalisation
    after iterative eigenvector-optimisation
 modified Broyden-mixing scheme, WC =      100.0
 initial mixing is a Kerker type mixing with AMIX =  0.4000 and BMIX =      1.0000
 Hartree-type preconditioning will be used
 using additional bands           64
 real space projection scheme for non local part
 use partial core corrections
 calculate Harris-corrections to forces 
   (improved forces if not selfconsistent)
 use gradient corrections 
 use of overlap-Matrix (Vanderbilt PP)
 Gauss-broadening in eV      SIGMA  =   0.05


--------------------------------------------------------------------------------------------------------


  energy-cutoff  :      600.00
  volume of cell :     4004.60
      direct lattice vectors                 reciprocal lattice vectors
    13.128623400  0.000000000  0.000000000     0.076169448  0.043976451  0.000000000
    -6.564311700 11.369721380  0.000000000     0.000000000  0.087952903  0.000000000
     0.000000000  0.000000000 26.828094240     0.000000000  0.000000000  0.037274358

  length of vectors
    13.128623400 13.128623399 26.828094240     0.087952903  0.087952903  0.037274358


 
 k-points in units of 2pi/SCALE and weight: read from INCAR                         
   0.00000000  0.00000000  0.00000000       0.111
   0.02538982  0.01465882  0.00000000       0.222
   0.00000000  0.02931763  0.00000000       0.222
   0.02538982  0.04397645  0.00000000       0.222
  -0.02538982  0.01465882  0.00000000       0.222
 
 k-points in reciprocal lattice and weights: read from INCAR                         
   0.00000000  0.00000000  0.00000000       0.111
   0.33333333 -0.00000000  0.00000000       0.222
   0.00000000  0.33333333  0.00000000       0.222
   0.33333333  0.33333333  0.00000000       0.222
  -0.33333333  0.33333333  0.00000000       0.222
 
 position of ions in fractional coordinates (direct lattice) 
   0.09616844  0.16155441  0.44713249
   0.09102563  0.42749703  0.45191884
   0.07820241  0.66549095  0.45046620
   0.08673382  0.91710657  0.45274488
   0.33976090  0.17400062  0.45864252
   0.33058055  0.41410786  0.44809826
   0.32669557  0.67149772  0.45354625
   0.33176420  0.91462007  0.45622670
   0.58796840  0.17826691  0.45358154
   0.58478686  0.42656838  0.45389318
   0.58221808  0.67265915  0.45079968
   0.58927771  0.92634740  0.45779762
   0.83295985  0.16171243  0.44701060
   0.83235613  0.41084201  0.45709454
   0.82286417  0.65766585  0.44864347
   0.83751144  0.91870132  0.44936792
   0.17539199  0.08712750  0.54765383
   0.16637530  0.32404520  0.54778400
   0.16052791  0.57913146  0.54947204
   0.15724452  0.82400683  0.54652899
   0.41410149  0.07407757  0.55189690
   0.42039038  0.33486975  0.54655315
   0.40815779  0.59162935  0.54937314
   0.42976980  0.83870359  0.55860292
   0.66616755  0.08395234  0.54984886
   0.65273763  0.32343517  0.55390257
   0.65544064  0.58474905  0.54783964
   0.66518627  0.83843237  0.54371510
   0.91681975  0.08021613  0.54154412
   0.92228705  0.32808645  0.54788506
   0.91316370  0.57591871  0.54932513
   0.91193571  0.82521921  0.53861552
   0.06842720  0.13680647  0.58630974
   0.06021670  0.42096540  0.59277527
   0.06455493  0.67718507  0.58879006
   0.06512935  0.88094355  0.58613763
   0.33909030  0.17720553  0.59394381
   0.32898989  0.41828035  0.58703692
   0.32686085  0.66244536  0.59265005
   0.34190721  0.92114890  0.60476186
   0.58166504  0.17373378  0.59438093
   0.58964082  0.42833055  0.58728277
   0.57806172  0.64933490  0.58931387
   0.60525646  0.92859203  0.59214716
   0.84373932  0.15282214  0.58962359
   0.83917133  0.43412469  0.58565623
   0.84266223  0.67840428  0.58764455
   0.84173109  0.90990753  0.58822330
   0.20033561  0.08138930  0.41301294
   0.17157261  0.31231300  0.40761729
   0.18304962  0.60313913  0.41040187
   0.17256664  0.84117175  0.40797148
   0.42486084  0.09630503  0.41984706
   0.41530764  0.34278364  0.40791859
   0.40303714  0.58671301  0.40318673
   0.41652592  0.85060681  0.41225575
   0.66267736  0.06712583  0.41107818
   0.65609688  0.33588030  0.40376107
   0.65970920  0.56547886  0.40342349
   0.65671089  0.84499033  0.41145769
   0.89971279  0.07447895  0.40770615
   0.92168525  0.33442010  0.40540763
   0.92442169  0.59453927  0.40362194
   0.91958491  0.83278754  0.40889369
   0.00423142  0.00429995  0.49238390
   0.00369088  0.26030190  0.49962242
   0.00741320  0.50047335  0.49807847
   0.99242490  0.73423741  0.49271323
   0.25475678  0.99281166  0.50207573
   0.24616674  0.24136211  0.49873471
   0.24720987  0.50171419  0.50132494
   0.26538256  0.75904563  0.50236522
   0.50650134  0.01410168  0.50738799
   0.49925915  0.24362197  0.50210444
   0.50142625  0.50007020  0.49739321
   0.51271169  0.75994039  0.50974415
   0.75295642  0.98702939  0.49314681
   0.75024021  0.25904313  0.50027095
   0.74600572  0.50504940  0.50079923
   0.75203857  0.74324148  0.49868946
 
 position of ions in cartesian coordinates  (Angst):
   0.20206566  1.83682864 11.99571271
  -1.61118250  4.86052207 12.12412122
  -3.34180001  7.56644670 12.08514973
  -4.88147768 10.42724614 12.14628221
   3.31839854  1.97833856 12.30450481
   1.62173447  4.70829102 12.02162223
  -0.11885722  7.63474198 12.16778152
  -1.64824397 10.39897532 12.23969303
   6.54901613  2.02684512 12.16872825
   4.87731868  4.84996367 12.17708891
   3.22817756  7.64794708 12.09409640
   1.65557204 10.53231189 12.28183760
   9.87408535  1.83862531 11.99244251
   8.23079513  4.67115913 12.26297533
   6.48595013  7.47747744 12.03624936
   4.96473047 10.44537799 12.05568486
   1.73072325  0.99061544 14.69250869
   0.05714496  3.68430366 14.69600084
  -1.69408890  6.58456333 14.74128776
  -3.34463356  9.36872807 14.66233126
   4.95031423  0.84224131 14.80634200
   3.32095756  3.80737575 14.66297941
   1.47491047  6.72666090 14.73863445
   0.13677405  9.53582611 14.98625185
   8.19477363  0.95451469 14.75139701
   6.44641726  3.67736773 14.86015032
   4.76655829  6.64843381 14.69749354
   3.22924864  9.53274240 14.58684006
  11.51001757  0.91203506 14.52859681
   9.95469763  3.73025152 14.69871189
   8.20807244  6.54803527 14.73734634
   6.55546434  9.38251247 14.45002788
   0.00031461  1.55545140 15.72957291
  -1.97278571  4.78625936 15.90303080
  -3.59773657  7.69940558 15.79611525
  -4.92772938 10.01608274 15.72495559
   3.28855656  2.01477751 15.93438057
   1.57346175  4.75573102 15.74908189
  -0.05726488  7.53181916 15.89967139
  -1.55793757 10.47320638 16.22460807
   6.49601852  1.97530468 15.94610763
   4.92947696  4.86999905 15.75567762
   3.32671794  7.38275693 15.81016801
   1.85061664 10.55783262 15.88617970
  10.07396358  1.73754517 15.81847734
   8.16743463  4.93587673 15.71204046
   6.60973794  7.71326761 15.76538347
   5.07785382 10.34539511 15.78091017
   2.09586612  0.92537361 11.08035015
   0.20239230  3.55091184 10.93559517
  -1.55600365  6.85752384 11.01029995
  -3.25615119  9.56388845 10.94509741
   4.94566180  1.09496134 11.26369649
   3.20227891  3.89735453 10.94367840
   1.43995579  6.67076345 10.81673164
  -0.11523625  9.67116242 11.06003605
   8.25940664  0.76320201 11.02844426
   6.40882592  3.81886538 10.83214009
   4.94909424  6.42933703 10.82308336
   3.07493005  9.60730463 11.03862559
  11.32308738  0.84680493 10.93797904
   9.90522078  3.80226333 10.87631423
   8.23364307  6.75974590 10.82840757
   6.60620698  9.46856230 10.96983837
   0.02732645  0.04888925 13.20972157
  -1.66024657  2.95956003 13.40391746
  -3.18793792  5.69024254 13.36249611
   8.20940946  8.34807483 13.21855694
  -3.17251936 11.28799201 13.46973497
   1.64745436  2.74421991 13.38010176
  -0.04788302  5.70435060 13.44959273
  -1.49850443  8.63013731 13.47750139
   6.55709748  0.16033216 13.61225282
   4.95537485  2.76991388 13.47050529
   3.30041973  5.68565889 13.34411182
   1.74271306  8.64031052 13.67546403
   3.40611262 11.22224919 13.23018911
   8.14918130  2.94524821 13.42131612
   6.47872651  5.74227093 13.43548881
   4.99436241  8.45044854 13.37888784
 


--------------------------------------------------------------------------------------------------------


 k-point  1 :   0.0000 0.0000 0.0000  plane waves:  133769
 k-point  2 :   0.3333-0.0000 0.0000  plane waves:  133588
 k-point  3 :   0.0000 0.3333 0.0000  plane waves:  133588
 k-point  4 :   0.3333 0.3333 0.0000  plane waves:  133608
 k-point  5 :  -0.3333 0.3333 0.0000  plane waves:  133588

 maximum and minimum number of plane-waves per node :     10323    10242

 maximum number of plane-waves:    133769
 maximum index in each direction: 
   IXMAX=   26   IYMAX=   26   IZMAX=   53
   IXMIN=  -26   IYMIN=  -26   IZMIN=  -53


 real space projection operators:
  total allocation   :      55712.72 KBytes
  max/ min on nodes  :       4698.39       4076.88


 parallel 3D FFT for wavefunctions:
    minimum data exchange during FFTs selected (reduces bandwidth)
 parallel 3D FFT for charge:
    minimum data exchange during FFTs selected (reduces bandwidth)


 total amount of memory used by VASP MPI-rank0   234689. kBytes
=======================================================================

   base      :      30000. kBytes
   nonlr-proj:      19421. kBytes
   fftplans  :      66973. kBytes
   grid      :      38377. kBytes
   one-center:        108. kBytes
   wavefun   :      79810. kBytes
 
     INWAV:  cpu time    0.0000: real time    0.0002
 Broyden mixing: mesh for mixing (old mesh)
   NGX = 53   NGY = 53   NGZ =107
  (NGX  =216   NGY  =216   NGZ  =432)
  gives a total of 300563 points

 initial charge density was supplied:
 charge density of overlapping atoms calculated
 number of electron     640.0000000 magnetization 
 keeping initial charge density in first step


--------------------------------------------------------------------------------------------------------


 Maximum index for non-local projection operator         1109
 Maximum index for augmentation-charges         5717 (set IRDMAX)


--------------------------------------------------------------------------------------------------------


 First call to EWALD:  gamma=   0.112
 Maximum number of real-space cells 4x 4x 2
 Maximum number of reciprocal cells 2x 2x 4

    FEWALD:  cpu time    0.0092: real time    0.0092


--------------------------------------- Iteration      1(   1)  ---------------------------------------


    POTLOK:  cpu time    0.4568: real time    0.4616
    SETDIJ:  cpu time    0.4183: real time    0.4204
     EDDAV:  cpu time   46.1826: real time   46.1871
       DOS:  cpu time    0.0013: real time    0.0013
    --------------------------------------------
      LOOP:  cpu time   47.0591: real time   47.0704

 eigenvalue-minimisations  :  4256
 total energy-change (2. order) : 0.1366775E+05  (-0.2787312E+05)
 number of electron     640.0000000 magnetization 
 augmentation part      640.0000000 magnetization 

 Free energy of the ion-electron system (eV)
  ---------------------------------------------------
  alpha Z        PSCENC =       871.83850952
  Ewald energy   TEWEN  =    286078.84836863
  -Hartree energ DENC   =   -340417.28223487
  -exchange      EXHF   =         0.00000000
  -V(xc)+E(xc)   XCENC  =      3043.56102098
  PAW double counting   =     50525.51240023   -50422.77561733
  entropy T*S    EENTRO =        -0.06585382
  eigenvalues    EBANDS =      -219.31973858
  atomic energy  EATOM  =     64207.43592568
  Solvation  Ediel_sol  =         0.00000000
  ---------------------------------------------------
  free energy    TOTEN  =     13667.75278044 eV

  energy without entropy =    13667.81863427  energy(sigma->0) =    13667.78570736


--------------------------------------------------------------------------------------------------------




--------------------------------------- Iteration      1(   2)  ---------------------------------------


     EDDAV:  cpu time   48.7013: real time   48.7167
       DOS:  cpu time    0.0013: real time    0.0013
    --------------------------------------------
      LOOP:  cpu time   48.7027: real time   48.7181

 eigenvalue-minimisations  :  4600
 total energy-change (2. order) :-0.1115941E+05  (-0.1085434E+05)
 number of electron     640.0000000 magnetization 
 augmentation part      640.0000000 magnetization 

 Free energy of the ion-electron system (eV)
  ---------------------------------------------------
  alpha Z        PSCENC =       871.83850952
  Ewald energy   TEWEN  =    286078.84836863
  -Hartree energ DENC   =   -340417.28223487
  -exchange      EXHF   =         0.00000000
  -V(xc)+E(xc)   XCENC  =      3043.56102098
  PAW double counting   =     50525.51240023   -50422.77561733
  entropy T*S    EENTRO =        -0.03572096
  eigenvalues    EBANDS =    -11378.75747576
  atomic energy  EATOM  =     64207.43592568
  Solvation  Ediel_sol  =         0.00000000
  ---------------------------------------------------
  free energy    TOTEN  =      2508.34517613 eV

  energy without entropy =     2508.38089708  energy(sigma->0) =     2508.36303661


--------------------------------------------------------------------------------------------------------




--------------------------------------- Iteration      1(   3)  ---------------------------------------


     EDDAV:  cpu time   67.5341: real time   67.5396
       DOS:  cpu time    0.0006: real time    0.0006
    --------------------------------------------
      LOOP:  cpu time   67.5347: real time   67.5402

 eigenvalue-minimisations  :  6832
 total energy-change (2. order) :-0.2883617E+04  (-0.2769056E+04)
 number of electron     640.0000000 magnetization 
 augmentation part      640.0000000 magnetization 

 Free energy of the ion-electron system (eV)
  ---------------------------------------------------
  alpha Z        PSCENC =       871.83850952
  Ewald energy   TEWEN  =    286078.84836863
  -Hartree energ DENC   =   -340417.28223487
  -exchange      EXHF   =         0.00000000
  -V(xc)+E(xc)   XCENC  =      3043.56102098
  PAW double counting   =     50525.51240023   -50422.77561733
  entropy T*S    EENTRO =        -0.00000000
  eigenvalues    EBANDS =    -14262.41023427
  atomic energy  EATOM  =     64207.43592568
  Solvation  Ediel_sol  =         0.00000000
  ---------------------------------------------------
  free energy    TOTEN  =      -375.27186142 eV

  energy without entropy =     -375.27186142  energy(sigma->0) =     -375.27186142


--------------------------------------------------------------------------------------------------------




--------------------------------------- Iteration      1(   4)  ---------------------------------------


     EDDAV:  cpu time   60.8779: real time   60.8878
       DOS:  cpu time    0.0006: real time    0.0006
    --------------------------------------------
      LOOP:  cpu time   60.8786: real time   60.8884

 eigenvalue-minimisations  :  6064
 total energy-change (2. order) :-0.3613872E+03  (-0.3571204E+03)
 number of electron     640.0000000 magnetization 
 augmentation part      640.0000000 magnetization 

 Free energy of the ion-electron system (eV)
  ---------------------------------------------------
  alpha Z        PSCENC =       871.83850952
  Ewald energy   TEWEN  =    286078.84836863
  -Hartree energ DENC   =   -340417.28223487
  -exchange      EXHF   =         0.00000000
  -V(xc)+E(xc)   XCENC  =      3043.56102098
  PAW double counting   =     50525.51240023   -50422.77561733
  entropy T*S    EENTRO =        -0.00000000
  eigenvalues    EBANDS =    -14623.79741401
  atomic energy  EATOM  =     64207.43592568
  Solvation  Ediel_sol  =         0.00000000
  ---------------------------------------------------
  free energy    TOTEN  =      -736.65904116 eV

  energy without entropy =     -736.65904116  energy(sigma->0) =     -736.65904116


--------------------------------------------------------------------------------------------------------




--------------------------------------- Iteration      1(   5)  ---------------------------------------


     EDDAV:  cpu time   60.9343: real time   60.9452
       DOS:  cpu time    0.0007: real time    0.0007
    CHARGE:  cpu time    3.5538: real time    3.5538
    MIXING:  cpu time    0.0207: real time    0.0209
    --------------------------------------------
      LOOP:  cpu time   64.5096: real time   64.5207

 eigenvalue-minimisations  :  6080
 total energy-change (2. order) :-0.1468443E+02  (-0.1461837E+02)
 number of electron     640.0000006 magnetization 
 augmentation part      134.6936172 magnetization 

 Broyden mixing:
  rms(total) = 0.78288E+01    rms(broyden)= 0.78285E+01
  rms(prec ) = 0.82296E+01
  weight for this iteration     100.00

 Free energy of the ion-electron system (eV)
  ---------------------------------------------------
  alpha Z        PSCENC =       871.83850952
  Ewald energy   TEWEN  =    286078.84836863
  -Hartree energ DENC   =   -340417.28223487
  -exchange      EXHF   =         0.00000000
  -V(xc)+E(xc)   XCENC  =      3043.56102098
  PAW double counting   =     50525.51240023   -50422.77561733
  entropy T*S    EENTRO =        -0.00000000
  eigenvalues    EBANDS =    -14638.48184395
  atomic energy  EATOM  =     64207.43592568
  Solvation  Ediel_sol  =         0.00000000
  ---------------------------------------------------
  free energy    TOTEN  =      -751.34347110 eV

  energy without entropy =     -751.34347110  energy(sigma->0) =     -751.34347110


--------------------------------------------------------------------------------------------------------




--------------------------------------- Iteration      1(   6)  ---------------------------------------


    POTLOK:  cpu time    0.4157: real time    0.4256
    SETDIJ:  cpu time    0.4524: real time    0.4524
     EDDAV:  cpu time   58.2196: real time   58.2240
       DOS:  cpu time    0.0006: real time    0.0006
    CHARGE:  cpu time    3.6042: real time    3.6042
    MIXING:  cpu time    0.0174: real time    0.0175
    --------------------------------------------
      LOOP:  cpu time   62.7100: real time   62.7243

 eigenvalue-minimisations  :  5752
 total energy-change (2. order) : 0.1566340E+03  (-0.8445882E+02)
 number of electron     640.0000006 magnetization 
 augmentation part      140.6281483 magnetization 

 Broyden mixing:
  rms(total) = 0.25746E+01    rms(broyden)= 0.25739E+01
  rms(prec ) = 0.26277E+01
  weight for this iteration     100.00

 eigenvalues of (default mixing * dielectric matrix)
  average eigenvalue GAMMA=   0.9882
  0.9882

 Free energy of the ion-electron system (eV)
  ---------------------------------------------------
  alpha Z        PSCENC =       871.83850952
  Ewald energy   TEWEN  =    286078.84836863
  -Hartree energ DENC   =   -340607.58656858
  -exchange      EXHF   =         0.00000000
  -V(xc)+E(xc)   XCENC  =      3056.41582339
  PAW double counting   =     56676.25163162   -56643.06899356
  entropy T*S    EENTRO =        -0.00000000
  eigenvalues    EBANDS =    -14234.84420724
  atomic energy  EATOM  =     64207.43592568
  Solvation  Ediel_sol  =         0.00000000
  ---------------------------------------------------
  free energy    TOTEN  =      -594.70951053 eV

  energy without entropy =     -594.70951053  energy(sigma->0) =     -594.70951053


--------------------------------------------------------------------------------------------------------




--------------------------------------- Iteration      1(   7)  ---------------------------------------


    POTLOK:  cpu time    0.4224: real time    0.4330
    SETDIJ:  cpu time    0.4431: real time    0.4448
     EDDAV:  cpu time   59.9315: real time   59.9370
       DOS:  cpu time    0.0007: real time    0.0006
    CHARGE:  cpu time    3.6040: real time    3.6040
    MIXING:  cpu time    0.0180: real time    0.0180
    --------------------------------------------
      LOOP:  cpu time   64.4196: real time   64.4375

 eigenvalue-minimisations  :  5960
 total energy-change (2. order) : 0.7361656E-01  (-0.5609537E+01)
 number of electron     640.0000006 magnetization 
 augmentation part      141.1323328 magnetization 

 Broyden mixing:
  rms(total) = 0.16854E+01    rms(broyden)= 0.16854E+01
  rms(prec ) = 0.17147E+01
  weight for this iteration     100.00

 eigenvalues of (default mixing * dielectric matrix)
  average eigenvalue GAMMA=   1.6349
  0.9576  2.3122

 Free energy of the ion-electron system (eV)
  ---------------------------------------------------
  alpha Z        PSCENC =       871.83850952
  Ewald energy   TEWEN  =    286078.84836863
  -Hartree energ DENC   =   -340760.11717719
  -exchange      EXHF   =         0.00000000
  -V(xc)+E(xc)   XCENC  =      3053.69521412
  PAW double counting   =     60572.54062994   -60546.12898361
  entropy T*S    EENTRO =        -0.00000000
  eigenvalues    EBANDS =    -14072.74838107
  atomic energy  EATOM  =     64207.43592568
  Solvation  Ediel_sol  =         0.00000000
  ---------------------------------------------------
  free energy    TOTEN  =      -594.63589397 eV

  energy without entropy =     -594.63589397  energy(sigma->0) =     -594.63589397


--------------------------------------------------------------------------------------------------------




--------------------------------------- Iteration      1(   8)  ---------------------------------------


    POTLOK:  cpu time    0.4291: real time    0.4397
    SETDIJ:  cpu time    0.4408: real time    0.4408
     EDDAV:  cpu time   56.7590: real time   56.7613
       DOS:  cpu time    0.0006: real time    0.0006
    CHARGE:  cpu time    3.5845: real time    3.5845
    MIXING:  cpu time    0.0196: real time    0.0196
    --------------------------------------------
      LOOP:  cpu time   61.2336: real time   61.2466

 eigenvalue-minimisations  :  5576
 total energy-change (2. order) : 0.1607010E+01  (-0.1064841E+01)
 number of electron     640.0000006 magnetization 
 augmentation part      141.1832988 magnetization 

 Broyden mixing:
  rms(total) = 0.45898E+00    rms(broyden)= 0.45889E+00
  rms(prec ) = 0.49304E+00
  weight for this iteration     100.00

 eigenvalues of (default mixing * dielectric matrix)
  average eigenvalue GAMMA=   1.4144
  2.4617  0.8907  0.8907

 Free energy of the ion-electron system (eV)
  ---------------------------------------------------
  alpha Z        PSCENC =       871.83850952
  Ewald energy   TEWEN  =    286078.84836863
  -Hartree energ DENC   =   -341025.05129626
  -exchange      EXHF   =         0.00000000
  -V(xc)+E(xc)   XCENC  =      3050.26452618
  PAW double counting   =     67114.86782304   -67105.34409609
  entropy T*S    EENTRO =        -0.00000000
  eigenvalues    EBANDS =    -13785.88864489
  atomic energy  EATOM  =     64207.43592568
  Solvation  Ediel_sol  =         0.00000000
  ---------------------------------------------------
  free energy    TOTEN  =      -593.02888420 eV

  energy without entropy =     -593.02888420  energy(sigma->0) =     -593.02888420


--------------------------------------------------------------------------------------------------------




--------------------------------------- Iteration      1(   9)  ---------------------------------------


    POTLOK:  cpu time    0.3633: real time    0.3744
    SETDIJ:  cpu time    0.4172: real time    0.4172
     EDDAV:  cpu time   55.8402: real time   55.8418
       DOS:  cpu time    0.0006: real time    0.0006
    CHARGE:  cpu time    3.6106: real time    3.6107
    MIXING:  cpu time    0.0181: real time    0.0181
    --------------------------------------------
      LOOP:  cpu time   60.2501: real time   60.2628

 eigenvalue-minimisations  :  5464
 total energy-change (2. order) : 0.5060414E+00  (-0.2646254E+00)
 number of electron     640.0000006 magnetization 
 augmentation part      141.5538060 magnetization 

 Broyden mixing:
  rms(total) = 0.22908E+00    rms(broyden)= 0.22907E+00
  rms(prec ) = 0.24770E+00
  weight for this iteration     100.00

 eigenvalues of (default mixing * dielectric matrix)
  average eigenvalue GAMMA=   1.2443
  2.1368  1.0679  0.8863  0.8863

 Free energy of the ion-electron system (eV)
  ---------------------------------------------------
  alpha Z        PSCENC =       871.83850952
  Ewald energy   TEWEN  =    286078.84836863
  -Hartree energ DENC   =   -341134.77270597
  -exchange      EXHF   =         0.00000000
  -V(xc)+E(xc)   XCENC  =      3052.15861487
  PAW double counting   =     67614.08980233   -67607.86812701
  entropy T*S    EENTRO =        -0.00000000
  eigenvalues    EBANDS =    -13674.25323086
  atomic energy  EATOM  =     64207.43592568
  Solvation  Ediel_sol  =         0.00000000
  ---------------------------------------------------
  free energy    TOTEN  =      -592.52284280 eV

  energy without entropy =     -592.52284280  energy(sigma->0) =     -592.52284280


--------------------------------------------------------------------------------------------------------




--------------------------------------- Iteration      1(  10)  ---------------------------------------


    POTLOK:  cpu time    0.4272: real time    0.4384
    SETDIJ:  cpu time    0.4649: real time    0.4649
     EDDAV:  cpu time   61.0695: real time   61.0719
       DOS:  cpu time    0.0007: real time    0.0006
    CHARGE:  cpu time    3.5660: real time    3.5661
    MIXING:  cpu time    0.0220: real time    0.0220
    --------------------------------------------
      LOOP:  cpu time   65.5502: real time   65.5639

 eigenvalue-minimisations  :  6072
 total energy-change (2. order) : 0.4047448E-01  (-0.3267746E-01)
 number of electron     640.0000006 magnetization 
 augmentation part      141.4187000 magnetization 

 Broyden mixing:
  rms(total) = 0.12811E+00    rms(broyden)= 0.12810E+00
  rms(prec ) = 0.15166E+00
  weight for this iteration     100.00

 eigenvalues of (default mixing * dielectric matrix)
  average eigenvalue GAMMA=   1.4066
  2.2685  2.2685  0.9171  0.9171  0.6617

 Free energy of the ion-electron system (eV)
  ---------------------------------------------------
  alpha Z        PSCENC =       871.83850952
  Ewald energy   TEWEN  =    286078.84836863
  -Hartree energ DENC   =   -341195.91029356
  -exchange      EXHF   =         0.00000000
  -V(xc)+E(xc)   XCENC  =      3053.42980532
  PAW double counting   =     67017.78922608   -67010.56833041
  entropy T*S    EENTRO =        -0.00000000
  eigenvalues    EBANDS =    -13615.34557958
  atomic energy  EATOM  =     64207.43592568
  Solvation  Ediel_sol  =         0.00000000
  ---------------------------------------------------
  free energy    TOTEN  =      -592.48236832 eV

  energy without entropy =     -592.48236832  energy(sigma->0) =     -592.48236832


--------------------------------------------------------------------------------------------------------




--------------------------------------- Iteration      1(  11)  ---------------------------------------


    POTLOK:  cpu time    0.4177: real time    0.4271
    SETDIJ:  cpu time    0.4462: real time    0.4462
     EDDAV:  cpu time   56.7837: real time   56.7837
       DOS:  cpu time    0.0006: real time    0.0006
    CHARGE:  cpu time    3.5464: real time    3.5464
    MIXING:  cpu time    0.0185: real time    0.0185
    --------------------------------------------
      LOOP:  cpu time   61.2131: real time   61.2225

 eigenvalue-minimisations  :  5576
 total energy-change (2. order) : 0.1182830E+00  (-0.1619576E-01)
 number of electron     640.0000006 magnetization 
 augmentation part      141.3109199 magnetization 

 Broyden mixing:
  rms(total) = 0.77510E-01    rms(broyden)= 0.77507E-01
  rms(prec ) = 0.94296E-01
  weight for this iteration     100.00

 eigenvalues of (default mixing * dielectric matrix)
  average eigenvalue GAMMA=   1.3608
  2.5553  1.9714  1.0700  0.9386  0.9386  0.6909

 Free energy of the ion-electron system (eV)
  ---------------------------------------------------
  alpha Z        PSCENC =       871.83850952
  Ewald energy   TEWEN  =    286078.84836863
  -Hartree energ DENC   =   -341352.22382478
  -exchange      EXHF   =         0.00000000
  -V(xc)+E(xc)   XCENC  =      3054.87879024
  PAW double counting   =     66966.39832116   -66959.28094724
  entropy T*S    EENTRO =        -0.00000000
  eigenvalues    EBANDS =    -13460.25922852
  atomic energy  EATOM  =     64207.43592568
  Solvation  Ediel_sol  =         0.00000000
  ---------------------------------------------------
  free energy    TOTEN  =      -592.36408530 eV

  energy without entropy =     -592.36408530  energy(sigma->0) =     -592.36408530


--------------------------------------------------------------------------------------------------------




--------------------------------------- Iteration      1(  12)  ---------------------------------------


    POTLOK:  cpu time    0.3576: real time    0.3690
    SETDIJ:  cpu time    0.4177: real time    0.4197
     EDDAV:  cpu time   60.5142: real time   60.5181
       DOS:  cpu time    0.0006: real time    0.0006
    CHARGE:  cpu time    3.5473: real time    3.5473
    MIXING:  cpu time    0.0181: real time    0.0181
    --------------------------------------------
      LOOP:  cpu time   64.8555: real time   64.8728

 eigenvalue-minimisations  :  6024
 total energy-change (2. order) : 0.3339951E-01  (-0.5806019E-02)
 number of electron     640.0000006 magnetization 
 augmentation part      141.3845338 magnetization 

 Broyden mixing:
  rms(total) = 0.35241E-01    rms(broyden)= 0.35239E-01
  rms(prec ) = 0.53614E-01
  weight for this iteration     100.00

 eigenvalues of (default mixing * dielectric matrix)
  average eigenvalue GAMMA=   1.4044
  2.5176  2.5176  1.1608  1.1608  0.9080  0.9080  0.6585

 Free energy of the ion-electron system (eV)
  ---------------------------------------------------
  alpha Z        PSCENC =       871.83850952
  Ewald energy   TEWEN  =    286078.84836863
  -Hartree energ DENC   =   -341411.18065476
  -exchange      EXHF   =         0.00000000
  -V(xc)+E(xc)   XCENC  =      3055.01167829
  PAW double counting   =     67145.25408683   -67138.60212773
  entropy T*S    EENTRO =        -0.00000000
  eigenvalues    EBANDS =    -13400.93647225
  atomic energy  EATOM  =     64207.43592568
  Solvation  Ediel_sol  =         0.00000000
  ---------------------------------------------------
  free energy    TOTEN  =      -592.33068580 eV

  energy without entropy =     -592.33068580  energy(sigma->0) =     -592.33068580


--------------------------------------------------------------------------------------------------------




--------------------------------------- Iteration      1(  13)  ---------------------------------------


    POTLOK:  cpu time    0.3800: real time    0.3911
    SETDIJ:  cpu time    0.4169: real time    0.4169
     EDDAV:  cpu time   58.0801: real time   58.0852
       DOS:  cpu time    0.0006: real time    0.0006
    CHARGE:  cpu time    3.5274: real time    3.5274
    MIXING:  cpu time    0.0200: real time    0.0200
    --------------------------------------------
      LOOP:  cpu time   62.4251: real time   62.4413

 eigenvalue-minimisations  :  5720
 total energy-change (2. order) : 0.1305233E-01  (-0.4186876E-02)
 number of electron     640.0000006 magnetization 
 augmentation part      141.3209746 magnetization 

 Broyden mixing:
  rms(total) = 0.32354E-01    rms(broyden)= 0.32352E-01
  rms(prec ) = 0.44106E-01
  weight for this iteration     100.00

 eigenvalues of (default mixing * dielectric matrix)
  average eigenvalue GAMMA=   1.3478
  2.8103  2.3952  1.1965  1.1965  0.8724  0.8724  0.7918  0.6475

 Free energy of the ion-electron system (eV)
  ---------------------------------------------------
  alpha Z        PSCENC =       871.83850952
  Ewald energy   TEWEN  =    286078.84836863
  -Hartree energ DENC   =   -341482.27926257
  -exchange      EXHF   =         0.00000000
  -V(xc)+E(xc)   XCENC  =      3055.32800261
  PAW double counting   =     67052.76624781   -67045.69378909
  entropy T*S    EENTRO =        -0.00000000
  eigenvalues    EBANDS =    -13330.56163605
  atomic energy  EATOM  =     64207.43592568
  Solvation  Ediel_sol  =         0.00000000
  ---------------------------------------------------
  free energy    TOTEN  =      -592.31763346 eV

  energy without entropy =     -592.31763346  energy(sigma->0) =     -592.31763346


--------------------------------------------------------------------------------------------------------




--------------------------------------- Iteration      1(  14)  ---------------------------------------


    POTLOK:  cpu time    0.3794: real time    0.3888
    SETDIJ:  cpu time    0.4177: real time    0.4177
     EDDAV:  cpu time   60.0169: real time   60.0353
       DOS:  cpu time    0.0006: real time    0.0006
    CHARGE:  cpu time    3.5834: real time    3.5839
    MIXING:  cpu time    0.0181: real time    0.0181
    --------------------------------------------
      LOOP:  cpu time   64.4162: real time   64.4445

 eigenvalue-minimisations  :  5968
 total energy-change (2. order) : 0.4779763E-02  (-0.1219507E-02)
 number of electron     640.0000006 magnetization 
 augmentation part      141.3489128 magnetization 

 Broyden mixing:
  rms(total) = 0.16889E-01    rms(broyden)= 0.16889E-01
  rms(prec ) = 0.27673E-01
  weight for this iteration     100.00

 eigenvalues of (default mixing * dielectric matrix)
  average eigenvalue GAMMA=   1.4203
  2.8077  2.8077  1.4928  1.4928  0.9120  0.9120  0.8557  0.8557  0.6466

 Free energy of the ion-electron system (eV)
  ---------------------------------------------------
  alpha Z        PSCENC =       871.83850952
  Ewald energy   TEWEN  =    286078.84836863
  -Hartree energ DENC   =   -341524.45228186
  -exchange      EXHF   =         0.00000000
  -V(xc)+E(xc)   XCENC  =      3055.44091210
  PAW double counting   =     67089.16155281   -67082.24296138
  entropy T*S    EENTRO =        -0.00000000
  eigenvalues    EBANDS =    -13288.34287920
  atomic energy  EATOM  =     64207.43592568
  Solvation  Ediel_sol  =         0.00000000
  ---------------------------------------------------
  free energy    TOTEN  =      -592.31285370 eV

  energy without entropy =     -592.31285370  energy(sigma->0) =     -592.31285370


--------------------------------------------------------------------------------------------------------




--------------------------------------- Iteration      1(  15)  ---------------------------------------


    POTLOK:  cpu time    0.4465: real time    0.4575
    SETDIJ:  cpu time    0.4464: real time    0.4504
     EDDAV:  cpu time   57.0305: real time   57.0368
       DOS:  cpu time    0.0005: real time    0.0005
    CHARGE:  cpu time    3.5787: real time    3.5790
    MIXING:  cpu time    0.0208: real time    0.0208
    --------------------------------------------
      LOOP:  cpu time   61.5235: real time   61.5451

 eigenvalue-minimisations  :  5600
 total energy-change (2. order) :-0.4950308E-02  (-0.1053101E-02)
 number of electron     640.0000006 magnetization 
 augmentation part      141.3543383 magnetization 

 Broyden mixing:
  rms(total) = 0.13177E-01    rms(broyden)= 0.13175E-01
  rms(prec ) = 0.18790E-01
  weight for this iteration     100.00

 eigenvalues of (default mixing * dielectric matrix)
  average eigenvalue GAMMA=   1.4669
  3.8645  2.7428  1.8729  1.1222  1.0224  1.0224  0.8517  0.8517  0.7011  0.6174

 Free energy of the ion-electron system (eV)
  ---------------------------------------------------
  alpha Z        PSCENC =       871.83850952
  Ewald energy   TEWEN  =    286078.84836863
  -Hartree energ DENC   =   -341582.14853348
  -exchange      EXHF   =         0.00000000
  -V(xc)+E(xc)   XCENC  =      3055.56225667
  PAW double counting   =     67055.30165466   -67048.33936579
  entropy T*S    EENTRO =        -0.00000000
  eigenvalues    EBANDS =    -13230.81661989
  atomic energy  EATOM  =     64207.43592568
  Solvation  Ediel_sol  =         0.00000000
  ---------------------------------------------------
  free energy    TOTEN  =      -592.31780401 eV

  energy without entropy =     -592.31780401  energy(sigma->0) =     -592.31780401


--------------------------------------------------------------------------------------------------------




--------------------------------------- Iteration      1(  16)  ---------------------------------------


    POTLOK:  cpu time    0.3650: real time    0.3766
    SETDIJ:  cpu time    0.4175: real time    0.4175
     EDDAV:  cpu time   56.3000: real time   56.3087
       DOS:  cpu time    0.0006: real time    0.0006
    CHARGE:  cpu time    3.5613: real time    3.5617
    MIXING:  cpu time    0.0200: real time    0.0200
    --------------------------------------------
      LOOP:  cpu time   60.6645: real time   60.6852

 eigenvalue-minimisations  :  5504
 total energy-change (2. order) :-0.3914128E-02  (-0.2829118E-03)
 number of electron     640.0000006 magnetization 
 augmentation part      141.3522701 magnetization 

 Broyden mixing:
  rms(total) = 0.87440E-02    rms(broyden)= 0.87436E-02
  rms(prec ) = 0.12165E-01
  weight for this iteration     100.00

 eigenvalues of (default mixing * dielectric matrix)
  average eigenvalue GAMMA=   1.4940
  4.3061  2.6492  2.1989  1.1011  1.1011  0.9760  0.9760  0.9104  0.9104  0.6846
  0.6195

 Free energy of the ion-electron system (eV)
  ---------------------------------------------------
  alpha Z        PSCENC =       871.83850952
  Ewald energy   TEWEN  =    286078.84836863
  -Hartree energ DENC   =   -341617.66039793
  -exchange      EXHF   =         0.00000000
  -V(xc)+E(xc)   XCENC  =      3055.62185066
  PAW double counting   =     67054.66237475   -67047.69380135
  entropy T*S    EENTRO =        -0.00000000
  eigenvalues    EBANDS =    -13195.37454811
  atomic energy  EATOM  =     64207.43592568
  Solvation  Ediel_sol  =         0.00000000
  ---------------------------------------------------
  free energy    TOTEN  =      -592.32171814 eV

  energy without entropy =     -592.32171814  energy(sigma->0) =     -592.32171814


--------------------------------------------------------------------------------------------------------




--------------------------------------- Iteration      1(  17)  ---------------------------------------


    POTLOK:  cpu time    0.3627: real time    0.3740
    SETDIJ:  cpu time    0.4195: real time    0.4217
     EDDAV:  cpu time   59.9622: real time   59.9701
       DOS:  cpu time    0.0005: real time    0.0005
    CHARGE:  cpu time    3.5575: real time    3.5575
    MIXING:  cpu time    0.0193: real time    0.0193
    --------------------------------------------
      LOOP:  cpu time   64.3217: real time   64.3433

 eigenvalue-minimisations  :  5952
 total energy-change (2. order) :-0.4982745E-02  (-0.3032298E-03)
 number of electron     640.0000006 magnetization 
 augmentation part      141.3586665 magnetization 

 Broyden mixing:
  rms(total) = 0.97650E-02    rms(broyden)= 0.97633E-02
  rms(prec ) = 0.11432E-01
  weight for this iteration     100.00

 eigenvalues of (default mixing * dielectric matrix)
  average eigenvalue GAMMA=   1.5760
  5.3090  2.8289  1.9522  1.9522  0.9658  0.9658  0.9991  0.9991  0.8351  0.8351
  0.6763  0.5939

 Free energy of the ion-electron system (eV)
  ---------------------------------------------------
  alpha Z        PSCENC =       871.83850952
  Ewald energy   TEWEN  =    286078.84836863
  -Hartree energ DENC   =   -341637.84749838
  -exchange      EXHF   =         0.00000000
  -V(xc)+E(xc)   XCENC  =      3055.65597573
  PAW double counting   =     67066.95802572   -67060.07447348
  entropy T*S    EENTRO =        -0.00000000
  eigenvalues    EBANDS =    -13175.14153431
  atomic energy  EATOM  =     64207.43592568
  Solvation  Ediel_sol  =         0.00000000
  ---------------------------------------------------
  free energy    TOTEN  =      -592.32670088 eV

  energy without entropy =     -592.32670088  energy(sigma->0) =     -592.32670088


--------------------------------------------------------------------------------------------------------




--------------------------------------- Iteration      1(  18)  ---------------------------------------


    POTLOK:  cpu time    0.3975: real time    0.4078
    SETDIJ:  cpu time    0.4162: real time    0.4162
     EDDAV:  cpu time   56.5437: real time   56.5489
       DOS:  cpu time    0.0005: real time    0.0005
    CHARGE:  cpu time    3.5775: real time    3.5775
    MIXING:  cpu time    0.0214: real time    0.0214
    --------------------------------------------
      LOOP:  cpu time   60.9568: real time   60.9722

 eigenvalue-minimisations  :  5536
 total energy-change (2. order) :-0.4128123E-02  (-0.9349391E-04)
 number of electron     640.0000006 magnetization 
 augmentation part      141.3458670 magnetization 

 Broyden mixing:
  rms(total) = 0.58616E-02    rms(broyden)= 0.58614E-02
  rms(prec ) = 0.69655E-02
  weight for this iteration     100.00

 eigenvalues of (default mixing * dielectric matrix)
  average eigenvalue GAMMA=   1.5937
  5.9764  2.7238  2.5349  1.6675  0.9320  0.9320  1.1721  0.8899  0.8899  0.8728
  0.8456  0.6594  0.6220

 Free energy of the ion-electron system (eV)
  ---------------------------------------------------
  alpha Z        PSCENC =       871.83850952
  Ewald energy   TEWEN  =    286078.84836863
  -Hartree energ DENC   =   -341654.06138296
  -exchange      EXHF   =         0.00000000
  -V(xc)+E(xc)   XCENC  =      3055.70613791
  PAW double counting   =     67050.48789512   -67043.59045373
  entropy T*S    EENTRO =        -0.00000000
  eigenvalues    EBANDS =    -13158.99582917
  atomic energy  EATOM  =     64207.43592568
  Solvation  Ediel_sol  =         0.00000000
  ---------------------------------------------------
  free energy    TOTEN  =      -592.33082901 eV

  energy without entropy =     -592.33082901  energy(sigma->0) =     -592.33082901


--------------------------------------------------------------------------------------------------------




--------------------------------------- Iteration      1(  19)  ---------------------------------------


    POTLOK:  cpu time    0.4360: real time    0.4455
    SETDIJ:  cpu time    0.4381: real time    0.4381
     EDDAV:  cpu time   57.5798: real time   57.5834
       DOS:  cpu time    0.0006: real time    0.0006
    CHARGE:  cpu time    3.5658: real time    3.5658
    MIXING:  cpu time    0.0265: real time    0.0265
    --------------------------------------------
      LOOP:  cpu time   62.0469: real time   62.0600

 eigenvalue-minimisations  :  5648
 total energy-change (2. order) :-0.1820712E-02  (-0.4244046E-04)
 number of electron     640.0000006 magnetization 
 augmentation part      141.3477235 magnetization 

 Broyden mixing:
  rms(total) = 0.23169E-02    rms(broyden)= 0.23153E-02
  rms(prec ) = 0.34996E-02
  weight for this iteration     100.00

 eigenvalues of (default mixing * dielectric matrix)
  average eigenvalue GAMMA=   1.6310
  6.5398  3.0578  2.3929  1.9899  0.9905  0.9905  1.0958  1.0958  0.9255  0.9255
  0.7736  0.7736  0.6758  0.6074

 Free energy of the ion-electron system (eV)
  ---------------------------------------------------
  alpha Z        PSCENC =       871.83850952
  Ewald energy   TEWEN  =    286078.84836863
  -Hartree energ DENC   =   -341660.04408509
  -exchange      EXHF   =         0.00000000
  -V(xc)+E(xc)   XCENC  =      3055.70729099
  PAW double counting   =     67056.29090410   -67049.42222330
  entropy T*S    EENTRO =        -0.00000000
  eigenvalues    EBANDS =    -13152.98734025
  atomic energy  EATOM  =     64207.43592568
  Solvation  Ediel_sol  =         0.00000000
  ---------------------------------------------------
  free energy    TOTEN  =      -592.33264972 eV

  energy without entropy =     -592.33264972  energy(sigma->0) =     -592.33264972


--------------------------------------------------------------------------------------------------------




--------------------------------------- Iteration      1(  20)  ---------------------------------------


    POTLOK:  cpu time    0.3955: real time    0.4044
    SETDIJ:  cpu time    0.4171: real time    0.4171
     EDDAV:  cpu time   57.9105: real time   57.9116
       DOS:  cpu time    0.0006: real time    0.0006
    CHARGE:  cpu time    3.5719: real time    3.5719
    MIXING:  cpu time    0.0261: real time    0.0261
    --------------------------------------------
      LOOP:  cpu time   62.3216: real time   62.3316

 eigenvalue-minimisations  :  5696
 total energy-change (2. order) :-0.2963186E-02  (-0.2322713E-04)
 number of electron     640.0000006 magnetization 
 augmentation part      141.3480971 magnetization 

 Broyden mixing:
  rms(total) = 0.24444E-02    rms(broyden)= 0.24436E-02
  rms(prec ) = 0.30264E-02
  weight for this iteration     100.00

 eigenvalues of (default mixing * dielectric matrix)
  average eigenvalue GAMMA=   1.6415
  6.8595  3.2595  2.4585  2.0989  1.2253  1.2253  0.9482  0.9482  0.9504  0.9504
  0.8538  0.8538  0.7288  0.6584  0.6038

 Free energy of the ion-electron system (eV)
  ---------------------------------------------------
  alpha Z        PSCENC =       871.83850952
  Ewald energy   TEWEN  =    286078.84836863
  -Hartree energ DENC   =   -341664.57111858
  -exchange      EXHF   =         0.00000000
  -V(xc)+E(xc)   XCENC  =      3055.70613218
  PAW double counting   =     67051.48997125   -67044.61368718
  entropy T*S    EENTRO =        -0.00000000
  eigenvalues    EBANDS =    -13148.46971442
  atomic energy  EATOM  =     64207.43592568
  Solvation  Ediel_sol  =         0.00000000
  ---------------------------------------------------
  free energy    TOTEN  =      -592.33561290 eV

  energy without entropy =     -592.33561290  energy(sigma->0) =     -592.33561290


--------------------------------------------------------------------------------------------------------




--------------------------------------- Iteration      1(  21)  ---------------------------------------


    POTLOK:  cpu time    0.4204: real time    0.4333
    SETDIJ:  cpu time    0.4514: real time    0.4514
     EDDAV:  cpu time   51.2827: real time   51.2847
       DOS:  cpu time    0.0005: real time    0.0005
    CHARGE:  cpu time    3.5753: real time    3.5753
    MIXING:  cpu time    0.0245: real time    0.0245
    --------------------------------------------
      LOOP:  cpu time   55.7549: real time   55.7698

 eigenvalue-minimisations  :  4904
 total energy-change (2. order) :-0.2115238E-02  (-0.7185237E-05)
 number of electron     640.0000006 magnetization 
 augmentation part      141.3481661 magnetization 

 Broyden mixing:
  rms(total) = 0.18648E-02    rms(broyden)= 0.18642E-02
  rms(prec ) = 0.22193E-02
[...]
    -6.564311700 11.369721380  0.000000000     0.000000000  0.087952903  0.000000000
     0.000000000  0.000000000 26.828094240     0.000000000  0.000000000  0.037274358

  length of vectors
    13.128623400 13.128623399 26.828094240     0.087952903  0.087952903  0.037274358


 FORCES acting on ions
    electron-ion (+dipol)            ewald-force                    non-local-force                 convergence-correction
 -----------------------------------------------------------------------------------------------
   0.100E+03 0.194E+02 0.140E+04   -.100E+03 -.194E+02 -.139E+04   -.686E+00 -.487E+00 -.655E+01   -.353E-04 -.121E-03 -.540E-04
   -.280E+02 0.589E+02 0.132E+04   0.260E+02 -.601E+02 -.131E+04   0.137E+01 -.200E-01 -.779E+01   -.245E-04 0.112E-04 -.842E-04
   -.331E+02 0.258E+02 0.130E+04   0.303E+02 -.259E+02 -.130E+04   0.254E+01 0.252E+00 -.485E+01   -.494E-04 0.734E-04 -.373E-04
   0.187E+02 0.856E+01 0.125E+04   -.182E+02 -.994E+01 -.124E+04   0.107E+00 0.539E+00 -.503E+01   -.252E-04 -.326E-04 0.206E-04
   -.216E+02 -.450E+02 0.108E+04   0.235E+02 0.430E+02 -.108E+04   -.282E+00 0.118E+01 -.483E+01   0.278E-04 -.811E-04 -.630E-04
   0.537E+02 -.938E+02 0.130E+04   -.519E+02 0.947E+02 -.129E+04   -.129E+01 0.294E+00 -.439E+01   0.410E-04 0.247E-04 -.917E-04
   -.107E+03 -.196E+02 0.118E+04   0.106E+03 0.195E+02 -.117E+04   0.196E+01 0.770E+00 -.475E+01   -.346E-04 0.249E-04 -.827E-04
   -.222E+02 -.742E+01 0.115E+04   0.220E+02 0.737E+01 -.114E+04   0.328E+00 0.747E+00 -.522E+01   -.741E-04 -.394E-05 -.333E-04
   -.981E+02 -.964E+01 0.126E+04   0.963E+02 0.103E+02 -.125E+04   0.155E+01 -.104E+01 -.575E+01   0.214E-04 0.740E-05 -.683E-04
   -.243E+02 0.458E+02 0.119E+04   0.259E+02 -.451E+02 -.119E+04   -.586E+00 -.173E+01 -.436E+01   0.231E-04 0.403E-04 -.154E-05
   0.344E+02 0.340E+02 0.134E+04   -.333E+02 -.343E+02 -.133E+04   -.106E+01 -.161E-01 -.684E+01   0.667E-04 0.123E-04 -.369E-04
   0.103E+03 0.551E+02 0.109E+04   -.102E+03 -.550E+02 -.108E+04   -.178E+01 -.107E+01 -.405E+01   0.374E-04 0.364E-04 -.166E-04
   0.196E+02 -.121E+03 0.134E+04   -.189E+02 0.121E+03 -.134E+04   -.885E+00 0.712E+00 -.457E+01   -.131E-04 -.346E-04 -.168E-04
   -.545E+00 -.400E+01 0.119E+04   -.174E-01 0.507E+01 -.119E+04   -.925E-01 0.154E+00 -.664E+01   -.540E-04 0.314E-04 -.411E-04
   0.805E+01 0.129E+02 0.137E+04   -.608E+01 -.129E+02 -.137E+04   -.837E+00 0.416E-01 -.582E+01   0.252E-04 0.359E-04 -.238E-04
   -.236E+02 0.553E+02 0.136E+04   0.244E+02 -.555E+02 -.135E+04   -.576E+00 -.735E+00 -.562E+01   0.672E-04 -.170E-04 0.131E-04
   -.131E+01 0.598E+02 -.132E+04   0.147E+01 -.607E+02 0.132E+04   -.246E+00 -.570E+00 0.637E+01   -.151E-04 -.137E-03 0.300E-04
   0.591E+02 -.106E+02 -.131E+04   -.589E+02 0.116E+02 0.130E+04   -.740E+00 -.421E+00 0.773E+01   -.424E-04 -.276E-04 0.108E-03
   -.156E+02 -.244E+02 -.131E+04   0.161E+02 0.241E+02 0.130E+04   -.529E+00 0.873E+00 0.712E+01   -.460E-04 0.489E-04 0.549E-04
   -.130E+03 -.597E+02 -.120E+04   0.130E+03 0.604E+02 0.119E+04   0.120E+01 -.373E-01 0.482E+01   -.898E-04 0.151E-04 -.207E-04
   0.426E+02 0.271E+02 -.137E+04   -.429E+02 -.279E+02 0.137E+04   -.397E+00 0.113E+01 0.606E+01   -.769E-04 -.446E-04 0.213E-04
   0.558E+02 -.248E+02 -.125E+04   -.554E+02 0.245E+02 0.124E+04   -.657E+00 0.587E+00 0.606E+01   0.681E-04 0.392E-04 0.474E-04
   -.156E+02 0.414E+02 -.125E+04   0.168E+02 -.420E+02 0.124E+04   0.352E+00 -.485E+00 0.557E+01   0.724E-04 -.834E-05 0.772E-04
   0.580E+02 0.210E+02 -.151E+04   -.602E+02 -.207E+02 0.150E+04   0.508E+00 -.240E+00 0.626E+01   -.126E-04 0.440E-04 0.596E-04
   -.415E+02 -.951E+02 -.130E+04   0.403E+02 0.955E+02 0.129E+04   0.134E+01 0.575E+00 0.613E+01   0.663E-04 -.492E-04 0.238E-04
   -.719E+02 -.398E+02 -.139E+04   0.720E+02 0.408E+02 0.138E+04   0.824E+00 0.798E+00 0.630E+01   -.273E-04 0.581E-04 0.762E-05
   -.466E+02 -.297E+02 -.124E+04   0.483E+02 0.302E+02 0.123E+04   0.524E+00 -.601E-01 0.516E+01   0.576E-06 0.147E-04 0.562E-04
   -.696E+02 0.417E+02 -.122E+04   0.731E+02 -.412E+02 0.121E+04   -.141E-01 -.364E+00 0.631E+01   0.593E-04 0.528E-04 0.484E-04
   0.572E+00 -.255E+02 -.108E+04   0.707E-01 0.250E+02 0.107E+04   -.141E+00 0.496E-01 0.453E+01   0.115E-04 -.562E-04 0.326E-04
   0.512E+02 0.644E+02 -.124E+04   -.509E+02 -.639E+02 0.124E+04   -.136E+01 -.755E+00 0.608E+01   -.691E-05 -.336E-04 0.372E-04
   0.201E+02 0.846E+01 -.122E+04   -.224E+02 -.650E+01 0.121E+04   0.807E+00 0.271E+00 0.436E+01   -.318E-04 0.121E-03 0.165E-04
   0.212E+02 -.599E+02 -.100E+04   -.213E+02 0.585E+02 0.100E+04   0.337E+00 0.150E+01 0.370E+01   0.449E-04 0.215E-04 0.142E-04
   0.452E+01 -.297E+02 -.155E+04   -.679E+01 0.284E+02 0.157E+04   0.245E+01 0.230E+01 -.164E+02   -.100E-04 -.249E-04 -.180E-04
   -.700E+02 0.163E+02 -.162E+04   0.735E+02 -.158E+02 0.164E+04   -.242E+01 -.111E+00 -.169E+02   -.992E-05 -.621E-05 -.123E-05
   -.719E+02 0.254E+02 -.159E+04   0.722E+02 -.251E+02 0.160E+04   0.102E+01 -.111E+01 -.177E+02   -.423E-04 -.124E-05 -.320E-04
   0.316E+02 -.984E+02 -.155E+04   -.363E+02 0.998E+02 0.156E+04   0.423E+01 -.114E+00 -.171E+02   -.186E-04 -.470E-05 -.333E-04
   0.258E+02 0.785E+01 -.163E+04   -.241E+02 -.822E+01 0.164E+04   -.194E+01 0.177E+00 -.165E+02   -.105E-05 -.107E-04 -.299E-04
   0.112E+02 0.695E+01 -.154E+04   -.887E+01 -.548E+01 0.155E+04   -.219E+01 -.168E+01 -.140E+02   0.215E-04 0.126E-04 0.133E-05
   0.327E+02 0.145E+02 -.161E+04   -.364E+02 -.145E+02 0.162E+04   0.366E+01 0.177E+00 -.158E+02   0.171E-04 0.571E-05 -.237E-04
   0.444E+02 0.312E+02 -.168E+04   -.486E+02 -.331E+02 0.170E+04   0.446E+01 0.186E+01 -.165E+02   -.791E-05 -.173E-05 -.444E-04
   -.385E+02 0.164E+02 -.164E+04   0.385E+02 -.213E+02 0.166E+04   0.489E+00 0.426E+01 -.165E+02   0.829E-06 0.166E-04 -.355E-04
   0.326E+01 -.555E+00 -.157E+04   -.340E+01 0.198E+01 0.158E+04   -.237E+00 -.237E+01 -.150E+02   -.179E-05 0.281E-04 -.701E-05
   0.388E+02 -.468E+02 -.159E+04   -.422E+02 0.510E+02 0.161E+04   0.219E+01 -.343E+01 -.157E+02   0.305E-04 -.115E-04 -.170E-04
   -.318E+02 0.578E+01 -.163E+04   0.352E+02 -.571E+01 0.165E+04   -.373E+01 -.270E+00 -.173E+02   0.119E-04 0.420E-05 -.151E-04
   0.122E+02 -.289E+02 -.157E+04   -.124E+02 0.284E+02 0.159E+04   -.574E+00 0.950E+00 -.170E+02   0.810E-06 -.229E-04 -.186E-04
   -.576E+01 0.997E+02 -.153E+04   0.640E+01 -.108E+03 0.155E+04   -.570E+00 0.537E+01 -.134E+02   -.227E-04 0.425E-04 -.913E-05
   0.450E+02 0.235E+02 -.156E+04   -.459E+02 -.233E+02 0.158E+04   0.785E+00 -.793E+00 -.161E+02   0.197E-04 0.509E-05 -.139E-04
   0.765E+01 -.421E+01 -.156E+04   -.729E+01 0.363E+01 0.158E+04   -.638E+00 0.939E+00 -.169E+02   0.153E-04 -.276E-05 -.242E-04
   0.228E+02 0.203E+02 0.158E+04   -.204E+02 -.228E+02 -.160E+04   -.393E+01 0.231E+01 0.164E+02   -.710E-05 -.244E-04 -.995E-05
   0.804E+02 -.432E+02 0.160E+04   -.845E+02 0.464E+02 -.161E+04   0.375E+01 -.204E+01 0.163E+02   0.168E-04 -.171E-04 0.208E-04
   0.201E+02 0.409E+02 0.159E+04   -.232E+02 -.419E+02 -.161E+04   0.259E+01 0.189E+00 0.182E+02   -.160E-04 0.142E-04 0.948E-05
   -.180E+02 0.739E+01 0.161E+04   0.184E+02 -.776E+01 -.163E+04   -.105E+00 0.215E+00 0.174E+02   -.191E-04 0.653E-06 0.153E-04
   -.198E+02 0.343E+02 0.148E+04   0.176E+02 -.374E+02 -.150E+04   0.211E+01 0.247E+01 0.139E+02   -.243E-04 -.119E-04 -.239E-04
   -.308E+02 0.171E+02 0.160E+04   0.354E+02 -.194E+02 -.162E+04   -.448E+01 0.182E+01 0.180E+02   -.115E-04 -.422E-07 0.208E-04
   -.102E+02 -.182E+02 0.160E+04   0.998E+01 0.189E+02 -.162E+04   0.652E+00 -.777E+00 0.172E+02   0.899E-05 0.439E-05 0.255E-04
   -.408E+02 0.108E+02 0.155E+04   0.439E+02 -.107E+02 -.157E+04   -.229E+01 -.668E+00 0.175E+02   -.122E-04 -.594E-06 0.763E-05
   0.575E+02 -.574E+02 0.158E+04   -.607E+02 0.583E+02 -.160E+04   0.300E+01 0.327E+00 0.180E+02   0.316E-05 -.129E-05 0.207E-04
   -.461E+02 0.143E+00 0.162E+04   0.460E+02 0.271E+01 -.164E+04   0.579E+00 -.318E+01 0.181E+02   0.568E-05 -.968E-06 0.352E-04
   0.314E+02 -.464E+02 0.165E+04   -.326E+02 0.471E+02 -.167E+04   0.867E+00 0.226E+00 0.191E+02   0.139E-04 0.244E-04 0.460E-04
   -.679E+01 0.520E+02 0.158E+04   0.750E+01 -.501E+02 -.159E+04   -.245E+00 -.295E+01 0.157E+02   0.118E-04 -.111E-04 0.196E-04
   -.575E+02 -.437E+02 0.161E+04   0.610E+02 0.441E+02 -.163E+04   -.280E+01 0.178E+00 0.158E+02   0.598E-05 -.129E-04 0.301E-04
   0.275E+01 -.178E+02 0.159E+04   -.327E+01 0.198E+02 -.161E+04   0.416E+00 -.215E+01 0.159E+02   -.612E-05 0.215E-05 0.348E-04
   -.442E+01 0.588E+02 0.163E+04   0.298E+01 -.614E+02 -.165E+04   0.154E+01 0.206E+01 0.167E+02   -.117E-04 0.310E-04 0.297E-04
   0.270E+01 0.175E+01 0.160E+04   -.652E+00 -.317E+01 -.161E+04   -.220E+01 0.151E+01 0.140E+02   0.114E-04 -.850E-05 0.256E-04
   -.380E+01 -.899E+01 0.480E+02   0.371E+01 0.913E+01 -.481E+02   0.432E+00 -.499E+00 0.703E+00   0.381E-05 -.195E-04 -.954E-06
   -.148E+02 0.645E+01 0.330E+02   0.147E+02 -.600E+01 -.331E+02   0.806E+00 -.174E+01 -.257E+00   -.890E-05 -.121E-04 0.322E-05
   0.817E+01 0.947E+01 0.258E+02   -.804E+01 -.947E+01 -.260E+02   -.599E+00 0.209E-01 0.561E+00   -.141E-04 0.794E-05 -.110E-04
   0.501E+01 0.201E+01 0.703E+02   -.540E+01 -.238E+01 -.707E+02   0.493E+00 0.213E+01 0.144E+01   -.409E-05 0.165E-04 0.535E-05
   0.919E+01 0.157E+00 -.399E+02   -.889E+01 -.374E+00 0.398E+02   -.170E+01 0.101E+01 0.136E+01   -.193E-04 -.124E-04 0.203E-05
   0.253E+02 -.351E+02 -.840E+01   -.254E+02 0.350E+02 0.837E+01   -.305E+00 0.134E+01 0.108E+01   0.150E-04 -.192E-04 -.829E-05
   -.170E+02 0.179E+02 -.107E+02   0.169E+02 -.179E+02 0.107E+02   0.365E+00 -.148E+00 -.142E+00   -.535E-05 0.772E-05 -.116E-04
   -.195E+01 0.849E+01 -.534E+02   0.219E+01 -.833E+01 0.536E+02   -.898E+00 -.112E+01 0.846E+00   -.209E-04 0.922E-05 -.134E-04
   0.167E+01 0.206E+02 -.437E+02   -.183E+01 -.202E+02 0.434E+02   0.135E+01 -.167E+01 0.241E-01   0.920E-05 -.280E-05 0.712E-06
   -.115E+02 -.136E+02 -.216E+02   0.114E+02 0.134E+02 0.214E+02   -.364E+00 0.161E+01 0.136E+01   -.826E-05 0.553E-05 -.230E-05
   0.512E+02 -.161E+02 0.249E+02   -.511E+02 0.161E+02 -.250E+02   -.162E+01 0.193E+00 0.167E+00   0.232E-04 0.686E-05 0.265E-05
   0.406E+02 0.372E+02 -.467E+02   -.409E+02 -.374E+02 0.464E+02   -.202E+01 -.121E+01 -.197E+01   0.175E-04 0.973E-05 -.937E-07
   0.230E+01 -.399E+02 0.374E+02   -.193E+01 0.397E+02 -.376E+02   -.128E+01 0.263E+01 0.215E+01   0.712E-06 -.236E-05 0.110E-04
   -.237E+02 0.174E+02 -.135E+02   0.236E+02 -.170E+02 0.136E+02   0.893E+00 -.182E+01 0.798E+00   -.344E-05 0.250E-05 -.138E-04
   -.185E+02 0.189E+02 -.129E+02   0.183E+02 -.187E+02 0.129E+02   0.866E+00 -.123E+01 -.541E+00   0.316E-05 0.176E-04 -.721E-05
   0.275E+02 0.213E+01 0.253E+02   -.273E+02 -.228E+01 -.250E+02   -.203E+01 0.504E+00 -.178E+01   0.876E-05 -.501E-06 -.608E-05
 -----------------------------------------------------------------------------------------------
   -.243E+01 -.815E+01 -.207E+02   -.391E-12 0.345E-12 0.198E-11   0.244E+01 0.815E+01 0.207E+02   -.561E-04 0.976E-04 -.679E-04
 
 
 POSITION                                       TOTAL-FORCE (eV/Angst)
 -----------------------------------------------------------------------------------
      0.20207      1.83683     11.99571        -0.899964     -0.467477      0.959020
     -1.61118      4.86052     12.12412        -0.643522     -1.203113      0.204492
     -3.34180      7.56645     12.08515        -0.318470      0.098788     -0.427835
     -4.88148     10.42725     12.14628         0.539857     -0.840706     -0.699588
      3.31840      1.97834     12.30450         1.606000     -0.850864     -1.157355
      1.62173      4.70829     12.02162         0.450807      1.120963      0.851808
     -0.11886      7.63474     12.16778         1.204147      0.682621      0.511999
     -1.64824     10.39898     12.23969         0.115469      0.690431     -0.145691
      6.54902      2.02685     12.16873        -0.213303     -0.409890      0.265152
      4.87732      4.84996     12.17709         0.983300     -1.074335     -0.622007
      3.22818      7.64795     12.09410        -0.003505     -0.314824      0.608301
      1.65557     10.53231     12.28184        -1.191390     -0.948713     -0.634434
      9.87409      1.83863     11.99244        -0.154493      0.911161      0.835620
      8.23080      4.67116     12.26298        -0.655348      1.225312     -1.313079
      6.48595      7.47748     12.03625         1.138300      0.037533      0.075549
      4.96473     10.44538     12.05568         0.295411     -1.010267     -0.632042
      1.73072      0.99062     14.69251        -0.089524     -1.433526     -0.307004
      0.05714      3.68430     14.69600        -0.587025      0.509348     -1.114832
     -1.69409      6.58456     14.74129        -0.012873      0.563193     -0.823666
     -3.34463      9.36873     14.66233         0.454929      0.667004     -0.767264
      4.95031      0.84224     14.80634        -0.624952      0.329800      0.201739
      3.32096      3.80738     14.66298        -0.251151      0.303648     -0.005456
      1.47491      6.72666     14.73863         1.511215     -1.061502     -0.772680
      0.13677      9.53583     14.98625        -1.604073      0.138305     -1.426611
      8.19477      0.95451     14.75140         0.082140      0.968405     -0.598801
      6.44642      3.67737     14.86015         0.874586      1.801377     -1.967994
      4.76656      6.64843     14.69749         2.211553      0.418772     -1.272839
      3.22925      9.53274     14.58684         3.504376      0.142648      1.981546
     11.51002      0.91204     14.52860         0.502451     -0.531189     -0.015223
      9.95470      3.73025     14.69871        -1.101137     -0.183258     -1.035909
      8.20807      6.54804     14.73735        -1.501714      2.225440     -2.303850
      6.55546      9.38251     14.45003         0.250729      0.096999      1.771203
      0.00031      1.55545     15.72957         0.174087      1.032494      0.485587
     -1.97279      4.78626     15.90303         1.099188      0.359306      0.691467
     -3.59774      7.69941     15.79612         1.301263     -0.854760      0.878746
     -4.92773     10.01608     15.72496        -0.471253      1.286336      0.381740
      3.28856      2.01478     15.93438        -0.295240     -0.193893     -0.299796
      1.57346      4.75573     15.74908         0.166534     -0.203217      0.412584
     -0.05726      7.53182     15.89967        -0.017621      0.180679      0.526456
     -1.55794     10.47321     16.22461         0.297406     -0.047565     -1.081501
      6.49602      1.97530     15.94611         0.493950     -0.603406      0.556048
      4.92948      4.87000     15.75568        -0.370789     -0.939921      0.965505
      3.32672      7.38276     15.81017        -1.230961      0.799819      1.015608
      1.85062     10.55783     15.88618        -0.290644     -0.195737      0.513589
     10.07396      1.73755     15.81848        -0.744096      0.480909     -0.080104
      8.16743      4.93588     15.71204         0.065580     -2.549610      1.932184
      6.60974      7.71327     15.76538        -0.181348     -0.596425     -0.065461
      5.07785     10.34540     15.78091        -0.283532      0.354787     -0.670975
      2.09587      0.92537     11.08035        -1.547507     -0.206202     -0.905662
      0.20239      3.55091     10.93560        -0.379138      1.151919     -0.703467
     -1.55600      6.85752     11.01030        -0.424762     -0.809667     -0.592677
     -3.25615      9.56389     10.94510         0.252921     -0.149063      0.415050
      4.94566      1.09496     11.26370        -0.008540     -0.628898     -1.122780
      3.20228      3.89735     10.94368         0.124604     -0.478389      0.302909
      1.43996      6.67076     10.81673         0.413820     -0.060945      1.060760
     -0.11524      9.67116     11.06004         0.832404     -0.587511      0.080611
      8.25941      0.76320     11.02844        -0.241587      1.177257     -0.288399
      6.40883      3.81887     10.83214         0.463210     -0.324264      1.158441
      4.94909      6.42934     10.82308        -0.332130      0.893606      0.361325
      3.07493      9.60730     11.03863         0.464959     -1.022794     -0.448555
     11.32309      0.84680     10.93798         0.754369      0.504238     -0.745606
      9.90522      3.80226     10.87631        -0.102439     -0.152624      0.631060
      8.23364      6.75975     10.82841         0.106729     -0.446598      0.486260
      6.60621      9.46856     10.96984        -0.146940      0.090729     -0.302437
      0.02733      0.04889     13.20972         0.344765     -0.354930      0.595489
     -1.66025      2.95956     13.40392         0.710221     -1.293846     -0.367536
     -3.18794      5.69024     13.36250        -0.467111      0.018205      0.360945
      8.20941      8.34807     13.21856         0.106584      1.760185      0.992684
     -3.17252     11.28799     13.46973        -1.398842      0.792521      1.205410
      1.64745      2.74422     13.38010        -0.366808      1.268934      1.041657
     -0.04788      5.70435     13.44959         0.309149     -0.152730     -0.148550
     -1.49850      8.63014     13.47750        -0.654325     -0.963498      0.972834
      6.55710      0.16033     13.61225         1.197441     -1.270605     -0.250407
      4.95537      2.76991     13.47051        -0.433300      1.377661      1.168328
      3.30042      5.68566     13.34411        -1.600124      0.213362      0.095133
      1.74271      8.64031     13.67546        -2.289761     -1.478721     -2.279261
      3.40611     11.22225     13.23019        -0.908476      2.356478      1.919134
      8.14918      2.94525     13.42132         0.792389     -1.446260      0.871661
      6.47873      5.74227     13.43549         0.668090     -1.039629     -0.460808
      4.99436      8.45045     13.37889        -1.825217      0.350195     -1.487492
 -----------------------------------------------------------------------------------
    total drift:                                0.004102     -0.001382      0.013550


--------------------------------------------------------------------------------------------------------



  FREE ENERGIE OF THE ION-ELECTRON SYSTEM (eV)
  ---------------------------------------------------
  free  energy   TOTEN  =      -592.34094855 eV

  energy  without entropy=     -592.34094855  energy(sigma->0) =     -592.34094855
 


--------------------------------------------------------------------------------------------------------


    POTLOK:  cpu time    0.7789: real time    0.7831


--------------------------------------------------------------------------------------------------------


     LOOP+:  cpu time 1863.2287: real time 1863.6815
    4ORBIT:  cpu time    0.0000: real time    0.0000

 total amount of memory used by VASP MPI-rank0   234689. kBytes
=======================================================================

   base      :      30000. kBytes
   nonlr-proj:      19421. kBytes
   fftplans  :      66973. kBytes
   grid      :      38377. kBytes
   one-center:        108. kBytes
   wavefun   :      79810. kBytes
 
  
  
 General timing and accounting informations for this job:
 ========================================================
  
                  Total CPU time used (sec):     1895.567
                            User time (sec):     1889.019
                          System time (sec):        6.548
                         Elapsed time (sec):     1896.303
  
                   Maximum memory used (kb):      437704.
                   Average memory used (kb):           0.
  
                          Minor page faults:       319693
                          Major page faults:            0
                 Voluntary context switches:         2419
