<?xml version="1.0" encoding="ISO-8859-1"?>
<modeling>
 <generator>
  <i name="program" type="string">vasp </i>
  <i name="version" type="string">5.4.4.18Apr17-6-g9f103f2a35  </i>
  <i name="subversion" type="string">(build Oct 31 2019 15:01:46) complex            parallel </i>
  <i name="platform" type="string">LinuxIFC </i>
  <i name="date" type="string">2024 04 20 </i>
  <i name="time" type="string">14:55:38 </i>
 </generator>
 <incar>
  <i type="int" name="ISTART">     0</i>
  <i type="string" name="PREC">anormal</i>
  <i type="logical" name="ADDGRID"> T  </i>
  <i type="int" name="IBRION">    -1</i>
  <i name="EDIFF">      0.00000100</i>
  <i name="EDIFFG">     -0.01000000</i>
  <i type="int" name="NSW">     1</i>
  <i type="int" name="ISIF">     2</i>
  <i type="int" name="ISYM">     2</i>
  <i name="ENCUT">    600.00000000</i>
  <i name="POTIM">      1.00000000</i>
  <i type="string" name="LREAL"> Auto.</i>
  <i type="int" name="ISMEAR">     0</i>
  <i name="SIGMA">      0.05000000</i>
  <i name="KSPACING">      0.25000000</i>
  <i type="logical" name="LWAVE"> F  </i>
  <i type="logical" name="LCHARG"> F  </i>
  <i type="logical" name="LSCALAPACK"> F  </i>
  <v type="int" name="KPOINT_BSE">    -1     0     0     0</v>
 </incar>
 <structure name="primitive_cell" >
  <crystal>
   <varray name="basis" >
    <v>      13.12862340       0.00000000       0.00000000 </v>
    <v>      -6.56431170      11.36972138       0.00000000 </v>
    <v>       0.00000000       0.00000000      26.82809424 </v>
   </varray>
   <i name="volume">   4004.59716953 </i>
   <varray name="rec_basis" >
    <v>       0.07616945       0.04397645       0.00000000 </v>
    <v>       0.00000000       0.08795290       0.00000000 </v>
    <v>       0.00000000       0.00000000       0.03727436 </v>
   </varray>
  </crystal>
  <varray name="positions" >
   <v>       0.07933235       0.16189576       0.45030952 </v>
   <v>      -0.08642044       0.09331527       0.40704809 </v>
   <v>       0.18490803       0.33561545       0.40862110 </v>
   <v>       0.00286337       0.25260167       0.49745877 </v>
   <v>      -0.00712416      -0.00623751       0.49899494 </v>
   <v>       0.17839361       0.08467467       0.40582085 </v>
   <v>       0.24608949       0.24569288      -0.49590067 </v>
   <v>       0.16626556       0.33310717      -0.45719932 </v>
   <v>       0.15619912       0.08609161      -0.45150878 </v>
   <v>      -0.08180416       0.07502137      -0.45398785 </v>
   <v>       0.08309668       0.41113280       0.44621456 </v>
   <v>      -0.17425145      -0.08043443       0.45219453 </v>
   <v>       0.32919063       0.16236654       0.45558647 </v>
   <v>      -0.16350906       0.17932481       0.45395487 </v>
   <v>       0.07417833      -0.09851968       0.45480174 </v>
   <v>       0.33713765       0.42261127       0.44983192 </v>
   <v>       0.07144313       0.17052741      -0.41254223 </v>
   <v>       0.23532195      -0.00622449       0.49840918 </v>
   <v>      -0.06804222       0.34235728       0.40528703 </v>
   <v>      -0.08123218      -0.17697483       0.41309147 </v>
   <v>       0.41983966       0.33769259       0.41399158 </v>
   <v>       0.24714796       0.49989901       0.49521106 </v>
   <v>      -0.25752352      -0.00821613       0.49842172 </v>
   <v>      -0.08788259       0.32822041      -0.45295782 </v>
   <v>       0.41649031       0.32550251      -0.44719703 </v>
   <v>       0.08741537       0.40548744      -0.41644811 </v>
   <v>      -0.08051299      -0.18282467      -0.44800349 </v>
   <v>      -0.15610760      -0.06894972      -0.40632621 </v>
   <v>      -0.31910538       0.09920431       0.41661887 </v>
   <v>       0.31871978       0.16436438      -0.40229784 </v>
   <v>      -0.33351204      -0.16272537       0.41233443 </v>
   <v>      -0.17206134       0.18107874      -0.41045963 </v>
   <v>       0.16807354      -0.16433498       0.40870037 </v>
   <v>       0.34398688       0.41904178      -0.40784843 </v>
   <v>      -0.24555838      -0.25213710      -0.49653447 </v>
   <v>      -0.00496901      -0.25306316      -0.49776517 </v>
   <v>       0.09330092      -0.08918658      -0.40376577 </v>
   <v>      -0.00193515      -0.49920736       0.49231845 </v>
   <v>       0.49570549       0.24635699      -0.49659337 </v>
   <v>      -0.25237522       0.25361814       0.49949310 </v>
   <v>       0.41848363       0.07042918       0.41093157 </v>
   <v>      -0.49279855       0.49401611      -0.49439839 </v>
   <v>       0.18663111      -0.39881297       0.40950978 </v>
   <v>       0.41312068      -0.40138413       0.40593635 </v>
   <v>      -0.16229234      -0.32474157       0.45456168 </v>
   <v>       0.40382515       0.07746237      -0.45289470 </v>
   <v>      -0.32776729       0.08493188      -0.45297198 </v>
   <v>      -0.32480954      -0.17289943      -0.44863317 </v>
   <v>       0.16704709      -0.16742624      -0.45408497 </v>
   <v>       0.32753672      -0.08689738       0.45311829 </v>
   <v>      -0.42385853       0.41669671       0.45661220 </v>
   <v>       0.41554883      -0.41485435      -0.45663635 </v>
   <v>      -0.41949268      -0.07348661       0.45005648 </v>
   <v>       0.16755931      -0.41586745      -0.45317360 </v>
   <v>      -0.16733868       0.42203254       0.44967776 </v>
   <v>       0.34167843      -0.32663757       0.45309880 </v>
   <v>      -0.40711691      -0.31525835       0.45242178 </v>
   <v>       0.09183507      -0.34524589       0.44993798 </v>
   <v>      -0.30621950      -0.38989730       0.41566912 </v>
   <v>      -0.41718113       0.17203837       0.45608705 </v>
   <v>      -0.40715205      -0.08127056      -0.41003246 </v>
   <v>      -0.08566569      -0.40168178       0.40385222 </v>
   <v>      -0.16205556       0.41880241      -0.41458054 </v>
   <v>       0.48837823       0.00613882       0.49744156 </v>
   <v>       0.32740257      -0.34131890      -0.40811596 </v>
   <v>       0.32102263      -0.08914019      -0.40390840 </v>
   <v>      -0.34034612       0.34473346       0.40965634 </v>
   <v>      -0.41214830       0.40667966      -0.41270183 </v>
   <v>      -0.49576894      -0.25407248       0.49969569 </v>
   <v>       0.24691511      -0.25542257       0.49796978 </v>
   <v>      -0.17724116      -0.35247148      -0.40636347 </v>
   <v>      -0.09464559      -0.42034464      -0.45936945 </v>
   <v>      -0.34219758       0.32319667      -0.45078536 </v>
   <v>      -0.33714780      -0.42279677      -0.45251528 </v>
   <v>      -0.40556538       0.15959203      -0.41161962 </v>
   <v>       0.08800848      -0.33856853      -0.41207700 </v>
   <v>       0.41082128      -0.16087919       0.41384099 </v>
   <v>      -0.42019134      -0.32844170      -0.40814637 </v>
   <v>      -0.25558069       0.48797167       0.49977673 </v>
   <v>       0.42694111      -0.15749919      -0.45072322 </v>
  </varray>
 </structure>
 <varray name="primitive_index" >
  <v type="int" >        1 </v>
  <v type="int" >       61 </v>
  <v type="int" >       50 </v>
  <v type="int" >       66 </v>
  <v type="int" >       65 </v>
  <v type="int" >       49 </v>
  <v type="int" >       70 </v>
  <v type="int" >       18 </v>
  <v type="int" >       17 </v>
  <v type="int" >       29 </v>
  <v type="int" >        2 </v>
  <v type="int" >       16 </v>
  <v type="int" >        5 </v>
  <v type="int" >       13 </v>
  <v type="int" >        4 </v>
  <v type="int" >        6 </v>
  <v type="int" >       33 </v>
  <v type="int" >       69 </v>
  <v type="int" >       62 </v>
  <v type="int" >       64 </v>
  <v type="int" >       54 </v>
  <v type="int" >       71 </v>
  <v type="int" >       77 </v>
  <v type="int" >       30 </v>
  <v type="int" >       22 </v>
  <v type="int" >       34 </v>
  <v type="int" >       32 </v>
  <v type="int" >       48 </v>
  <v type="int" >       57 </v>
  <v type="int" >       37 </v>
  <v type="int" >       60 </v>
  <v type="int" >       45 </v>
  <v type="int" >       52 </v>
  <v type="int" >       38 </v>
  <v type="int" >       80 </v>
  <v type="int" >       68 </v>
  <v type="int" >       36 </v>
  <v type="int" >       67 </v>
  <v type="int" >       74 </v>
  <v type="int" >       78 </v>
  <v type="int" >       53 </v>
  <v type="int" >       75 </v>
  <v type="int" >       51 </v>
  <v type="int" >       55 </v>
  <v type="int" >       15 </v>
  <v type="int" >       21 </v>
  <v type="int" >       25 </v>
  <v type="int" >       28 </v>
  <v type="int" >       20 </v>
  <v type="int" >        8 </v>
  <v type="int" >       10 </v>
  <v type="int" >       23 </v>
  <v type="int" >       12 </v>
  <v type="int" >       19 </v>
  <v type="int" >       14 </v>
  <v type="int" >        7 </v>
  <v type="int" >       11 </v>
  <v type="int" >        3 </v>
  <v type="int" >       59 </v>
  <v type="int" >        9 </v>
  <v type="int" >       44 </v>
  <v type="int" >       63 </v>
  <v type="int" >       46 </v>
  <v type="int" >       73 </v>
  <v type="int" >       39 </v>
  <v type="int" >       40 </v>
  <v type="int" >       58 </v>
  <v type="int" >       42 </v>
  <v type="int" >       76 </v>
  <v type="int" >       72 </v>
  <v type="int" >       47 </v>
  <v type="int" >       31 </v>
  <v type="int" >       26 </v>
  <v type="int" >       27 </v>
  <v type="int" >       41 </v>
  <v type="int" >       35 </v>
  <v type="int" >       56 </v>
  <v type="int" >       43 </v>
  <v type="int" >       79 </v>
  <v type="int" >       24 </v>
 </varray>
 <kpoints>
  <generation param="Gamma">
   <v type="int" name="divisions">       3        3        1 </v>
   <v name="usershift">      0.00000000       0.00000000       0.00000000 </v>
   <v name="genvec1">      0.33333333       0.00000000       0.00000000 </v>
   <v name="genvec2">      0.00000000       0.33333333       0.00000000 </v>
   <v name="genvec3">      0.00000000       0.00000000       1.00000000 </v>
   <v name="shift">      0.00000000       0.00000000       0.00000000 </v>
  </generation>
  <varray name="kpointlist" >
   <v>       0.00000000       0.00000000       0.00000000 </v>
   <v>       0.33333333      -0.00000000       0.00000000 </v>
   <v>       0.00000000       0.33333333       0.00000000 </v>
   <v>       0.33333333       0.33333333       0.00000000 </v>
   <v>      -0.33333333       0.33333333       0.00000000 </v>
  </varray>
  <varray name="weights" >
   <v>       0.11111111 </v>
   <v>       0.22222222 </v>
   <v>       0.22222222 </v>
   <v>       0.22222222 </v>
   <v>       0.22222222 </v>
  </varray>
 </kpoints>
 <parameters>
  <separator name="general" >
   <i type="string" name="SYSTEM">unknown system</i>
   <i type="logical" name="LCOMPAT"> F  </i>
  </separator>
  <separator name="electronic" >
   <i type="string" name="PREC">anorma</i>
   <i name="ENMAX">    600.00000000</i>
   <i name="ENAUG">    644.87300000</i>
   <i name="EDIFF">      0.00000100</i>
   <i type="int" name="IALGO">    38</i>
   <i type="int" name="IWAVPR">    10</i>
   <i type="int" name="NBANDS">   384</i>
   <i name="NELECT">    640.00000000</i>
   <i type="int" name="TURBO">     0</i>
   <i type="int" name="IRESTART">     0</i>
   <i type="int" name="NREBOOT">     0</i>
   <i type="int" name="NMIN">     0</i>
   <i name="EREF">      0.00000000</i>
   <separator name="electronic smearing" >
    <i type="int" name="ISMEAR">     0</i>
    <i name="SIGMA">      0.05000000</i>
    <i name="KSPACING">      0.25000000</i>
    <i type="logical" name="KGAMMA"> T  </i>
   </separator>
   <separator name="electronic projectors" >
    <i type="logical" name="LREAL"> T  </i>
    <v name="ROPT">     -0.00025000     -0.00025000     -0.00025000</v>
    <i type="int" name="LMAXPAW">  -100</i>
    <i type="int" name="LMAXMIX">     2</i>
    <i type="logical" name="NLSPLINE"> F  </i>
   </separator>
   <separator name="electronic startup" >
    <i type="int" name="ISTART">     0</i>
    <i type="int" name="ICHARG">     2</i>
    <i type="int" name="INIWAV">     1</i>
   </separator>
   <separator name="electronic spin" >
    <i type="int" name="ISPIN">     1</i>
    <i type="logical" name="LNONCOLLINEAR"> F  </i>
    <v name="MAGMOM">      1.00000000      1.00000000      1.00000000      1.00000000      1.00000000      1.00000000      1.00000000      1.00000000      1.00000000      1.00000000      1.00000000      1.00000000      1.00000000      1.00000000      1.00000000      1.00000000      1.00000000      1.00000000      1.00000000      1.00000000
      1.00000000      1.00000000      1.00000000      1.00000000      1.00000000      1.00000000      1.00000000      1.00000000      1.00000000      1.00000000      1.00000000      1.00000000      1.00000000      1.00000000      1.00000000      1.00000000      1.00000000      1.00000000      1.00000000      1.00000000
      1.00000000      1.00000000      1.00000000      1.00000000      1.00000000      1.00000000      1.00000000      1.00000000      1.00000000      1.00000000      1.00000000      1.00000000      1.00000000      1.00000000      1.00000000      1.00000000      1.00000000      1.00000000      1.00000000      1.00000000
      1.00000000      1.00000000      1.00000000      1.00000000      1.00000000      1.00000000      1.00000000      1.00000000      1.00000000      1.00000000      1.00000000      1.00000000      1.00000000      1.00000000      1.00000000      1.00000000      1.00000000      1.00000000      1.00000000      1.00000000
</v>
    <i name="NUPDOWN">     -1.00000000</i>
    <i type="logical" name="LSORBIT"> F  </i>
    <v name="SAXIS">      0.00000000      0.00000000      1.00000000</v>
    <i type="logical" name="LSPIRAL"> F  </i>
    <v name="QSPIRAL">      0.00000000      0.00000000      0.00000000</v>
    <i type="logical" name="LZEROZ"> F  </i>
   </separator>
   <separator name="electronic exchange-correlation" >
    <i type="logical" name="LASPH"> F  </i>
    <i type="logical" name="LMETAGGA"> F  </i>
   </separator>
   <separator name="electronic convergence" >
    <i type="int" name="NELM">    60</i>
    <i type="int" name="NELMDL">    -5</i>
    <i type="int" name="NELMIN">     2</i>
    <i name="ENINI">    600.00000000</i>
    <separator name="electronic convergence detail" >
     <i type="logical" name="LDIAG"> T  </i>
     <i type="logical" name="LSUBROT"> F  </i>
     <i name="WEIMIN">      0.00000000</i>
     <i name="EBREAK">      0.00000000</i>
     <i name="DEPER">      0.30000000</i>
     <i type="int" name="NRMM">     4</i>
     <i name="TIME">      0.40000000</i>
    </separator>
   </separator>
   <separator name="electronic mixer" >
    <i name="AMIX">      0.40000000</i>
    <i name="BMIX">      1.00000000</i>
    <i name="AMIN">      0.10000000</i>
    <i name="AMIX_MAG">      1.60000000</i>
    <i name="BMIX_MAG">      1.00000000</i>
    <separator name="electronic mixer details" >
     <i type="int" name="IMIX">     4</i>
     <i type="logical" name="MIXFIRST"> F  </i>
     <i type="int" name="MAXMIX">   -45</i>
     <i name="WC">    100.00000000</i>
     <i type="int" name="INIMIX">     1</i>
     <i type="int" name="MIXPRE">     1</i>
     <i type="int" name="MREMOVE">     5</i>
    </separator>
   </separator>
   <separator name="electronic dipolcorrection" >
    <i type="logical" name="LDIPOL"> F  </i>
    <i type="logical" name="LMONO"> F  </i>
    <i type="int" name="IDIPOL">     0</i>
    <i name="EPSILON">      1.00000000</i>
    <v name="DIPOL">   -100.00000000   -100.00000000   -100.00000000</v>
    <i name="EFIELD">      0.00000000</i>
   </separator>
  </separator>
  <separator name="grids" >
   <i type="int" name="NGX">   108</i>
   <i type="int" name="NGY">   108</i>
   <i type="int" name="NGZ">   216</i>
   <i type="int" name="NGXF">   216</i>
   <i type="int" name="NGYF">   216</i>
   <i type="int" name="NGZF">   432</i>
   <i type="logical" name="ADDGRID"> T  </i>
  </separator>
  <separator name="ionic" >
   <i type="int" name="NSW">     1</i>
   <i type="int" name="IBRION">    -1</i>
   <i type="int" name="MDALGO">     0</i>
   <i type="int" name="ISIF">     2</i>
   <i name="PSTRESS">      0.00000000</i>
   <i name="EDIFFG">     -0.01000000</i>
   <i type="int" name="NFREE">     0</i>
   <i name="POTIM">      1.00000000</i>
   <i name="SMASS">     -3.00000000</i>
   <i name="SCALEE">      1.00000000</i>
  </separator>
  <separator name="ionic md" >
   <i name="TEBEG">      0.00010000</i>
   <i name="TEEND">      0.00010000</i>
   <i type="int" name="NBLOCK">     1</i>
   <i type="int" name="KBLOCK">     1</i>
   <i type="int" name="NPACO">   256</i>
   <i name="APACO">     16.00000000</i>
  </separator>
  <separator name="symmetry" >
   <i type="int" name="ISYM">     2</i>
   <i name="SYMPREC">      0.00001000</i>
  </separator>
  <separator name="dos" >
   <i type="int" name="LORBIT">     0</i>
   <v name="RWIGS">     -1.00000000     -1.00000000     -1.00000000</v>
   <i type="int" name="NEDOS">   301</i>
   <i name="EMIN">     10.00000000</i>
   <i name="EMAX">    -10.00000000</i>
   <i name="EFERMI">      0.00000000</i>
  </separator>
  <separator name="writing" >
   <i type="int" name="NWRITE">     2</i>
   <i type="logical" name="LWAVE"> F  </i>
   <i type="logical" name="LDOWNSAMPLE"> F  </i>
   <i type="logical" name="LCHARG"> F  </i>
   <i type="logical" name="LPARD"> F  </i>
   <i type="logical" name="LVTOT"> F  </i>
   <i type="logical" name="LVHAR"> F  </i>
   <i type="logical" name="LELF"> F  </i>
   <i type="logical" name="LOPTICS"> F  </i>
   <v name="STM">      0.00000000      0.00000000      0.00000000      0.00000000      0.00000000      0.00000000      0.00000000</v>
  </separator>
  <separator name="performance" >
   <i type="int" name="NPAR">     4</i>
   <i type="int" name="NSIM">     4</i>
   <i type="int" name="NBLK">    -1</i>
   <i type="logical" name="LPLANE"> T  </i>
   <i type="logical" name="LSCALAPACK"> F  </i>
   <i type="logical" name="LSCAAWARE"> F  </i>
   <i type="logical" name="LSCALU"> F  </i>
   <i type="logical" name="LASYNC"> F  </i>
   <i type="logical" name="LORBITALREAL"> F  </i>
  </separator>
  <separator name="miscellaneous" >
   <i type="int" name="IDIOT">     3</i>
   <i type="int" name="ISPECIAL">     0</i>
   <i type="logical" name="LMUSIC"> F  </i>
   <v name="POMASS">     44.95600000     18.99800000     12.01100000</v>
   <v name="DARWINR">      0.00000000      0.00000000      0.00000000</v>
   <v name="DARWINV">      1.00000000      1.00000000      1.00000000</v>
   <i type="logical" name="LCORR"> T  </i>
  </separator>
  <i type="logical" name="GGA_COMPAT"> T  </i>
  <i type="logical" name="LBERRY"> F  </i>
  <i type="int" name="ICORELEVEL">     0</i>
  <i type="logical" name="LDAU"> F  </i>
  <i type="int" name="I_CONSTRAINED_M">     0</i>
  <separator name="electronic exchange-correlation" >
   <i type="string" name="GGA">--</i>
   <i type="int" name="VOSKOWN">     0</i>
   <i type="logical" name="LHFCALC"> F  </i>
   <i type="string" name="PRECFOCK"></i>
   <i type="logical" name="LSYMGRAD"> F  </i>
   <i type="logical" name="LHFONE"> F  </i>
   <i type="logical" name="LRHFCALC"> F  </i>
   <i type="logical" name="LTHOMAS"> F  </i>
   <i type="logical" name="LMODELHF"> F  </i>
   <i name="ENCUT4O">     -1.00000000</i>
   <i type="int" name="EXXOEP">     0</i>
   <i type="int" name="FOURORBIT">     0</i>
   <i name="AEXX">      0.00000000</i>
   <i name="HFALPHA">      0.00000000</i>
   <i name="MCALPHA">      0.00000000</i>
   <i name="ALDAX">      1.00000000</i>
   <i name="AGGAX">      1.00000000</i>
   <i name="ALDAC">      1.00000000</i>
   <i name="AGGAC">      1.00000000</i>
   <i type="int" name="NKREDX">     1</i>
   <i type="int" name="NKREDY">     1</i>
   <i type="int" name="NKREDZ">     1</i>
   <i type="logical" name="SHIFTRED"> F  </i>
   <i type="logical" name="ODDONLY"> F  </i>
   <i type="logical" name="EVENONLY"> F  </i>
   <i type="int" name="LMAXFOCK">     0</i>
   <i type="int" name="NMAXFOCKAE">     0</i>
   <i type="logical" name="LFOCKAEDFT"> F  </i>
   <i name="HFSCREEN">      0.00000000</i>
   <i name="HFSCREENC">      0.00000000</i>
   <i type="int" name="NBANDSGWLOW">     0</i>
  </separator>
  <separator name="vdW DFT" >
   <i type="logical" name="LUSE_VDW"> F  </i>
   <i name="Zab_VDW">     -0.84910000</i>
   <i name="PARAM1">      0.12340000</i>
   <i name="PARAM2">      1.00000000</i>
   <i name="PARAM3">      0.00000000</i>
  </separator>
  <separator name="model GW" >
   <i type="int" name="MODEL_GW">     0</i>
   <i name="MODEL_EPS0">     30.03447877</i>
   <i name="MODEL_ALPHA">      1.00000000</i>
  </separator>
  <separator name="linear response parameters" >
   <i type="logical" name="LEPSILON"> F  </i>
   <i type="logical" name="LRPA"> F  </i>
   <i type="logical" name="LNABLA"> F  </i>
   <i type="logical" name="LVEL"> F  </i>
   <i type="int" name="KINTER">     0</i>
   <i name="CSHIFT">      0.10000000</i>
   <i name="OMEGAMAX">     -1.00000000</i>
   <i name="DEG_THRESHOLD">      0.00200000</i>
   <i name="RTIME">     -0.10000000</i>
   <i name="WPLASMAI">      0.00000000</i>
   <v name="DFIELD">      0.00000000      0.00000000      0.00000000</v>
   <v name="WPLASMA">      0.00000000      0.00000000      0.00000000      0.00000000      0.00000000      0.00000000      0.00000000      0.00000000      0.00000000</v>
  </separator>
  <separator name="orbital magnetization" >
   <i type="logical" name="NUCIND"> F  </i>
   <v name="MAGPOS">      0.00000000      0.00000000      0.00000000</v>
   <i type="logical" name="LNICSALL"> T  </i>
   <i type="logical" name="ORBITALMAG"> F  </i>
   <i type="logical" name="LMAGBLOCH"> F  </i>
   <i type="logical" name="LCHIMAG"> F  </i>
   <i type="logical" name="LGAUGE"> T  </i>
   <i type="int" name="MAGATOM">     0</i>
   <v name="MAGDIPOL">      0.00000000      0.00000000      0.00000000</v>
   <v name="AVECCONST">      0.00000000      0.00000000      0.00000000</v>
  </separator>
  <separator name="response functions" >
   <i type="logical" name="LADDER"> F  </i>
   <i type="logical" name="LRPAFORCE"> F  </i>
   <i type="logical" name="LFXC"> F  </i>
   <i type="logical" name="LHARTREE"> T  </i>
   <i type="int" name="IBSE">     0</i>
   <v type="int" name="KPOINT">    -1     0     0     0</v>
   <i type="logical" name="LTCTE"> F  </i>
   <i type="logical" name="LTETE"> F  </i>
   <i type="logical" name="LTRIPLET"> F  </i>
   <i type="logical" name="LFXCEPS"> F  </i>
   <i type="logical" name="LFXHEG"> F  </i>
   <i type="int" name="NATURALO">     2</i>
   <i type="logical" name="L2ORDER"> F  </i>
   <i type="logical" name="LMP2LT"> F  </i>
   <i type="logical" name="LUSEW"> F  </i>
   <i name="ENCUTGW">     -2.00000000</i>
   <i name="ENCUTGWSOFT">     -2.00000000</i>
   <i name="ENCUTLF">     -1.00000000</i>
   <i type="int" name="LMAXMP2">    -1</i>
   <i name="SCISSOR">      0.00000000</i>
   <i type="int" name="NOMEGA">     0</i>
   <i type="int" name="NOMEGAR">     0</i>
   <i type="int" name="NBANDSGW">    -1</i>
   <i type="int" name="NBANDSO">    -1</i>
   <i type="int" name="NBANDSV">    -1</i>
   <i type="int" name="NELM">     1</i>
   <i type="int" name="NELMHF">     1</i>
   <i type="int" name="DIM">     3</i>
   <i type="int" name="ANTIRES">     0</i>
   <i name="OMEGAMAX">    -30.00000000</i>
   <i name="OMEGAMIN">    -30.00000000</i>
   <i name="OMEGATL">   -200.00000000</i>
   <i type="int" name="OMEGAGRID">   140</i>
   <i name="CSHIFT">     -0.10000000</i>
   <i type="logical" name="SELFENERGY"> F  </i>
   <i type="logical" name="LSPECTRAL"> F  </i>
   <i type="logical" name="LSPECTRALGW"> F  </i>
   <i type="logical" name="LSINGLES"> F  </i>
   <i type="logical" name="LFERMIGW"> F  </i>
   <i type="logical" name="ODDONLYGW"> F  </i>
   <i type="logical" name="EVENONLYGW"> F  </i>
   <i type="int" name="NKREDLFX">     1</i>
   <i type="int" name="NKREDLFY">     1</i>
   <i type="int" name="NKREDLFZ">     1</i>
   <i type="int" name="MAXMEM">  2800</i>
   <i type="int" name="TELESCOPE">     0</i>
   <i type="int" name="TAUPAR">     1</i>
   <i type="int" name="OMEGAPAR">    -1</i>
   <i name="LAMBDA">      1.00000000</i>
  </separator>
  <separator name="External order field" >
   <i name="OFIELD_KAPPA">      0.00000000</i>
   <v name="OFIELD_K">      0.00000000      0.00000000      0.00000000</v>
   <i name="OFIELD_Q6_NEAR">      0.00000000</i>
   <i name="OFIELD_Q6_FAR">      0.00000000</i>
   <i name="OFIELD_A">      0.00000000</i>
  </separator>
 </parameters>
 <atominfo>
  <atoms>      80 </atoms>
  <types>       3 </types>
  <array name="atoms" >
   <dimension dim="1">ion</dimension>
   <field type="string">element</field>
   <field type="int">atomtype</field>
   <set>
    <rc><c>Sc</c><c>   1</c></rc>
    <rc><c>Sc</c><c>   1</c></rc>
    <rc><c>Sc</c><c>   1</c></rc>
    <rc><c>Sc</c><c>   1</c></rc>
    <rc><c>Sc</c><c>   1</c></rc>
    <rc><c>Sc</c><c>   1</c></rc>
    <rc><c>Sc</c><c>   1</c></rc>
    <rc><c>Sc</c><c>   1</c></rc>
    <rc><c>Sc</c><c>   1</c></rc>
    <rc><c>Sc</c><c>   1</c></rc>
    <rc><c>Sc</c><c>   1</c></rc>
    <rc><c>Sc</c><c>   1</c></rc>
    <rc><c>Sc</c><c>   1</c></rc>
    <rc><c>Sc</c><c>   1</c></rc>
    <rc><c>Sc</c><c>   1</c></rc>
    <rc><c>Sc</c><c>   1</c></rc>
    <rc><c>Sc</c><c>   1</c></rc>
    <rc><c>Sc</c><c>   1</c></rc>
    <rc><c>Sc</c><c>   1</c></rc>
    <rc><c>Sc</c><c>   1</c></rc>
    <rc><c>Sc</c><c>   1</c></rc>
    <rc><c>Sc</c><c>   1</c></rc>
    <rc><c>Sc</c><c>   1</c></rc>
    <rc><c>Sc</c><c>   1</c></rc>
    <rc><c>Sc</c><c>   1</c></rc>
    <rc><c>Sc</c><c>   1</c></rc>
    <rc><c>Sc</c><c>   1</c></rc>
    <rc><c>Sc</c><c>   1</c></rc>
    <rc><c>Sc</c><c>   1</c></rc>
    <rc><c>Sc</c><c>   1</c></rc>
    <rc><c>Sc</c><c>   1</c></rc>
    <rc><c>Sc</c><c>   1</c></rc>
    <rc><c>F </c><c>   2</c></rc>
    <rc><c>F </c><c>   2</c></rc>
    <rc><c>F </c><c>   2</c></rc>
    <rc><c>F </c><c>   2</c></rc>
    <rc><c>F </c><c>   2</c></rc>
    <rc><c>F </c><c>   2</c></rc>
    <rc><c>F </c><c>   2</c></rc>
    <rc><c>F </c><c>   2</c></rc>
    <rc><c>F </c><c>   2</c></rc>
    <rc><c>F </c><c>   2</c></rc>
    <rc><c>F </c><c>   2</c></rc>
    <rc><c>F </c><c>   2</c></rc>
    <rc><c>F </c><c>   2</c></rc>
    <rc><c>F </c><c>   2</c></rc>
    <rc><c>F </c><c>   2</c></rc>
    <rc><c>F </c><c>   2</c></rc>
    <rc><c>F </c><c>   2</c></rc>
    <rc><c>F </c><c>   2</c></rc>
    <rc><c>F </c><c>   2</c></rc>
    <rc><c>F </c><c>   2</c></rc>
    <rc><c>F </c><c>   2</c></rc>
    <rc><c>F </c><c>   2</c></rc>
    <rc><c>F </c><c>   2</c></rc>
    <rc><c>F </c><c>   2</c></rc>
    <rc><c>F </c><c>   2</c></rc>
    <rc><c>F </c><c>   2</c></rc>
    <rc><c>F </c><c>   2</c></rc>
    <rc><c>F </c><c>   2</c></rc>
    <rc><c>F </c><c>   2</c></rc>
    <rc><c>F </c><c>   2</c></rc>
    <rc><c>F </c><c>   2</c></rc>
    <rc><c>F </c><c>   2</c></rc>
    <rc><c>C </c><c>   3</c></rc>
    <rc><c>C </c><c>   3</c></rc>
    <rc><c>C </c><c>   3</c></rc>
    <rc><c>C </c><c>   3</c></rc>
    <rc><c>C </c><c>   3</c></rc>
    <rc><c>C </c><c>   3</c></rc>
    <rc><c>C </c><c>   3</c></rc>
    <rc><c>C </c><c>   3</c></rc>
    <rc><c>C </c><c>   3</c></rc>
    <rc><c>C </c><c>   3</c></rc>
    <rc><c>C </c><c>   3</c></rc>
    <rc><c>C </c><c>   3</c></rc>
    <rc><c>C </c><c>   3</c></rc>
    <rc><c>C </c><c>   3</c></rc>
    <rc><c>C </c><c>   3</c></rc>
    <rc><c>C </c><c>   3</c></rc>
   </set>
  </array>
  <array name="atomtypes" >
   <dimension dim="1">type</dimension>
   <field type="int">atomspertype</field>
   <field type="string">element</field>
   <field>mass</field>
   <field>valence</field>
   <field type="string">pseudopotential</field>
   <set>
    <rc><c>  32</c><c>Sc</c><c>     44.95600000</c><c>     11.00000000</c><c>  PAW_PBE Sc_sv 07Sep2000               </c></rc>
    <rc><c>  32</c><c>F </c><c>     18.99800000</c><c>      7.00000000</c><c>  PAW_PBE F 08Apr2002                   </c></rc>
    <rc><c>  16</c><c>C </c><c>     12.01100000</c><c>      4.00000000</c><c>  PAW_PBE C 08Apr2002                   </c></rc>
   </set>
  </array>
 </atominfo>
 <structure name="initialpos" >
  <crystal>
   <varray name="basis" >
    <v>      13.12862340       0.00000000       0.00000000 </v>
    <v>      -6.56431170      11.36972138       0.00000000 </v>
    <v>       0.00000000       0.00000000      26.82809424 </v>
   </varray>
   <i name="volume">   4004.59716953 </i>
   <varray name="rec_basis" >
    <v>       0.07616945       0.04397645       0.00000000 </v>
    <v>       0.00000000       0.08795290       0.00000000 </v>
    <v>       0.00000000       0.00000000       0.03727436 </v>
   </varray>
  </crystal>
  <varray name="positions" >
   <v>       0.07933235       0.16189576       0.45030952 </v>
   <v>       0.08309668       0.41113280       0.44621456 </v>
   <v>       0.09183507       0.65475411       0.44993798 </v>
   <v>       0.07417833       0.90148032       0.45480174 </v>
   <v>       0.32919063       0.16236654       0.45558647 </v>
   <v>       0.33713765       0.42261127       0.44983192 </v>
   <v>       0.34167843       0.67336243       0.45309880 </v>
   <v>       0.32753672       0.91310262       0.45311829 </v>
   <v>       0.58281887       0.17203837       0.45608705 </v>
   <v>       0.57614147       0.41669671       0.45661220 </v>
   <v>       0.59288309       0.68474165       0.45242178 </v>
   <v>       0.58050732       0.92651339       0.45005648 </v>
   <v>       0.83649094       0.17932481       0.45395487 </v>
   <v>       0.83266132       0.42203254       0.44967776 </v>
   <v>       0.83770766       0.67525843       0.45456168 </v>
   <v>       0.82574855       0.91956557       0.45219453 </v>
   <v>       0.15619912       0.08609161       0.54849122 </v>
   <v>       0.16626556       0.33310717       0.54280068 </v>
   <v>       0.16755931       0.58413255       0.54682640 </v>
   <v>       0.16704709       0.83257376       0.54591503 </v>
   <v>       0.40382515       0.07746237       0.54710530 </v>
   <v>       0.41649031       0.32550251       0.55280297 </v>
   <v>       0.41554883       0.58514565       0.54336365 </v>
   <v>       0.42694111       0.84250081       0.54927678 </v>
   <v>       0.67223271       0.08493188       0.54702802 </v>
   <v>       0.65780242       0.32319667       0.54921464 </v>
   <v>       0.66285220       0.57720323       0.54748472 </v>
   <v>       0.67519046       0.82710057       0.55136683 </v>
   <v>       0.91819584       0.07502137       0.54601215 </v>
   <v>       0.91211741       0.32822041       0.54704218 </v>
   <v>       0.90535441       0.57965536       0.54063055 </v>
   <v>       0.91948701       0.81717533       0.55199651 </v>
   <v>       0.07144313       0.17052741       0.58745777 </v>
   <v>       0.08741537       0.40548744       0.58355189 </v>
   <v>       0.08800848       0.66143147       0.58792300 </v>
   <v>       0.09330092       0.91081342       0.59623423 </v>
   <v>       0.31871978       0.16436438       0.59770216 </v>
   <v>       0.34398688       0.41904178       0.59215157 </v>
   <v>       0.32740257       0.65868110       0.59188404 </v>
   <v>       0.32102263       0.91085981       0.59609160 </v>
   <v>       0.59443462       0.15959203       0.58838038 </v>
   <v>       0.58785170       0.40667966       0.58729817 </v>
   <v>       0.57980866       0.67155830       0.59185363 </v>
   <v>       0.59284795       0.91872944       0.58996754 </v>
   <v>       0.82793866       0.18107874       0.58954037 </v>
   <v>       0.83794444       0.41880241       0.58541946 </v>
   <v>       0.82275884       0.64752852       0.59363653 </v>
   <v>       0.84389240       0.93105028       0.59367379 </v>
   <v>       0.17839361       0.08467467       0.40582085 </v>
   <v>       0.18490803       0.33561545       0.40862110 </v>
   <v>       0.18663111       0.60118703       0.40950978 </v>
   <v>       0.16807354       0.83566502       0.40870037 </v>
   <v>       0.41848363       0.07042918       0.41093157 </v>
   <v>       0.41983966       0.33769259       0.41399158 </v>
   <v>       0.41312068       0.59861587       0.40593635 </v>
   <v>       0.41082128       0.83912081       0.41384099 </v>
   <v>       0.68089462       0.09920431       0.41661887 </v>
   <v>       0.65965388       0.34473346       0.40965634 </v>
   <v>       0.69378050       0.61010270       0.41566912 </v>
   <v>       0.66648796       0.83727463       0.41233443 </v>
   <v>       0.91357956       0.09331527       0.40704809 </v>
   <v>       0.93195778       0.34235728       0.40528703 </v>
   <v>       0.91433431       0.59831822       0.40385222 </v>
   <v>       0.91876782       0.82302517       0.41309147 </v>
   <v>       0.99287584       0.99376249       0.49899494 </v>
   <v>       0.00286337       0.25260167       0.49745877 </v>
   <v>       0.99806485       0.50079264       0.49231845 </v>
   <v>       0.99503099       0.74693684       0.50223483 </v>
   <v>       0.23532195       0.99377551       0.49840918 </v>
   <v>       0.24608949       0.24569288       0.50409933 </v>
   <v>       0.24714796       0.49989901       0.49521106 </v>
   <v>       0.24691511       0.74457743       0.49796978 </v>
   <v>       0.48837823       0.00613882       0.49744156 </v>
   <v>       0.49570549       0.24635699       0.50340663 </v>
   <v>       0.50720145       0.49401611       0.50560161 </v>
   <v>       0.50423106       0.74592752       0.49969569 </v>
   <v>       0.74247648       0.99178387       0.49842172 </v>
   <v>       0.74762478       0.25361814       0.49949310 </v>
   <v>       0.74441931       0.48797167       0.49977673 </v>
   <v>       0.75444162       0.74786290       0.50346553 </v>
  </varray>
  <varray name="velocities" >
   <v>       0.00000000       0.00000000       0.00000000 </v>
   <v>       0.00000000       0.00000000       0.00000000 </v>
   <v>       0.00000000       0.00000000       0.00000000 </v>
   <v>       0.00000000       0.00000000       0.00000000 </v>
   <v>       0.00000000       0.00000000       0.00000000 </v>
   <v>       0.00000000       0.00000000       0.00000000 </v>
   <v>       0.00000000       0.00000000       0.00000000 </v>
   <v>       0.00000000       0.00000000       0.00000000 </v>
   <v>       0.00000000       0.00000000       0.00000000 </v>
   <v>       0.00000000       0.00000000       0.00000000 </v>
   <v>       0.00000000       0.00000000       0.00000000 </v>
   <v>       0.00000000       0.00000000       0.00000000 </v>
   <v>       0.00000000       0.00000000       0.00000000 </v>
   <v>       0.00000000       0.00000000       0.00000000 </v>
   <v>       0.00000000       0.00000000       0.00000000 </v>
   <v>       0.00000000       0.00000000       0.00000000 </v>
   <v>       0.00000000       0.00000000       0.00000000 </v>
   <v>       0.00000000       0.00000000       0.00000000 </v>
   <v>       0.00000000       0.00000000       0.00000000 </v>
   <v>       0.00000000       0.00000000       0.00000000 </v>
   <v>       0.00000000       0.00000000       0.00000000 </v>
   <v>       0.00000000       0.00000000       0.00000000 </v>
   <v>       0.00000000       0.00000000       0.00000000 </v>
   <v>       0.00000000       0.00000000       0.00000000 </v>
   <v>       0.00000000       0.00000000       0.00000000 </v>
   <v>       0.00000000       0.00000000       0.00000000 </v>
   <v>       0.00000000       0.00000000       0.00000000 </v>
   <v>       0.00000000       0.00000000       0.00000000 </v>
   <v>       0.00000000       0.00000000       0.00000000 </v>
   <v>       0.00000000       0.00000000       0.00000000 </v>
   <v>       0.00000000       0.00000000       0.00000000 </v>
   <v>       0.00000000       0.00000000       0.00000000 </v>
   <v>       0.00000000       0.00000000       0.00000000 </v>
   <v>       0.00000000       0.00000000       0.00000000 </v>
   <v>       0.00000000       0.00000000       0.00000000 </v>
   <v>       0.00000000       0.00000000       0.00000000 </v>
   <v>       0.00000000       0.00000000       0.00000000 </v>
   <v>       0.00000000       0.00000000       0.00000000 </v>
   <v>       0.00000000       0.00000000       0.00000000 </v>
   <v>       0.00000000       0.00000000       0.00000000 </v>
   <v>       0.00000000       0.00000000       0.00000000 </v>
   <v>       0.00000000       0.00000000       0.00000000 </v>
   <v>       0.00000000       0.00000000       0.00000000 </v>
   <v>       0.00000000       0.00000000       0.00000000 </v>
   <v>       0.00000000       0.00000000       0.00000000 </v>
   <v>       0.00000000       0.00000000       0.00000000 </v>
   <v>       0.00000000       0.00000000       0.00000000 </v>
   <v>       0.00000000       0.00000000       0.00000000 </v>
   <v>       0.00000000       0.00000000       0.00000000 </v>
   <v>       0.00000000       0.00000000       0.00000000 </v>
   <v>       0.00000000       0.00000000       0.00000000 </v>
   <v>       0.00000000       0.00000000       0.00000000 </v>
   <v>       0.00000000       0.00000000       0.00000000 </v>
   <v>       0.00000000       0.00000000       0.00000000 </v>
   <v>       0.00000000       0.00000000       0.00000000 </v>
   <v>       0.00000000       0.00000000       0.00000000 </v>
   <v>       0.00000000       0.00000000       0.00000000 </v>
   <v>       0.00000000       0.00000000       0.00000000 </v>
   <v>       0.00000000       0.00000000       0.00000000 </v>
   <v>       0.00000000       0.00000000       0.00000000 </v>
   <v>       0.00000000       0.00000000       0.00000000 </v>
   <v>       0.00000000       0.00000000       0.00000000 </v>
   <v>       0.00000000       0.00000000       0.00000000 </v>
   <v>       0.00000000       0.00000000       0.00000000 </v>
   <v>       0.00000000       0.00000000       0.00000000 </v>
   <v>       0.00000000       0.00000000       0.00000000 </v>
   <v>       0.00000000       0.00000000       0.00000000 </v>
   <v>       0.00000000       0.00000000       0.00000000 </v>
   <v>       0.00000000       0.00000000       0.00000000 </v>
   <v>       0.00000000       0.00000000       0.00000000 </v>
   <v>       0.00000000       0.00000000       0.00000000 </v>
   <v>       0.00000000       0.00000000       0.00000000 </v>
   <v>       0.00000000       0.00000000       0.00000000 </v>
   <v>       0.00000000       0.00000000       0.00000000 </v>
   <v>       0.00000000       0.00000000       0.00000000 </v>
   <v>       0.00000000       0.00000000       0.00000000 </v>
   <v>       0.00000000       0.00000000       0.00000000 </v>
   <v>       0.00000000       0.00000000       0.00000000 </v>
   <v>       0.00000000       0.00000000       0.00000000 </v>
   <v>       0.00000000       0.00000000       0.00000000 </v>
  </varray>
 </structure>
 <calculation>
  <scstep>
   <time name="dav">   45.83   45.84</time>
   <time name="total">   46.64   46.66</time>
   <energy>
    <i name="alphaZ">    871.83850952 </i>
    <i name="ewald"> 287365.77285528 </i>
    <i name="hartreedc">-341695.07202942 </i>
    <i name="XCdc">   3044.03811768 </i>
    <i name="pawpsdc">  50525.51240023 </i>
    <i name="pawaedc"> -50422.77561733 </i>
    <i name="eentropy">     -0.06764219 </i>
    <i name="bandstr">   -226.23465066 </i>
    <i name="atom">  64207.43592568 </i>
    <i name="e_fr_energy">  13670.44786879 </i>
    <i name="e_wo_entrp">  13670.51551098 </i>
    <i name="e_0_energy">  13670.48168989 </i>
   </energy>
  </scstep>
  <scstep>
   <time name="dav">   49.11   49.14</time>
   <time name="total">   49.12   49.14</time>
   <energy>
    <i name="e_fr_energy">   2487.81809857 </i>
    <i name="e_wo_entrp">   2487.86636080 </i>
    <i name="e_0_energy">   2487.84222969 </i>
   </energy>
  </scstep>
  <scstep>
   <time name="dav">   67.04   67.05</time>
   <time name="total">   67.04   67.05</time>
   <energy>
    <i name="e_fr_energy">   -381.42891076 </i>
    <i name="e_wo_entrp">   -381.42891076 </i>
    <i name="e_0_energy">   -381.42891076 </i>
   </energy>
  </scstep>
  <scstep>
   <time name="dav">   61.08   61.09</time>
   <time name="total">   61.08   61.09</time>
   <energy>
    <i name="e_fr_energy">   -738.62351155 </i>
    <i name="e_wo_entrp">   -738.62351155 </i>
    <i name="e_0_energy">   -738.62351155 </i>
   </energy>
  </scstep>
  <scstep>
   <time name="dav">   61.23   61.24</time>
   <time name="total">   64.85   64.86</time>
   <energy>
    <i name="e_fr_energy">   -753.01233977 </i>
    <i name="e_wo_entrp">   -753.01233977 </i>
    <i name="e_0_energy">   -753.01233977 </i>
   </energy>
  </scstep>
  <scstep>
   <time name="dav">   58.22   58.22</time>
   <time name="total">   62.66   62.67</time>
   <energy>
    <i name="e_fr_energy">   -596.67322046 </i>
    <i name="e_wo_entrp">   -596.67322046 </i>
    <i name="e_0_energy">   -596.67322046 </i>
   </energy>
  </scstep>
  <scstep>
   <time name="dav">   59.89   59.89</time>
   <time name="total">   64.36   64.37</time>
   <energy>
    <i name="e_fr_energy">   -596.72923308 </i>
    <i name="e_wo_entrp">   -596.72923308 </i>
    <i name="e_0_energy">   -596.72923308 </i>
   </energy>
  </scstep>
  <scstep>
   <time name="dav">   57.05   57.06</time>
   <time name="total">   61.38   61.40</time>
   <energy>
    <i name="e_fr_energy">   -595.12934161 </i>
    <i name="e_wo_entrp">   -595.12934161 </i>
    <i name="e_0_energy">   -595.12934161 </i>
   </energy>
  </scstep>
  <scstep>
   <time name="dav">   56.60   56.60</time>
   <time name="total">   60.95   60.97</time>
   <energy>
    <i name="e_fr_energy">   -594.61314429 </i>
    <i name="e_wo_entrp">   -594.61314429 </i>
    <i name="e_0_energy">   -594.61314429 </i>
   </energy>
  </scstep>
  <scstep>
   <time name="dav">   59.49   59.50</time>
   <time name="total">   63.92   63.93</time>
   <energy>
    <i name="e_fr_energy">   -594.57536028 </i>
    <i name="e_wo_entrp">   -594.57536028 </i>
    <i name="e_0_energy">   -594.57536028 </i>
   </energy>
  </scstep>
  <scstep>
   <time name="dav">   57.16   57.16</time>
   <time name="total">   61.56   61.57</time>
   <energy>
    <i name="e_fr_energy">   -594.45128692 </i>
    <i name="e_wo_entrp">   -594.45128692 </i>
    <i name="e_0_energy">   -594.45128692 </i>
   </energy>
  </scstep>
  <scstep>
   <time name="dav">   60.37   60.37</time>
   <time name="total">   64.73   64.75</time>
   <energy>
    <i name="e_fr_energy">   -594.42130088 </i>
    <i name="e_wo_entrp">   -594.42130088 </i>
    <i name="e_0_energy">   -594.42130088 </i>
   </energy>
  </scstep>
  <scstep>
   <time name="dav">   58.49   58.51</time>
   <time name="total">   62.86   62.88</time>
   <energy>
    <i name="e_fr_energy">   -594.41178834 </i>
    <i name="e_wo_entrp">   -594.41178834 </i>
    <i name="e_0_energy">   -594.41178834 </i>
   </energy>
  </scstep>
  <scstep>
   <time name="dav">   57.60   57.61</time>
   <time name="total">   61.96   61.98</time>
   <energy>
    <i name="e_fr_energy">   -594.40751293 </i>
    <i name="e_wo_entrp">   -594.40751293 </i>
    <i name="e_0_energy">   -594.40751293 </i>
   </energy>
  </scstep>
  <scstep>
   <time name="dav">   58.98   58.99</time>
   <time name="total">   63.36   63.40</time>
   <energy>
    <i name="e_fr_energy">   -594.41209117 </i>
    <i name="e_wo_entrp">   -594.41209117 </i>
    <i name="e_0_energy">   -594.41209117 </i>
   </energy>
  </scstep>
  <scstep>
   <time name="dav">   55.57   55.57</time>
   <time name="total">   59.89   59.91</time>
   <energy>
    <i name="e_fr_energy">   -594.41637405 </i>
    <i name="e_wo_entrp">   -594.41637405 </i>
    <i name="e_0_energy">   -594.41637405 </i>
   </energy>
  </scstep>
  <scstep>
   <time name="dav">   58.02   58.03</time>
   <time name="total">   62.35   62.36</time>
   <energy>
    <i name="e_fr_energy">   -594.42147967 </i>
    <i name="e_wo_entrp">   -594.42147967 </i>
    <i name="e_0_energy">   -594.42147967 </i>
   </energy>
  </scstep>
  <scstep>
   <time name="dav">   55.85   55.85</time>
   <time name="total">   60.29   60.31</time>
   <energy>
    <i name="e_fr_energy">   -594.42553271 </i>
    <i name="e_wo_entrp">   -594.42553271 </i>
    <i name="e_0_energy">   -594.42553271 </i>
   </energy>
  </scstep>
  <scstep>
   <time name="dav">   58.22   58.22</time>
   <time name="total">   62.58   62.59</time>
   <energy>
    <i name="e_fr_energy">   -594.42717120 </i>
    <i name="e_wo_entrp">   -594.42717120 </i>
    <i name="e_0_energy">   -594.42717120 </i>
   </energy>
  </scstep>
  <scstep>
   <time name="dav">   53.88   53.88</time>
   <time name="total">   58.28   58.29</time>
   <energy>
    <i name="e_fr_energy">   -594.43023416 </i>
    <i name="e_wo_entrp">   -594.43023416 </i>
    <i name="e_0_energy">   -594.43023416 </i>
   </energy>
  </scstep>
  <scstep>
   <time name="dav">   47.77   47.77</time>
   <time name="total">   52.09   52.10</time>
   <energy>
    <i name="e_fr_energy">   -594.43270902 </i>
    <i name="e_wo_entrp">   -594.43270902 </i>
    <i name="e_0_energy">   -594.43270902 </i>
   </energy>
  </scstep>
  <scstep>
   <time name="dav">   47.57   47.57</time>
   <time name="total">   51.97   51.98</time>
   <energy>
    <i name="e_fr_energy">   -594.43407965 </i>
    <i name="e_wo_entrp">   -594.43407965 </i>
    <i name="e_0_energy">   -594.43407965 </i>
   </energy>
  </scstep>
  <scstep>
   <time name="dav">   50.50   50.50</time>
   <time name="total">   54.86   54.87</time>
   <energy>
    <i name="e_fr_energy">   -594.43440340 </i>
    <i name="e_wo_entrp">   -594.43440340 </i>
    <i name="e_0_energy">   -594.43440340 </i>
   </energy>
  </scstep>
  <scstep>
   <time name="dav">   45.01   45.01</time>
   <time name="total">   49.42   49.43</time>
   <energy>
    <i name="e_fr_energy">   -594.43473210 </i>
    <i name="e_wo_entrp">   -594.43473210 </i>
    <i name="e_0_energy">   -594.43473210 </i>
   </energy>
  </scstep>
  <scstep>
   <time name="dav">   45.87   45.87</time>
   <time name="total">   50.26   50.27</time>
   <energy>
    <i name="e_fr_energy">   -594.43499554 </i>
    <i name="e_wo_entrp">   -594.43499554 </i>
    <i name="e_0_energy">   -594.43499554 </i>
   </energy>
  </scstep>
  <scstep>
   <time name="dav">   37.11   37.11</time>
   <time name="total">   41.50   41.51</time>
   <energy>
    <i name="e_fr_energy">   -594.43508080 </i>
    <i name="e_wo_entrp">   -594.43508080 </i>
    <i name="e_0_energy">   -594.43508080 </i>
   </energy>
  </scstep>
  <scstep>
   <time name="dav">   33.28   33.28</time>
   <time name="total">   37.68   37.69</time>
   <energy>
    <i name="e_fr_energy">   -594.43511646 </i>
    <i name="e_wo_entrp">   -594.43511646 </i>
    <i name="e_0_energy">   -594.43511646 </i>
   </energy>
  </scstep>
  <scstep>
   <time name="dav">   33.80   33.80</time>
   <time name="total">   38.19   38.20</time>
   <energy>
    <i name="e_fr_energy">   -594.43513977 </i>
    <i name="e_wo_entrp">   -594.43513977 </i>
    <i name="e_0_energy">   -594.43513977 </i>
   </energy>
  </scstep>
  <scstep>
   <time name="dav">   32.94   32.94</time>
   <time name="total">   37.31   37.31</time>
   <energy>
    <i name="e_fr_energy">   -594.43515281 </i>
    <i name="e_wo_entrp">   -594.43515281 </i>
    <i name="e_0_energy">   -594.43515281 </i>
   </energy>
  </scstep>
  <scstep>
   <time name="dav">   33.14   33.14</time>
   <time name="total">   37.52   37.54</time>
   <energy>
    <i name="e_fr_energy">   -594.43515958 </i>
    <i name="e_wo_entrp">   -594.43515958 </i>
    <i name="e_0_energy">   -594.43515958 </i>
   </energy>
  </scstep>
  <scstep>
   <time name="dav">   31.76   31.76</time>
   <time name="total">   36.10   36.10</time>
   <energy>
    <i name="e_fr_energy">   -594.43516127 </i>
    <i name="e_wo_entrp">   -594.43516127 </i>
    <i name="e_0_energy">   -594.43516127 </i>
   </energy>
  </scstep>
  <scstep>
   <time name="dav">   31.84   31.84</time>
   <time name="total">   32.64   32.65</time>
   <energy>
    <i name="alphaZ">    871.83850952 </i>
    <i name="ewald"> 287365.77285528 </i>
    <i name="hartreedc">-342945.22960372 </i>
    <i name="XCdc">   3055.91421919 </i>
    <i name="pawpsdc">  66883.49794415 </i>
    <i name="pawaedc"> -66877.13273558 </i>
    <i name="eentropy">     -0.00000000 </i>
    <i name="bandstr"> -13156.53227650 </i>
    <i name="atom">  64207.43592568 </i>
    <i name="e_fr_energy">   -594.43516198 </i>
    <i name="e_wo_entrp">   -594.43516198 </i>
    <i name="e_0_energy">   -594.43516198 </i>
   </energy>
  </scstep>
  <structure>
   <crystal>
    <varray name="basis" >
     <v>      13.12862340       0.00000000       0.00000000 </v>
     <v>      -6.56431170      11.36972138       0.00000000 </v>
     <v>       0.00000000       0.00000000      26.82809424 </v>
    </varray>
    <i name="volume">   4004.59716953 </i>
    <varray name="rec_basis" >
     <v>       0.07616945       0.04397645       0.00000000 </v>
     <v>       0.00000000       0.08795290       0.00000000 </v>
     <v>       0.00000000       0.00000000       0.03727436 </v>
    </varray>
   </crystal>
   <varray name="positions" >
    <v>       0.07933235       0.16189576       0.45030952 </v>
    <v>       0.08309668       0.41113280       0.44621456 </v>
    <v>       0.09183507       0.65475411       0.44993798 </v>
    <v>       0.07417833       0.90148032       0.45480174 </v>
    <v>       0.32919063       0.16236654       0.45558647 </v>
    <v>       0.33713765       0.42261127       0.44983192 </v>
    <v>       0.34167843       0.67336243       0.45309880 </v>
    <v>       0.32753672       0.91310262       0.45311829 </v>
    <v>       0.58281887       0.17203837       0.45608705 </v>
    <v>       0.57614147       0.41669671       0.45661220 </v>
    <v>       0.59288309       0.68474165       0.45242178 </v>
    <v>       0.58050732       0.92651339       0.45005648 </v>
    <v>       0.83649094       0.17932481       0.45395487 </v>
    <v>       0.83266132       0.42203254       0.44967776 </v>
    <v>       0.83770766       0.67525843       0.45456168 </v>
    <v>       0.82574855       0.91956557       0.45219453 </v>
    <v>       0.15619912       0.08609161       0.54849122 </v>
    <v>       0.16626556       0.33310717       0.54280068 </v>
    <v>       0.16755931       0.58413255       0.54682640 </v>
    <v>       0.16704709       0.83257376       0.54591503 </v>
    <v>       0.40382515       0.07746237       0.54710530 </v>
    <v>       0.41649031       0.32550251       0.55280297 </v>
    <v>       0.41554883       0.58514565       0.54336365 </v>
    <v>       0.42694111       0.84250081       0.54927678 </v>
    <v>       0.67223271       0.08493188       0.54702802 </v>
    <v>       0.65780242       0.32319667       0.54921464 </v>
    <v>       0.66285220       0.57720323       0.54748472 </v>
    <v>       0.67519046       0.82710057       0.55136683 </v>
    <v>       0.91819584       0.07502137       0.54601215 </v>
    <v>       0.91211741       0.32822041       0.54704218 </v>
    <v>       0.90535441       0.57965536       0.54063055 </v>
    <v>       0.91948701       0.81717533       0.55199651 </v>
    <v>       0.07144313       0.17052741       0.58745777 </v>
    <v>       0.08741537       0.40548744       0.58355189 </v>
    <v>       0.08800848       0.66143147       0.58792300 </v>
    <v>       0.09330092       0.91081342       0.59623423 </v>
    <v>       0.31871978       0.16436438       0.59770216 </v>
    <v>       0.34398688       0.41904178       0.59215157 </v>
    <v>       0.32740257       0.65868110       0.59188404 </v>
    <v>       0.32102263       0.91085981       0.59609160 </v>
    <v>       0.59443462       0.15959203       0.58838038 </v>
    <v>       0.58785170       0.40667966       0.58729817 </v>
    <v>       0.57980866       0.67155830       0.59185363 </v>
    <v>       0.59284795       0.91872944       0.58996754 </v>
    <v>       0.82793866       0.18107874       0.58954037 </v>
    <v>       0.83794444       0.41880241       0.58541946 </v>
    <v>       0.82275884       0.64752852       0.59363653 </v>
    <v>       0.84389240       0.93105028       0.59367379 </v>
    <v>       0.17839361       0.08467467       0.40582085 </v>
    <v>       0.18490803       0.33561545       0.40862110 </v>
    <v>       0.18663111       0.60118703       0.40950978 </v>
    <v>       0.16807354       0.83566502       0.40870037 </v>
    <v>       0.41848363       0.07042918       0.41093157 </v>
    <v>       0.41983966       0.33769259       0.41399158 </v>
    <v>       0.41312068       0.59861587       0.40593635 </v>
    <v>       0.41082128       0.83912081       0.41384099 </v>
    <v>       0.68089462       0.09920431       0.41661887 </v>
    <v>       0.65965388       0.34473346       0.40965634 </v>
    <v>       0.69378050       0.61010270       0.41566912 </v>
    <v>       0.66648796       0.83727463       0.41233443 </v>
    <v>       0.91357956       0.09331527       0.40704809 </v>
    <v>       0.93195778       0.34235728       0.40528703 </v>
    <v>       0.91433431       0.59831822       0.40385222 </v>
    <v>       0.91876782       0.82302517       0.41309147 </v>
    <v>       0.99287584       0.99376249       0.49899494 </v>
    <v>       0.00286337       0.25260167       0.49745877 </v>
    <v>       0.99806485       0.50079264       0.49231845 </v>
    <v>       0.99503099       0.74693684       0.50223483 </v>
    <v>       0.23532195       0.99377551       0.49840918 </v>
    <v>       0.24608949       0.24569288       0.50409933 </v>
    <v>       0.24714796       0.49989901       0.49521106 </v>
    <v>       0.24691511       0.74457743       0.49796978 </v>
    <v>       0.48837823       0.00613882       0.49744156 </v>
    <v>       0.49570549       0.24635699       0.50340663 </v>
    <v>       0.50720145       0.49401611       0.50560161 </v>
    <v>       0.50423106       0.74592752       0.49969569 </v>
    <v>       0.74247648       0.99178387       0.49842172 </v>
    <v>       0.74762478       0.25361814       0.49949310 </v>
    <v>       0.74441931       0.48797167       0.49977673 </v>
    <v>       0.75444162       0.74786290       0.50346553 </v>
   </varray>
  </structure>
  <varray name="forces" >
   <v>       0.47418811      -0.06604834       0.16992254 </v>
   <v>       0.33157482       0.80219310       1.23842820 </v>
   <v>      -1.75016974       1.39747758      -0.37904165 </v>
   <v>       0.40330497       1.40496770      -0.81324451 </v>
   <v>      -0.57481593      -0.14546006      -0.59707875 </v>
   <v>       0.05823277      -0.03561635       1.09071222 </v>
   <v>      -0.52879936      -0.34328542       0.19262097 </v>
   <v>      -0.73071177       0.21789120      -0.25157672 </v>
   <v>      -0.43531934       0.04288941      -0.99453499 </v>
   <v>       1.19165409       0.02516806      -0.49401574 </v>
   <v>       0.55831365      -1.89658870       0.67677568 </v>
   <v>       0.56903396      -0.03207481       1.15399946 </v>
   <v>       0.85103916      -0.60586190      -0.12646794 </v>
   <v>      -0.48599589       0.03424700      -0.22607778 </v>
   <v>       0.81584878      -1.29775331      -0.09189731 </v>
   <v>       1.40050691       0.33847477       0.54644244 </v>
   <v>       1.14792695      -0.63601809       0.03095186 </v>
   <v>       0.41215495       0.31388665       0.24299759 </v>
   <v>       0.02953664      -0.24671869      -0.44104607 </v>
   <v>       0.00362194      -0.66852804       0.90124441 </v>
   <v>       0.17508767      -0.07114630       0.51218611 </v>
   <v>      -1.34527974       0.59501337      -0.29813054 </v>
   <v>       0.44798937      -0.75917598       1.26858597 </v>
   <v>      -0.74562560      -0.86625569      -0.38289768 </v>
   <v>      -0.18958755      -0.19709290      -0.42151999 </v>
   <v>       1.23427309       0.76349387      -0.49510805 </v>
   <v>       0.30960077       0.16804343       0.51758723 </v>
   <v>      -0.78669850       0.64891402      -0.61311071 </v>
   <v>      -0.87950036       0.48295072      -0.55223828 </v>
   <v>       0.28172676       1.39398403      -0.77656494 </v>
   <v>       1.65933359      -1.03773657       1.47987586 </v>
   <v>      -0.77779070       1.18939919       0.03551168 </v>
   <v>       0.43170830      -0.14454494       0.44337845 </v>
   <v>      -1.02293910       0.69940169       0.80843969 </v>
   <v>      -0.32526046       0.02363656      -0.04244081 </v>
   <v>      -0.67736711      -0.02814342      -0.72898840 </v>
   <v>       0.39805721      -0.07829615      -0.76804048 </v>
   <v>      -0.43173198       0.03273663      -0.40532685 </v>
   <v>       0.14508915       0.31452098      -0.59505349 </v>
   <v>       0.57460148       0.24091884      -1.02698554 </v>
   <v>      -0.88046870       0.10579615       0.63470820 </v>
   <v>      -0.64725237       0.40097674       1.29289050 </v>
   <v>       0.26212358      -0.29902619      -0.02224947 </v>
   <v>      -0.42065419      -0.01631911      -0.05026007 </v>
   <v>       0.41402509      -0.81098864       0.34687943 </v>
   <v>       0.00222401      -0.14307339       0.42110635 </v>
   <v>       0.23543395       0.51416659      -0.36266395 </v>
   <v>      -0.09388971      -0.70719385      -0.02612872 </v>
   <v>      -0.52522292       0.13939506       0.66670848 </v>
   <v>      -0.67478032      -0.41795800      -0.39764219 </v>
   <v>      -0.02972100      -0.84010009      -0.94630604 </v>
   <v>      -0.13613582      -0.28965851       0.22844997 </v>
   <v>      -0.38088006       0.77930816      -0.17265029 </v>
   <v>      -0.14798339      -0.28419766      -0.44026123 </v>
   <v>       1.01579692      -0.49053610       0.13297324 </v>
   <v>       0.76117778      -0.12416835      -0.93269989 </v>
   <v>      -0.98149778      -0.77356641      -1.33687856 </v>
   <v>       0.32957159      -0.52927508       0.04482058 </v>
   <v>      -1.92202764      -1.15626193      -1.31507441 </v>
   <v>      -0.27486387       0.24869457      -1.03044363 </v>
   <v>       0.28726353      -0.40973115       0.31756022 </v>
   <v>      -0.78614322      -0.63451207      -0.23664829 </v>
   <v>       0.46389101      -0.48710288       0.75485962 </v>
   <v>      -0.61406011       0.81695124      -0.83836944 </v>
   <v>      -0.04663931       0.58927592       0.17947493 </v>
   <v>      -0.22086348      -0.35910243      -0.47168155 </v>
   <v>       0.42991369      -0.55675149       0.93699468 </v>
   <v>       0.47444395       0.37229861       0.24944122 </v>
   <v>       1.15495425       0.57676133       1.13437438 </v>
   <v>       0.49708573      -0.11841712      -1.26698893 </v>
   <v>       1.03434891       0.04319285       0.45885317 </v>
   <v>       0.44150597       0.70514344       1.08421601 </v>
   <v>       1.91476155      -1.09323245       1.60512380 </v>
   <v>      -0.19362079      -0.50235598      -0.06120567 </v>
   <v>      -1.97526850       0.56643505      -1.26834092 </v>
   <v>      -0.81157565       1.27546338       0.31399990 </v>
   <v>       0.10432076       0.89464609       0.49441527 </v>
   <v>       0.82193938      -0.46649308      -0.05491012 </v>
   <v>      -0.25406879       0.94052828      -0.05005663 </v>
   <v>      -0.84397604       0.56712534       0.19533694 </v>
  </varray>
  <varray name="stress" >
   <v>       5.68061407       1.01880368       0.34166575 </v>
   <v>       1.01880369       5.91341706       5.17018649 </v>
   <v>       0.34166577       5.17018649       2.84058460 </v>
  </varray>
  <energy>
   <i name="e_fr_energy">   -594.43516198 </i>
   <i name="e_wo_entrp">   -594.43516198 </i>
   <i name="e_0_energy">     -0.00000000 </i>
  </energy>
  <time name="totalsc"> 1804.22 1804.67</time>
  <eigenvalues>
   <array>
    <dimension dim="1">band</dimension>
    <dimension dim="2">kpoint</dimension>
    <dimension dim="3">spin</dimension>
    <field>eigene</field>
    <field>occ</field>
    <set>
     <set comment="spin 1">
      <set comment="kpoint 1">
       <r>  -52.1168    1.0000 </r>
       <r>  -51.9669    1.0000 </r>
       <r>  -51.8008    1.0000 </r>
       <r>  -51.7094    1.0000 </r>
       <r>  -51.6774    1.0000 </r>
       <r>  -51.6743    1.0000 </r>
       <r>  -51.6433    1.0000 </r>
       <r>  -51.5970    1.0000 </r>
       <r>  -51.5588    1.0000 </r>
       <r>  -51.5325    1.0000 </r>
       <r>  -51.5279    1.0000 </r>
       <r>  -51.5103    1.0000 </r>
       <r>  -51.4761    1.0000 </r>
       <r>  -51.4743    1.0000 </r>
       <r>  -51.4527    1.0000 </r>
       <r>  -51.3828    1.0000 </r>
       <r>  -51.3806    1.0000 </r>
       <r>  -51.3628    1.0000 </r>
       <r>  -51.3006    1.0000 </r>
       <r>  -51.2748    1.0000 </r>
       <r>  -51.2583    1.0000 </r>
       <r>  -51.2488    1.0000 </r>
       <r>  -51.2120    1.0000 </r>
       <r>  -51.1571    1.0000 </r>
       <r>  -51.1344    1.0000 </r>
       <r>  -51.1188    1.0000 </r>
       <r>  -51.1093    1.0000 </r>
       <r>  -51.0805    1.0000 </r>
       <r>  -51.0478    1.0000 </r>
       <r>  -51.0239    1.0000 </r>
       <r>  -51.0014    1.0000 </r>
       <r>  -50.9034    1.0000 </r>
       <r>  -31.0184    1.0000 </r>
       <r>  -30.9139    1.0000 </r>
       <r>  -30.9012    1.0000 </r>
       <r>  -30.7980    1.0000 </r>
       <r>  -30.7890    1.0000 </r>
       <r>  -30.7702    1.0000 </r>
       <r>  -30.7326    1.0000 </r>
       <r>  -30.7210    1.0000 </r>
       <r>  -30.6569    1.0000 </r>
       <r>  -30.6437    1.0000 </r>
       <r>  -30.6052    1.0000 </r>
       <r>  -30.5906    1.0000 </r>
       <r>  -30.5517    1.0000 </r>
       <r>  -30.5268    1.0000 </r>
       <r>  -30.5235    1.0000 </r>
       <r>  -30.5153    1.0000 </r>
       <r>  -30.5092    1.0000 </r>
       <r>  -30.4815    1.0000 </r>
       <r>  -30.4732    1.0000 </r>
       <r>  -30.4573    1.0000 </r>
       <r>  -30.4561    1.0000 </r>
       <r>  -30.4414    1.0000 </r>
       <r>  -30.4328    1.0000 </r>
       <r>  -30.4203    1.0000 </r>
       <r>  -30.4146    1.0000 </r>
       <r>  -30.4056    1.0000 </r>
       <r>  -30.3801    1.0000 </r>
       <r>  -30.3714    1.0000 </r>
       <r>  -30.3592    1.0000 </r>
       <r>  -30.3350    1.0000 </r>
       <r>  -30.3273    1.0000 </r>
       <r>  -30.3152    1.0000 </r>
       <r>  -30.3057    1.0000 </r>
       <r>  -30.2842    1.0000 </r>
       <r>  -30.2708    1.0000 </r>
       <r>  -30.2622    1.0000 </r>
       <r>  -30.2517    1.0000 </r>
       <r>  -30.2442    1.0000 </r>
       <r>  -30.2375    1.0000 </r>
       <r>  -30.2150    1.0000 </r>
       <r>  -30.2073    1.0000 </r>
       <r>  -30.1952    1.0000 </r>
       <r>  -30.1932    1.0000 </r>
       <r>  -30.1854    1.0000 </r>
       <r>  -30.1778    1.0000 </r>
       <r>  -30.1656    1.0000 </r>
       <r>  -30.1516    1.0000 </r>
       <r>  -30.1391    1.0000 </r>
       <r>  -30.1324    1.0000 </r>
       <r>  -30.1270    1.0000 </r>
       <r>  -30.1167    1.0000 </r>
       <r>  -30.1010    1.0000 </r>
       <r>  -30.0923    1.0000 </r>
       <r>  -30.0834    1.0000 </r>
       <r>  -30.0770    1.0000 </r>
       <r>  -30.0649    1.0000 </r>
       <r>  -30.0616    1.0000 </r>
       <r>  -30.0476    1.0000 </r>
       <r>  -30.0376    1.0000 </r>
       <r>  -30.0327    1.0000 </r>
       <r>  -30.0171    1.0000 </r>
       <r>  -30.0121    1.0000 </r>
       <r>  -29.9968    1.0000 </r>
       <r>  -29.9839    1.0000 </r>
       <r>  -29.9795    1.0000 </r>
       <r>  -29.9683    1.0000 </r>
       <r>  -29.9613    1.0000 </r>
       <r>  -29.9579    1.0000 </r>
       <r>  -29.9507    1.0000 </r>
       <r>  -29.9386    1.0000 </r>
       <r>  -29.9277    1.0000 </r>
       <r>  -29.9169    1.0000 </r>
       <r>  -29.9075    1.0000 </r>
       <r>  -29.8966    1.0000 </r>
       <r>  -29.8889    1.0000 </r>
       <r>  -29.8690    1.0000 </r>
       <r>  -29.8527    1.0000 </r>
       <r>  -29.8373    1.0000 </r>
       <r>  -29.8263    1.0000 </r>
       <r>  -29.8211    1.0000 </r>
       <r>  -29.8052    1.0000 </r>
       <r>  -29.7941    1.0000 </r>
       <r>  -29.7718    1.0000 </r>
       <r>  -29.7639    1.0000 </r>
       <r>  -29.7516    1.0000 </r>
       <r>  -29.7449    1.0000 </r>
       <r>  -29.7321    1.0000 </r>
       <r>  -29.7103    1.0000 </r>
       <r>  -29.7083    1.0000 </r>
       <r>  -29.7010    1.0000 </r>
       <r>  -29.6796    1.0000 </r>
       <r>  -29.6763    1.0000 </r>
       <r>  -29.6703    1.0000 </r>
       <r>  -29.6320    1.0000 </r>
       <r>  -29.5960    1.0000 </r>
       <r>  -29.5344    1.0000 </r>
       <r>  -27.4232    1.0000 </r>
       <r>  -27.0714    1.0000 </r>
       <r>  -26.9707    1.0000 </r>
       <r>  -26.9301    1.0000 </r>
       <r>  -26.9035    1.0000 </r>
       <r>  -26.8997    1.0000 </r>
       <r>  -26.8324    1.0000 </r>
       <r>  -26.8202    1.0000 </r>
       <r>  -26.7957    1.0000 </r>
       <r>  -26.6948    1.0000 </r>
       <r>  -26.6813    1.0000 </r>
       <r>  -26.6627    1.0000 </r>
       <r>  -26.6579    1.0000 </r>
       <r>  -26.6480    1.0000 </r>
       <r>  -26.6280    1.0000 </r>
       <r>  -26.5489    1.0000 </r>
       <r>  -26.5170    1.0000 </r>
       <r>  -26.4930    1.0000 </r>
       <r>  -26.4682    1.0000 </r>
       <r>  -26.4433    1.0000 </r>
       <r>  -26.4245    1.0000 </r>
       <r>  -26.3216    1.0000 </r>
       <r>  -26.2871    1.0000 </r>
       <r>  -26.2482    1.0000 </r>
       <r>  -26.2401    1.0000 </r>
       <r>  -26.2086    1.0000 </r>
       <r>  -26.1505    1.0000 </r>
       <r>  -26.1300    1.0000 </r>
       <r>  -26.0614    1.0000 </r>
       <r>  -25.9220    1.0000 </r>
       <r>  -25.9170    1.0000 </r>
       <r>  -25.7291    1.0000 </r>
       <r>  -12.0310    1.0000 </r>
       <r>  -11.6871    1.0000 </r>
       <r>  -11.6338    1.0000 </r>
       <r>  -11.5844    1.0000 </r>
       <r>  -11.5556    1.0000 </r>
       <r>  -11.5300    1.0000 </r>
       <r>  -11.5025    1.0000 </r>
       <r>  -11.1102    1.0000 </r>
       <r>  -11.0501    1.0000 </r>
       <r>  -11.0083    1.0000 </r>
       <r>  -10.9879    1.0000 </r>
       <r>  -10.9558    1.0000 </r>
       <r>  -10.9196    1.0000 </r>
       <r>  -10.8907    1.0000 </r>
       <r>  -10.8716    1.0000 </r>
       <r>  -10.7925    1.0000 </r>
       <r>   -9.8212    1.0000 </r>
       <r>   -9.7624    1.0000 </r>
       <r>   -9.4910    1.0000 </r>
       <r>   -9.4391    1.0000 </r>
       <r>   -9.3640    1.0000 </r>
       <r>   -9.3390    1.0000 </r>
       <r>   -9.3240    1.0000 </r>
       <r>   -9.2843    1.0000 </r>
       <r>   -9.2712    1.0000 </r>
       <r>   -9.2144    1.0000 </r>
       <r>   -9.2104    1.0000 </r>
       <r>   -9.1807    1.0000 </r>
       <r>   -9.1600    1.0000 </r>
       <r>   -9.1453    1.0000 </r>
       <r>   -9.1073    1.0000 </r>
       <r>   -9.0988    1.0000 </r>
       <r>   -9.0612    1.0000 </r>
       <r>   -9.0493    1.0000 </r>
       <r>   -9.0298    1.0000 </r>
       <r>   -9.0224    1.0000 </r>
       <r>   -8.9811    1.0000 </r>
       <r>   -8.9598    1.0000 </r>
       <r>   -8.9422    1.0000 </r>
       <r>   -8.9273    1.0000 </r>
       <r>   -8.9064    1.0000 </r>
       <r>   -8.9024    1.0000 </r>
       <r>   -8.8491    1.0000 </r>
       <r>   -8.8263    1.0000 </r>
       <r>   -8.8156    1.0000 </r>
       <r>   -8.8044    1.0000 </r>
       <r>   -8.7772    1.0000 </r>
       <r>   -8.7673    1.0000 </r>
       <r>   -8.7453    1.0000 </r>
       <r>   -8.7275    1.0000 </r>
       <r>   -8.7152    1.0000 </r>
       <r>   -8.7011    1.0000 </r>
       <r>   -8.6741    1.0000 </r>
       <r>   -8.6637    1.0000 </r>
       <r>   -8.6403    1.0000 </r>
       <r>   -8.6147    1.0000 </r>
       <r>   -8.6078    1.0000 </r>
       <r>   -8.5892    1.0000 </r>
       <r>   -8.5552    1.0000 </r>
       <r>   -8.5464    1.0000 </r>
       <r>   -8.5386    1.0000 </r>
       <r>   -8.5215    1.0000 </r>
       <r>   -8.5194    1.0000 </r>
       <r>   -8.5033    1.0000 </r>
       <r>   -8.4768    1.0000 </r>
       <r>   -8.4684    1.0000 </r>
       <r>   -8.4567    1.0000 </r>
       <r>   -8.4504    1.0000 </r>
       <r>   -8.4329    1.0000 </r>
       <r>   -8.4108    1.0000 </r>
       <r>   -8.4055    1.0000 </r>
       <r>   -8.3926    1.0000 </r>
       <r>   -8.3863    1.0000 </r>
       <r>   -8.3771    1.0000 </r>
       <r>   -8.3361    1.0000 </r>
       <r>   -8.3281    1.0000 </r>
       <r>   -8.3030    1.0000 </r>
       <r>   -8.2937    1.0000 </r>
       <r>   -8.2843    1.0000 </r>
       <r>   -8.2585    1.0000 </r>
       <r>   -8.2422    1.0000 </r>
       <r>   -8.2239    1.0000 </r>
       <r>   -8.2138    1.0000 </r>
       <r>   -8.2054    1.0000 </r>
       <r>   -8.1874    1.0000 </r>
       <r>   -8.1661    1.0000 </r>
       <r>   -8.1472    1.0000 </r>
       <r>   -8.1289    1.0000 </r>
       <r>   -8.1173    1.0000 </r>
       <r>   -8.1062    1.0000 </r>
       <r>   -8.0963    1.0000 </r>
       <r>   -8.0629    1.0000 </r>
       <r>   -8.0390    1.0000 </r>
       <r>   -8.0178    1.0000 </r>
       <r>   -7.9987    1.0000 </r>
       <r>   -7.9640    1.0000 </r>
       <r>   -7.9446    1.0000 </r>
       <r>   -7.9050    1.0000 </r>
       <r>   -7.9036    1.0000 </r>
       <r>   -7.8650    1.0000 </r>
       <r>   -7.8268    1.0000 </r>
       <r>   -7.8146    1.0000 </r>
       <r>   -7.7949    1.0000 </r>
       <r>   -7.7700    1.0000 </r>
       <r>   -7.7447    1.0000 </r>
       <r>   -7.7081    1.0000 </r>
       <r>   -7.6634    1.0000 </r>
       <r>   -7.6241    1.0000 </r>
       <r>   -7.6186    1.0000 </r>
       <r>   -7.6094    1.0000 </r>
       <r>   -7.4790    1.0000 </r>
       <r>   -7.4335    1.0000 </r>
       <r>   -5.1279    1.0000 </r>
       <r>   -5.1171    1.0000 </r>
       <r>   -5.0439    1.0000 </r>
       <r>   -4.8799    1.0000 </r>
       <r>   -4.8241    1.0000 </r>
       <r>   -4.7992    1.0000 </r>
       <r>   -4.7654    1.0000 </r>
       <r>   -4.7407    1.0000 </r>
       <r>   -4.6600    1.0000 </r>
       <r>   -4.4697    1.0000 </r>
       <r>   -4.3786    1.0000 </r>
       <r>   -4.3561    1.0000 </r>
       <r>   -4.3342    1.0000 </r>
       <r>   -4.2830    1.0000 </r>
       <r>   -4.2537    1.0000 </r>
       <r>   -4.2294    1.0000 </r>
       <r>   -4.2089    1.0000 </r>
       <r>   -4.1836    1.0000 </r>
       <r>   -4.1578    1.0000 </r>
       <r>   -4.1390    1.0000 </r>
       <r>   -4.1189    1.0000 </r>
       <r>   -4.0803    1.0000 </r>
       <r>   -4.0414    1.0000 </r>
       <r>   -4.0270    1.0000 </r>
       <r>   -3.9983    1.0000 </r>
       <r>   -3.9756    1.0000 </r>
       <r>   -3.9650    1.0000 </r>
       <r>   -3.9385    1.0000 </r>
       <r>   -3.8980    1.0000 </r>
       <r>   -3.8584    1.0000 </r>
       <r>   -3.8358    1.0000 </r>
       <r>   -3.8120    1.0000 </r>
       <r>   -3.7801    1.0000 </r>
       <r>   -3.7592    1.0000 </r>
       <r>   -3.7234    1.0000 </r>
       <r>   -3.6532    1.0000 </r>
       <r>   -3.5578    1.0000 </r>
       <r>   -3.3018    1.0000 </r>
       <r>   -3.2615    1.0000 </r>
       <r>   -3.2540    1.0000 </r>
       <r>   -3.1795    1.0000 </r>
       <r>   -3.1395    1.0000 </r>
       <r>   -3.1081    1.0000 </r>
       <r>   -3.0786    1.0000 </r>
       <r>   -3.0047    1.0000 </r>
       <r>   -2.9807    1.0000 </r>
       <r>   -2.8356    1.0000 </r>
       <r>   -2.8037    1.0000 </r>
       <r>   -1.8656    0.0000 </r>
       <r>   -1.7778    0.0000 </r>
       <r>   -1.7216    0.0000 </r>
       <r>   -1.3068    0.0000 </r>
       <r>   -1.1878    0.0000 </r>
       <r>   -1.1749    0.0000 </r>
       <r>   -1.1076    0.0000 </r>
       <r>   -1.0947    0.0000 </r>
       <r>   -1.0148    0.0000 </r>
       <r>   -0.5029    0.0000 </r>
       <r>   -0.4541    0.0000 </r>
       <r>   -0.4365    0.0000 </r>
       <r>   -0.3608    0.0000 </r>
       <r>   -0.3383    0.0000 </r>
       <r>   -0.3159    0.0000 </r>
       <r>   -0.2697    0.0000 </r>
       <r>   -0.1987    0.0000 </r>
       <r>   -0.1882    0.0000 </r>
       <r>   -0.1860    0.0000 </r>
       <r>   -0.1767    0.0000 </r>
       <r>   -0.0876    0.0000 </r>
       <r>   -0.0086    0.0000 </r>
       <r>   -0.0048    0.0000 </r>
       <r>    0.0382    0.0000 </r>
       <r>    0.2626    0.0000 </r>
       <r>    0.3198    0.0000 </r>
       <r>    0.3665    0.0000 </r>
       <r>    0.3934    0.0000 </r>
       <r>    0.4104    0.0000 </r>
       <r>    0.4255    0.0000 </r>
       <r>    0.4513    0.0000 </r>
       <r>    0.4655    0.0000 </r>
       <r>    0.4886    0.0000 </r>
       <r>    0.5104    0.0000 </r>
       <r>    0.5373    0.0000 </r>
       <r>    0.5628    0.0000 </r>
       <r>    0.5980    0.0000 </r>
       <r>    0.6096    0.0000 </r>
       <r>    0.6503    0.0000 </r>
       <r>    0.6744    0.0000 </r>
       <r>    0.7200    0.0000 </r>
       <r>    0.7406    0.0000 </r>
       <r>    0.7816    0.0000 </r>
       <r>    0.7887    0.0000 </r>
       <r>    0.8081    0.0000 </r>
       <r>    0.8662    0.0000 </r>
       <r>    0.8843    0.0000 </r>
       <r>    0.9162    0.0000 </r>
       <r>    0.9355    0.0000 </r>
       <r>    0.9548    0.0000 </r>
       <r>    0.9662    0.0000 </r>
       <r>    0.9954    0.0000 </r>
       <r>    1.0090    0.0000 </r>
       <r>    1.0299    0.0000 </r>
       <r>    1.0424    0.0000 </r>
       <r>    1.0639    0.0000 </r>
       <r>    1.0681    0.0000 </r>
       <r>    1.0952    0.0000 </r>
       <r>    1.1122    0.0000 </r>
       <r>    1.1389    0.0000 </r>
       <r>    1.1883    0.0000 </r>
       <r>    1.2037    0.0000 </r>
       <r>    1.2266    0.0000 </r>
       <r>    1.2419    0.0000 </r>
      </set>
      <set comment="kpoint 2">
       <r>  -52.1168    1.0000 </r>
       <r>  -51.9669    1.0000 </r>
       <r>  -51.8008    1.0000 </r>
       <r>  -51.7094    1.0000 </r>
       <r>  -51.6774    1.0000 </r>
       <r>  -51.6743    1.0000 </r>
       <r>  -51.6433    1.0000 </r>
       <r>  -51.5970    1.0000 </r>
       <r>  -51.5588    1.0000 </r>
       <r>  -51.5325    1.0000 </r>
       <r>  -51.5279    1.0000 </r>
       <r>  -51.5103    1.0000 </r>
       <r>  -51.4761    1.0000 </r>
       <r>  -51.4743    1.0000 </r>
       <r>  -51.4527    1.0000 </r>
       <r>  -51.3829    1.0000 </r>
       <r>  -51.3805    1.0000 </r>
       <r>  -51.3628    1.0000 </r>
       <r>  -51.3006    1.0000 </r>
       <r>  -51.2748    1.0000 </r>
       <r>  -51.2583    1.0000 </r>
       <r>  -51.2488    1.0000 </r>
       <r>  -51.2120    1.0000 </r>
       <r>  -51.1571    1.0000 </r>
       <r>  -51.1344    1.0000 </r>
       <r>  -51.1188    1.0000 </r>
       <r>  -51.1094    1.0000 </r>
       <r>  -51.0805    1.0000 </r>
       <r>  -51.0478    1.0000 </r>
       <r>  -51.0239    1.0000 </r>
       <r>  -51.0014    1.0000 </r>
       <r>  -50.9034    1.0000 </r>
       <r>  -31.0176    1.0000 </r>
       <r>  -30.9125    1.0000 </r>
       <r>  -30.8996    1.0000 </r>
       <r>  -30.7973    1.0000 </r>
       <r>  -30.7864    1.0000 </r>
       <r>  -30.7723    1.0000 </r>
       <r>  -30.7327    1.0000 </r>
       <r>  -30.7252    1.0000 </r>
       <r>  -30.6539    1.0000 </r>
       <r>  -30.6449    1.0000 </r>
       <r>  -30.6000    1.0000 </r>
       <r>  -30.5951    1.0000 </r>
       <r>  -30.5499    1.0000 </r>
       <r>  -30.5360    1.0000 </r>
       <r>  -30.5243    1.0000 </r>
       <r>  -30.5161    1.0000 </r>
       <r>  -30.5050    1.0000 </r>
       <r>  -30.4913    1.0000 </r>
       <r>  -30.4763    1.0000 </r>
       <r>  -30.4633    1.0000 </r>
       <r>  -30.4542    1.0000 </r>
       <r>  -30.4397    1.0000 </r>
       <r>  -30.4295    1.0000 </r>
       <r>  -30.4179    1.0000 </r>
       <r>  -30.4110    1.0000 </r>
       <r>  -30.4044    1.0000 </r>
       <r>  -30.3824    1.0000 </r>
       <r>  -30.3726    1.0000 </r>
       <r>  -30.3546    1.0000 </r>
       <r>  -30.3314    1.0000 </r>
       <r>  -30.3264    1.0000 </r>
       <r>  -30.3194    1.0000 </r>
       <r>  -30.3064    1.0000 </r>
       <r>  -30.2808    1.0000 </r>
       <r>  -30.2734    1.0000 </r>
       <r>  -30.2656    1.0000 </r>
       <r>  -30.2522    1.0000 </r>
       <r>  -30.2447    1.0000 </r>
       <r>  -30.2362    1.0000 </r>
       <r>  -30.2170    1.0000 </r>
       <r>  -30.2040    1.0000 </r>
       <r>  -30.1987    1.0000 </r>
       <r>  -30.1938    1.0000 </r>
       <r>  -30.1834    1.0000 </r>
       <r>  -30.1784    1.0000 </r>
       <r>  -30.1647    1.0000 </r>
       <r>  -30.1506    1.0000 </r>
       <r>  -30.1419    1.0000 </r>
       <r>  -30.1322    1.0000 </r>
       <r>  -30.1245    1.0000 </r>
       <r>  -30.1212    1.0000 </r>
       <r>  -30.1017    1.0000 </r>
       <r>  -30.0870    1.0000 </r>
       <r>  -30.0848    1.0000 </r>
       <r>  -30.0668    1.0000 </r>
       <r>  -30.0631    1.0000 </r>
       <r>  -30.0592    1.0000 </r>
       <r>  -30.0480    1.0000 </r>
       <r>  -30.0385    1.0000 </r>
       <r>  -30.0318    1.0000 </r>
       <r>  -30.0181    1.0000 </r>
       <r>  -30.0125    1.0000 </r>
       <r>  -29.9973    1.0000 </r>
       <r>  -29.9888    1.0000 </r>
       <r>  -29.9791    1.0000 </r>
       <r>  -29.9697    1.0000 </r>
       <r>  -29.9620    1.0000 </r>
       <r>  -29.9564    1.0000 </r>
       <r>  -29.9466    1.0000 </r>
       <r>  -29.9390    1.0000 </r>
       <r>  -29.9263    1.0000 </r>
       <r>  -29.9142    1.0000 </r>
       <r>  -29.9084    1.0000 </r>
       <r>  -29.8981    1.0000 </r>
       <r>  -29.8898    1.0000 </r>
       <r>  -29.8689    1.0000 </r>
       <r>  -29.8479    1.0000 </r>
       <r>  -29.8366    1.0000 </r>
       <r>  -29.8267    1.0000 </r>
       <r>  -29.8183    1.0000 </r>
       <r>  -29.8022    1.0000 </r>
       <r>  -29.7927    1.0000 </r>
       <r>  -29.7684    1.0000 </r>
       <r>  -29.7658    1.0000 </r>
       <r>  -29.7539    1.0000 </r>
       <r>  -29.7389    1.0000 </r>
       <r>  -29.7329    1.0000 </r>
       <r>  -29.7154    1.0000 </r>
       <r>  -29.7089    1.0000 </r>
       <r>  -29.7020    1.0000 </r>
       <r>  -29.6891    1.0000 </r>
       <r>  -29.6766    1.0000 </r>
       <r>  -29.6713    1.0000 </r>
       <r>  -29.6325    1.0000 </r>
       <r>  -29.5968    1.0000 </r>
       <r>  -29.5359    1.0000 </r>
       <r>  -27.4230    1.0000 </r>
       <r>  -27.0707    1.0000 </r>
       <r>  -26.9714    1.0000 </r>
       <r>  -26.9291    1.0000 </r>
       <r>  -26.9039    1.0000 </r>
       <r>  -26.8989    1.0000 </r>
       <r>  -26.8326    1.0000 </r>
       <r>  -26.8206    1.0000 </r>
       <r>  -26.7958    1.0000 </r>
       <r>  -26.6947    1.0000 </r>
       <r>  -26.6810    1.0000 </r>
       <r>  -26.6632    1.0000 </r>
       <r>  -26.6576    1.0000 </r>
       <r>  -26.6483    1.0000 </r>
       <r>  -26.6281    1.0000 </r>
       <r>  -26.5488    1.0000 </r>
       <r>  -26.5170    1.0000 </r>
       <r>  -26.4931    1.0000 </r>
       <r>  -26.4682    1.0000 </r>
       <r>  -26.4432    1.0000 </r>
       <r>  -26.4245    1.0000 </r>
       <r>  -26.3216    1.0000 </r>
       <r>  -26.2871    1.0000 </r>
       <r>  -26.2481    1.0000 </r>
       <r>  -26.2397    1.0000 </r>
       <r>  -26.2093    1.0000 </r>
       <r>  -26.1504    1.0000 </r>
       <r>  -26.1300    1.0000 </r>
       <r>  -26.0614    1.0000 </r>
       <r>  -25.9220    1.0000 </r>
       <r>  -25.9170    1.0000 </r>
       <r>  -25.7291    1.0000 </r>
       <r>  -11.9826    1.0000 </r>
       <r>  -11.8215    1.0000 </r>
       <r>  -11.7133    1.0000 </r>
       <r>  -11.6309    1.0000 </r>
       <r>  -11.4438    1.0000 </r>
[...]
       <r>   -32.4681     0.0000    64.0000 </r>
       <r>   -32.2723     0.0000    64.0000 </r>
       <r>   -32.0765     0.0000    64.0000 </r>
       <r>   -31.8807     0.0000    64.0000 </r>
       <r>   -31.6850     0.0000    64.0000 </r>
       <r>   -31.4892     0.0000    64.0000 </r>
       <r>   -31.2934     0.0000    64.0000 </r>
       <r>   -31.0976     0.1216    64.0238 </r>
       <r>   -30.9019    21.3659    68.2067 </r>
       <r>   -30.7061    55.3247    79.0380 </r>
       <r>   -30.5103    85.4764    95.7722 </r>
       <r>   -30.3145   159.8823   127.0732 </r>
       <r>   -30.1188   188.9714   164.0692 </r>
       <r>   -29.9230   210.5850   205.2967 </r>
       <r>   -29.7272   165.3832   237.6747 </r>
       <r>   -29.5314    88.5947   255.0194 </r>
       <r>   -29.3356     5.0090   256.0000 </r>
       <r>   -29.1399     0.0000   256.0000 </r>
       <r>   -28.9441     0.0000   256.0000 </r>
       <r>   -28.7483     0.0000   256.0000 </r>
       <r>   -28.5525     0.0000   256.0000 </r>
       <r>   -28.3568     0.0000   256.0000 </r>
       <r>   -28.1610     0.0000   256.0000 </r>
       <r>   -27.9652     0.0000   256.0000 </r>
       <r>   -27.7694     0.0000   256.0000 </r>
       <r>   -27.5737     0.0001   256.0000 </r>
       <r>   -27.3779     9.1855   257.7983 </r>
       <r>   -27.1821     1.0386   258.0017 </r>
       <r>   -26.9863    14.1797   260.7777 </r>
       <r>   -26.7906    59.8135   272.4877 </r>
       <r>   -26.5948    66.9769   285.6002 </r>
       <r>   -26.3990    59.7067   297.2893 </r>
       <r>   -26.2032    48.4820   306.7809 </r>
       <r>   -26.0075    36.3561   313.8985 </r>
       <r>   -25.8117    21.0257   318.0149 </r>
       <r>   -25.6159    10.1329   319.9986 </r>
       <r>   -25.4201     0.0070   320.0000 </r>
       <r>   -25.2244     0.0000   320.0000 </r>
       <r>   -25.0286     0.0000   320.0000 </r>
       <r>   -24.8328     0.0000   320.0000 </r>
       <r>   -24.6370     0.0000   320.0000 </r>
       <r>   -24.4413     0.0000   320.0000 </r>
       <r>   -24.2455     0.0000   320.0000 </r>
       <r>   -24.0497     0.0000   320.0000 </r>
       <r>   -23.8539     0.0000   320.0000 </r>
       <r>   -23.6582     0.0000   320.0000 </r>
       <r>   -23.4624     0.0000   320.0000 </r>
       <r>   -23.2666     0.0000   320.0000 </r>
       <r>   -23.0708     0.0000   320.0000 </r>
       <r>   -22.8751     0.0000   320.0000 </r>
       <r>   -22.6793     0.0000   320.0000 </r>
       <r>   -22.4835     0.0000   320.0000 </r>
       <r>   -22.2877     0.0000   320.0000 </r>
       <r>   -22.0919     0.0000   320.0000 </r>
       <r>   -21.8962     0.0000   320.0000 </r>
       <r>   -21.7004     0.0000   320.0000 </r>
       <r>   -21.5046     0.0000   320.0000 </r>
       <r>   -21.3088     0.0000   320.0000 </r>
       <r>   -21.1131     0.0000   320.0000 </r>
       <r>   -20.9173     0.0000   320.0000 </r>
       <r>   -20.7215     0.0000   320.0000 </r>
       <r>   -20.5257     0.0000   320.0000 </r>
       <r>   -20.3300     0.0000   320.0000 </r>
       <r>   -20.1342     0.0000   320.0000 </r>
       <r>   -19.9384     0.0000   320.0000 </r>
       <r>   -19.7426     0.0000   320.0000 </r>
       <r>   -19.5469     0.0000   320.0000 </r>
       <r>   -19.3511     0.0000   320.0000 </r>
       <r>   -19.1553     0.0000   320.0000 </r>
       <r>   -18.9595     0.0000   320.0000 </r>
       <r>   -18.7638     0.0000   320.0000 </r>
       <r>   -18.5680     0.0000   320.0000 </r>
       <r>   -18.3722     0.0000   320.0000 </r>
       <r>   -18.1764     0.0000   320.0000 </r>
       <r>   -17.9807     0.0000   320.0000 </r>
       <r>   -17.7849     0.0000   320.0000 </r>
       <r>   -17.5891     0.0000   320.0000 </r>
       <r>   -17.3933     0.0000   320.0000 </r>
       <r>   -17.1976     0.0000   320.0000 </r>
       <r>   -17.0018     0.0000   320.0000 </r>
       <r>   -16.8060     0.0000   320.0000 </r>
       <r>   -16.6102     0.0000   320.0000 </r>
       <r>   -16.4145     0.0000   320.0000 </r>
       <r>   -16.2187     0.0000   320.0000 </r>
       <r>   -16.0229     0.0000   320.0000 </r>
       <r>   -15.8271     0.0000   320.0000 </r>
       <r>   -15.6314     0.0000   320.0000 </r>
       <r>   -15.4356     0.0000   320.0000 </r>
       <r>   -15.2398     0.0000   320.0000 </r>
       <r>   -15.0440     0.0000   320.0000 </r>
       <r>   -14.8482     0.0000   320.0000 </r>
       <r>   -14.6525     0.0000   320.0000 </r>
       <r>   -14.4567     0.0000   320.0000 </r>
       <r>   -14.2609     0.0000   320.0000 </r>
       <r>   -14.0651     0.0000   320.0000 </r>
       <r>   -13.8694     0.0000   320.0000 </r>
       <r>   -13.6736     0.0000   320.0000 </r>
       <r>   -13.4778     0.0000   320.0000 </r>
       <r>   -13.2820     0.0000   320.0000 </r>
       <r>   -13.0863     0.0000   320.0000 </r>
       <r>   -12.8905     0.0000   320.0000 </r>
       <r>   -12.6947     0.0000   320.0000 </r>
       <r>   -12.4989     0.0000   320.0000 </r>
       <r>   -12.3032     0.0000   320.0000 </r>
       <r>   -12.1074     0.0188   320.0037 </r>
       <r>   -11.9116     9.5756   321.8783 </r>
       <r>   -11.7158    14.2969   324.6773 </r>
       <r>   -11.5201    17.6953   328.1417 </r>
       <r>   -11.3243    23.0771   332.6596 </r>
       <r>   -11.1285    26.4070   337.8294 </r>
       <r>   -10.9327    34.5330   344.5901 </r>
       <r>   -10.7370    34.4083   351.3265 </r>
       <r>   -10.5412     3.4404   352.0000 </r>
       <r>   -10.3454     0.0000   352.0000 </r>
       <r>   -10.1496     0.0000   352.0000 </r>
       <r>    -9.9539     0.0005   352.0001 </r>
       <r>    -9.7581    14.6517   354.8685 </r>
       <r>    -9.5623     5.8790   356.0195 </r>
       <r>    -9.3665    27.3324   361.3705 </r>
       <r>    -9.1708    73.6881   375.7969 </r>
       <r>    -8.9750    93.3333   394.0693 </r>
       <r>    -8.7792   101.4043   413.9218 </r>
       <r>    -8.5834   109.8550   435.4287 </r>
       <r>    -8.3877   142.9340   463.4117 </r>
       <r>    -8.1919   127.2419   488.3226 </r>
       <r>    -7.9961   103.9745   508.6782 </r>
       <r>    -7.8003    78.5511   524.0566 </r>
       <r>    -7.6045    69.1702   537.5984 </r>
       <r>    -7.4088    29.8871   543.4496 </r>
       <r>    -7.2130     2.8113   544.0000 </r>
       <r>    -7.0172     0.0000   544.0000 </r>
       <r>    -6.8214     0.0000   544.0000 </r>
       <r>    -6.6257     0.0000   544.0000 </r>
       <r>    -6.4299     0.0000   544.0000 </r>
       <r>    -6.2341     0.0000   544.0000 </r>
       <r>    -6.0383     0.0000   544.0000 </r>
       <r>    -5.8426     0.0000   544.0000 </r>
       <r>    -5.6468     0.0000   544.0000 </r>
       <r>    -5.4510     0.0000   544.0000 </r>
       <r>    -5.2552     0.0002   544.0000 </r>
       <r>    -5.0595    11.6580   546.2824 </r>
       <r>    -4.8637    37.4906   553.6222 </r>
       <r>    -4.6679    39.5569   561.3664 </r>
       <r>    -4.4721    25.5609   566.3706 </r>
       <r>    -4.2764    36.1408   573.4461 </r>
       <r>    -4.0806    45.4098   582.3363 </r>
       <r>    -3.8848    73.2441   596.6757 </r>
       <r>    -3.6890    69.9448   610.3692 </r>
       <r>    -3.4933    38.6929   617.9443 </r>
       <r>    -3.2975    39.6001   625.6970 </r>
       <r>    -3.1017    36.4269   632.8285 </r>
       <r>    -2.9059    26.7630   638.0681 </r>
       <r>    -2.7102     9.8629   639.9990 </r>
       <r>    -2.5144     0.0050   640.0000 </r>
       <r>    -2.3186     0.0000   640.0000 </r>
       <r>    -2.1228     0.0000   640.0000 </r>
       <r>    -1.9271     0.0468   640.0092 </r>
       <r>    -1.7313     6.2371   641.2302 </r>
       <r>    -1.5355    11.2622   643.4351 </r>
       <r>    -1.3397    22.2372   647.7886 </r>
       <r>    -1.1440    14.5380   650.6348 </r>
       <r>    -0.9482    19.4349   654.4397 </r>
       <r>    -0.7524    26.4095   659.6100 </r>
       <r>    -0.5566    24.6456   664.4350 </r>
       <r>    -0.3608    30.6997   670.4453 </r>
       <r>    -0.1651    34.6825   677.2353 </r>
       <r>     0.0307    35.0815   684.1034 </r>
       <r>     0.2265    25.5413   689.1037 </r>
       <r>     0.4223    42.7012   697.4636 </r>
       <r>     0.6180    59.6861   709.1487 </r>
       <r>     0.8138    79.3818   724.6897 </r>
       <r>     1.0096   102.3093   744.7194 </r>
       <r>     1.2054    94.8495   763.2886 </r>
       <r>     1.4011    24.0647   767.9999 </r>
       <r>     1.5969     0.0006   768.0000 </r>
       <r>     1.7927     0.0000   768.0000 </r>
       <r>     1.9885     0.0000   768.0000 </r>
       <r>     2.1842     0.0000   768.0000 </r>
       <r>     2.3800     0.0000   768.0000 </r>
       <r>     2.5758     0.0000   768.0000 </r>
       <r>     2.7716     0.0000   768.0000 </r>
       <r>     2.9673     0.0000   768.0000 </r>
       <r>     3.1631     0.0000   768.0000 </r>
       <r>     3.3589     0.0000   768.0000 </r>
       <r>     3.5547     0.0000   768.0000 </r>
       <r>     3.7504     0.0000   768.0000 </r>
       <r>     3.9462     0.0000   768.0000 </r>
      </set>
     </set>
    </array>
   </total>
  </dos>
 </calculation>
 <structure name="finalpos" >
  <crystal>
   <varray name="basis" >
    <v>      13.12862340       0.00000000       0.00000000 </v>
    <v>      -6.56431170      11.36972138       0.00000000 </v>
    <v>       0.00000000       0.00000000      26.82809424 </v>
   </varray>
   <i name="volume">   4004.59716953 </i>
   <varray name="rec_basis" >
    <v>       0.07616945       0.04397645       0.00000000 </v>
    <v>       0.00000000       0.08795290       0.00000000 </v>
    <v>       0.00000000       0.00000000       0.03727436 </v>
   </varray>
  </crystal>
  <varray name="positions" >
   <v>       0.07933235       0.16189576       0.45030952 </v>
   <v>       0.08309668       0.41113280       0.44621456 </v>
   <v>       0.09183507       0.65475411       0.44993798 </v>
   <v>       0.07417833       0.90148032       0.45480174 </v>
   <v>       0.32919063       0.16236654       0.45558647 </v>
   <v>       0.33713765       0.42261127       0.44983192 </v>
   <v>       0.34167843       0.67336243       0.45309880 </v>
   <v>       0.32753672       0.91310262       0.45311829 </v>
   <v>       0.58281887       0.17203837       0.45608705 </v>
   <v>       0.57614147       0.41669671       0.45661220 </v>
   <v>       0.59288309       0.68474165       0.45242178 </v>
   <v>       0.58050732       0.92651339       0.45005648 </v>
   <v>       0.83649094       0.17932481       0.45395487 </v>
   <v>       0.83266132       0.42203254       0.44967776 </v>
   <v>       0.83770766       0.67525843       0.45456168 </v>
   <v>       0.82574855       0.91956557       0.45219453 </v>
   <v>       0.15619912       0.08609161       0.54849122 </v>
   <v>       0.16626556       0.33310717       0.54280068 </v>
   <v>       0.16755931       0.58413255       0.54682640 </v>
   <v>       0.16704709       0.83257376       0.54591503 </v>
   <v>       0.40382515       0.07746237       0.54710530 </v>
   <v>       0.41649031       0.32550251       0.55280297 </v>
   <v>       0.41554883       0.58514565       0.54336365 </v>
   <v>       0.42694111       0.84250081       0.54927678 </v>
   <v>       0.67223271       0.08493188       0.54702802 </v>
   <v>       0.65780242       0.32319667       0.54921464 </v>
   <v>       0.66285220       0.57720323       0.54748472 </v>
   <v>       0.67519046       0.82710057       0.55136683 </v>
   <v>       0.91819584       0.07502137       0.54601215 </v>
   <v>       0.91211741       0.32822041       0.54704218 </v>
   <v>       0.90535441       0.57965536       0.54063055 </v>
   <v>       0.91948701       0.81717533       0.55199651 </v>
   <v>       0.07144313       0.17052741       0.58745777 </v>
   <v>       0.08741537       0.40548744       0.58355189 </v>
   <v>       0.08800848       0.66143147       0.58792300 </v>
   <v>       0.09330092       0.91081342       0.59623423 </v>
   <v>       0.31871978       0.16436438       0.59770216 </v>
   <v>       0.34398688       0.41904178       0.59215157 </v>
   <v>       0.32740257       0.65868110       0.59188404 </v>
   <v>       0.32102263       0.91085981       0.59609160 </v>
   <v>       0.59443462       0.15959203       0.58838038 </v>
   <v>       0.58785170       0.40667966       0.58729817 </v>
   <v>       0.57980866       0.67155830       0.59185363 </v>
   <v>       0.59284795       0.91872944       0.58996754 </v>
   <v>       0.82793866       0.18107874       0.58954037 </v>
   <v>       0.83794444       0.41880241       0.58541946 </v>
   <v>       0.82275884       0.64752852       0.59363653 </v>
   <v>       0.84389240       0.93105028       0.59367379 </v>
   <v>       0.17839361       0.08467467       0.40582085 </v>
   <v>       0.18490803       0.33561545       0.40862110 </v>
   <v>       0.18663111       0.60118703       0.40950978 </v>
   <v>       0.16807354       0.83566502       0.40870037 </v>
   <v>       0.41848363       0.07042918       0.41093157 </v>
   <v>       0.41983966       0.33769259       0.41399158 </v>
   <v>       0.41312068       0.59861587       0.40593635 </v>
   <v>       0.41082128       0.83912081       0.41384099 </v>
   <v>       0.68089462       0.09920431       0.41661887 </v>
   <v>       0.65965388       0.34473346       0.40965634 </v>
   <v>       0.69378050       0.61010270       0.41566912 </v>
   <v>       0.66648796       0.83727463       0.41233443 </v>
   <v>       0.91357956       0.09331527       0.40704809 </v>
   <v>       0.93195778       0.34235728       0.40528703 </v>
   <v>       0.91433431       0.59831822       0.40385222 </v>
   <v>       0.91876782       0.82302517       0.41309147 </v>
   <v>       0.99287584       0.99376249       0.49899494 </v>
   <v>       0.00286337       0.25260167       0.49745877 </v>
   <v>       0.99806485       0.50079264       0.49231845 </v>
   <v>       0.99503099       0.74693684       0.50223483 </v>
   <v>       0.23532195       0.99377551       0.49840918 </v>
   <v>       0.24608949       0.24569288       0.50409933 </v>
   <v>       0.24714796       0.49989901       0.49521106 </v>
   <v>       0.24691511       0.74457743       0.49796978 </v>
   <v>       0.48837823       0.00613882       0.49744156 </v>
   <v>       0.49570549       0.24635699       0.50340663 </v>
   <v>       0.50720145       0.49401611       0.50560161 </v>
   <v>       0.50423106       0.74592752       0.49969569 </v>
   <v>       0.74247648       0.99178387       0.49842172 </v>
   <v>       0.74762478       0.25361814       0.49949310 </v>
   <v>       0.74441931       0.48797167       0.49977673 </v>
   <v>       0.75444162       0.74786290       0.50346553 </v>
  </varray>
  <varray name="velocities" >
   <v>       0.00000000       0.00000000       0.00000000 </v>
   <v>       0.00000000       0.00000000       0.00000000 </v>
   <v>       0.00000000       0.00000000       0.00000000 </v>
   <v>       0.00000000       0.00000000       0.00000000 </v>
   <v>       0.00000000       0.00000000       0.00000000 </v>
   <v>       0.00000000       0.00000000       0.00000000 </v>
   <v>       0.00000000       0.00000000       0.00000000 </v>
   <v>       0.00000000       0.00000000       0.00000000 </v>
   <v>       0.00000000       0.00000000       0.00000000 </v>
   <v>       0.00000000       0.00000000       0.00000000 </v>
   <v>       0.00000000       0.00000000       0.00000000 </v>
   <v>       0.00000000       0.00000000       0.00000000 </v>
   <v>       0.00000000       0.00000000       0.00000000 </v>
   <v>       0.00000000       0.00000000       0.00000000 </v>
   <v>       0.00000000       0.00000000       0.00000000 </v>
   <v>       0.00000000       0.00000000       0.00000000 </v>
   <v>       0.00000000       0.00000000       0.00000000 </v>
   <v>       0.00000000       0.00000000       0.00000000 </v>
   <v>       0.00000000       0.00000000       0.00000000 </v>
   <v>       0.00000000       0.00000000       0.00000000 </v>
   <v>       0.00000000       0.00000000       0.00000000 </v>
   <v>       0.00000000       0.00000000       0.00000000 </v>
   <v>       0.00000000       0.00000000       0.00000000 </v>
   <v>       0.00000000       0.00000000       0.00000000 </v>
   <v>       0.00000000       0.00000000       0.00000000 </v>
   <v>       0.00000000       0.00000000       0.00000000 </v>
   <v>       0.00000000       0.00000000       0.00000000 </v>
   <v>       0.00000000       0.00000000       0.00000000 </v>
   <v>       0.00000000       0.00000000       0.00000000 </v>
   <v>       0.00000000       0.00000000       0.00000000 </v>
   <v>       0.00000000       0.00000000       0.00000000 </v>
   <v>       0.00000000       0.00000000       0.00000000 </v>
   <v>       0.00000000       0.00000000       0.00000000 </v>
   <v>       0.00000000       0.00000000       0.00000000 </v>
   <v>       0.00000000       0.00000000       0.00000000 </v>
   <v>       0.00000000       0.00000000       0.00000000 </v>
   <v>       0.00000000       0.00000000       0.00000000 </v>
   <v>       0.00000000       0.00000000       0.00000000 </v>
   <v>       0.00000000       0.00000000       0.00000000 </v>
   <v>       0.00000000       0.00000000       0.00000000 </v>
   <v>       0.00000000       0.00000000       0.00000000 </v>
   <v>       0.00000000       0.00000000       0.00000000 </v>
   <v>       0.00000000       0.00000000       0.00000000 </v>
   <v>       0.00000000       0.00000000       0.00000000 </v>
   <v>       0.00000000       0.00000000       0.00000000 </v>
   <v>       0.00000000       0.00000000       0.00000000 </v>
   <v>       0.00000000       0.00000000       0.00000000 </v>
   <v>       0.00000000       0.00000000       0.00000000 </v>
   <v>       0.00000000       0.00000000       0.00000000 </v>
   <v>       0.00000000       0.00000000       0.00000000 </v>
   <v>       0.00000000       0.00000000       0.00000000 </v>
   <v>       0.00000000       0.00000000       0.00000000 </v>
   <v>       0.00000000       0.00000000       0.00000000 </v>
   <v>       0.00000000       0.00000000       0.00000000 </v>
   <v>       0.00000000       0.00000000       0.00000000 </v>
   <v>       0.00000000       0.00000000       0.00000000 </v>
   <v>       0.00000000       0.00000000       0.00000000 </v>
   <v>       0.00000000       0.00000000       0.00000000 </v>
   <v>       0.00000000       0.00000000       0.00000000 </v>
   <v>       0.00000000       0.00000000       0.00000000 </v>
   <v>       0.00000000       0.00000000       0.00000000 </v>
   <v>       0.00000000       0.00000000       0.00000000 </v>
   <v>       0.00000000       0.00000000       0.00000000 </v>
   <v>       0.00000000       0.00000000       0.00000000 </v>
   <v>       0.00000000       0.00000000       0.00000000 </v>
   <v>       0.00000000       0.00000000       0.00000000 </v>
   <v>       0.00000000       0.00000000       0.00000000 </v>
   <v>       0.00000000       0.00000000       0.00000000 </v>
   <v>       0.00000000       0.00000000       0.00000000 </v>
   <v>       0.00000000       0.00000000       0.00000000 </v>
   <v>       0.00000000       0.00000000       0.00000000 </v>
   <v>       0.00000000       0.00000000       0.00000000 </v>
   <v>       0.00000000       0.00000000       0.00000000 </v>
   <v>       0.00000000       0.00000000       0.00000000 </v>
   <v>       0.00000000       0.00000000       0.00000000 </v>
   <v>       0.00000000       0.00000000       0.00000000 </v>
   <v>       0.00000000       0.00000000       0.00000000 </v>
   <v>       0.00000000       0.00000000       0.00000000 </v>
   <v>       0.00000000       0.00000000       0.00000000 </v>
   <v>       0.00000000       0.00000000       0.00000000 </v>
  </varray>
 </structure>
</modeling>
