135
Time=99999.99999996 pbc="T T T" Lattice="11.62817333 0.00000000 0.00000000 0.00000000 11.62817333 0.00000000 0.00000000 0.00000000 11.62817333" energy=-890.07266761 virial="172.92671065 18.34141628 -3.19540561 18.34141628 187.63987224 19.56735021 -3.19540561 19.56735021 183.03475343" stress="0.13957949 0.01166537 -0.00203232 0.01166537 0.14893724 0.01244508 -0.00203232 0.01244508 0.14600833" Properties=species:S:1:pos:R:3
Ca 0.67969654 3.75442260 10.09388958
Ca 5.66068375 10.39128809 0.81462448
Ca 1.96515221 7.04470495 3.37190777
Ca 2.71883787 4.34754466 1.69944510
Ca 4.36510852 1.64159717 10.28069972
Ca 7.99473672 3.91049093 9.59126574
Ca 6.72042363 9.83126101 7.72013083
Ca 8.62020413 4.09839326 6.64790052
Ca 3.55165512 7.96021473 0.72403765
Ca 2.77626879 6.57585107 7.91773460
Ca 6.99897085 10.11750643 4.34014238
Ca 10.70670154 1.57734592 6.96042617
Ca 0.27219176 11.16497116 4.84201791
Ca 4.83896698 3.84299076 7.84183087
Ca 10.25888997 6.74738115 9.04186418
Ca 5.65812988 5.53526668 1.64362551
Ca 1.49529675 2.41601341 4.17012841
Ca 9.29360415 10.88597856 1.50070132
Ca 8.12802121 6.30574097 4.23452287
Ca 11.15221470 4.72488156 3.47338618
Ca 4.84811424 8.38209808 9.22657938
Ca 0.07867506 9.75729273 9.37953424
Ca 10.39321627 8.64565679 0.63506765
Ca 3.45316957 10.93195084 6.04224623
Ca 4.62980452 7.46379810 4.30010526
Ca 5.36020540 3.66918305 4.48903318
Ca 1.48159327 0.13722489 1.29546891
Si 3.35942013 5.02649729 4.88183553
Si 10.35550982 2.57617491 1.51480083
Si 7.76378971 7.10582218 11.10419292
Si 8.28295274 3.78591487 2.64797882
Si 4.69025465 8.70600174 6.70884651
Si 1.13545426 0.76093615 9.37042727
Si 10.44818219 5.30631242 11.50911284
Si 2.17109881 1.51552993 7.42860763
Si 3.42847219 5.07510492 10.73621781
Si 3.51156366 9.98089548 3.12527523
Si 9.40360248 1.44632175 4.27214337
Si 5.86785088 4.99247565 10.21593386
Si 0.37522272 7.88252859 6.65685695
Si 1.29120144 6.43145832 11.52052683
Si 0.51481825 4.53014164 7.36221853
Si 9.93377740 9.79968092 6.93489759
Si 7.24239803 8.06502170 2.04428063
Si 7.63995171 0.55217110 8.75015752
Si 2.54657266 9.91486308 10.99860145
Si 10.18260242 0.98973845 10.76492426
Si 4.06797989 1.96872313 1.57361344
Si 8.53246508 9.70360997 10.05071927
Si 10.62460923 7.61307933 3.36033255
Si 5.00720625 0.95253459 4.11574592
Si 6.93600859 6.52273406 6.74632935
Si 6.97427280 1.32764953 6.11903395
Si 6.81775180 1.71272093 1.25674157
O 0.09064166 2.95940887 2.19049893
O 2.15269073 4.35527714 3.96353383
O 10.39885427 6.50173188 4.76154474
O 2.42926561 9.75625111 4.13146835
O 4.42527227 6.03175076 11.49512420
O 11.43684846 10.47789293 6.83750769
O 7.06939837 5.11694775 7.98915769
O 0.64851036 7.98078291 4.89725815
O 8.86825670 7.66823523 2.43508227
O 10.39284575 11.15010839 11.47946967
O 2.48658077 0.23532599 8.36720694
O 8.47297048 6.55749423 6.53040029
O 3.07097128 3.57931791 10.60546318
O 5.19095571 0.46840160 5.60012367
O 3.82738780 4.04717233 5.97683076
O 2.37661530 2.06342499 1.58785950
O 9.61034040 4.63266950 1.68006840
O 5.84593170 3.43160144 10.48545371
O 1.16390760 8.38859026 7.93938012
O 7.37341598 0.26406974 0.49474657
O 11.58150524 6.55914182 2.27338869
O 5.90784158 1.55516442 2.63904172
O 0.20686379 3.67186086 6.11429742
O 9.28841642 6.32922441 11.20717675
O 4.86037636 0.74405690 0.62733683
O 10.31167579 9.20939701 3.15572070
O 9.23582823 1.94359392 5.71583949
O 11.44583273 6.70336896 11.41456500
O 2.10526785 6.81649872 1.04218324
O 6.19135011 7.46549794 1.05647109
O 7.76151836 8.54539160 0.36492426
O 4.49108775 10.17007070 10.91584547
O 8.99375003 2.19033735 2.60787724
O 3.55984851 1.79630005 4.02387986
O 11.20423239 1.56812216 4.15268087
O 9.68986188 8.60944945 10.39863620
O 9.11987519 0.48326356 9.84090045
O 1.17733738 1.07634240 6.23861727
O 4.58620884 9.92780450 7.71472538
O 10.04677458 4.54189916 10.19174734
O 5.57865015 9.18515003 5.64955973
O 7.64030466 0.10086931 7.34764859
O 1.24171931 2.23616676 8.45016480
O 8.72819554 2.23554684 8.31486192
O 4.83784793 11.03856148 3.24470671
O 6.74168758 3.86536269 3.19689641
O 4.56304351 3.48560279 1.64693965
O 4.36321074 5.26655482 9.32836122
O 7.06268370 9.83617968 9.70204685
O 8.57329035 9.64584381 6.28693753
O 3.05449687 6.23141835 5.76734446
O 7.69200482 9.77081026 2.32388320
O 11.47025547 2.08078425 10.63375578
O 4.22281165 8.59354414 2.66156236
O 6.98010469 5.55725288 11.25999872
O 8.96709835 4.38881591 3.93344924
O 7.58226290 3.21746422 0.85790132
O 6.60243983 5.42035778 5.64293794
O 10.76907980 4.47321271 8.36627456
O 9.60625131 0.06089755 3.65572571
O 6.23654232 2.63660134 6.02642071
O 2.11931876 11.42950800 10.73753469
O 5.61262685 7.44725534 7.19270323
O 0.73118432 4.73292718 0.45583072
O 3.15379364 10.55438241 1.65686036
O 7.40519528 7.17576029 9.53201647
O 6.08407542 1.37538172 8.80450082
O 9.63663867 10.21331624 8.74967623
O 2.08992522 6.15108853 10.26355057
O 11.35466122 0.37498750 9.29486315
O 3.31112814 8.48787792 10.09263134
O 10.29574926 8.04008622 7.04551860
O 0.43248621 6.13406473 6.69938742
O 3.72243510 6.10694864 2.92403678
O 1.25859179 9.21068426 11.60693033
O 3.36761821 8.68819736 5.69946605
O 6.74131263 7.69623285 4.13370873
O 2.03368855 4.75409925 7.96685433
O 3.63531629 1.99312582 7.63156126
O 9.77298346 1.49990373 0.59309263
O 7.55905346 0.92747399 4.70697274
135
Time=199999.99999918 pbc="T T T" Lattice="11.62817333 0.00000000 0.00000000 0.00000000 11.62817333 0.00000000 0.00000000 0.00000000 11.62817333" energy=-898.86818767 virial="182.25299127 -35.74196357 41.01643953 -35.74196357 169.55369075 -22.46355493 41.01643953 -22.46355493 146.16466679" stress="0.14551112 -0.02273233 0.02608696 -0.02273233 0.13743421 -0.01428710 0.02608696 -0.01428710 0.12255850" Properties=species:S:1:pos:R:3
Ca 1.51982761 5.36561356 10.23099459
Ca 9.29523472 0.80666178 3.41231810
Ca 11.29580183 4.79292913 4.54332894
Ca 2.92329806 9.55805048 3.69809007
Ca 0.96077228 0.09396821 4.11851589
Ca 0.76867126 7.59096170 9.37340255
Ca 9.71486178 9.82511667 0.27843326
Ca 9.73023429 7.23521088 6.70180684
Ca 9.11489218 10.28875041 6.40596425
Ca 7.70113823 6.07951798 1.22697426
Ca 10.45631851 8.56283178 3.63856370
Ca 2.98534649 3.15674163 4.52360063
Ca 1.94121085 1.97802309 8.73017226
Ca 1.62776876 1.93440724 0.00439957
Ca 11.31982854 5.72832060 1.22324432
Ca 2.43903032 5.18072163 7.18283496
Ca 6.82548677 1.75946784 9.16573675
Ca 6.55624797 1.68669243 1.36697459
Ca 3.43068442 10.18153615 10.32300996
Ca 0.14032644 2.25077999 2.01319119
Ca 5.84999513 9.20461556 4.66115583
Ca 0.84384323 10.59913500 6.87943294
Ca 7.26884052 3.81980382 5.55383313
Ca 5.56262887 6.15635309 5.88374795
Ca 9.79578015 1.22139956 10.12189847
Ca 7.56102230 4.88366554 8.36561098
Ca 5.03016369 6.93570503 9.73955848
Si 1.17459955 7.67279035 5.79463452
Si 0.60555709 11.18289690 9.76791202
Si 5.58806539 4.76394790 11.55577287
Si 3.87652250 7.98895523 7.23825767
Si 7.16547526 0.50845242 5.77921330
Si 11.31064959 1.16797132 6.21101891
Si 4.10571434 11.44519332 6.26208887
Si 6.97986591 10.25511339 2.33764888
Si 6.38117313 8.69350324 8.08436128
Si 2.78738531 4.54719454 1.79769346
Si 9.61613097 6.90723917 10.12718112
Si 4.17412352 3.27769520 9.74638114
Si 5.57078065 4.13431654 2.83358932
Si 4.35242299 0.80760580 2.84772831
Si 3.18372978 6.47156640 3.64302226
Si 9.30829920 2.62138806 6.77648752
Si 4.73085241 8.10218941 1.73877697
Si 4.60410340 1.07309757 11.42335109
Si 8.20171211 6.53434991 4.34990844
Si 9.75879406 9.29304597 9.16751823
Si 0.61161483 9.59622216 0.82443236
Si 2.49723800 7.70281866 0.05628047
Si 10.02019896 3.96490211 10.94174910
Si 9.05168797 3.27328412 2.33177700
Si 4.64725211 2.57114190 6.76377230
Si 0.17459218 4.16461009 7.65532635
Si 7.01529636 10.57947054 10.40551847
O 7.45742689 4.01611060 2.96475008
O 10.44552519 1.30600654 7.45787142
O 10.21607196 11.05173019 9.34070718
O 10.77560290 5.37987535 10.55000534
O 8.95557935 3.40604872 10.04730712
O 0.68634161 4.00759510 6.27077153
O 1.98819989 3.05451692 2.29821011
O 0.60072385 9.09118950 5.52789655
O 8.94929456 6.55920816 8.73513537
O 9.44602723 4.22925668 0.96513798
O 7.37057736 9.35673049 6.88873525
O 6.37357101 7.06408557 7.75033191
O 1.31966402 7.22193165 0.83983489
O 6.02998491 9.09336062 9.62489562
O 3.96719934 0.41659393 1.17537663
O 2.95332519 10.36925399 5.66246352
O 8.58735072 9.88883311 2.55901085
O 7.69190497 0.20729222 7.25393146
O 7.64333040 5.73001884 5.81961613
O 6.07751143 1.53487179 6.11974670
O 4.27942630 5.70577461 0.36867154
O 3.78363008 1.95392816 10.67561672
O 10.54026614 2.45612962 5.27111645
O 4.43699464 7.94420452 5.69891181
O 11.14503574 2.87611120 11.42637600
O 5.77222431 9.22099343 2.49840245
O 11.12691037 0.22078408 2.28447904
O 5.15454790 11.47946325 10.43355525
O 5.12176484 2.34161038 2.40916928
O 4.25889289 7.54969247 3.11891302
O 6.07931046 4.17974359 1.22152387
O 2.10336652 7.55047129 4.32921202
O 7.01248379 10.31511620 0.56937367
O 0.18011336 3.00485928 8.61023579
O 8.44128695 9.70924679 10.24410455
O 3.85707523 6.47994286 8.06835605
O 5.53488727 4.13225069 9.90700152
O 5.28003349 11.01633695 7.20251418
O 9.96803458 4.23073508 7.43455128
O 3.45298435 1.49952480 6.25120076
O 6.85062268 5.74020805 10.82511303
O 4.84355691 2.12764807 8.46820156
O 10.25506199 9.07932345 7.57542612
O 9.19756448 7.28385663 11.50051902
O 10.97376600 11.39889078 5.45051444
O 8.74262989 8.40927882 4.67927785
O 7.53832187 0.45023185 10.70380690
O 1.79611710 4.59238118 0.48286259
O 1.33358711 9.58599389 2.41816145
O 4.63024386 11.59244826 4.47818342
O 11.46209915 6.98985580 5.47376353
O 0.81727161 0.54513303 8.44673486
O 3.26631942 5.55936423 4.89881099
O 2.62807473 3.69122363 9.42971682
O 2.02461662 0.25444082 10.42686309
O 2.96765267 0.86405552 3.45237108
O 5.33035794 4.41508544 7.04934473
O 1.18905785 9.91555947 9.24528595
O 5.35630968 4.09628454 4.42528956
O 11.49360794 10.74931696 11.46990303
O 11.01955038 8.52371419 1.17107543
O 5.96135518 7.50421988 0.76136111
O 0.48995166 5.56053853 8.14889001
O 1.82941135 9.47650725 11.31157464
O 10.70075428 7.97160325 9.73577548
O 5.96062225 2.35116392 11.30061063
O 3.50100681 8.82567356 1.35451667
O 2.72469504 7.22891919 10.25089728
O 4.26729528 4.80961822 2.40623514
O 9.44494880 6.23904076 3.35724129
O 8.72152854 2.14581845 1.54967057
O 7.98451251 11.01616900 4.58650583
O 1.99437841 7.71308061 7.15345663
O 1.19845614 1.71277443 5.56723030
O 6.37216303 0.08187609 2.72074649
O 6.48770966 6.40450716 3.57642531
O 8.46021467 2.13265949 5.28067359
O 7.90136018 3.03508794 7.64190994
O 4.20543553 9.17691089 8.39794147
O 10.36985478 3.43096670 3.04895449
O 1.83736241 5.61113667 2.80549056
135
Time=299999.99999840 pbc="T T T" Lattice="11.62817333 0.00000000 0.00000000 0.00000000 11.62817333 0.00000000 0.00000000 0.00000000 11.62817333" energy=-906.66861373 virial="185.51289953 14.41203826 2.32094148 14.41203826 173.21125680 15.01665976 2.32094148 15.01665976 150.07106213" stress="0.14758446 0.00916623 0.00147615 0.00916623 0.13976046 0.00955078 0.00147615 0.00955078 0.12504302" Properties=species:S:1:pos:R:3
Ca 6.39969621 9.65816745 7.33017875
Ca 4.27974828 3.39187803 8.43053414
Ca 10.09676296 9.86187436 2.71365247
Ca 3.14160595 9.35675823 7.59061513
Ca 0.57074096 1.78201477 1.79754941
Ca 4.97314458 5.35790588 4.42117760
Ca 2.75928715 3.31846135 4.46717559
Ca 8.69911794 5.64641337 2.91521136
Ca 8.01285708 7.72412222 5.97248562
Ca 10.36276797 10.40996149 5.77216331
Ca 9.60439511 1.87350416 0.17241196
Ca 4.30067660 7.00291243 10.06410625
Ca 9.87165940 7.08732525 9.42947441
Ca 1.14292908 4.98228966 10.77650533
Ca 7.46930600 3.41463328 8.76227515
Ca 6.64772226 9.55221286 10.23236401
Ca 10.00677195 10.73196375 11.17011015
Ca 4.95335326 1.40485299 2.97286928
Ca 7.46561203 0.65937181 5.10649385
Ca 5.40522901 6.18742229 1.07270724
Ca 2.61638808 6.94494979 5.32525372
Ca 1.22366238 8.45826765 0.12739619
Ca 6.22272753 3.46194062 0.17880885
Ca 2.11072117 1.45833961 9.99906133
Ca 10.50520500 5.44664109 6.68505411
Ca 1.68248741 10.08237564 3.61600935
Ca 0.22808698 4.82376893 3.19093857
Si 3.32256171 3.36390104 1.38507033
Si 8.45028016 2.92743858 2.89634776
Si 3.94413890 9.76315870 10.28211404
Si 11.61511560 8.74749725 7.90474937
Si 1.52220596 3.74107234 7.07383785
Si 2.73870326 6.64319943 2.35137152
Si 4.72122729 9.55260282 1.42847405
Si 1.85756619 6.05159895 8.05316976
Si 7.62388323 7.56571607 0.34965009
Si 11.52826197 0.01380373 8.72296185
Si 8.09843117 4.19164722 5.58818204
Si 8.28476920 0.03026069 1.80923606
Si 11.55904270 1.26157104 4.53664982
Si 2.69492171 11.18884511 1.00374900
Si 5.34997871 0.89933469 8.73843367
Si 5.65792088 2.89946875 6.02965730
Si 9.88316882 1.97940879 6.95370736
Si 6.80998140 9.78175694 4.11649684
Si 10.12190766 7.39937189 0.64607468
Si 5.75524647 1.08864851 11.41762066
Si 5.82065528 7.89738830 3.38702042
Si 2.21714925 0.74118521 6.80082504
Si 4.07415361 11.08235421 5.26824867
Si 8.55696431 11.16625334 8.52007689
Si 9.44735220 4.62210524 10.81632084
Si 6.13235455 6.16789879 7.52077034
Si 10.84753558 7.74484214 4.16580402
O 4.92504974 8.85896124 11.38742259
O 8.81483419 5.99128749 0.17463211
O 2.38742175 2.33531120 6.22107193
O 5.68585760 10.27018801 3.23881500
O 1.80975603 3.63874551 1.32148867
O 1.60589955 7.63827502 3.05920652
O 11.11795801 6.25563694 4.66823149
O 8.16316459 3.43383840 11.13521841
O 3.00443306 0.69066477 4.49591604
O 2.46933484 6.19354350 9.69301514
O 4.41154797 4.42397650 0.55477990
O 6.89149122 0.87415222 1.00190960
O 8.28841453 1.51902420 2.98419536
O 4.17555687 3.20533881 2.72809284
O 9.74490188 8.69040985 4.41086300
O 10.91456484 8.90608240 0.34986168
O 2.48367033 7.27181791 7.34760261
O 6.16582270 2.17245926 10.09739954
O 8.71717822 5.56634665 4.99165634
O 0.96219868 4.20200805 5.69761819
O 8.99042331 0.63604523 9.67869960
O 5.00280241 10.01006032 9.05995964
O 0.16624860 0.56154552 10.34438522
O 3.45758412 6.72498204 1.16442608
O 1.05502086 10.60221619 1.66412643
O 1.30290347 9.10743714 7.04576978
O 8.45703251 7.42718479 1.72278169
O 6.14933026 2.10327452 4.82366107
O 8.70139745 10.17444520 1.27422187
O 3.18416151 9.18160432 1.98012799
O 2.59830660 10.73132241 10.78977133
O 8.65254657 0.70077700 7.05767580
O 7.21358130 8.25411289 3.74681718
O 4.52531485 2.17911238 0.28080291
O 11.15741804 6.51162465 11.32426309
O 3.10564175 8.51494215 9.79199954
O 2.49811797 5.37337621 3.41643801
O 1.47658865 3.28732926 9.02761409
O 6.53287447 7.03586945 10.99206988
O 4.34031298 7.39485579 3.32482922
O 4.32222673 11.15957014 1.08245021
O 6.19748491 7.67639959 8.27133314
O 5.46237470 4.97962034 8.50104413
O 9.44504229 4.91397265 9.32165625
O 3.86169608 9.50861180 5.00037811
O 7.71170071 10.03035951 5.31910496
O 0.64626538 5.28149369 8.33720817
O 6.31807461 6.36871373 3.22744913
O 3.99668436 1.44700214 8.73060491
O 0.37651607 8.66806196 4.82051954
O 2.70043569 4.75061226 7.13798633
O 6.58543331 0.01573359 8.11887202
O 10.54947428 2.09426474 5.40902706
O 6.81727344 4.01478180 6.45175049
O 8.51042787 8.34941732 10.76806546
O 0.84504963 2.37674899 3.93665575
O 8.12799651 9.40881660 8.56134794
O 10.68070962 7.73267261 7.17269632
O 5.20738993 0.01806777 10.50804477
O 9.17196130 3.52274967 6.77045071
O 7.33987282 3.77818874 2.06575668
O 1.35971109 0.37570010 8.04268558
O 11.01054784 7.22609453 2.44733680
O 0.74476732 0.40561848 5.80025452
O 10.34807707 10.85799803 7.95725246
O 10.14251403 3.66031727 2.33107236
O 10.86698237 1.72872984 8.06543874
O 10.79639147 0.06750802 3.76614637
O 11.37510128 9.33902624 9.40568851
O 8.24990760 3.03685146 4.46100079
O 8.16828599 6.00284843 7.33145510
O 4.52470889 4.03650462 5.77012817
O 5.72449938 6.82734496 6.08231462
O 8.00338761 10.84850968 3.22464072
O 5.83808058 11.41212265 5.17322625
O 5.76178802 2.29736294 7.65324914
O 2.43070802 1.18904532 1.21596586
O 3.61937761 11.37929871 6.92484194
O 11.02340450 3.72391874 11.34179654
O 5.98307122 8.55624792 1.81905270
O 9.77048983 0.39728825 1.54176042
135
Time=400000.00000008 pbc="T T T" Lattice="11.62817333 0.00000000 0.00000000 0.00000000 11.62817333 0.00000000 0.00000000 0.00000000 11.62817333" energy=-889.74869145 virial="185.03529023 8.13716777 -12.35519021 8.13716777 147.86936685 -0.18859221 -12.35519021 -0.18859221 118.21480622" stress="0.14728069 0.00517534 -0.00785805 0.00517534 0.12364271 -0.00011995 -0.00785805 -0.00011995 0.10478204" Properties=species:S:1:pos:R:3
Ca 8.49408267 9.64256683 3.86860380
Ca 6.41096801 4.22019101 2.13408467
Ca 5.93429469 7.88676343 0.83448997
Ca 8.40721673 3.89942577 9.80212846
Ca 1.49729388 7.62349115 9.33400310
Ca 7.69405777 1.54059849 3.92753474
Ca 10.25410902 11.59310531 5.72674182
Ca 2.69966592 9.81366407 3.68804295
Ca 8.39061633 9.62692951 0.08238231
Ca 4.89310266 9.28647058 9.18536023
Ca 7.36671706 0.64594903 11.38147576
Ca 10.98726864 6.35345407 4.31690952
Ca 3.84639910 4.43460936 8.01063809
Ca 2.87701632 4.05010164 11.46897651
Ca 7.73840442 5.79786149 3.84452331
Ca 1.10037401 1.52554020 1.20778854
Ca 1.83985758 1.40285584 4.43893830
Ca 11.18824151 9.89258393 2.99196902
Ca 4.04241355 4.16427180 3.66191683
Ca 3.04676116 6.67449187 5.93609330
Ca 9.70866323 8.00601705 6.75689488
Ca 5.69854307 9.56578834 5.92241796
Ca 11.18664617 6.61009417 0.57523486
Ca 5.24199834 1.43306115 5.12570884
Ca 10.55068951 10.48846501 10.66937026
Ca 9.78282673 1.52848485 8.02313611
Ca 5.94510542 3.73191848 10.93731079
Si 6.69978198 6.73622646 7.36922790
Si 7.57024521 9.77482049 8.95524834
Si 1.12175080 2.42772130 7.33503924
Si 3.39640611 1.41892470 9.41703446
Si 5.56817368 10.18347905 2.77964680
Si 9.38272827 4.13284475 0.98986522
Si 0.29170328 8.93253195 5.75973702
Si 4.99811480 6.97369030 3.75319802
Si 2.70402341 6.61439301 1.80932716
Si 2.34551214 9.09586868 11.38810696
Si 9.59208729 6.83108503 9.74716044
Si 5.17107645 1.64095101 1.82274356
Si 8.52521782 7.65220050 1.94566199
Si 9.65964623 0.51059803 2.17687165
Si 1.20241276 4.51242687 2.92383665
Si 9.06222558 4.30530279 6.57736585
Si 0.26670147 4.43496227 10.15689610
Si 6.00526646 1.07481021 8.33733212
Si 4.79158895 6.78965900 10.35192773
Si 10.41609470 1.55544409 10.91890447
Si 6.04042109 3.54077168 6.23861666
Si 0.07759295 5.84803960 7.58771262
Si 3.09778530 11.13733417 6.29469255
Si 7.73572661 10.82059137 6.62126295
Si 3.44742698 0.25844516 0.72597965
Si 9.91285114 3.38461358 3.91349998
Si 1.22896109 10.99298534 8.33035858
O 5.08093701 11.60314325 0.46470531
O 2.36660369 2.99167850 6.61580060
O 7.85252028 7.64914371 0.36157224
O 4.19443550 2.88808668 1.97218912
O 4.61069201 4.11755184 5.92996005
O 2.81817015 11.07886241 8.79615530
O 10.22895832 5.45866851 10.25004306
O 10.40357161 5.21274475 6.92032947
O 0.89572273 3.64974304 11.40047873
O 9.55458023 11.42822204 3.86371405
O 5.91786032 2.10109236 6.92765185
O 3.84445667 6.38774856 9.07799816
O 6.17857458 10.01047615 1.12214311
O 3.85187342 2.90044831 9.48779261
O 10.03629790 7.93329414 10.76792690
O 6.62065071 11.41338328 7.89017060
O 5.60062061 5.59360337 11.19901952
O 7.16935076 8.08094193 2.89324265
O 6.18641613 7.95165639 10.26311532
O 9.37516157 5.00523048 4.90912612
O 0.24334326 4.45431636 8.42110891
O 1.56979493 3.10952022 2.79799793
O 10.19945100 9.14453952 5.17765465
O 4.94914900 8.72972597 2.92201298
O 5.68533526 5.95919915 2.52048242
O 2.50071447 8.03322804 1.04606311
O 2.36199567 5.12584623 4.21194166
O 4.92429721 0.59306818 9.37178890
O 10.75799740 7.22687233 8.52008038
O 7.40183186 1.66370076 8.88639091
O 8.84043254 3.81115451 2.75803656
O 7.79071810 9.43982780 5.93505469
O 11.33424201 11.50265485 8.51873100
O 3.30766381 8.20087874 10.11302635
O 3.29146651 11.31984783 4.82219387
O 9.21104262 2.11502018 0.70652244
O 6.25866344 3.29832456 4.21020011
O 6.72864697 10.19221052 10.11056562
O 11.57215133 7.30758667 6.36558434
O 8.81265773 11.19416621 7.48833023
O 7.92676513 0.38695877 2.21552173
O 6.25891278 2.33617843 0.94356872
O 8.96491321 9.27481527 9.22858376
O 1.31561968 5.75687298 10.40494465
O 7.49528478 4.34257523 6.54049864
O 3.04939612 1.21366763 11.14406276
O 3.79311653 9.40988780 6.51216302
O 0.81595009 9.51727313 7.14203892
O 5.36313003 0.62453639 3.07804838
O 6.55430822 8.41766421 7.91248155
O 10.24410646 11.17904830 1.02265322
O 1.54146610 0.20434327 6.67849484
O 11.52392360 3.82851635 3.47223579
O 5.08214969 6.29784955 5.07860878
O 3.12625005 10.29764397 1.09894397
O 1.49407243 5.64418589 1.78906470
O 3.71690657 5.94362519 0.54172311
O 5.71915811 5.29518940 7.67219949
O 11.61602706 1.99351042 6.45416115
O 0.94129064 8.17351205 3.97321388
O 1.54530660 1.55601410 8.62367001
O 9.38480399 6.36246652 2.50243942
O 7.26916971 6.73975521 5.87162309
O 10.89428616 4.64671869 1.25474924
O 3.95382581 0.61105733 6.78409344
O 11.12736835 1.57805624 2.54396515
O 0.81943858 10.78761649 4.33422309
O 9.13425783 3.08263588 7.68395372
O 10.39550294 2.70615243 9.78261520
O 9.29162334 0.47336354 10.36307895
O 7.90225575 4.80329124 0.55117020
O 7.88213470 6.25735198 9.15765845
O 3.03984537 0.89460665 2.28357105
O 3.53036985 6.79782485 3.22812916
O 6.43983462 10.30965701 4.16432658
O 9.66203503 8.84520415 2.24860418
O 0.91650826 9.45613226 10.35490719
O 1.93492340 6.08177995 7.61547039
O 9.65067185 2.12061518 4.86798268
O 7.60154699 0.34629557 5.52369433
O 0.11173417 0.75864311 11.08288064
135
Time=500000.00000301 pbc="T T T" Lattice="11.62817333 0.00000000 0.00000000 0.00000000 11.62817333 0.00000000 0.00000000 0.00000000 11.62817333" energy=-894.90480741 virial="204.47611514 -8.01980182 -1.52154311 -8.01980182 158.14327223 35.72003222 -1.52154311 35.72003222 132.97608076" stress="0.15964530 -0.00510069 -0.00096772 -0.00510069 0.13017704 0.02271838 -0.00096772 0.02271838 0.11417040" Properties=species:S:1:pos:R:3
Ca 2.08028047 7.12957330 5.01143110
Ca 5.36637980 3.51517713 5.59624211
Ca 10.14824980 4.39975817 7.40283183
Ca 8.39176232 7.06134414 2.09508652
Ca 4.78490994 4.64893368 11.51091392
Ca 3.57469392 1.20186212 2.45069143
Ca 10.36976703 6.57437241 9.90429443
Ca 2.31657822 5.20702257 2.02817171
Ca 10.61842307 4.65667941 3.86984017
Ca 4.78784201 8.06855571 11.57998725
Ca 5.96810246 0.41633815 4.62609319
Ca 2.68226080 8.52394727 2.28567519
Ca 2.92023354 0.70988264 5.84117075
Ca 0.38543601 3.54332345 10.50278472
Ca 0.16315278 0.39502968 10.02716410
Ca 6.43010355 1.48238273 0.26008594
Ca 10.07125147 9.26519552 7.41225757
Ca 7.49749036 6.46142437 5.00886532
Ca 8.47311669 0.14222268 2.46691605
Ca 0.42508708 9.92538890 4.44835289
Ca 4.16402572 10.58899413 9.43032069
Ca 2.93398311 2.52265112 7.83764549
Ca 11.14955779 2.04095008 1.33184310
Ca 2.51357610 11.44114304 0.27130248
Ca 10.98821181 0.99249776 4.62502688
Ca 5.49150818 8.52158327 4.09342417
Ca 6.85560838 4.22339809 8.31169124
Si 5.33659423 6.74777966 6.80744421
Si 8.14449022 1.53213528 7.05226813
Si 7.50027156 7.95995386 10.76233131
Si 5.19151099 10.20826523 1.62425177
Si 2.69942642 2.76302681 11.57696181
Si 8.03028372 11.19720392 10.33883206
Si 8.61334236 9.91578403 4.60407234
Si 10.17426144 9.55088126 10.77831242
Si 1.02056461 7.29625859 7.58478556
Si 11.41125200 7.88585241 1.07093123
Si 3.17386206 5.86927233 8.69219513
Si 5.24848158 5.94678707 2.69423841
Si 7.53355378 5.42182941 11.47103169
Si 1.28950373 10.65946695 7.71625132
Si 4.97130007 1.60599050 7.85650695
Si 6.12022885 3.41890461 2.61209463
Si 8.35927063 2.92175685 4.41801799
Si 8.61494209 2.70859452 10.34739093
Si 10.26046331 5.10788883 0.70404205
Si 7.80731187 7.75493816 8.06207758
Si 6.60806437 10.38587123 7.06994516
Si 1.74721024 8.07889148 10.51744666
Si 3.85122555 9.59310779 6.28817135
Si 1.72611900 3.22101935 5.25586862
Si 0.11370488 1.74965060 7.77061486
Si 11.60358924 11.12886051 1.44907861
Si 10.38879002 7.47835734 4.26148969
O 10.74099720 8.79820968 9.51454054
O 10.98859437 0.24683827 7.51964162
O 6.16477737 5.42557632 10.17979470
O 2.28175287 1.69546674 10.65296081
O 1.14610722 10.24873460 2.22651869
O 2.20211551 9.05928160 5.04228233
O 4.65378546 4.33734413 3.24243956
O 8.51497062 6.48222030 10.78147455
O 3.13966633 7.08024743 9.69133415
O 1.97602799 2.52954477 1.66954019
O 9.87925378 4.69140687 10.83497136
O 9.18233727 2.07119889 7.85548418
O 6.02424638 5.73387908 5.73869369
O 10.45310146 10.60898801 0.66877223
O 4.37207324 10.32938541 4.98639530
O 4.00627447 6.88160036 3.74768164
O 11.27718959 7.83804317 5.32193970
O 7.65737857 3.62134933 11.49594303
O 3.69429316 10.91378739 2.13751585
O 10.97916654 11.61841221 2.89690088
O 1.25418128 7.01443201 0.91557824
O 6.59758281 7.68566428 6.90092421
O 4.37195345 6.33030553 1.39365736
O 1.49044558 4.93254645 4.42856876
O 11.37793546 4.18595880 1.28408610
O 4.21475615 2.17549545 0.28620960
O 10.68349624 7.92898725 2.72030038
O 2.65853430 8.65443575 0.27910798
O 5.14295583 8.55077852 1.92822682
O 9.49961576 5.99275919 4.19495071
O 4.72106484 5.84032691 8.06296294
O 4.84393362 1.55059999 6.14639144
O 7.36310537 0.09452587 7.35542266
O 10.49348206 6.68203730 0.56300643
O 9.68957113 10.71195160 5.36050842
O 7.39052367 2.43499727 2.59031300
O 2.32420882 4.40329620 11.51947167
O 2.82192781 10.71498819 7.43285179
O 7.21620914 10.12373186 5.58237489
O 7.68108242 1.37132189 9.75116697
O 4.03651260 8.01453991 6.29637225
O 8.63678049 4.01083332 9.37579388
O 5.02924482 10.94949096 0.13806916
O 6.55177181 2.16131850 7.32956503
O 8.70681971 9.06772489 11.36450929
O 8.84244519 6.55269700 7.92903507
O 6.82887814 7.58618845 9.32732396
O 6.62307810 4.86496038 1.89267312
O 6.71854874 7.45400545 0.46723274
O 8.42823229 9.72899639 2.98104407
O 9.45973141 11.07054164 9.86245851
O 5.17237408 2.06507233 3.53516958
O 0.98073875 10.35049920 9.76254975
O 4.47873868 0.75680531 9.01799335
O 8.15947145 1.42289308 5.26024606
O 1.47449916 2.23317480 4.03682936
O 4.97777559 3.23556481 8.19556688
O 9.83924833 2.38425143 11.24029099
O 10.19738831 2.69381091 3.61423050
O 8.87221525 3.70323521 5.85976806
O 0.27563548 8.85287240 11.44942971
O 3.00592272 4.46447567 9.06692742
O 7.13976192 4.09047411 4.04648014
O 0.96601125 10.96942932 6.09152456
O 0.79573650 6.94858894 9.26925196
O 6.59060799 9.75553437 10.04169472
O 8.72284564 5.13928659 1.27561314
O 8.90243909 8.45113586 5.25554573
O 7.77077144 11.42069236 0.48276312
O 8.18876196 9.27043724 7.79642912
O 0.94098706 0.57969578 0.58572233
O 0.58376489 3.35719085 6.75652576
O 0.78655659 8.89841992 7.58627506
O 1.57999391 0.80376217 7.83595331
O 6.51197810 10.93829516 3.03882762
O 11.41182589 2.67300898 8.93882696
O 6.69382899 6.67735285 3.09636421
O 3.16789609 3.04172330 6.03259062
O 2.07653484 6.11683801 7.31547631
O 11.53563134 6.44474715 7.03786789
O 5.08656378 10.37129567 7.28047412
135
Time=600000.00000594 pbc="T T T" Lattice="11.62817333 0.00000000 0.00000000 0.00000000 11.62817333 0.00000000 0.00000000 0.00000000 11.62817333" energy=-888.61593763 virial="201.42347942 -37.65573962 -7.78356139 -37.65573962 148.12177950 -18.46576629 -7.78356139 -18.46576629 168.30920450" stress="0.15770378 -0.02394951 -0.00495044 -0.02394951 0.12380325 -0.01174445 -0.00495044 -0.01174445 0.13664270" Properties=species:S:1:pos:R:3
Ca 6.66162490 9.65561954 0.68395250
Ca 4.17049507 4.19963032 3.77492184
Ca 9.91123440 3.38998146 10.76720415
Ca 8.11446701 4.81882244 4.61888237
Ca 8.67576925 7.12283864 0.14604645
Ca 1.08232880 0.33680620 10.68625373
Ca 4.51956383 3.17162518 0.46479073
Ca 4.59710563 7.02006077 10.52468573
Ca 1.41005195 5.12463049 9.89122751
Ca 9.41932844 7.35597881 3.59563913
Ca 2.38494743 7.82529698 7.99262099
Ca 1.62677656 6.65629803 4.51856998
Ca 3.29344769 9.99407327 9.88243427
Ca 0.51428452 3.37067862 2.25433343
Ca 0.01726093 1.92508193 8.63275278
Ca 7.61768723 4.94331464 7.30533822
Ca 8.55961718 0.39510391 0.45735600
Ca 0.67515851 1.79682675 5.49918307
Ca 4.81971155 11.25179442 1.58987091
Ca 5.00423288 7.58952096 6.13257947
Ca 0.99689588 9.42835580 4.62628897
Ca 6.61871971 1.32186099 5.61526751
Ca 9.65476993 9.97804264 8.97209893
Ca 6.48061392 9.50643660 8.56875670
Ca 10.67440504 9.74107551 0.89108151
Ca 9.55735496 11.00634074 5.63678341
Ca 4.04488714 10.18093271 5.02152057
Si 5.58923019 0.75960135 10.39582614
Si 8.48682665 10.04643891 2.86886408
Si 2.07096662 10.33829207 1.75166177
Si 6.78665930 3.49842067 10.56884856
Si 7.16884950 8.60998468 4.91377269
Si 10.55029451 8.05269866 6.91325531
Si 10.73180990 4.86326577 7.36128590
Si 5.83092617 6.54856401 2.56540590
Si 9.22652536 2.58747975 6.32322867
Si 4.03179733 1.34998829 4.84712983
Si 4.99643672 4.36168135 8.90303072
Si 11.15937674 0.04982840 2.89822539
Si 2.43613150 1.50926415 2.61232107
Si 2.34129640 3.83796525 7.50533269
Si 4.78257845 4.00698576 6.20167264
Si 7.80806630 6.86481374 8.93203003
Si 1.79096252 7.31612297 0.92094484
Si 1.69139001 3.16214056 11.47884119
Si 4.32838579 0.24021521 7.76257556
Si 7.54279620 4.47261779 1.61016696
Si 0.35757567 8.77915188 9.48818100
Si 8.36105902 1.05277809 8.41089166
Si 3.40629230 7.78684297 2.89583864
Si 9.35484575 2.44973523 3.31393683
Si 11.12143155 6.24564790 0.45231880
Si 1.47177625 11.34608190 7.03983825
Si 11.38050475 4.58915405 4.71126463
O 9.68899693 1.76287522 1.92271371
O 10.95243393 7.56490762 1.41223351
O 3.24688544 3.38697325 8.81909641
O 7.14579073 5.12479405 9.82156560
O 5.68743098 3.56713989 7.69005911
O 9.11981247 10.38700994 11.20454282
O 6.51400645 7.99387770 3.54097671
O 4.16470444 2.48423802 2.44060262
O 10.61000988 8.26547999 10.00590082
O 1.35893469 8.84230895 0.61088133
O 7.59577324 11.13113486 2.51837258
O 1.04367099 3.14499784 7.42433267
O 4.06839780 10.15098011 7.52772322
O 8.18384977 3.22774735 2.86762113
O 10.53739645 6.36810724 6.84393473
O 7.04447824 7.87133976 10.00902805
O 0.17337485 10.50148437 9.38839190
O 5.83913405 0.20087837 8.54080461
O 0.77602128 10.99657834 1.03746572
O 6.05216073 9.53108656 5.95075062
O 4.62280015 1.03925271 6.30331449
O 10.39976555 6.02079848 10.72865949
O 6.27097303 4.46027167 0.39281772
O 6.20955959 10.83119795 10.66000493
O 4.49786528 9.01557073 2.79527860
O 0.42570168 8.11538360 7.72321831
O 8.22549957 3.82240437 11.51815487
O 8.41364523 8.54720104 1.97936159
O 1.98453046 11.46537063 5.32459574
O 5.64906003 4.91867104 2.64824088
O 6.71788935 6.93525236 7.95951841
O 6.01755727 7.33627641 1.24012931
O 9.86722918 9.53947976 7.08775269
O 3.34695988 3.30248438 6.54469178
O 5.51411424 5.25899807 5.14535634