 running on   52 total cores
 distrk:  each k-point on   52 cores,    1 groups
 distr:  one band on   13 cores,    4 groups
 using from now: INCAR     
 vasp.5.4.4.18Apr17-6-g9f103f2a35 (build Oct 31 2019 15:01:46) complex          
  
 POSCAR found type information on POSCAR  Sc Cl C 
 POSCAR found :  3 types and      80 ions
 scaLAPACK is switched off
 LDA part: xc-table for Pade appr. of Perdew
 generate k-points for:    3    3    1
 POSCAR, INCAR and KPOINTS ok, starting setup
 FFT: planning ...
 WAVECAR not read
 entering main loop
       N       E                     dE             d eps       ncg     rms          rms(c)
DAV:   1     0.122581755756E+05    0.12258E+05   -0.26786E+05  4440   0.152E+03
DAV:   2     0.174380824624E+04   -0.10514E+05   -0.10249E+05  5208   0.523E+02
DAV:   3    -0.406134894882E+03   -0.21499E+04   -0.20628E+04  6800   0.285E+02
DAV:   4    -0.644150603104E+03   -0.23802E+03   -0.23324E+03  6096   0.998E+01
DAV:   5    -0.654651295879E+03   -0.10501E+02   -0.10448E+02  6080   0.281E+01    0.702E+01
DAV:   6    -0.523681671200E+03    0.13097E+03   -0.69606E+02  5840   0.499E+01    0.303E+01
DAV:   7    -0.528602855395E+03   -0.49212E+01   -0.87285E+01  5880   0.227E+01    0.153E+01
DAV:   8    -0.526373113085E+03    0.22297E+01   -0.95469E+00  5776   0.723E+00    0.929E+00
DAV:   9    -0.525859413467E+03    0.51370E+00   -0.36159E+00  5384   0.376E+00    0.292E+00
DAV:  10    -0.525733029819E+03    0.12638E+00   -0.57866E-01  5696   0.196E+00    0.167E+00
DAV:  11    -0.525712982965E+03    0.20047E-01   -0.18763E-01  5888   0.825E-01    0.739E-01
DAV:  12    -0.525699675716E+03    0.13307E-01   -0.28843E-02  6056   0.464E-01    0.300E-01
DAV:  13    -0.525696276925E+03    0.33988E-02   -0.82656E-03  5376   0.257E-01    0.187E-01
DAV:  14    -0.525694616118E+03    0.16608E-02   -0.63711E-03  5336   0.152E-01    0.171E-01
DAV:  15    -0.525696137071E+03   -0.15210E-02   -0.17999E-03  5480   0.924E-02    0.103E-01
DAV:  16    -0.525698257917E+03   -0.21208E-02   -0.10346E-03  5824   0.568E-02    0.575E-02
DAV:  17    -0.525701893467E+03   -0.36355E-02   -0.73079E-04  4952   0.521E-02    0.330E-02
DAV:  18    -0.525703940302E+03   -0.20468E-02   -0.22391E-04  5008   0.280E-02    0.238E-02
DAV:  19    -0.525705144560E+03   -0.12043E-02   -0.13136E-04  4984   0.190E-02    0.157E-02
DAV:  20    -0.525706368808E+03   -0.12242E-02   -0.52869E-05  4424   0.136E-02    0.118E-02
DAV:  21    -0.525706819085E+03   -0.45028E-03   -0.16223E-05  4208   0.788E-03    0.852E-03
DAV:  22    -0.525707155828E+03   -0.33674E-03   -0.49750E-06  3968   0.465E-03    0.566E-03
DAV:  23    -0.525707762890E+03   -0.60706E-03   -0.14348E-05  3568   0.507E-03    0.405E-03
DAV:  24    -0.525707953272E+03   -0.19038E-03   -0.52100E-06  3784   0.336E-03    0.400E-03
DAV:  25    -0.525708027972E+03   -0.74700E-04   -0.13005E-06  2968   0.248E-03    0.220E-03
DAV:  26    -0.525708132450E+03   -0.10448E-03   -0.43101E-06  3392   0.274E-03    0.278E-03
DAV:  27    -0.525708148273E+03   -0.15823E-04   -0.36991E-07  2688   0.220E-03    0.217E-03
DAV:  28    -0.525708161240E+03   -0.12967E-04   -0.35891E-07  2664   0.157E-03    0.125E-03
DAV:  29    -0.525708168501E+03   -0.72609E-05   -0.27815E-07  2528   0.138E-03    0.532E-04
DAV:  30    -0.525708181621E+03   -0.13120E-04   -0.54694E-07  2856   0.144E-03    0.832E-04
DAV:  31    -0.525708186886E+03   -0.52658E-05   -0.22565E-07  2640   0.137E-03    0.374E-04
DAV:  32    -0.525708189998E+03   -0.31117E-05   -0.17056E-07  2512   0.853E-04    0.300E-04
DAV:  33    -0.525708190854E+03   -0.85620E-06   -0.10385E-07  2400   0.946E-04
   1 F= -.52570819E+03 E0= -.52570819E+03  d E =-.159131E-15
