 vasp.5.4.4.18Apr17-6-g9f103f2a35 (build Oct 31 2019 15:01:46) complex          
  
 executed on             LinuxIFC date 2024.04.19  00:51:48
 running on   52 total cores
 distrk:  each k-point on   52 cores,    1 groups
 distr:  one band on NCORES_PER_BAND=  13 cores,    4 groups


--------------------------------------------------------------------------------------------------------


 INCAR:
 POTCAR:    PAW_PBE Sc_sv 07Sep2000               
 POTCAR:    PAW_PBE F 08Apr2002                   
 POTCAR:    PAW_PBE C 08Apr2002                   
 POTCAR:    PAW_PBE Sc_sv 07Sep2000               
   VRHFIN =Sc: 3p4s3d                                                           
   LEXCH  = PE                                                                  
   EATOM  =  1273.2868 eV,   93.5839 Ry                                         
                                                                                
   TITEL  = PAW_PBE Sc_sv 07Sep2000                                             
   LULTRA =        F    use ultrasoft PP ?                                      
   IUNSCR =        1    unscreen: 0-lin 1-nonlin 2-no                           
   RPACOR =    2.200    partial core radius                                     
   POMASS =   44.956; ZVAL   =   11.000    mass and valenz                      
   RCORE  =    2.500    outmost cutoff radius                                   
   RWIGS  =    2.700; RWIGS  =    1.429    wigner-seitz radius (au A)           
   ENMAX  =  222.660; ENMIN  =  166.995 eV                                      
   RCLOC  =    1.805    cutoff for local pot                                    
   LCOR   =        T    correct aug charges                                     
   LPAW   =        T    paw PP                                                  
   EAUG   =  443.063                                                            
   RMAX   =    2.551    core radius for proj-oper                               
   RAUG   =    1.300    factor for augmentation sphere                          
   RDEP   =    2.650    radius for radial grids                                 
   RDEPT  =    2.038    core radius for aug-charge                              
                                                                                
   Atomic configuration                                                         
    8 entries                                                                   
     n  l   j            E        occ.                                          
     1  0  0.50     -4394.2533   2.0000                                         
     2  0  0.50      -471.0040   2.0000                                         
     2  1  1.50      -384.9788   6.0000                                         
     3  0  0.50       -52.1410   2.0000                                         
     4  0  0.50        -3.5584   1.0000                                         
     3  1  1.50       -30.8841   6.0000                                         
     3  2  2.50        -1.3655   2.0000                                         
     4  3  2.50        -1.3606   0.0000                                         
   Description                                                                  
     l       E           TYP  RCUT    TYP  RCUT                                 
     0    -52.1409870     23  1.800                                             
     0     -3.5583698     23  2.500                                             
     1    -30.8840697     23  2.300                                             
     1      4.0817478     23  2.300                                             
     2     -1.3655397     23  2.500                                             
     2      0.3564476     23  2.500                                             
  local pseudopotential read in
  partial core-charges read in
  partial kinetic energy density read in
  atomic valenz-charges read in
  non local Contribution for L=           0  read in
    real space projection operators read in
  non local Contribution for L=           0  read in
    real space projection operators read in
  non local Contribution for L=           1  read in
    real space projection operators read in
  non local Contribution for L=           1  read in
    real space projection operators read in
  non local Contribution for L=           2  read in
    real space projection operators read in
  non local Contribution for L=           2  read in
    real space projection operators read in
    PAW grid and wavefunctions read in
 
   number of l-projection  operators is LMAX  =           6
   number of lm-projection operators is LMMAX =          18
 
 POTCAR:    PAW_PBE F 08Apr2002                   
   VRHFIN =F: s2p5                                                              
   LEXCH  = PE                                                                  
   EATOM  =   659.6475 eV,   48.4827 Ry                                         
                                                                                
   TITEL  = PAW_PBE F 08Apr2002                                                 
   LULTRA =        F    use ultrasoft PP ?                                      
   IUNSCR =        1    unscreen: 0-lin 1-nonlin 2-no                           
   RPACOR =    1.200    partial core radius                                     
   POMASS =   18.998; ZVAL   =    7.000    mass and valenz                      
   RCORE  =    1.520    outmost cutoff radius                                   
   RWIGS  =    1.500; RWIGS  =    0.794    wigner-seitz radius (au A)           
   ENMAX  =  400.000; ENMIN  =  300.000 eV                                      
   ICORE  =        2    local potential                                         
   LCOR   =        T    correct aug charges                                     
   LPAW   =        T    paw PP                                                  
   EAUG   =  613.614                                                            
   RMAX   =    1.555    core radius for proj-oper                               
   RAUG   =    1.300    factor for augmentation sphere                          
   RDEP   =    1.539    radius for radial grids                                 
   RDEPT  =    1.299    core radius for aug-charge                              
                                                                                
   Atomic configuration                                                         
    4 entries                                                                   
     n  l   j            E        occ.                                          
     1  0  0.50      -663.3661   2.0000                                         
     2  0  0.50       -29.8995   2.0000                                         
     2  1  0.50       -11.1114   5.0000                                         
     3  2  1.50       -10.8847   0.0000                                         
   Description                                                                  
     l       E           TYP  RCUT    TYP  RCUT                                 
     0    -29.8995018     23  1.200                                             
     0     -9.5240782     23  1.200                                             
     1    -11.1113914     23  1.520                                             
     1      1.3605826     23  1.520                                             
     2    -10.8846608      7  1.500                                             
  local pseudopotential read in
  partial core-charges read in
  partial kinetic energy density read in
  atomic valenz-charges read in
  non local Contribution for L=           0  read in
    real space projection operators read in
  non local Contribution for L=           0  read in
    real space projection operators read in
  non local Contribution for L=           1  read in
    real space projection operators read in
  non local Contribution for L=           1  read in
    real space projection operators read in
    PAW grid and wavefunctions read in
 
   number of l-projection  operators is LMAX  =           4
   number of lm-projection operators is LMMAX =           8
 
 POTCAR:    PAW_PBE C 08Apr2002                   
   VRHFIN =C: s2p2                                                              
   LEXCH  = PE                                                                  
   EATOM  =   147.1560 eV,   10.8157 Ry                                         
                                                                                
   TITEL  = PAW_PBE C 08Apr2002                                                 
   LULTRA =        F    use ultrasoft PP ?                                      
   IUNSCR =        1    unscreen: 0-lin 1-nonlin 2-no                           
   RPACOR =    1.200    partial core radius                                     
   POMASS =   12.011; ZVAL   =    4.000    mass and valenz                      
   RCORE  =    1.500    outmost cutoff radius                                   
   RWIGS  =    1.630; RWIGS  =    0.863    wigner-seitz radius (au A)           
   ENMAX  =  400.000; ENMIN  =  300.000 eV                                      
   ICORE  =        2    local potential                                         
   LCOR   =        T    correct aug charges                                     
   LPAW   =        T    paw PP                                                  
   EAUG   =  644.873                                                            
   DEXC   =    0.000                                                            
   RMAX   =    1.529    core radius for proj-oper                               
   RAUG   =    1.300    factor for augmentation sphere                          
   RDEP   =    1.501    radius for radial grids                                 
   RDEPT  =    1.300    core radius for aug-charge                              
                                                                                
   Atomic configuration                                                         
    4 entries                                                                   
     n  l   j            E        occ.                                          
     1  0  0.50      -273.3789   2.0000                                         
     2  0  0.50       -13.7508   2.0000                                         
     2  1  0.50        -5.2854   2.0000                                         
     3  2  1.50        -5.4423   0.0000                                         
   Description                                                                  
     l       E           TYP  RCUT    TYP  RCUT                                 
     0    -13.7508458     23  1.200                                             
     0     -8.2022199     23  1.200                                             
     1     -5.2854383     23  1.500                                             
     1     34.0145650     23  1.500                                             
     2     -5.4423304      7  1.500                                             
  local pseudopotential read in
  partial core-charges read in
  partial kinetic energy density read in
  atomic valenz-charges read in
  non local Contribution for L=           0  read in
    real space projection operators read in
  non local Contribution for L=           0  read in
    real space projection operators read in
  non local Contribution for L=           1  read in
    real space projection operators read in
  non local Contribution for L=           1  read in
    real space projection operators read in
    PAW grid and wavefunctions read in
 
   number of l-projection  operators is LMAX  =           4
   number of lm-projection operators is LMMAX =           8
 
 Optimization of the real space projectors (new method)

 maximal supplied QI-value         = 15.12
 optimisation between [QCUT,QGAM] = [ 12.55, 25.10] = [ 44.09,176.36] Ry 
 Optimized for a Real-space Cutoff    1.56 Angstroem

   l    n(q)    QCUT    max X(q) W(low)/X(q) W(high)/X(q)  e(spline) 
   0     12    12.548     2.962    0.12E-05    0.11E-06    0.46E-07
   0     12    12.548    26.414    0.30E-04    0.15E-05    0.76E-07
   1     11    12.548     3.969    0.45E-05    0.12E-05    0.60E-07
   1     11    12.548     5.137    0.15E-04    0.18E-04    0.36E-06
   2     11    12.548   143.970    0.20E-03    0.19E-03    0.76E-06
   2     11    12.548   121.201    0.20E-03    0.19E-03    0.76E-06
 Optimization of the real space projectors (new method)

 maximal supplied QI-value         = 24.76
 optimisation between [QCUT,QGAM] = [ 12.38, 25.00] = [ 42.90,175.06] Ry 
 Optimized for a Real-space Cutoff    1.16 Angstroem

   l    n(q)    QCUT    max X(q) W(low)/X(q) W(high)/X(q)  e(spline) 
   0      9    12.378    14.049    0.11E-03    0.38E-05    0.23E-06
   0      9    12.378     8.945    0.15E-03    0.56E-05    0.30E-06
   1      8    12.378     7.086    0.18E-03    0.14E-03    0.29E-06
   1      8    12.378     6.747    0.16E-03    0.13E-03    0.26E-06
 Optimization of the real space projectors (new method)

 maximal supplied QI-value         = 25.13
 optimisation between [QCUT,QGAM] = [ 12.32, 24.88] = [ 42.47,173.37] Ry 
 Optimized for a Real-space Cutoff    1.16 Angstroem

   l    n(q)    QCUT    max X(q) W(low)/X(q) W(high)/X(q)  e(spline) 
   0      9    12.315   115.676    0.19E-03    0.80E-05    0.34E-06
   0      9    12.315    87.132    0.19E-03    0.82E-05    0.34E-06
   1      8    12.315     4.429    0.18E-03    0.13E-03    0.22E-06
   1      8    12.315     2.733    0.14E-03    0.10E-03    0.18E-06
  PAW_PBE Sc_sv 07Sep2000               :
 energy of atom  1       EATOM=-1273.2868
 kinetic energy error for atom=    0.0014 (will be added to EATOM!!)
  PAW_PBE F 08Apr2002                   :
 energy of atom  2       EATOM= -659.6475
 kinetic energy error for atom=    0.0256 (will be added to EATOM!!)
  PAW_PBE C 08Apr2002                   :
 energy of atom  3       EATOM= -147.1560
 kinetic energy error for atom=    0.0057 (will be added to EATOM!!)
 
 
 POSCAR: Sc  F  C                                
  positions in cartesian coordinates
  No initial velocities read in
 exchange correlation table for  LEXCH =        8
   RHO(1)=    0.500       N(1)  =     2000
   RHO(2)=  100.500       N(2)  =     4000
 


--------------------------------------------------------------------------------------------------------


 ion  position               nearest neighbor table
   1  0.085  0.167  0.455-  70 2.17  65 2.20  61 2.22  50 2.31  66 2.32  49 2.42  29 3.09  17 3.13
                            18 3.15  13 3.18   5 3.19   6 3.24   4 3.25   2 3.37  16 3.42
   2  0.081  0.421  0.450-  62 2.02  50 2.05  51 2.08  67 2.29  71 2.36  66 2.39  19 3.16  13 3.17
                             7 3.19   3 3.19  14 3.22  18 3.28  30 3.29   6 3.30   1 3.37
   3  0.086  0.667  0.451-  63 2.14  67 2.20  52 2.20  51 2.29  68 2.30  72 2.31   2 3.19   7 3.20
                            20 3.22  15 3.22  19 3.22  31 3.24   8 3.32   4 3.32  14 3.33
   4  0.076  0.915  0.454-  49 2.15  65 2.15  64 2.18  68 2.22  52 2.32  69 2.50  32 3.09  20 3.11
                            15 3.15  17 3.20  16 3.23   5 3.25   1 3.25   3 3.32   8 3.43
   5  0.324  0.161  0.454-  49 2.06  54 2.14  69 2.19  70 2.24  53 2.28  74 2.38  22 3.06  17 3.14
                             1 3.19  21 3.23   4 3.25   8 3.28   6 3.32   9 3.37  10 3.40
   6  0.329  0.415  0.450-  50 2.13  71 2.17  54 2.20  55 2.22  70 2.30  75 2.35  22 3.11  23 3.12
                            18 3.24   1 3.24   7 3.25  11 3.25   2 3.30   5 3.32  10 3.36
   7  0.326  0.661  0.452-  56 2.08  51 2.12  71 2.25  55 2.25  72 2.26  76 2.42  19 3.11  23 3.16
                             2 3.19   3 3.20  11 3.24   6 3.25   8 3.29  24 3.30  12 3.38
   8  0.339  0.918  0.453-  53 2.08  56 2.22  52 2.26  69 2.28  72 2.31  73 2.32  20 3.09   9 3.20
                            24 3.21  12 3.23  21 3.27   5 3.28   7 3.29   3 3.32   4 3.43
   9  0.582  0.162  0.456-  57 2.23  53 2.25  78 2.29  73 2.32  74 2.34  58 2.35  25 3.14  21 3.15
                            26 3.17   8 3.20  12 3.23  14 3.29  10 3.32   5 3.37  13 3.40
  10  0.586  0.417  0.452-  59 2.16  58 2.26  75 2.27  79 2.29  74 2.31  54 2.35  26 3.04  27 3.20
                            22 3.25  14 3.25   9 3.32  11 3.33  15 3.34   6 3.36   5 3.40
  11  0.575  0.665  0.450-  60 2.18  76 2.24  75 2.24  59 2.27  80 2.29  55 2.32  23 3.09  28 3.17
                            27 3.20  16 3.23   7 3.24   6 3.25  12 3.25  10 3.33
  12  0.585  0.917  0.454-  77 2.25  76 2.26  73 2.26  57 2.29  60 2.31  56 2.40  28 3.06  24 3.23
                             8 3.23   9 3.23  16 3.25  11 3.25  25 3.26   7 3.38  13 3.40
  13  0.846  0.174  0.455-  61 2.15  62 2.16  66 2.20  57 2.28  77 2.30  78 2.32  30 3.13  29 3.15
                             2 3.17   1 3.18  25 3.22  14 3.25  16 3.40   9 3.40  12 3.40
  14  0.831  0.413  0.451-  58 2.16  63 2.27  79 2.29  67 2.30  78 2.32  62 2.35  30 3.20   2 3.22
                            13 3.25  10 3.25  26 3.29   9 3.29  15 3.30   3 3.33  31 3.34
  15  0.842  0.669  0.452-  63 2.17  68 2.23  80 2.28  79 2.29  64 2.31  59 2.32  32 3.14   4 3.15
                            31 3.18  16 3.21   3 3.22  27 3.25  14 3.30  10 3.34
  16  0.826  0.905  0.448-  80 2.24  64 2.27  60 2.27  61 2.33  77 2.36  65 2.47  28 3.13  15 3.21
                            11 3.23   4 3.23  32 3.23  12 3.25  29 3.35  13 3.40   1 3.42
  17  0.166  0.084  0.549-  36 2.11  37 2.16  33 2.21  65 2.26  70 2.32  69 2.37  22 3.12   1 3.13
                             5 3.14  29 3.17   4 3.20  20 3.24  21 3.29  18 3.30  32 3.32
  18  0.166  0.336  0.548-  34 2.04  33 2.17  66 2.21  38 2.24  71 2.28  70 2.33  22 3.12   1 3.15
                            19 3.17  23 3.22   6 3.24  29 3.26   2 3.28  17 3.30  30 3.31
  19  0.169  0.579  0.547-  39 2.24  34 2.25  35 2.25  72 2.29  67 2.32  71 2.34   7 3.11   2 3.16
                            18 3.17   3 3.22  23 3.26  30 3.28  24 3.30  31 3.33  20 3.42
  20  0.175  0.842  0.545-  40 2.12  69 2.20  36 2.23  72 2.28  68 2.31  35 2.50   8 3.09   4 3.11
                             3 3.22  21 3.23  17 3.24  24 3.25  31 3.29  32 3.34  19 3.42
  21  0.419  0.089  0.551-  37 2.14  69 2.20  74 2.26  40 2.27  41 2.37  73 2.39   9 3.15  26 3.18
                             5 3.23  20 3.23  22 3.26   8 3.27  17 3.29  25 3.35  24 3.35
  22  0.398  0.326  0.544-  70 2.11  38 2.16  74 2.26  37 2.32  42 2.34  75 2.37   5 3.06   6 3.11
                            17 3.12  18 3.12  23 3.18  10 3.25  21 3.26  26 3.27
  23  0.416  0.577  0.544-  39 2.20  75 2.20  71 2.21  38 2.22  76 2.31  43 2.39  11 3.09   6 3.12
                             7 3.16  27 3.18  22 3.18  18 3.22  19 3.26  28 3.34  24 3.37
  24  0.417  0.834  0.551-  44 2.20  73 2.21  39 2.26  72 2.32  40 2.32  76 2.35   8 3.21  12 3.23
                            20 3.25  28 3.27   7 3.30  19 3.30  21 3.35  23 3.37  25 3.38
  25  0.675  0.091  0.550-  78 2.20  45 2.22  73 2.31  41 2.33  44 2.34  77 2.35   9 3.14  30 3.17
                            13 3.22  12 3.26  29 3.33  28 3.33  21 3.35  24 3.38  26 3.40
  26  0.653  0.339  0.547-  41 2.12  74 2.13  42 2.16  79 2.27  78 2.45  46 2.49  10 3.04   9 3.17
                            21 3.18  27 3.22  22 3.27  14 3.29  25 3.40
  27  0.664  0.589  0.547-  47 2.20  80 2.22  43 2.23  42 2.25  75 2.27  79 2.39  23 3.18  28 3.20
                            10 3.20  11 3.20  32 3.22  26 3.22  15 3.25  31 3.38
  28  0.667  0.834  0.544-  76 2.16  77 2.24  43 2.24  44 2.26  80 2.31  48 2.40  12 3.06  16 3.13
                            11 3.17  27 3.20  24 3.27  32 3.28  29 3.31  25 3.33  23 3.34
  29  0.923  0.082  0.548-  33 2.14  45 2.17  48 2.18  65 2.28  66 2.30  77 2.36   1 3.09  13 3.15
                            17 3.17  32 3.25  18 3.26  28 3.31  25 3.33  16 3.35  30 3.39
  30  0.914  0.335  0.550-  45 2.14  46 2.20  78 2.25  66 2.29  34 2.37  67 2.41  13 3.13  25 3.17
                            14 3.20  19 3.28   2 3.29  18 3.31  31 3.33  29 3.39
  31  0.923  0.593  0.550-  35 2.11  47 2.13  46 2.20  68 2.25  67 2.32  79 2.35  32 3.17  15 3.18
                             3 3.24  20 3.29  19 3.33  30 3.33  14 3.34  27 3.38
  32  0.914  0.830  0.547-  36 2.15  48 2.16  47 2.19  68 2.30  65 2.35  80 2.36   4 3.09  15 3.14
                            31 3.17  27 3.22  16 3.23  29 3.25  28 3.28  17 3.32  20 3.34
  33  0.084  0.172  0.590-  29 2.14  18 2.17  17 2.21
  34  0.096  0.413  0.592-  18 2.04  19 2.25  30 2.37
  35  0.078  0.654  0.592-  31 2.11  19 2.25  20 2.50
  36  0.080  0.919  0.585-  17 2.11  32 2.15  20 2.23
  37  0.326  0.157  0.592-  21 2.14  17 2.16  22 2.32
  38  0.335  0.416  0.591-  22 2.16  23 2.22  18 2.24
  39  0.337  0.657  0.590-  23 2.20  19 2.24  24 2.26
  40  0.322  0.916  0.593-  20 2.12  21 2.27  24 2.32
  41  0.599  0.191  0.595-  26 2.12  25 2.33  21 2.37
  42  0.572  0.419  0.590-  26 2.16  27 2.25  22 2.34
  43  0.589  0.676  0.594-  27 2.23  28 2.24  23 2.39
  44  0.583  0.912  0.593-  24 2.20  28 2.26  25 2.34
  45  0.847  0.172  0.589-  30 2.14  29 2.17  25 2.22
  46  0.844  0.429  0.593-  31 2.20  30 2.20  26 2.49
  47  0.831  0.664  0.588-  31 2.13  32 2.19  27 2.20
  48  0.846  0.920  0.591-  32 2.16  29 2.18  28 2.40
  49  0.175  0.072  0.411-   5 2.06   4 2.15   1 2.42
  50  0.162  0.344  0.414-   2 2.05   6 2.13   1 2.31
  51  0.171  0.576  0.409-   2 2.08   7 2.12   3 2.29
  52  0.169  0.834  0.409-   3 2.20   8 2.26   4 2.32
  53  0.413  0.074  0.412-   8 2.08   9 2.25   5 2.28
  54  0.404  0.320  0.411-   5 2.14   6 2.20  10 2.35
  55  0.403  0.577  0.403-   6 2.22   7 2.25  11 2.32
  56  0.401  0.815  0.410-   7 2.08   8 2.22  12 2.40
  57  0.675  0.092  0.411-   9 2.23  13 2.28  12 2.29
  58  0.672  0.335  0.408-  14 2.16  10 2.26   9 2.35
  59  0.663  0.578  0.410-  10 2.16  11 2.27  15 2.32
  60  0.655  0.823  0.404-  11 2.18  16 2.27  12 2.31
  61  0.920  0.090  0.411-  13 2.15   1 2.22  16 2.33
  62  0.932  0.331  0.410-   2 2.02  13 2.16  14 2.35
  63  0.923  0.587  0.410-   3 2.14  15 2.17  14 2.27
  64  0.926  0.838  0.404-   4 2.18  16 2.27  15 2.31
  65  0.007  0.003  0.499-   4 2.15   1 2.20  17 2.26  29 2.28  32 2.35  16 2.47
  66  0.003  0.254  0.504-  13 2.20  18 2.21  30 2.29  29 2.30   1 2.32   2 2.39
  67  0.001  0.508  0.498-   3 2.20   2 2.29  14 2.30  19 2.32  31 2.32  30 2.41
  68  0.003  0.751  0.499-   4 2.22  15 2.23  31 2.25  32 2.30   3 2.30  20 2.31
  69  0.264  0.007  0.502-   5 2.19  21 2.20  20 2.20   8 2.28  17 2.37   4 2.50
  70  0.246  0.249  0.498-  22 2.11   1 2.17   5 2.24   6 2.30  17 2.32  18 2.33
  71  0.255  0.496  0.497-   6 2.17  23 2.21   7 2.25  18 2.28  19 2.34   2 2.36
  72  0.251  0.748  0.501-   7 2.26  20 2.28  19 2.29   8 2.31   3 2.31  24 2.32
  73  0.503  0.994  0.505-  24 2.21  12 2.26  25 2.31   9 2.32   8 2.32  21 2.39
  74  0.498  0.252  0.503-  26 2.13  22 2.26  21 2.26  10 2.31   9 2.34   5 2.38
  75  0.502  0.503  0.497-  23 2.20  11 2.24  10 2.27  27 2.27   6 2.35  22 2.37
  76  0.506  0.753  0.501-  28 2.16  11 2.24  12 2.26  23 2.31  24 2.35   7 2.42
  77  0.751  0.001  0.499-  28 2.24  12 2.25  13 2.30  25 2.35  29 2.36  16 2.36
  78  0.751  0.249  0.502-  25 2.20  30 2.25   9 2.29  14 2.32  13 2.32  26 2.45
  79  0.754  0.502  0.499-  26 2.27  10 2.29  14 2.29  15 2.29  31 2.35  27 2.39
  80  0.745  0.743  0.496-  27 2.22  16 2.24  15 2.28  11 2.29  28 2.31  32 2.36
 
  LATTYP: Found a hexagonal cell.
 ALAT       =    13.1286233990
 C/A-ratio  =     2.0434811347
  
  Lattice vectors:
  
 A1 = (  13.1286234000,   0.0000000000,   0.0000000000)
 A2 = (  -6.5643117000,  11.3697213800,   0.0000000000)
 A3 = (   0.0000000000,   0.0000000000,  26.8280942400)


Analysis of symmetry for initial positions (statically):
=====================================================================
 Subroutine PRICEL returns:
 Original cell was already a primitive cell.
 

 Routine SETGRP: Setting up the symmetry group for a 
 hexagonal supercell.


 Subroutine GETGRP returns: Found  1 space group operations
 (whereof  1 operations were pure point group operations)
 out of a pool of 24 trial point group operations.


The static configuration has the point symmetry C_1 .


Analysis of symmetry for dynamics (positions and initial velocities):
=====================================================================
 Subroutine PRICEL returns:
 Original cell was already a primitive cell.
 

 Routine SETGRP: Setting up the symmetry group for a 
 hexagonal supercell.


 Subroutine GETGRP returns: Found  1 space group operations
 (whereof  1 operations were pure point group operations)
 out of a pool of 24 trial point group operations.


The dynamic configuration has the point symmetry C_1 .


 Subroutine INISYM returns: Found  1 space group operations
 (whereof  1 operations are pure point group operations),
 and found     1 'primitive' translations

 
 

Automatic generation of k-mesh.
 generate k-points for:    3    3    1
Space group operators:
 irot       det(A)        alpha          n_x          n_y          n_z        tau_x        tau_y        tau_z
    1     1.000000     0.000000     1.000000     0.000000     0.000000     0.000000     0.000000     0.000000
 
 Subroutine IBZKPT returns following result:
 ===========================================
 
 Found      5 irreducible k-points:
 
 Following reciprocal coordinates:
            Coordinates               Weight
  0.000000  0.000000  0.000000      1.000000
  0.333333 -0.000000  0.000000      2.000000
  0.000000  0.333333  0.000000      2.000000
  0.333333  0.333333  0.000000      2.000000
 -0.333333  0.333333  0.000000      2.000000
 
 Following cartesian coordinates:
            Coordinates               Weight
  0.000000  0.000000  0.000000      1.000000
  0.025390  0.014659  0.000000      2.000000
  0.000000  0.029318  0.000000      2.000000
  0.025390  0.043976  0.000000      2.000000
 -0.025390  0.014659  0.000000      2.000000
 


--------------------------------------------------------------------------------------------------------




 Dimension of arrays:
   k-points           NKPTS =      5   k-points in BZ     NKDIM =      5   number of bands    NBANDS=    384
   number of dos      NEDOS =    301   number of ions     NIONS =     80
   non local maximal  LDIM  =      6   non local SUM 2l+1 LMDIM =     18
   total plane-waves  NPLWV = ******
   max r-space proj   IRMAX =  10060   max aug-charges    IRDMAX= 222480
   dimension x,y,z NGX =   108 NGY =  108 NGZ =  216
   dimension x,y,z NGXF=   216 NGYF=  216 NGZF=  432
   support grid    NGXF=   432 NGYF=  432 NGZF=  864
   ions per type =              32  32  16
   NGX,Y,Z   is equivalent  to a cutoff of  13.68, 13.68, 13.38 a.u.
   NGXF,Y,Z  is equivalent  to a cutoff of  27.35, 27.35, 26.77 a.u.

 SYSTEM =  unknown system                          
 POSCAR =  Sc  F  C                                

 Startparameter for this run:
   NWRITE =      2    write-flag & timer
   PREC   = anorma    normal or accurate (medium, high low for compatibility)
   ISTART =      0    job   : 0-new  1-cont  2-samecut
   ICHARG =      2    charge: 1-file 2-atom 10-const
   ISPIN  =      1    spin polarized calculation?
   LNONCOLLINEAR =      F non collinear calculations
   LSORBIT =      F    spin-orbit coupling
   INIWAV =      1    electr: 0-lowe 1-rand  2-diag
   LASPH  =      F    aspherical Exc in radial PAW
   METAGGA=      F    non-selfconsistent MetaGGA calc.

 Electronic Relaxation 1
   ENCUT  =  600.0 eV  44.10 Ry    6.64 a.u.  26.22 26.22 53.58*2*pi/ulx,y,z
   ENINI  =  600.0     initial cutoff
   ENAUG  =  644.9 eV  augmentation charge cutoff
   NELM   =     60;   NELMIN=  2; NELMDL= -5     # of ELM steps 
   EDIFF  = 0.1E-05   stopping-criterion for ELM
   LREAL  =      T    real-space projection
   NLSPLINE    = F    spline interpolate recip. space projectors
   LCOMPAT=      F    compatible to vasp.4.4
   GGA_COMPAT  = T    GGA compatible to vasp.4.4-vasp.4.6
   LMAXPAW     = -100 max onsite density
   LMAXMIX     =    2 max onsite mixed and CHGCAR
   VOSKOWN=      0    Vosko Wilk Nusair interpolation
   ROPT   =   -0.00025  -0.00025  -0.00025
 Ionic relaxation
   EDIFFG = -.1E-01   stopping-criterion for IOM
   NSW    =      1    number of steps for IOM
   NBLOCK =      1;   KBLOCK =      1    inner block; outer block 
   IBRION =     -1    ionic relax: 0-MD 1-quasi-New 2-CG
   NFREE  =      0    steps in history (QN), initial steepest desc. (CG)
   ISIF   =      2    stress and relaxation
   IWAVPR =     10    prediction:  0-non 1-charg 2-wave 3-comb
   ISYM   =      2    0-nonsym 1-usesym 2-fastsym
   LCORR  =      T    Harris-Foulkes like correction to forces

   POTIM  = 1.0000    time-step for ionic-motion
   TEIN   =    0.0    initial temperature
   TEBEG  =    0.0;   TEEND  =   0.0 temperature during run
   SMASS  =  -3.00    Nose mass-parameter (am)
   estimated Nose-frequenzy (Omega)   =  0.10E-29 period in steps =****** mass=  -0.394E-26a.u.
   SCALEE = 1.0000    scale energy and forces
   NPACO  =    256;   APACO  = 16.0  distance and # of slots for P.C.
   PSTRESS=    0.0 pullay stress

  Mass of Ions in am
   POMASS =  44.96 19.00 12.01
  Ionic Valenz
   ZVAL   =  11.00  7.00  4.00
  Atomic Wigner-Seitz radii
   RWIGS  =  -1.00 -1.00 -1.00
  virtual crystal weights 
   VCA    =   1.00  1.00  1.00
   NELECT =     640.0000    total number of electrons
   NUPDOWN=      -1.0000    fix difference up-down

 DOS related values:
   EMIN   =  10.00;   EMAX   =-10.00  energy-range for DOS
   EFERMI =   0.00
   ISMEAR =     0;   SIGMA  =   0.05  broadening in eV -4-tet -1-fermi 0-gaus

 Electronic relaxation 2 (details)
   IALGO  =     38    algorithm
   LDIAG  =      T    sub-space diagonalisation (order eigenvalues)
   LSUBROT=      F    optimize rotation matrix (better conditioning)
   TURBO    =      0    0=normal 1=particle mesh
   IRESTART =      0    0=no restart 2=restart with 2 vectors
   NREBOOT  =      0    no. of reboots
   NMIN     =      0    reboot dimension
   EREF     =   0.00    reference energy to select bands
   IMIX   =      4    mixing-type and parameters
     AMIX     =   0.40;   BMIX     =  1.00
     AMIX_MAG =   1.60;   BMIX_MAG =  1.00
     AMIN     =   0.10
     WC   =   100.;   INIMIX=   1;  MIXPRE=   1;  MAXMIX= -45

 Intra band minimization:
   WEIMIN = 0.0000     energy-eigenvalue tresh-hold
   EBREAK =  0.65E-09  absolut break condition
   DEPER  =   0.30     relativ break condition  

   TIME   =   0.40     timestep for ELM

  volume/ion in A,a.u.               =      50.06       337.80
  Fermi-wavevector in a.u.,A,eV,Ry     =   0.888414  1.678858 10.738790  0.789279
  Thomas-Fermi vector in A             =   2.009840
 
 Write flags
   LWAVE        =      F    write WAVECAR
   LDOWNSAMPLE  =      F    k-point downsampling of WAVECAR
   LCHARG       =      F    write CHGCAR
   LVTOT        =      F    write LOCPOT, total local potential
   LVHAR        =      F    write LOCPOT, Hartree potential only
   LELF         =      F    write electronic localiz. function (ELF)
   LORBIT       =      0    0 simple, 1 ext, 2 COOP (PROOUT), +10 PAW based schemes


 Dipole corrections
   LMONO  =      F    monopole corrections only (constant potential shift)
   LDIPOL =      F    correct potential (dipole corrections)
   IDIPOL =      0    1-x, 2-y, 3-z, 4-all directions 
   EPSILON=  1.0000000 bulk dielectric constant

 Exchange correlation treatment:
   GGA     =    --    GGA type
   LEXCH   =     8    internal setting for exchange type
   VOSKOWN=      0    Vosko Wilk Nusair interpolation
   LHFCALC =     F    Hartree Fock is set to
   LHFONE  =     F    Hartree Fock one center treatment
   AEXX    =    0.0000 exact exchange contribution

 Linear response parameters
   LEPSILON=     F    determine dielectric tensor
   LRPA    =     F    only Hartree local field effects (RPA)
   LNABLA  =     F    use nabla operator in PAW spheres
   LVEL    =     F    velocity operator in full k-point grid
   LINTERFAST=   F  fast interpolation
   KINTER  =     0    interpolate to denser k-point grid
   CSHIFT  =0.1000    complex shift for real part using Kramers Kronig
   OMEGAMAX=  -1.0    maximum frequency
   DEG_THRESHOLD= 0.2000000E-02 threshold for treating states as degnerate
   RTIME   =   -0.100 relaxation time in fs
  (WPLASMAI=    0.000 imaginary part of plasma frequency in eV, 0.658/RTIME)
   DFIELD  = 0.0000000 0.0000000 0.0000000 field for delta impulse in time
 
 Orbital magnetization related:
   ORBITALMAG=     F  switch on orbital magnetization
   LCHIMAG   =     F  perturbation theory with respect to B field
   DQ        =  0.001000  dq finite difference perturbation B field
   LLRAUG    =     F  two centre corrections for induced B field



--------------------------------------------------------------------------------------------------------


 Static calculation
 charge density and potential will be updated during run
 non-spin polarized calculation
 Variant of blocked Davidson
 Davidson routine will perform the subspace rotation
 perform sub-space diagonalisation
    after iterative eigenvector-optimisation
 modified Broyden-mixing scheme, WC =      100.0
 initial mixing is a Kerker type mixing with AMIX =  0.4000 and BMIX =      1.0000
 Hartree-type preconditioning will be used
 using additional bands           64
 real space projection scheme for non local part
 use partial core corrections
 calculate Harris-corrections to forces 
   (improved forces if not selfconsistent)
 use gradient corrections 
 use of overlap-Matrix (Vanderbilt PP)
 Gauss-broadening in eV      SIGMA  =   0.05


--------------------------------------------------------------------------------------------------------


  energy-cutoff  :      600.00
  volume of cell :     4004.60
      direct lattice vectors                 reciprocal lattice vectors
    13.128623400  0.000000000  0.000000000     0.076169448  0.043976451  0.000000000
    -6.564311700 11.369721380  0.000000000     0.000000000  0.087952903  0.000000000
     0.000000000  0.000000000 26.828094240     0.000000000  0.000000000  0.037274358

  length of vectors
    13.128623400 13.128623399 26.828094240     0.087952903  0.087952903  0.037274358


 
 k-points in units of 2pi/SCALE and weight: read from INCAR                         
   0.00000000  0.00000000  0.00000000       0.111
   0.02538982  0.01465882  0.00000000       0.222
   0.00000000  0.02931763  0.00000000       0.222
   0.02538982  0.04397645  0.00000000       0.222
  -0.02538982  0.01465882  0.00000000       0.222
 
 k-points in reciprocal lattice and weights: read from INCAR                         
   0.00000000  0.00000000  0.00000000       0.111
   0.33333333 -0.00000000  0.00000000       0.222
   0.00000000  0.33333333  0.00000000       0.222
   0.33333333  0.33333333  0.00000000       0.222
  -0.33333333  0.33333333  0.00000000       0.222
 
 position of ions in fractional coordinates (direct lattice) 
   0.08468573  0.16656797  0.45542829
   0.08088432  0.42126167  0.44970501
   0.08565276  0.66655345  0.45062436
   0.07592139  0.91456448  0.45421306
   0.32426153  0.16068678  0.45353274
   0.32910769  0.41547326  0.44953951
   0.32639814  0.66138803  0.45193493
   0.33893532  0.91826003  0.45317022
   0.58166140  0.16225733  0.45617950
   0.58560193  0.41708648  0.45249349
   0.57469297  0.66489317  0.45012394
   0.58453381  0.91736332  0.45377325
   0.84637489  0.17375205  0.45503067
   0.83148324  0.41321393  0.45135363
   0.84151366  0.66918996  0.45172095
   0.82570749  0.90534221  0.44848646
   0.16565182  0.08420222  0.54922790
   0.16606059  0.33609605  0.54840981
   0.16888204  0.57916831  0.54660068
   0.17453800  0.84230357  0.54463051
   0.41885590  0.08934215  0.55103772
   0.39792272  0.32569949  0.54363328
   0.41587252  0.57656363  0.54352552
   0.41746897  0.83353645  0.55094103
   0.67482348  0.09140980  0.55031110
   0.65303055  0.33868486  0.54743320
   0.66406807  0.58938722  0.54682634
   0.66672096  0.83441430  0.54382528
   0.92323473  0.08200905  0.54823550
   0.91361114  0.33495345  0.54956305
   0.92293849  0.59309534  0.54957640
   0.91411180  0.82978433  0.54684163
   0.08396920  0.17196565  0.58963759
   0.09609297  0.41312191  0.59197563
   0.07765889  0.65385667  0.59245071
   0.07994456  0.91898400  0.58515771
   0.32593307  0.15731983  0.59223935
   0.33506850  0.41611262  0.59095582
   0.33698650  0.65723865  0.58982125
   0.32181356  0.91636897  0.59295380
   0.59888028  0.19098889  0.59489681
   0.57214504  0.41929345  0.58987474
   0.58906530  0.67599110  0.59372720
   0.58336900  0.91177643  0.59323103
   0.84748744  0.17185581  0.58867753
   0.84393629  0.42913244  0.59291194
   0.83108411  0.66414514  0.58832896
   0.84625604  0.91956982  0.59112905
   0.17483041  0.07161693  0.41098507
   0.16194340  0.34355333  0.41381823
   0.17080700  0.57634013  0.40882645
   0.16940743  0.83404735  0.40926031
   0.41278445  0.07394134  0.41232206
   0.40389413  0.31986533  0.41112759
   0.40327220  0.57691762  0.40320817
   0.40058964  0.81483775  0.40991150
   0.67512153  0.09170690  0.41089225
   0.67169728  0.33462102  0.40810360
   0.66304637  0.57802846  0.40987856
   0.65549250  0.82263720  0.40422704
   0.92049694  0.09004678  0.41097309
   0.93154574  0.33115977  0.40979195
   0.92296799  0.58713463  0.41015657
   0.92638866  0.83796964  0.40359294
   0.00684316  0.00263172  0.49887558
   0.00263639  0.25425344  0.50359760
   0.00136289  0.50797120  0.49778369
   0.00290857  0.75095994  0.49895965
   0.26436874  0.00712325  0.50201570
   0.24612374  0.24893361  0.49832869
   0.25466107  0.49557115  0.49726840
   0.25144202  0.74839550  0.50062753
   0.50286642  0.99410380  0.50484854
   0.49777000  0.25243364  0.50296359
   0.50232813  0.50273743  0.49743571
   0.50588799  0.75262676  0.50067225
   0.75109815  0.00072807  0.49892606
   0.75057366  0.24865291  0.50236374
   0.75365492  0.50163384  0.49926787
   0.74452492  0.74347173  0.49583627
 
 position of ions in cartesian coordinates  (Angst):
   0.01840299  1.89383142 12.21827310
  -1.70339308  4.78962778 12.06472835
  -3.25096171  7.57852697 12.08939273
  -5.00674294 10.39834333 12.18567076
   3.20230940  1.82696390 12.16741916
   1.59343497  4.72381520 12.06028842
  -0.05639894  7.51979759 12.12455300
  -1.57799088 10.44036068 12.15769339
   6.57130584  1.84482062 12.23842675
   4.95026156  4.74215708 12.13953812
   3.18036154  7.55965011 12.07596739
   1.65226544 10.43016538 12.17387152
   9.97117456  1.97551245 12.20760569
   8.20376522  4.69812731 12.10895783
   6.65514446  7.60850345 12.11881216
   4.89745418 10.29348866 12.03203702
   1.62205073  0.95735574 14.73473783
  -0.02609230  3.82131842 14.71279013
  -1.58465265  6.58498229 14.66425463
  -3.23769953  9.57675689 14.61139878
   4.91253161  1.01579531 14.78329179
   3.08618451  3.70311249 14.58464487
   1.67509034  6.55536785 14.58175379
   0.00919982  9.47707717 14.78069790
   8.25946096  1.03930397 14.76379806
   6.35015916  3.85075245 14.68658961
   4.84937825  6.70116846 14.67030862
   3.27577279  9.48705814 14.58979574
  11.58246810  0.93242003 14.70811353
   9.79571771  3.80832736 14.74372922
   8.22364924  6.74332875 14.74408737
   6.55406661  9.43441663 14.67071866
  -0.02643619  1.95520153 15.81885285
  -1.45029253  4.69708105 15.88157796
  -3.27256466  7.43416812 15.89432347
  -4.98293540 10.44859200 15.69866621
   3.24635619  1.78868261 15.88865313
   1.66749530  4.73108450 15.85421835
   0.10984942  7.47262036 15.82378000
  -1.79036253 10.41885988 15.90782047
   6.60876311  2.17149047 15.95994760
   4.75910388  4.76724973 15.82521517
   3.29620024  7.68583047 15.92856923
   1.67364721 10.36664400 15.91525793
   9.99822832  1.95395271 15.79309616
   8.26276268  4.87911623 15.90669749
   6.55133458  7.55114522 15.78374482
   5.07383395 10.45525262 15.85886582
   1.82516682  0.81426451 11.02594609
  -0.12909725  3.90610559 11.10195440
  -1.54081549  6.55282673 10.96803445
  -3.25086046  9.48288595 10.97967425
   4.93391760  0.84069239 11.06181497
   3.20287812  3.63677973 11.02976975
   1.50734179  6.55939263 10.81730671
  -0.08965845  9.26447817 10.99714439
   8.26142369  1.04268191 11.02345601
   6.62190394  3.80454781 10.94864188
   4.91052713  6.57202249 10.99626063
   3.20566720  9.35315573 10.84464118
  11.49376253  1.02380677 11.02562477
  10.05607718  3.76519433 10.99393695
   8.26316438  6.67555717 11.00371903
   6.66151395  9.52748134 10.82762950
   0.07256583  0.02992193 13.38388096
  -1.63438662  2.89079072 13.51056395
  -3.31658844  5.77549097 13.35458783
  -4.89134967  8.53820532 13.38613643
   3.42403836  0.08098933 13.46812441
   1.59718802  2.83030582 13.36920914
   0.09026582  5.63450587 13.34076350
  -1.61161378  8.50904836 13.43088252
   0.07633669 11.30268325 13.54412425
   4.87798186  2.87010010 13.49355467
   3.29475166  5.71598452 13.34525204
   1.70113631  8.55715651 13.43208233
   9.85610552  0.00827792 13.38523523
   8.22176377  2.82711430 13.47746187
   6.60157069  5.70343701 13.39440560
   4.89420711  8.45306642 13.30234210
 


--------------------------------------------------------------------------------------------------------


 k-point  1 :   0.0000 0.0000 0.0000  plane waves:  133769
 k-point  2 :   0.3333-0.0000 0.0000  plane waves:  133588
 k-point  3 :   0.0000 0.3333 0.0000  plane waves:  133588
 k-point  4 :   0.3333 0.3333 0.0000  plane waves:  133608
 k-point  5 :  -0.3333 0.3333 0.0000  plane waves:  133588

 maximum and minimum number of plane-waves per node :     10323    10242

 maximum number of plane-waves:    133769
 maximum index in each direction: 
   IXMAX=   26   IYMAX=   26   IZMAX=   53
   IXMIN=  -26   IYMIN=  -26   IZMIN=  -53


 real space projection operators:
  total allocation   :      55710.66 KBytes
  max/ min on nodes  :       4721.12       4046.61


 parallel 3D FFT for wavefunctions:
    minimum data exchange during FFTs selected (reduces bandwidth)
 parallel 3D FFT for charge:
    minimum data exchange during FFTs selected (reduces bandwidth)


 total amount of memory used by VASP MPI-rank0   234721. kBytes
=======================================================================

   base      :      30000. kBytes
   nonlr-proj:      19453. kBytes
   fftplans  :      66973. kBytes
   grid      :      38377. kBytes
   one-center:        108. kBytes
   wavefun   :      79810. kBytes
 
     INWAV:  cpu time    0.0000: real time    0.0000
 Broyden mixing: mesh for mixing (old mesh)
   NGX = 53   NGY = 53   NGZ =107
  (NGX  =216   NGY  =216   NGZ  =432)
  gives a total of 300563 points

 initial charge density was supplied:
 charge density of overlapping atoms calculated
 number of electron     640.0000000 magnetization 
 keeping initial charge density in first step


--------------------------------------------------------------------------------------------------------


 Maximum index for non-local projection operator         1120
 Maximum index for augmentation-charges         5758 (set IRDMAX)


--------------------------------------------------------------------------------------------------------


 First call to EWALD:  gamma=   0.112
 Maximum number of real-space cells 4x 4x 2
 Maximum number of reciprocal cells 2x 2x 4

    FEWALD:  cpu time    0.0061: real time    0.0061


--------------------------------------- Iteration      1(   1)  ---------------------------------------


    POTLOK:  cpu time    0.4090: real time    0.4154
    SETDIJ:  cpu time    0.4198: real time    0.4240
     EDDAV:  cpu time   46.5540: real time   46.5577
       DOS:  cpu time    0.0014: real time    0.0014
    --------------------------------------------
      LOOP:  cpu time   47.3842: real time   47.3984

 eigenvalue-minimisations  :  4248
 total energy-change (2. order) : 0.1364914E+05  (-0.2788606E+05)
 number of electron     640.0000000 magnetization 
 augmentation part      640.0000000 magnetization 

 Free energy of the ion-electron system (eV)
  ---------------------------------------------------
  alpha Z        PSCENC =       871.83850952
  Ewald energy   TEWEN  =    286437.38940881
  -Hartree energ DENC   =   -340792.69869797
  -exchange      EXHF   =         0.00000000
  -V(xc)+E(xc)   XCENC  =      3042.84553960
  PAW double counting   =     50525.51240023   -50422.77561733
  entropy T*S    EENTRO =        -0.07435416
  eigenvalues    EBANDS =      -220.33533009
  atomic energy  EATOM  =     64207.43592568
  Solvation  Ediel_sol  =         0.00000000
  ---------------------------------------------------
  free energy    TOTEN  =     13649.13778428 eV

  energy without entropy =    13649.21213844  energy(sigma->0) =    13649.17496136


--------------------------------------------------------------------------------------------------------




--------------------------------------- Iteration      1(   2)  ---------------------------------------


     EDDAV:  cpu time   49.5485: real time   49.5809
       DOS:  cpu time    0.0013: real time    0.0013
    --------------------------------------------
      LOOP:  cpu time   49.5498: real time   49.5821

 eigenvalue-minimisations  :  4624
 total energy-change (2. order) :-0.1115060E+05  (-0.1084806E+05)
 number of electron     640.0000000 magnetization 
 augmentation part      640.0000000 magnetization 

 Free energy of the ion-electron system (eV)
  ---------------------------------------------------
  alpha Z        PSCENC =       871.83850952
  Ewald energy   TEWEN  =    286437.38940881
  -Hartree energ DENC   =   -340792.69869797
  -exchange      EXHF   =         0.00000000
  -V(xc)+E(xc)   XCENC  =      3042.84553960
  PAW double counting   =     50525.51240023   -50422.77561733
  entropy T*S    EENTRO =        -0.04079947
  eigenvalues    EBANDS =    -11370.97216167
  atomic energy  EATOM  =     64207.43592568
  Solvation  Ediel_sol  =         0.00000000
  ---------------------------------------------------
  free energy    TOTEN  =      2498.53450739 eV

  energy without entropy =     2498.57530686  energy(sigma->0) =     2498.55490713


--------------------------------------------------------------------------------------------------------




--------------------------------------- Iteration      1(   3)  ---------------------------------------


     EDDAV:  cpu time   67.9746: real time   67.9792
       DOS:  cpu time    0.0005: real time    0.0005
    --------------------------------------------
      LOOP:  cpu time   67.9752: real time   67.9798

 eigenvalue-minimisations  :  6784
 total energy-change (2. order) :-0.2876872E+04  (-0.2758941E+04)
 number of electron     640.0000000 magnetization 
 augmentation part      640.0000000 magnetization 

 Free energy of the ion-electron system (eV)
  ---------------------------------------------------
  alpha Z        PSCENC =       871.83850952
  Ewald energy   TEWEN  =    286437.38940881
  -Hartree energ DENC   =   -340792.69869797
  -exchange      EXHF   =         0.00000000
  -V(xc)+E(xc)   XCENC  =      3042.84553960
  PAW double counting   =     50525.51240023   -50422.77561733
  entropy T*S    EENTRO =        -0.00000000
  eigenvalues    EBANDS =    -14247.88467469
  atomic energy  EATOM  =     64207.43592568
  Solvation  Ediel_sol  =         0.00000000
  ---------------------------------------------------
  free energy    TOTEN  =      -378.33720615 eV

  energy without entropy =     -378.33720615  energy(sigma->0) =     -378.33720615


--------------------------------------------------------------------------------------------------------




--------------------------------------- Iteration      1(   4)  ---------------------------------------


     EDDAV:  cpu time   61.9268: real time   61.9457
       DOS:  cpu time    0.0005: real time    0.0005
    --------------------------------------------
      LOOP:  cpu time   61.9273: real time   61.9463

 eigenvalue-minimisations  :  6064
 total energy-change (2. order) :-0.3617320E+03  (-0.3574574E+03)
 number of electron     640.0000000 magnetization 
 augmentation part      640.0000000 magnetization 

 Free energy of the ion-electron system (eV)
  ---------------------------------------------------
  alpha Z        PSCENC =       871.83850952
  Ewald energy   TEWEN  =    286437.38940881
  -Hartree energ DENC   =   -340792.69869797
  -exchange      EXHF   =         0.00000000
  -V(xc)+E(xc)   XCENC  =      3042.84553960
  PAW double counting   =     50525.51240023   -50422.77561733
  entropy T*S    EENTRO =        -0.00000000
  eigenvalues    EBANDS =    -14609.61665094
  atomic energy  EATOM  =     64207.43592568
  Solvation  Ediel_sol  =         0.00000000
  ---------------------------------------------------
  free energy    TOTEN  =      -740.06918241 eV

  energy without entropy =     -740.06918241  energy(sigma->0) =     -740.06918241


--------------------------------------------------------------------------------------------------------




--------------------------------------- Iteration      1(   5)  ---------------------------------------


     EDDAV:  cpu time   61.9560: real time   61.9653
       DOS:  cpu time    0.0006: real time    0.0006
    CHARGE:  cpu time    3.6434: real time    3.6435
    MIXING:  cpu time    0.0293: real time    0.0293
    --------------------------------------------
      LOOP:  cpu time   65.6293: real time   65.6387

 eigenvalue-minimisations  :  6080
 total energy-change (2. order) :-0.1460126E+02  (-0.1454185E+02)
 number of electron     640.0000008 magnetization 
 augmentation part      134.4888468 magnetization 

 Broyden mixing:
  rms(total) = 0.76167E+01    rms(broyden)= 0.76164E+01
  rms(prec ) = 0.80234E+01
  weight for this iteration     100.00

 Free energy of the ion-electron system (eV)
  ---------------------------------------------------
  alpha Z        PSCENC =       871.83850952
  Ewald energy   TEWEN  =    286437.38940881
  -Hartree energ DENC   =   -340792.69869797
  -exchange      EXHF   =         0.00000000
  -V(xc)+E(xc)   XCENC  =      3042.84553960
  PAW double counting   =     50525.51240023   -50422.77561733
  entropy T*S    EENTRO =        -0.00000000
  eigenvalues    EBANDS =    -14624.21790854
  atomic energy  EATOM  =     64207.43592568
  Solvation  Ediel_sol  =         0.00000000
  ---------------------------------------------------
  free energy    TOTEN  =      -754.67044001 eV

  energy without entropy =     -754.67044001  energy(sigma->0) =     -754.67044001


--------------------------------------------------------------------------------------------------------




--------------------------------------- Iteration      1(   6)  ---------------------------------------


    POTLOK:  cpu time    0.4032: real time    0.4133
    SETDIJ:  cpu time    0.4206: real time    0.4206
     EDDAV:  cpu time   58.3284: real time   58.3295
       DOS:  cpu time    0.0007: real time    0.0007
    CHARGE:  cpu time    3.6227: real time    3.6227
    MIXING:  cpu time    0.0243: real time    0.0244
    --------------------------------------------
      LOOP:  cpu time   62.7999: real time   62.8111

 eigenvalue-minimisations  :  5640
 total energy-change (2. order) : 0.1553876E+03  (-0.8409363E+02)
 number of electron     640.0000008 magnetization 
 augmentation part      140.4847977 magnetization 

 Broyden mixing:
  rms(total) = 0.24892E+01    rms(broyden)= 0.24885E+01
  rms(prec ) = 0.25409E+01
  weight for this iteration     100.00

 eigenvalues of (default mixing * dielectric matrix)
  average eigenvalue GAMMA=   0.9759
  0.9759

 Free energy of the ion-electron system (eV)
  ---------------------------------------------------
  alpha Z        PSCENC =       871.83850952
  Ewald energy   TEWEN  =    286437.38940881
  -Hartree energ DENC   =   -340960.32596540
  -exchange      EXHF   =         0.00000000
  -V(xc)+E(xc)   XCENC  =      3055.09243488
  PAW double counting   =     56312.16471395   -56278.63166191
  entropy T*S    EENTRO =        -0.00000000
  eigenvalues    EBANDS =    -14244.24619947
  atomic energy  EATOM  =     64207.43592568
  Solvation  Ediel_sol  =         0.00000000
  ---------------------------------------------------
  free energy    TOTEN  =      -599.28283393 eV

  energy without entropy =     -599.28283393  energy(sigma->0) =     -599.28283393


--------------------------------------------------------------------------------------------------------




--------------------------------------- Iteration      1(   7)  ---------------------------------------


    POTLOK:  cpu time    0.4175: real time    0.4281
    SETDIJ:  cpu time    0.4554: real time    0.4554
     EDDAV:  cpu time   60.9366: real time   60.9380
       DOS:  cpu time    0.0006: real time    0.0006
    CHARGE:  cpu time    3.6192: real time    3.6192
    MIXING:  cpu time    0.0256: real time    0.0256
    --------------------------------------------
      LOOP:  cpu time   65.4549: real time   65.4669

 eigenvalue-minimisations  :  5952
 total energy-change (2. order) :-0.1658218E-01  (-0.5309311E+01)
 number of electron     640.0000008 magnetization 
 augmentation part      141.0139624 magnetization 

 Broyden mixing:
  rms(total) = 0.16239E+01    rms(broyden)= 0.16239E+01
  rms(prec ) = 0.16533E+01
  weight for this iteration     100.00

 eigenvalues of (default mixing * dielectric matrix)
  average eigenvalue GAMMA=   1.6659
  0.9624  2.3694

 Free energy of the ion-electron system (eV)
  ---------------------------------------------------
  alpha Z        PSCENC =       871.83850952
  Ewald energy   TEWEN  =    286437.38940881
  -Hartree energ DENC   =   -341101.01781967
  -exchange      EXHF   =         0.00000000
  -V(xc)+E(xc)   XCENC  =      3052.11019328
  PAW double counting   =     59976.38133064   -59949.83786612
  entropy T*S    EENTRO =        -0.00000000
  eigenvalues    EBANDS =    -14093.59909826
  atomic energy  EATOM  =     64207.43592568
  Solvation  Ediel_sol  =         0.00000000
  ---------------------------------------------------
  free energy    TOTEN  =      -599.29941611 eV

  energy without entropy =     -599.29941611  energy(sigma->0) =     -599.29941611


--------------------------------------------------------------------------------------------------------




--------------------------------------- Iteration      1(   8)  ---------------------------------------


    POTLOK:  cpu time    0.3595: real time    0.3724
    SETDIJ:  cpu time    0.4186: real time    0.4187
     EDDAV:  cpu time   57.9680: real time   57.9731
       DOS:  cpu time    0.0005: real time    0.0005
    CHARGE:  cpu time    3.5916: real time    3.5916
    MIXING:  cpu time    0.0261: real time    0.0261
    --------------------------------------------
      LOOP:  cpu time   62.3643: real time   62.3823

 eigenvalue-minimisations  :  5592
 total energy-change (2. order) : 0.1550686E+01  (-0.1038256E+01)
 number of electron     640.0000008 magnetization 
 augmentation part      141.0870425 magnetization 

 Broyden mixing:
  rms(total) = 0.44062E+00    rms(broyden)= 0.44052E+00
  rms(prec ) = 0.47569E+00
  weight for this iteration     100.00

 eigenvalues of (default mixing * dielectric matrix)
  average eigenvalue GAMMA=   1.4241
  2.4528  0.9097  0.9097

 Free energy of the ion-electron system (eV)
  ---------------------------------------------------
  alpha Z        PSCENC =       871.83850952
  Ewald energy   TEWEN  =    286437.38940881
  -Hartree energ DENC   =   -341362.82407472
  -exchange      EXHF   =         0.00000000
  -V(xc)+E(xc)   XCENC  =      3048.32274665
  PAW double counting   =     66403.24834113   -66394.25415459
  entropy T*S    EENTRO =        -0.00000000
  eigenvalues    EBANDS =    -13808.90543265
  atomic energy  EATOM  =     64207.43592568
  Solvation  Ediel_sol  =         0.00000000
  ---------------------------------------------------
  free energy    TOTEN  =      -597.74873018 eV

  energy without entropy =     -597.74873018  energy(sigma->0) =     -597.74873018


--------------------------------------------------------------------------------------------------------




--------------------------------------- Iteration      1(   9)  ---------------------------------------


    POTLOK:  cpu time    0.3869: real time    0.3967
    SETDIJ:  cpu time    0.4187: real time    0.4225
     EDDAV:  cpu time   57.4766: real time   57.4805
       DOS:  cpu time    0.0007: real time    0.0007
    CHARGE:  cpu time    3.6276: real time    3.6276
    MIXING:  cpu time    0.0255: real time    0.0255
    --------------------------------------------
      LOOP:  cpu time   61.9359: real time   61.9534

 eigenvalue-minimisations  :  5536
 total energy-change (2. order) : 0.5170075E+00  (-0.2871704E+00)
 number of electron     640.0000008 magnetization 
 augmentation part      141.4929712 magnetization 

 Broyden mixing:
  rms(total) = 0.21305E+00    rms(broyden)= 0.21304E+00
  rms(prec ) = 0.23088E+00
  weight for this iteration     100.00

 eigenvalues of (default mixing * dielectric matrix)
  average eigenvalue GAMMA=   1.2610
  2.0879  1.1728  0.8916  0.8916

 Free energy of the ion-electron system (eV)
  ---------------------------------------------------
  alpha Z        PSCENC =       871.83850952
  Ewald energy   TEWEN  =    286437.38940881
  -Hartree energ DENC   =   -341465.58674669
  -exchange      EXHF   =         0.00000000
  -V(xc)+E(xc)   XCENC  =      3050.41014940
  PAW double counting   =     66665.65603351   -66659.50369492
  entropy T*S    EENTRO =        -0.00000000
  eigenvalues    EBANDS =    -13704.87130794
  atomic energy  EATOM  =     64207.43592568
  Solvation  Ediel_sol  =         0.00000000
  ---------------------------------------------------
  free energy    TOTEN  =      -597.23172264 eV

  energy without entropy =     -597.23172264  energy(sigma->0) =     -597.23172264


--------------------------------------------------------------------------------------------------------




--------------------------------------- Iteration      1(  10)  ---------------------------------------


    POTLOK:  cpu time    0.3885: real time    0.3976
    SETDIJ:  cpu time    0.4237: real time    0.4237
     EDDAV:  cpu time   59.7870: real time   59.7910
       DOS:  cpu time    0.0007: real time    0.0006
    CHARGE:  cpu time    3.6304: real time    3.6304
    MIXING:  cpu time    0.0279: real time    0.0279
    --------------------------------------------
      LOOP:  cpu time   64.2583: real time   64.2713

 eigenvalue-minimisations  :  5808
 total energy-change (2. order) : 0.3855384E-01  (-0.2403527E-01)
 number of electron     640.0000008 magnetization 
 augmentation part      141.3073290 magnetization 

 Broyden mixing:
  rms(total) = 0.11278E+00    rms(broyden)= 0.11278E+00
  rms(prec ) = 0.13740E+00
  weight for this iteration     100.00

 eigenvalues of (default mixing * dielectric matrix)
  average eigenvalue GAMMA=   1.4638
  2.4094  2.4094  0.9006  0.9006  0.6987

 Free energy of the ion-electron system (eV)
  ---------------------------------------------------
  alpha Z        PSCENC =       871.83850952
  Ewald energy   TEWEN  =    286437.38940881
  -Hartree energ DENC   =   -341529.84850530
  -exchange      EXHF   =         0.00000000
  -V(xc)+E(xc)   XCENC  =      3051.74779723
  PAW double counting   =     66070.83726958   -66063.46505897
  entropy T*S    EENTRO =        -0.00000000
  eigenvalues    EBANDS =    -13643.12851534
  atomic energy  EATOM  =     64207.43592568
  Solvation  Ediel_sol  =         0.00000000
  ---------------------------------------------------
  free energy    TOTEN  =      -597.19316879 eV

  energy without entropy =     -597.19316879  energy(sigma->0) =     -597.19316879


--------------------------------------------------------------------------------------------------------




--------------------------------------- Iteration      1(  11)  ---------------------------------------


    POTLOK:  cpu time    0.3962: real time    0.4062
    SETDIJ:  cpu time    0.4266: real time    0.4266
     EDDAV:  cpu time   57.6604: real time   57.6671
       DOS:  cpu time    0.0006: real time    0.0006
    CHARGE:  cpu time    3.5986: real time    3.5990
    MIXING:  cpu time    0.0246: real time    0.0245
    --------------------------------------------
      LOOP:  cpu time   62.1069: real time   62.1241

 eigenvalue-minimisations  :  5560
 total energy-change (2. order) : 0.1265310E+00  (-0.1687137E-01)
 number of electron     640.0000008 magnetization 
 augmentation part      141.1995826 magnetization 

 Broyden mixing:
  rms(total) = 0.78212E-01    rms(broyden)= 0.78209E-01
  rms(prec ) = 0.91684E-01
  weight for this iteration     100.00

 eigenvalues of (default mixing * dielectric matrix)
  average eigenvalue GAMMA=   1.3835
  2.5643  2.1554  0.9254  0.9254  0.9959  0.7349

 Free energy of the ion-electron system (eV)
  ---------------------------------------------------
  alpha Z        PSCENC =       871.83850952
  Ewald energy   TEWEN  =    286437.38940881
  -Hartree energ DENC   =   -341703.29167512
  -exchange      EXHF   =         0.00000000
  -V(xc)+E(xc)   XCENC  =      3053.43850873
  PAW double counting   =     66008.26610895   -66001.01667046
  entropy T*S    EENTRO =        -0.00000000
  eigenvalues    EBANDS =    -13471.12675395
  atomic energy  EATOM  =     64207.43592568
  Solvation  Ediel_sol  =         0.00000000
  ---------------------------------------------------
  free energy    TOTEN  =      -597.06663784 eV

  energy without entropy =     -597.06663784  energy(sigma->0) =     -597.06663784


--------------------------------------------------------------------------------------------------------




--------------------------------------- Iteration      1(  12)  ---------------------------------------


    POTLOK:  cpu time    0.4274: real time    0.4384
    SETDIJ:  cpu time    0.4382: real time    0.4382
     EDDAV:  cpu time   58.8543: real time   58.8548
       DOS:  cpu time    0.0006: real time    0.0006
    CHARGE:  cpu time    3.6404: real time    3.6404
    MIXING:  cpu time    0.0260: real time    0.0260
    --------------------------------------------
      LOOP:  cpu time   63.3869: real time   63.3983

 eigenvalue-minimisations  :  5704
 total energy-change (2. order) : 0.2197990E-01  (-0.4793224E-02)
 number of electron     640.0000008 magnetization 
 augmentation part      141.2890803 magnetization 

 Broyden mixing:
  rms(total) = 0.32154E-01    rms(broyden)= 0.32152E-01
  rms(prec ) = 0.49341E-01
  weight for this iteration     100.00

 eigenvalues of (default mixing * dielectric matrix)
  average eigenvalue GAMMA=   1.4149
  2.5469  2.5469  1.1546  1.1546  0.9033  0.9033  0.6948

 Free energy of the ion-electron system (eV)
  ---------------------------------------------------
  alpha Z        PSCENC =       871.83850952
  Ewald energy   TEWEN  =    286437.38940881
  -Hartree energ DENC   =   -341748.41444755
  -exchange      EXHF   =         0.00000000
  -V(xc)+E(xc)   XCENC  =      3053.37513089
  PAW double counting   =     66187.89821986   -66181.07530435
  entropy T*S    EENTRO =        -0.00000000
  eigenvalues    EBANDS =    -13425.49210079
  atomic energy  EATOM  =     64207.43592568
  Solvation  Ediel_sol  =         0.00000000
  ---------------------------------------------------
  free energy    TOTEN  =      -597.04465794 eV

  energy without entropy =     -597.04465794  energy(sigma->0) =     -597.04465794


--------------------------------------------------------------------------------------------------------




--------------------------------------- Iteration      1(  13)  ---------------------------------------


    POTLOK:  cpu time    0.4037: real time    0.4135
    SETDIJ:  cpu time    0.4228: real time    0.4228
     EDDAV:  cpu time   57.3823: real time   57.3832
       DOS:  cpu time    0.0007: real time    0.0006
    CHARGE:  cpu time    3.6150: real time    3.6150
    MIXING:  cpu time    0.0261: real time    0.0261
    --------------------------------------------
      LOOP:  cpu time   61.8505: real time   61.8612

 eigenvalue-minimisations  :  5528
 total energy-change (2. order) : 0.8744861E-02  (-0.3757988E-02)
 number of electron     640.0000008 magnetization 
 augmentation part      141.2258575 magnetization 

 Broyden mixing:
  rms(total) = 0.30893E-01    rms(broyden)= 0.30891E-01
  rms(prec ) = 0.41425E-01
  weight for this iteration     100.00

 eigenvalues of (default mixing * dielectric matrix)
  average eigenvalue GAMMA=   1.3837
  2.7972  2.5059  1.2560  1.2560  0.8678  0.8678  0.8427  0.6762

 Free energy of the ion-electron system (eV)
  ---------------------------------------------------
  alpha Z        PSCENC =       871.83850952
  Ewald energy   TEWEN  =    286437.38940881
  -Hartree energ DENC   =   -341817.33274758
  -exchange      EXHF   =         0.00000000
  -V(xc)+E(xc)   XCENC  =      3053.61634494
  PAW double counting   =     66114.38527978   -66107.22151020
  entropy T*S    EENTRO =        -0.00000000
  eigenvalues    EBANDS =    -13357.14712403
  atomic energy  EATOM  =     64207.43592568
  Solvation  Ediel_sol  =         0.00000000
  ---------------------------------------------------
  free energy    TOTEN  =      -597.03591307 eV

  energy without entropy =     -597.03591307  energy(sigma->0) =     -597.03591307


--------------------------------------------------------------------------------------------------------




--------------------------------------- Iteration      1(  14)  ---------------------------------------


    POTLOK:  cpu time    0.3862: real time    0.3948
    SETDIJ:  cpu time    0.4207: real time    0.4245
     EDDAV:  cpu time   58.8755: real time   58.8760
       DOS:  cpu time    0.0006: real time    0.0006
    CHARGE:  cpu time    3.6326: real time    3.6326
    MIXING:  cpu time    0.0264: real time    0.0264
    --------------------------------------------
      LOOP:  cpu time   63.3420: real time   63.3549

 eigenvalue-minimisations  :  5704
 total energy-change (2. order) : 0.2627540E-02  (-0.1258751E-02)
 number of electron     640.0000008 magnetization 
 augmentation part      141.2609452 magnetization 

 Broyden mixing:
  rms(total) = 0.14992E-01    rms(broyden)= 0.14992E-01
  rms(prec ) = 0.24151E-01
  weight for this iteration     100.00

 eigenvalues of (default mixing * dielectric matrix)
  average eigenvalue GAMMA=   1.4850
  2.9897  2.9897  1.5438  1.5438  0.9770  0.9770  0.8295  0.8295  0.6847

 Free energy of the ion-electron system (eV)
  ---------------------------------------------------
  alpha Z        PSCENC =       871.83850952
  Ewald energy   TEWEN  =    286437.38940881
  -Hartree energ DENC   =   -341863.85199294
  -exchange      EXHF   =         0.00000000
  -V(xc)+E(xc)   XCENC  =      3053.70545615
  PAW double counting   =     66143.14852861   -66136.13620117
  entropy T*S    EENTRO =        -0.00000000
  eigenvalues    EBANDS =    -13310.56292019
  atomic energy  EATOM  =     64207.43592568
  Solvation  Ediel_sol  =         0.00000000
  ---------------------------------------------------
  free energy    TOTEN  =      -597.03328553 eV

  energy without entropy =     -597.03328553  energy(sigma->0) =     -597.03328553


--------------------------------------------------------------------------------------------------------




--------------------------------------- Iteration      1(  15)  ---------------------------------------


    POTLOK:  cpu time    0.4251: real time    0.4373
    SETDIJ:  cpu time    0.4449: real time    0.4468
     EDDAV:  cpu time   58.1150: real time   58.1192
       DOS:  cpu time    0.0006: real time    0.0006
    CHARGE:  cpu time    3.6090: real time    3.6090
    MIXING:  cpu time    0.0274: real time    0.0274
    --------------------------------------------
      LOOP:  cpu time   62.6220: real time   62.6402

 eigenvalue-minimisations  :  5600
 total energy-change (2. order) :-0.5598781E-02  (-0.8679916E-03)
 number of electron     640.0000008 magnetization 
 augmentation part      141.2587746 magnetization 

 Broyden mixing:
  rms(total) = 0.11044E-01    rms(broyden)= 0.11042E-01
  rms(prec ) = 0.15583E-01
  weight for this iteration     100.00

 eigenvalues of (default mixing * dielectric matrix)
  average eigenvalue GAMMA=   1.5146
  4.1550  2.6989  1.9481  1.0960  1.0352  1.0352  0.8709  0.8709  0.7765  0.6590

 Free energy of the ion-electron system (eV)
  ---------------------------------------------------
  alpha Z        PSCENC =       871.83850952
  Ewald energy   TEWEN  =    286437.38940881
  -Hartree energ DENC   =   -341918.83331843
  -exchange      EXHF   =         0.00000000
  -V(xc)+E(xc)   XCENC  =      3053.84259977
  PAW double counting   =     66100.01267411   -66092.93914232
  entropy T*S    EENTRO =        -0.00000000
  eigenvalues    EBANDS =    -13255.78554146
  atomic energy  EATOM  =     64207.43592568
  Solvation  Ediel_sol  =         0.00000000
  ---------------------------------------------------
  free energy    TOTEN  =      -597.03888431 eV

  energy without entropy =     -597.03888431  energy(sigma->0) =     -597.03888431


--------------------------------------------------------------------------------------------------------




--------------------------------------- Iteration      1(  16)  ---------------------------------------


    POTLOK:  cpu time    0.4208: real time    0.4310
    SETDIJ:  cpu time    0.4543: real time    0.4543
     EDDAV:  cpu time   55.6720: real time   55.6765
       DOS:  cpu time    0.0006: real time    0.0006
    CHARGE:  cpu time    3.6280: real time    3.6280
    MIXING:  cpu time    0.0281: real time    0.0281
    --------------------------------------------
      LOOP:  cpu time   60.2039: real time   60.2186

 eigenvalue-minimisations  :  5320
 total energy-change (2. order) :-0.3542604E-02  (-0.1943660E-03)
 number of electron     640.0000008 magnetization 
 augmentation part      141.2633148 magnetization 

 Broyden mixing:
  rms(total) = 0.78710E-02    rms(broyden)= 0.78707E-02
  rms(prec ) = 0.10791E-01
  weight for this iteration     100.00

 eigenvalues of (default mixing * dielectric matrix)
  average eigenvalue GAMMA=   1.5263
  4.4093  2.7087  2.1777  1.1956  1.1956  0.9920  0.9920  0.8755  0.8755  0.7206
  0.6465

 Free energy of the ion-electron system (eV)
  ---------------------------------------------------
  alpha Z        PSCENC =       871.83850952
  Ewald energy   TEWEN  =    286437.38940881
  -Hartree energ DENC   =   -341946.18470910
  -exchange      EXHF   =         0.00000000
  -V(xc)+E(xc)   XCENC  =      3053.88457643
  PAW double counting   =     66113.66741483   -66106.66050701
  entropy T*S    EENTRO =        -0.00000000
  eigenvalues    EBANDS =    -13228.41304608
  atomic energy  EATOM  =     64207.43592568
  Solvation  Ediel_sol  =         0.00000000
  ---------------------------------------------------
  free energy    TOTEN  =      -597.04242692 eV

  energy without entropy =     -597.04242692  energy(sigma->0) =     -597.04242692


--------------------------------------------------------------------------------------------------------




--------------------------------------- Iteration      1(  17)  ---------------------------------------


    POTLOK:  cpu time    0.3930: real time    0.4085
    SETDIJ:  cpu time    0.4231: real time    0.4230
     EDDAV:  cpu time   58.5500: real time   58.5511
       DOS:  cpu time    0.0006: real time    0.0006
    CHARGE:  cpu time    3.5993: real time    3.5994
    MIXING:  cpu time    0.0279: real time    0.0279
    --------------------------------------------
      LOOP:  cpu time   62.9940: real time   63.0106

 eigenvalue-minimisations  :  5664
 total energy-change (2. order) :-0.4755128E-02  (-0.2178858E-03)
 number of electron     640.0000008 magnetization 
 augmentation part      141.2687541 magnetization 

 Broyden mixing:
  rms(total) = 0.85912E-02    rms(broyden)= 0.85895E-02
  rms(prec ) = 0.10153E-01
  weight for this iteration     100.00

 eigenvalues of (default mixing * dielectric matrix)
  average eigenvalue GAMMA=   1.6251
  5.4279  2.9224  2.0874  2.0874  1.0115  1.0115  0.9888  0.9888  0.8370  0.8370
  0.6978  0.6031

 Free energy of the ion-electron system (eV)
  ---------------------------------------------------
  alpha Z        PSCENC =       871.83850952
  Ewald energy   TEWEN  =    286437.38940881
  -Hartree energ DENC   =   -341961.71200459
  -exchange      EXHF   =         0.00000000
  -V(xc)+E(xc)   XCENC  =      3053.90312236
  PAW double counting   =     66122.04779191   -66115.10229991
  entropy T*S    EENTRO =        -0.00000000
  eigenvalues    EBANDS =    -13212.84763582
  atomic energy  EATOM  =     64207.43592568
  Solvation  Ediel_sol  =         0.00000000
  ---------------------------------------------------
  free energy    TOTEN  =      -597.04718205 eV

  energy without entropy =     -597.04718205  energy(sigma->0) =     -597.04718205


--------------------------------------------------------------------------------------------------------




--------------------------------------- Iteration      1(  18)  ---------------------------------------


    POTLOK:  cpu time    0.3682: real time    0.3812
    SETDIJ:  cpu time    0.4224: real time    0.4224
     EDDAV:  cpu time   56.5089: real time   56.5119
       DOS:  cpu time    0.0006: real time    0.0006
    CHARGE:  cpu time    3.6598: real time    3.6598
    MIXING:  cpu time    0.0255: real time    0.0255
    --------------------------------------------
      LOOP:  cpu time   60.9855: real time   61.0014

 eigenvalue-minimisations  :  5400
 total energy-change (2. order) :-0.3940457E-02  (-0.9185472E-04)
 number of electron     640.0000008 magnetization 
 augmentation part      141.2562544 magnetization 

 Broyden mixing:
  rms(total) = 0.47073E-02    rms(broyden)= 0.47070E-02
  rms(prec ) = 0.56598E-02
  weight for this iteration     100.00

 eigenvalues of (default mixing * dielectric matrix)
  average eigenvalue GAMMA=   1.6380
  6.2010  2.7440  2.6677  1.7687  0.9587  0.9587  1.1113  0.9461  0.9461  0.8300
  0.8300  0.6886  0.6427

 Free energy of the ion-electron system (eV)
  ---------------------------------------------------
  alpha Z        PSCENC =       871.83850952
  Ewald energy   TEWEN  =    286437.38940881
  -Hartree energ DENC   =   -341977.81559852
  -exchange      EXHF   =         0.00000000
  -V(xc)+E(xc)   XCENC  =      3053.95385811
  PAW double counting   =     66109.04366123   -66102.07664781
  entropy T*S    EENTRO =        -0.00000000
  eigenvalues    EBANDS =    -13196.82023953
  atomic energy  EATOM  =     64207.43592568
  Solvation  Ediel_sol  =         0.00000000
  ---------------------------------------------------
  free energy    TOTEN  =      -597.05112250 eV

  energy without entropy =     -597.05112250  energy(sigma->0) =     -597.05112250


--------------------------------------------------------------------------------------------------------




--------------------------------------- Iteration      1(  19)  ---------------------------------------


    POTLOK:  cpu time    0.3966: real time    0.4058
    SETDIJ:  cpu time    0.4229: real time    0.4229
     EDDAV:  cpu time   58.9419: real time   58.9488
       DOS:  cpu time    0.0006: real time    0.0006
    CHARGE:  cpu time    3.6471: real time    3.6471
    MIXING:  cpu time    0.0268: real time    0.0268
    --------------------------------------------
      LOOP:  cpu time   63.4359: real time   63.4520

 eigenvalue-minimisations  :  5712
 total energy-change (2. order) :-0.1466862E-02  (-0.3373315E-04)
 number of electron     640.0000008 magnetization 
 augmentation part      141.2589296 magnetization 

 Broyden mixing:
  rms(total) = 0.20112E-02    rms(broyden)= 0.20096E-02
  rms(prec ) = 0.30671E-02
  weight for this iteration     100.00

 eigenvalues of (default mixing * dielectric matrix)
  average eigenvalue GAMMA=   1.6585
  6.6643  3.1244  2.4050  1.9900  0.9999  0.9999  1.2068  0.9776  0.9776  0.8391
  0.8391  0.8747  0.6800  0.6403

 Free energy of the ion-electron system (eV)
  ---------------------------------------------------
  alpha Z        PSCENC =       871.83850952
  Ewald energy   TEWEN  =    286437.38940881
  -Hartree energ DENC   =   -341982.63675507
  -exchange      EXHF   =         0.00000000
  -V(xc)+E(xc)   XCENC  =      3053.95343854
  PAW double counting   =     66115.15693085   -66108.21276446
  entropy T*S    EENTRO =        -0.00000000
  eigenvalues    EBANDS =    -13191.97728323
  atomic energy  EATOM  =     64207.43592568
  Solvation  Ediel_sol  =         0.00000000
  ---------------------------------------------------
  free energy    TOTEN  =      -597.05258937 eV

  energy without entropy =     -597.05258937  energy(sigma->0) =     -597.05258937


--------------------------------------------------------------------------------------------------------




--------------------------------------- Iteration      1(  20)  ---------------------------------------


    POTLOK:  cpu time    0.4207: real time    0.4309
    SETDIJ:  cpu time    0.4331: real time    0.4352
     EDDAV:  cpu time   54.7083: real time   54.7130
       DOS:  cpu time    0.0006: real time    0.0006
    CHARGE:  cpu time    3.6226: real time    3.6226
    MIXING:  cpu time    0.0271: real time    0.0271
    --------------------------------------------
      LOOP:  cpu time   59.2125: real time   59.2294

 eigenvalue-minimisations  :  5208
 total energy-change (2. order) :-0.2958083E-02  (-0.1438912E-04)
 number of electron     640.0000008 magnetization 
 augmentation part      141.2592959 magnetization 

 Broyden mixing:
  rms(total) = 0.19226E-02    rms(broyden)= 0.19219E-02
  rms(prec ) = 0.24552E-02
  weight for this iteration     100.00

 eigenvalues of (default mixing * dielectric matrix)
  average eigenvalue GAMMA=   1.7103
  7.0804  3.4921  2.4108  2.4108  1.5435  0.9609  0.9609  1.1542  0.9638  0.9638
  0.8403  0.8403  0.6978  0.6978  0.6368

 Free energy of the ion-electron system (eV)
  ---------------------------------------------------
  alpha Z        PSCENC =       871.83850952
  Ewald energy   TEWEN  =    286437.38940881
  -Hartree energ DENC   =   -341986.27365028
  -exchange      EXHF   =         0.00000000
  -V(xc)+E(xc)   XCENC  =      3053.94734698
  PAW double counting   =     66110.09775823   -66103.13315350
  entropy T*S    EENTRO =        -0.00000000
  eigenvalues    EBANDS =    -13188.35769290
  atomic energy  EATOM  =     64207.43592568
  Solvation  Ediel_sol  =         0.00000000
  ---------------------------------------------------
  free energy    TOTEN  =      -597.05554745 eV

  energy without entropy =     -597.05554745  energy(sigma->0) =     -597.05554745


--------------------------------------------------------------------------------------------------------




--------------------------------------- Iteration      1(  21)  ---------------------------------------


    POTLOK:  cpu time    0.3643: real time    0.3697
    SETDIJ:  cpu time    0.4229: real time    0.4229
     EDDAV:  cpu time   48.5587: real time   48.5609
       DOS:  cpu time    0.0006: real time    0.0006
    CHARGE:  cpu time    3.6123: real time    3.6123
    MIXING:  cpu time    0.0256: real time    0.0256
    --------------------------------------------
      LOOP:  cpu time   52.9843: real time   52.9919

 eigenvalue-minimisations  :  4480
 total energy-change (2. order) :-0.2280765E-02  (-0.1061408E-04)
 number of electron     640.0000008 magnetization 
 augmentation part      141.2590776 magnetization 

[...]
    -6.564311700 11.369721380  0.000000000     0.000000000  0.087952903  0.000000000
     0.000000000  0.000000000 26.828094240     0.000000000  0.000000000  0.037274358

  length of vectors
    13.128623400 13.128623399 26.828094240     0.087952903  0.087952903  0.037274358


 FORCES acting on ions
    electron-ion (+dipol)            ewald-force                    non-local-force                 convergence-correction
 -----------------------------------------------------------------------------------------------
   -.835E+00 0.316E+02 0.126E+04   -.377E+00 -.318E+02 -.125E+04   0.401E+00 0.137E+00 -.706E+01   -.250E-04 0.840E-04 -.110E-04
   0.497E+02 -.256E+01 0.124E+04   -.490E+02 0.227E+01 -.124E+04   -.192E+00 0.161E+00 -.419E+01   0.733E-04 -.127E-04 0.859E-05
   -.174E+01 -.174E+02 0.129E+04   0.860E+00 0.180E+02 -.128E+04   0.784E+00 -.951E-01 -.604E+01   0.923E-04 0.123E-04 -.636E-04
   -.151E+02 0.179E+02 0.121E+04   0.157E+02 -.179E+02 -.121E+04   0.616E+00 0.103E+00 -.486E+01   0.199E-04 0.593E-04 -.112E-03
   -.809E+02 -.201E+02 0.124E+04   0.815E+02 0.202E+02 -.124E+04   0.562E+00 0.111E+00 -.503E+01   -.172E-04 0.129E-03 -.178E-04
   -.778E+02 0.613E+00 0.136E+04   0.776E+02 0.159E+00 -.135E+04   0.434E+00 -.595E+00 -.549E+01   0.158E-04 -.210E-04 0.879E-05
   -.429E+02 -.557E+02 0.120E+04   0.435E+02 0.564E+02 -.120E+04   0.210E+00 -.308E+00 -.458E+01   0.604E-05 0.138E-04 0.365E-04
   -.385E+02 0.165E+01 0.122E+04   0.376E+02 -.220E+01 -.122E+04   0.522E+00 -.944E-01 -.519E+01   -.408E-04 -.970E-04 -.953E-04
   -.295E+01 -.138E+02 0.118E+04   0.421E+01 0.140E+02 -.117E+04   -.845E+00 0.147E+00 -.599E+01   -.124E-03 0.525E-04 -.848E-04
   -.100E+02 0.343E+02 0.128E+04   0.984E+01 -.328E+02 -.128E+04   -.147E+00 -.130E+01 -.606E+01   -.686E-04 -.343E-04 0.638E-04
   -.183E+02 0.381E+01 0.133E+04   0.193E+02 -.388E+01 -.132E+04   -.397E+00 -.215E+00 -.584E+01   -.106E-03 -.416E-04 0.146E-04
   0.181E+02 -.361E+02 0.126E+04   -.171E+02 0.363E+02 -.125E+04   -.924E+00 -.109E-01 -.702E+01   0.758E-04 -.110E-03 -.387E-04
   0.764E+02 0.526E+02 0.118E+04   -.769E+02 -.542E+02 -.118E+04   -.440E+00 0.639E+00 -.543E+01   0.167E-03 -.642E-04 -.250E-04
   0.141E+02 0.262E+02 0.128E+04   -.154E+02 -.252E+02 -.127E+04   0.961E+00 -.326E+00 -.658E+01   -.154E-04 0.790E-04 -.601E-04
   0.480E+02 0.177E+02 0.129E+04   -.487E+02 -.193E+02 -.128E+04   -.757E-01 0.698E+00 -.629E+01   0.561E-05 -.732E-04 -.882E-04
   0.215E+02 -.274E+02 0.137E+04   -.222E+02 0.278E+02 -.137E+04   0.433E+00 0.549E+00 -.618E+01   -.160E-04 0.983E-04 -.800E-04
   -.619E+01 0.678E+01 -.130E+04   0.681E+01 -.748E+01 0.130E+04   -.401E+00 0.437E+00 0.546E+01   -.116E-04 0.652E-04 0.350E-04
   -.117E+02 -.437E+01 -.126E+04   0.103E+02 0.443E+01 0.125E+04   0.148E+01 -.150E+00 0.501E+01   0.300E-05 -.664E-04 -.100E-03
   0.362E+02 -.378E+02 -.125E+04   -.368E+02 0.390E+02 0.125E+04   0.133E+00 -.707E+00 0.558E+01   0.430E-04 0.330E-04 -.457E-04
   -.865E+01 0.770E+02 -.120E+04   0.975E+01 -.768E+02 0.120E+04   -.106E+01 -.942E+00 0.596E+01   0.390E-04 -.501E-04 0.619E-05
   -.109E+03 0.121E+02 -.136E+04   0.108E+03 -.125E+02 0.135E+04   0.103E+01 -.769E-01 0.613E+01   -.427E-04 0.127E-03 0.204E-04
   -.729E+02 -.182E+02 -.117E+04   0.749E+02 0.199E+02 0.117E+04   -.110E+00 -.447E+00 0.588E+01   0.421E-04 -.140E-04 -.889E-04
   -.380E+02 -.542E+02 -.118E+04   0.375E+02 0.552E+02 0.117E+04   0.330E+00 -.171E+00 0.566E+01   0.107E-04 0.462E-04 -.481E-04
   0.129E+02 -.172E+02 -.137E+04   -.117E+02 0.172E+02 0.136E+04   -.867E+00 -.355E+00 0.620E+01   0.246E-04 -.161E-03 0.905E-06
   0.376E+02 0.365E+02 -.135E+04   -.379E+02 -.369E+02 0.134E+04   0.156E+00 -.224E+00 0.678E+01   0.821E-04 -.488E-04 0.108E-03
   -.750E+02 -.335E+02 -.124E+04   0.755E+02 0.333E+02 0.123E+04   0.963E+00 0.557E+00 0.503E+01   -.145E-03 0.175E-04 -.212E-04
   -.136E+02 0.179E+02 -.124E+04   0.132E+02 -.189E+02 0.123E+04   0.451E+00 0.122E+00 0.567E+01   -.448E-04 -.117E-03 0.216E-04
   -.188E+02 -.382E+02 -.118E+04   0.173E+02 0.378E+02 0.117E+04   0.124E+01 0.318E+00 0.583E+01   -.110E-03 0.689E-05 -.226E-05
   0.645E+02 0.594E+02 -.125E+04   -.655E+02 -.590E+02 0.124E+04   0.336E-01 -.349E+00 0.534E+01   -.721E-05 0.784E-04 -.191E-04
   0.451E+02 -.440E+02 -.131E+04   -.458E+02 0.438E+02 0.130E+04   0.810E+00 0.755E+00 0.583E+01   0.130E-03 0.684E-05 0.243E-04
   0.988E+01 0.300E+02 -.128E+04   -.896E+01 -.320E+02 0.127E+04   -.607E+00 0.494E+00 0.476E+01   0.642E-05 -.448E-04 0.165E-04
   0.345E+02 0.274E+02 -.122E+04   -.343E+02 -.265E+02 0.122E+04   -.228E+00 -.572E+00 0.519E+01   0.822E-05 0.427E-04 0.972E-04
   -.451E+01 0.880E+01 -.160E+04   0.435E+01 -.743E+01 0.162E+04   0.583E+00 -.170E+01 -.168E+02   0.800E-05 -.661E-06 -.506E-04
   0.581E+02 -.251E+02 -.162E+04   -.614E+02 0.258E+02 0.163E+04   0.246E+01 -.193E+00 -.180E+02   0.756E-05 -.778E-05 -.499E-04
   -.284E+02 -.413E+02 -.160E+04   0.311E+02 0.436E+02 0.161E+04   -.246E+01 -.192E+01 -.164E+02   -.705E-05 -.369E-05 -.392E-04
   -.137E+02 0.399E+02 -.154E+04   0.147E+02 -.416E+02 0.156E+04   -.736E+00 0.149E+01 -.150E+02   -.105E-04 0.100E-04 -.220E-04
   -.190E+02 -.233E+02 -.162E+04   0.195E+02 0.250E+02 0.164E+04   -.648E+00 -.118E+01 -.175E+02   -.595E-05 0.213E-05 -.549E-04
   -.206E+02 -.219E+02 -.162E+04   0.206E+02 0.237E+02 0.164E+04   -.976E-01 -.198E+01 -.189E+02   0.517E-06 -.396E-05 -.170E-04
   0.633E+01 -.294E+02 -.158E+04   -.516E+01 0.291E+02 0.159E+04   -.151E+01 0.469E+00 -.163E+02   0.466E-05 0.129E-04 -.381E-04
   -.401E+02 0.111E+02 -.161E+04   0.410E+02 -.107E+02 0.163E+04   -.275E+00 -.381E+00 -.166E+02   -.504E-05 -.958E-05 -.470E-04
   -.217E+02 0.356E+02 -.161E+04   0.228E+02 -.364E+02 0.163E+04   -.121E+01 0.591E-01 -.166E+02   -.138E-04 -.138E-04 -.388E-04
   0.645E+01 -.110E+02 -.157E+04   -.104E+02 0.112E+02 0.159E+04   0.412E+01 -.268E-01 -.161E+02   -.157E-04 0.475E-05 -.477E-04
   0.112E+02 -.484E+01 -.161E+04   -.143E+02 0.525E+01 0.163E+04   0.328E+01 -.671E+00 -.182E+02   -.470E-05 -.167E-04 -.224E-04
   -.437E+01 -.271E+02 -.160E+04   0.594E+01 0.273E+02 0.161E+04   -.152E+01 -.893E-02 -.159E+02   -.391E-05 -.594E-05 -.431E-04
   0.272E+02 0.237E+02 -.157E+04   -.256E+02 -.243E+02 0.158E+04   -.206E+01 0.306E+00 -.152E+02   0.564E-05 -.128E-04 -.623E-04
   0.340E+02 0.257E+02 -.158E+04   -.372E+02 -.270E+02 0.160E+04   0.316E+01 0.111E+01 -.155E+02   0.794E-05 0.181E-04 -.207E-04
   0.163E+02 0.111E+02 -.157E+04   -.179E+02 -.126E+02 0.159E+04   0.149E+01 0.191E+01 -.170E+02   -.249E-05 0.520E-05 -.473E-04
   0.471E+02 0.202E+02 -.159E+04   -.500E+02 -.214E+02 0.161E+04   0.264E+01 0.114E+01 -.174E+02   0.166E-04 0.526E-05 -.262E-04
   0.372E+02 -.869E+01 0.160E+04   -.396E+02 0.774E+01 -.162E+04   0.158E+01 0.119E+01 0.176E+02   -.100E-04 -.323E-06 0.180E-04
   -.277E+02 0.681E+02 0.156E+04   0.279E+02 -.709E+02 -.158E+04   0.521E+00 0.184E+01 0.145E+02   0.940E-06 -.590E-05 0.220E-04
   0.377E+02 -.327E+02 0.162E+04   -.381E+02 0.343E+02 -.164E+04   -.864E-01 -.112E+01 0.182E+02   -.325E-05 0.993E-05 0.124E-04
   -.638E+00 -.164E+02 0.158E+04   -.375E+00 0.185E+02 -.159E+04   0.109E+01 -.210E+01 0.158E+02   0.906E-05 0.304E-05 0.248E-04
   -.314E+02 -.433E+02 0.156E+04   0.301E+02 0.463E+02 -.158E+04   0.151E+01 -.240E+01 0.166E+02   0.751E-05 0.457E-05 0.293E-04
   -.476E+02 -.129E+02 0.158E+04   0.494E+02 0.139E+02 -.159E+04   -.145E+01 -.571E+00 0.148E+02   -.878E-05 0.154E-05 0.375E-04
   -.397E+02 -.147E+02 0.165E+04   0.393E+02 0.157E+02 -.167E+04   0.731E+00 -.879E+00 0.179E+02   -.228E-05 -.110E-04 0.375E-04
   -.295E+02 -.680E+02 0.157E+04   0.308E+02 0.697E+02 -.159E+04   -.104E+01 -.683E+00 0.166E+02   -.471E-05 -.459E-05 0.318E-04
   0.647E+01 0.813E+01 0.155E+04   -.467E+01 -.737E+01 -.157E+04   -.212E+01 -.102E+01 0.153E+02   -.699E-05 -.146E-04 0.907E-05
   0.159E+02 0.331E+02 0.159E+04   -.172E+02 -.350E+02 -.161E+04   0.113E+01 0.166E+01 0.168E+02   -.706E-05 -.525E-06 0.436E-04
   -.133E+02 -.755E+01 0.157E+04   0.137E+02 0.964E+01 -.158E+04   -.317E+00 -.197E+01 0.142E+02   -.179E-05 -.873E-05 0.160E-04
   0.685E+01 -.377E+02 0.163E+04   -.852E+01 0.384E+02 -.165E+04   0.190E+01 -.220E+00 0.176E+02   -.697E-06 0.115E-04 0.596E-04
   0.381E+00 0.399E+02 0.157E+04   0.239E-01 -.414E+02 -.159E+04   -.210E+00 0.128E+01 0.156E+02   0.609E-05 -.103E-04 0.385E-04
   0.793E+02 0.254E+02 0.160E+04   -.824E+02 -.273E+02 -.162E+04   0.213E+01 0.173E+01 0.178E+02   0.284E-04 0.834E-05 0.420E-04
   0.196E+02 0.291E+02 0.158E+04   -.200E+02 -.307E+02 -.160E+04   0.307E+00 0.135E+01 0.155E+02   0.382E-05 -.740E-06 0.213E-04
   0.230E+02 0.573E+01 0.165E+04   -.225E+02 -.629E+01 -.167E+04   -.786E+00 0.421E+00 0.190E+02   -.360E-06 0.208E-04 0.406E-04
   0.321E+02 0.189E+02 0.205E+02   -.320E+02 -.187E+02 -.206E+02   -.828E+00 -.618E+00 0.385E+00   -.215E-05 0.134E-04 -.177E-05
   0.133E+02 -.271E+01 -.331E+02   -.134E+02 0.275E+01 0.333E+02   0.334E+00 -.344E+00 -.888E+00   0.171E-04 -.811E-05 -.173E-05
   0.180E+02 0.126E+02 -.659E+00   -.182E+02 -.124E+02 0.675E+00   0.883E+00 -.110E+01 0.366E+00   0.167E-04 0.412E-05 0.781E-06
   -.964E+01 0.841E+01 0.111E+01   0.980E+01 -.841E+01 -.115E+01   -.521E+00 0.351E+00 0.295E+00   0.500E-05 0.761E-05 -.147E-06
   -.173E+01 0.958E+01 -.947E+01   0.208E+01 -.949E+01 0.940E+01   -.142E+01 -.885E+00 0.173E+00   -.100E-04 0.457E-05 0.609E-05
   0.334E+01 0.530E+00 0.255E+02   -.351E+01 -.417E+00 -.257E+02   0.186E+00 -.499E+00 0.525E+00   -.115E-06 0.112E-05 0.158E-05
   0.132E+02 -.708E+01 0.130E+02   -.131E+02 0.711E+01 -.131E+02   -.956E+00 0.470E+00 0.919E+00   -.773E-06 -.131E-05 0.285E-05
   -.437E+00 -.929E+01 -.236E+02   0.432E+00 0.933E+01 0.237E+02   -.397E-01 -.573E-01 0.749E-01   0.346E-05 -.305E-05 -.643E-08
   -.349E+01 -.115E+02 -.541E+02   0.376E+01 0.113E+02 0.544E+02   -.664E+00 0.118E+01 -.925E+00   -.852E-06 -.327E-05 0.175E-05
   -.931E+01 0.699E+01 -.112E+01   0.910E+01 -.689E+01 0.108E+01   0.300E+00 -.593E+00 -.698E+00   -.147E-04 0.842E-06 0.235E-05
   -.200E+02 0.862E+01 0.289E+02   0.202E+02 -.847E+01 -.289E+02   -.644E+00 -.768E+00 0.381E-01   -.573E-05 -.122E-04 0.364E-05
   0.210E+02 -.629E+01 -.889E+01   -.209E+02 0.634E+01 0.909E+01   -.755E+00 -.455E+00 -.766E+00   -.819E-05 -.615E-05 -.127E-05
   0.109E+01 -.462E+01 0.124E+02   -.120E+01 0.469E+01 -.125E+02   0.742E+00 -.281E+00 0.265E+00   0.102E-04 0.916E-06 0.147E-05
   0.202E+02 -.930E+01 -.186E+02   -.202E+02 0.919E+01 0.186E+02   -.837E-02 0.513E+00 -.390E+00   0.358E-05 -.643E-05 0.497E-05
   -.616E+01 0.206E+01 -.692E+00   0.629E+01 -.206E+01 0.754E+00   -.527E+00 -.126E-01 -.213E+00   -.130E-04 -.164E-06 0.284E-05
   -.178E+01 -.314E+01 0.423E+02   0.169E+01 0.282E+01 -.425E+02   0.602E+00 0.146E+01 0.539E+00   -.284E-05 0.288E-05 0.215E-05
 -----------------------------------------------------------------------------------------------
   -.141E+02 0.641E+01 0.517E+01   0.290E-12 -.409E-13 -.699E-11   0.141E+02 -.641E+01 -.518E+01   0.602E-04 -.223E-04 -.657E-03
 
 
 POSITION                                       TOTAL-FORCE (eV/Angst)
 -----------------------------------------------------------------------------------
      0.01840      1.89383     12.21827        -0.810029      0.017659     -0.722148
     -1.70339      4.78963     12.06473         0.491437     -0.129780      1.802661
     -3.25096      7.57853     12.08939        -0.095801      0.444188      0.519625
     -5.00674     10.39834     12.18567         1.265674      0.123107     -0.901383
      3.20231      1.82696     12.16742         1.169196      0.285239     -0.103648
      1.59343      4.72382     12.06029         0.328264      0.175670     -0.126462
     -0.05640      7.51980     12.12455         0.801294      0.430577      0.264598
     -1.57799     10.44036     12.15769        -0.380670     -0.642137      0.342165
      6.57131      1.84482     12.23843         0.420999      0.362223     -0.138818
      4.95026      4.74216     12.13954        -0.314583      0.253957     -0.201372
      3.18036      7.55965     12.07597         0.592003     -0.282362     -0.258635
      1.65227     10.43017     12.17387         0.038923      0.119736     -0.065106
      9.97117      1.97551     12.20761        -0.948606     -1.001508     -0.069392
      8.20377      4.69813     12.10896        -0.329989      0.624495      0.941020
      6.65514      7.60850     12.11881        -0.798621     -0.966953     -0.119476
      4.89745     10.29349     12.03204        -0.195467      1.002598      0.316788
      1.62205      0.95736     14.73474         0.219357     -0.259221     -0.534693
     -0.02609      3.82132     14.71279         0.054301     -0.091293     -0.530655
     -1.58465      6.58498     14.66425        -0.484415      0.553905      0.110067
     -3.23770      9.57676     14.61140         0.042642     -0.772070      0.456110
      4.91253      1.01580     14.78329         0.152758     -0.436080     -0.187474
      3.08618      3.70311     14.58464         1.928652      1.305215      1.072016
      1.67509      6.55537     14.58175        -0.146638      0.841954      0.846813
      0.00920      9.47708     14.78070         0.396138     -0.394362     -0.203192
      8.25946      1.03930     14.76380        -0.167991     -0.626162     -0.189194
      6.35016      3.85075     14.68659         1.405196      0.436572      0.665513
      4.84938      6.70117     14.67031         0.095883     -0.828500     -0.105928
      3.27577      9.48706     14.58980        -0.194047     -0.105983      0.998952
     11.58247      0.93242     14.70811        -0.913265      0.050658     -0.406434
      9.79572      3.80833     14.74373         0.078583      0.578513     -0.299361
      8.22365      6.74333     14.74409         0.312080     -1.442417     -0.588035
      6.55407      9.43442     14.67072        -0.075050      0.271806     -0.470693
     -0.02644      1.95520     15.81885         0.414710     -0.333270      0.344455
     -1.45029      4.69708     15.88158        -0.812828      0.525933      0.055462
     -3.27256      7.43417     15.89432         0.242472      0.397371     -0.293957
     -4.98294     10.44859     15.69867         0.236660     -0.237813      0.714242
      3.24636      1.78868     15.88865        -0.211552      0.508017     -0.033750
      1.66750      4.73108     15.85422        -0.068565     -0.119992     -0.338465
      0.10985      7.47262     15.82378        -0.345348      0.162600     -0.171380
     -1.79036     10.41886     15.90782         0.576305      0.035920     -0.044781
      6.60876      2.17149     15.95995        -0.072054     -0.801096     -0.284425
      4.75910      4.76725     15.82522         0.211868      0.102026     -0.234671
      3.29620      7.68583     15.92857         0.250737     -0.269192     -0.873031
      1.67365     10.36664     15.91526         0.055446      0.233952     -0.321581
      9.99823      1.95395     15.79310        -0.456933     -0.259220      0.518305
      8.26276      4.87912     15.90670         0.008061     -0.192907     -0.369008
      6.55133      7.55115     15.78374        -0.165699      0.431855      0.232666
      5.07383     10.45525     15.85887        -0.202682     -0.101314     -0.311773
      1.82517      0.81426     11.02595        -0.774219      0.248468     -0.319023
     -0.12910      3.90611     11.10195         0.721465     -0.890061     -1.001803
     -1.54082      6.55283     10.96803        -0.488380      0.446637     -0.371961
     -3.25086      9.48289     10.97967         0.076685      0.046910      0.290497
      4.93392      0.84069     11.06181         0.263791      0.569757     -0.158949
      3.20288      3.63678     11.02977         0.319715      0.428467     -0.286593
      1.50734      6.55939     10.81731         0.326540      0.100234      0.678521
     -0.08966      9.26448     10.99714         0.236303      0.970711     -0.083152
      8.26142      1.04268     11.02346        -0.326598     -0.257821      0.255170
      6.62190      3.80455     10.94864        -0.175231     -0.289701      0.356875
      4.91053      6.57202     10.99626         0.128632      0.113059     -0.152174
      3.20567      9.35316     10.84464         0.227258      0.482873      0.502482
     11.49376      1.02381     11.02562         0.194243     -0.213362     -0.059984
     10.05608      3.76519     10.99394        -1.037354     -0.196458     -0.505068
      8.26316      6.67556     11.00372        -0.121113     -0.213998     -0.378664
      6.66151      9.52748     10.82763        -0.314242     -0.133269      0.778808
      0.07257      0.02992     13.38388        -0.690192     -0.451281      0.329020
     -1.63439      2.89079     13.51056         0.223294     -0.306896     -0.657832
     -3.31659      5.77549     13.35459         0.643301     -0.872433      0.382582
     -4.89135      8.53821     13.38614        -0.366378      0.346751      0.249286
      3.42404      0.08099     13.46812        -1.068766     -0.792489      0.099980
      1.59719      2.83031     13.36921         0.011049     -0.386626      0.315714
      0.09027      5.63451     13.34076        -0.874978      0.501267      0.791317
     -1.61161      8.50905     13.43088        -0.044981     -0.017307      0.174439
      0.07634     11.30268     13.54412        -0.396929      1.002694     -0.635114
      4.87798      2.87010     13.49355         0.091872     -0.498028     -0.740895
      3.29475      5.71598     13.34525        -0.436974     -0.618819     -0.003025
      1.70114      8.55716     13.43208        -0.639367     -0.408529     -0.568083
      9.85611      0.00828     13.38524         0.632621     -0.212499      0.157493
      8.22176      2.82711     13.47746        -0.063665      0.396775     -0.318662
      6.60157      5.70344     13.39441        -0.396223     -0.010549     -0.150986
      4.89421      8.45307     13.30234         0.520015      1.133407      0.327249
 -----------------------------------------------------------------------------------
    total drift:                               -0.006287     -0.000253     -0.010885


--------------------------------------------------------------------------------------------------------



  FREE ENERGIE OF THE ION-ELECTRON SYSTEM (eV)
  ---------------------------------------------------
  free  energy   TOTEN  =      -597.06009753 eV

  energy  without entropy=     -597.06009753  energy(sigma->0) =     -597.06009753
 


--------------------------------------------------------------------------------------------------------


    POTLOK:  cpu time    0.7881: real time    0.7882


--------------------------------------------------------------------------------------------------------


     LOOP+:  cpu time 1818.4732: real time 1818.9632
    4ORBIT:  cpu time    0.0000: real time    0.0000

 total amount of memory used by VASP MPI-rank0   234721. kBytes
=======================================================================

   base      :      30000. kBytes
   nonlr-proj:      19453. kBytes
   fftplans  :      66973. kBytes
   grid      :      38377. kBytes
   one-center:        108. kBytes
   wavefun   :      79810. kBytes
 
  
  
 General timing and accounting informations for this job:
 ========================================================
  
                  Total CPU time used (sec):     1850.654
                            User time (sec):     1843.929
                          System time (sec):        6.725
                         Elapsed time (sec):     1851.450
  
                   Maximum memory used (kb):      437852.
                   Average memory used (kb):           0.
  
                          Minor page faults:       164131
                          Major page faults:            0
                 Voluntary context switches:         2463
