 running on   52 total cores
 distrk:  each k-point on   52 cores,    1 groups
 distr:  one band on   13 cores,    4 groups
 using from now: INCAR     
 vasp.5.4.4.18Apr17-6-g9f103f2a35 (build Oct 31 2019 15:01:46) complex          
  
 POSCAR found type information on POSCAR  Ca Si O 
 POSCAR found :  3 types and     135 ions
 scaLAPACK is switched off
 LDA part: xc-table for Pade appr. of Perdew
 generate k-points for:    2    2    2
 POSCAR, INCAR and KPOINTS ok, starting setup
 FFT: planning ...
 WAVECAR not read
 entering main loop
       N       E                     dE             d eps       ncg     rms          rms(c)
DAV:   1     0.928050999701E+04    0.92805E+04   -0.46263E+05  8320   0.174E+03
DAV:   2     0.238254838995E+02   -0.92567E+04   -0.89766E+04 10280   0.453E+02
DAV:   3    -0.101493704227E+04   -0.10388E+04   -0.10322E+04 10312   0.153E+02
DAV:   4    -0.106297449644E+04   -0.48037E+02   -0.47853E+02 11136   0.320E+01
DAV:   5    -0.106948295336E+04   -0.65085E+01   -0.65054E+01 15000   0.704E+00    0.855E+01
DAV:   6    -0.901553437004E+03    0.16793E+03   -0.80592E+02 10224   0.433E+01    0.373E+01
DAV:   7    -0.901396483166E+03    0.15695E+00   -0.89539E+01 10680   0.151E+01    0.189E+01
DAV:   8    -0.898745967471E+03    0.26505E+01   -0.14762E+01 11288   0.653E+00    0.872E+00
DAV:   9    -0.898273293723E+03    0.47267E+00   -0.38339E+00 11240   0.389E+00    0.113E+01
DAV:  10    -0.898181068610E+03    0.92225E-01   -0.18077E+00 10984   0.189E+00    0.358E+00
DAV:  11    -0.898161395162E+03    0.19673E-01   -0.62725E-01 10824   0.122E+00    0.275E+00
DAV:  12    -0.898216789290E+03   -0.55394E-01   -0.28936E-01 12152   0.870E-01    0.536E+00
DAV:  13    -0.898118831731E+03    0.97958E-01   -0.22442E-01 11472   0.626E-01    0.179E+00
DAV:  14    -0.898106826413E+03    0.12005E-01   -0.59689E-02  9408   0.412E-01    0.123E+00
DAV:  15    -0.898093635060E+03    0.13191E-01   -0.28218E-02 11440   0.350E-01    0.790E-01
DAV:  16    -0.898090352880E+03    0.32822E-02   -0.31611E-02 10672   0.266E-01    0.359E-01
DAV:  17    -0.898092279877E+03   -0.19270E-02   -0.10939E-02 11904   0.135E-01    0.423E-01
DAV:  18    -0.898092223921E+03    0.55956E-04   -0.33036E-03 10632   0.681E-02    0.172E-01
DAV:  19    -0.898092513386E+03   -0.28947E-03   -0.12490E-03  9904   0.508E-02    0.579E-02
DAV:  20    -0.898092742941E+03   -0.22956E-03   -0.45451E-04 10280   0.380E-02    0.586E-02
DAV:  21    -0.898092780594E+03   -0.37652E-04   -0.14643E-04 10944   0.218E-02    0.312E-02
DAV:  22    -0.898092811072E+03   -0.30478E-04   -0.67129E-05  9224   0.133E-02    0.281E-02
DAV:  23    -0.898092817986E+03   -0.69141E-05   -0.42430E-05  8904   0.869E-03    0.112E-02
DAV:  24    -0.898092820013E+03   -0.20269E-05   -0.95657E-06  9344   0.469E-03    0.522E-03
DAV:  25    -0.898092820484E+03   -0.47179E-06   -0.16383E-06  5992   0.224E-03
   1 F= -.89809282E+03 E0= -.89808264E+03  d E =-.203671E-01
