 running on   52 total cores
 distrk:  each k-point on   52 cores,    1 groups
 distr:  one band on   13 cores,    4 groups
 using from now: INCAR     
 vasp.5.4.4.18Apr17-6-g9f103f2a35 (build Oct 31 2019 15:01:46) complex          
  
 POSCAR found type information on POSCAR  Ca Si O 
 POSCAR found :  3 types and     135 ions
 scaLAPACK is switched off
 LDA part: xc-table for Pade appr. of Perdew
 generate k-points for:    2    2    2
 POSCAR, INCAR and KPOINTS ok, starting setup
 FFT: planning ...
 WAVECAR not read
 entering main loop
       N       E                     dE             d eps       ncg     rms          rms(c)
DAV:   1     0.100300402148E+05    0.10030E+05   -0.49005E+05  8320   0.188E+03
DAV:   2     0.172264014207E+03   -0.98578E+04   -0.94903E+04  9576   0.517E+02
DAV:   3    -0.950012558256E+03   -0.11223E+04   -0.11124E+04 10208   0.175E+02
DAV:   4    -0.100803928830E+04   -0.58027E+02   -0.57807E+02 11616   0.344E+01
DAV:   5    -0.101314224614E+04   -0.51030E+01   -0.50997E+01 13904   0.855E+00    0.881E+01
DAV:   6    -0.866333347166E+03    0.14681E+03   -0.62827E+02  9936   0.406E+01    0.375E+01
DAV:   7    -0.868136641905E+03   -0.18033E+01   -0.73316E+01 10680   0.143E+01    0.180E+01
DAV:   8    -0.867037023693E+03    0.10996E+01   -0.11274E+01 11064   0.640E+00    0.749E+00
DAV:   9    -0.866732427878E+03    0.30460E+00   -0.24894E+00 11168   0.344E+00    0.236E+00
DAV:  10    -0.866798460289E+03   -0.66032E-01   -0.80952E-01 10720   0.163E+00    0.143E+00
DAV:  11    -0.866804579918E+03   -0.61196E-02   -0.14187E-01 11496   0.690E-01    0.758E-01
DAV:  12    -0.866806333832E+03   -0.17539E-02   -0.38720E-02 11048   0.370E-01    0.257E-01
DAV:  13    -0.866807360664E+03   -0.10268E-02   -0.71281E-03 11848   0.194E-01    0.121E-01
DAV:  14    -0.866807541502E+03   -0.18084E-03   -0.29080E-03 11936   0.960E-02    0.846E-02
DAV:  15    -0.866807527984E+03    0.13518E-04   -0.42933E-04 10680   0.419E-02    0.378E-02
DAV:  16    -0.866807526116E+03    0.18684E-05   -0.11464E-04 12776   0.283E-02    0.128E-02
DAV:  17    -0.866807527288E+03   -0.11721E-05   -0.65399E-05 11392   0.146E-02    0.104E-02
DAV:  18    -0.866807526529E+03    0.75818E-06   -0.86134E-06  9400   0.518E-03
   1 F= -.86680753E+03 E0= -.86680753E+03  d E =-.298985E-17
