 running on   52 total cores
 distrk:  each k-point on   52 cores,    1 groups
 distr:  one band on   13 cores,    4 groups
 using from now: INCAR     
 vasp.5.4.4.18Apr17-6-g9f103f2a35 (build Oct 31 2019 15:01:46) complex          
  
 POSCAR found type information on POSCAR  Ca Si O 
 POSCAR found :  3 types and     135 ions
 scaLAPACK is switched off
 LDA part: xc-table for Pade appr. of Perdew
 generate k-points for:    2    2    2
 POSCAR, INCAR and KPOINTS ok, starting setup
 FFT: planning ...
 WAVECAR not read
 entering main loop
       N       E                     dE             d eps       ncg     rms          rms(c)
DAV:   1     0.100229167617E+05    0.10023E+05   -0.48981E+05  8320   0.188E+03
DAV:   2     0.195328655623E+03   -0.98276E+04   -0.94579E+04  9512   0.517E+02
DAV:   3    -0.944408122002E+03   -0.11397E+04   -0.11294E+04 10328   0.175E+02
DAV:   4    -0.100077426490E+04   -0.56366E+02   -0.56155E+02 11616   0.346E+01
DAV:   5    -0.100570157263E+04   -0.49273E+01   -0.49244E+01 13912   0.830E+00    0.876E+01
DAV:   6    -0.853444627002E+03    0.15226E+03   -0.63833E+02  9832   0.420E+01    0.395E+01
DAV:   7    -0.858451651180E+03   -0.50070E+01   -0.91968E+01 10360   0.167E+01    0.213E+01
DAV:   8    -0.852753538131E+03    0.56981E+01   -0.17942E+01 11976   0.102E+01    0.139E+01
DAV:   9    -0.853642965257E+03   -0.88943E+00   -0.59380E+00 10360   0.484E+00    0.777E+00
DAV:  10    -0.852257629458E+03    0.13853E+01   -0.15279E+00 10656   0.348E+00    0.465E+00
DAV:  11    -0.852743746721E+03   -0.48612E+00   -0.22755E+00 10568   0.235E+00    0.867E+00
DAV:  12    -0.852298273138E+03    0.44547E+00   -0.55124E-01 10584   0.159E+00    0.333E+00
DAV:  13    -0.852257687333E+03    0.40586E-01   -0.15813E-01 10336   0.848E-01    0.540E+00
DAV:  14    -0.852232244029E+03    0.25443E-01   -0.89218E-02 11344   0.672E-01    0.278E+00
DAV:  15    -0.852199040557E+03    0.33203E-01   -0.27304E-02  9568   0.333E-01    0.155E+00
DAV:  16    -0.852192927792E+03    0.61128E-02   -0.11228E-02 12344   0.195E-01    0.383E-01
DAV:  17    -0.852195527164E+03   -0.25994E-02   -0.24742E-03 10080   0.951E-02    0.102E+00
DAV:  18    -0.852193391165E+03    0.21360E-02   -0.86528E-04 11584   0.727E-02    0.185E-01
DAV:  19    -0.852193818193E+03   -0.42703E-03   -0.49072E-04  9640   0.393E-02    0.390E-01
DAV:  20    -0.852193468878E+03    0.34932E-03   -0.21710E-04 11424   0.286E-02    0.108E-01
DAV:  21    -0.852193483136E+03   -0.14258E-04   -0.45139E-05  9600   0.148E-02    0.843E-02
DAV:  22    -0.852193468858E+03    0.14278E-04   -0.98213E-06  9520   0.819E-03    0.353E-02
DAV:  23    -0.852193467482E+03    0.13758E-05   -0.38177E-06  7640   0.353E-03    0.180E-02
DAV:  24    -0.852193466821E+03    0.66141E-06   -0.93568E-07  5192   0.178E-03
   1 F= -.85219347E+03 E0= -.85217625E+03  d E =-.344371E-01
