 running on   52 total cores
 distrk:  each k-point on   52 cores,    1 groups
 distr:  one band on   13 cores,    4 groups
 using from now: INCAR     
 vasp.5.4.4.18Apr17-6-g9f103f2a35 (build Oct 31 2019 15:01:46) complex          
  
 POSCAR found type information on POSCAR  Sc F  C 
 POSCAR found :  3 types and      80 ions
 scaLAPACK is switched off
 LDA part: xc-table for Pade appr. of Perdew
 generate k-points for:    3    3    1
 POSCAR, INCAR and KPOINTS ok, starting setup
 FFT: planning ...
 WAVECAR not read
 entering main loop
       N       E                     dE             d eps       ncg     rms          rms(c)
DAV:   1     0.136504227191E+05    0.13650E+05   -0.27900E+05  4272   0.156E+03
DAV:   2     0.250113445220E+04   -0.11149E+05   -0.10844E+05  4608   0.533E+02
DAV:   3    -0.372843929917E+03   -0.28740E+04   -0.27565E+04  6784   0.295E+02
DAV:   4    -0.736438463434E+03   -0.36359E+03   -0.35922E+03  6064   0.140E+02
DAV:   5    -0.751228467952E+03   -0.14790E+02   -0.14725E+02  6080   0.357E+01    0.775E+01
DAV:   6    -0.595293384420E+03    0.15594E+03   -0.84123E+02  5712   0.649E+01    0.253E+01
DAV:   7    -0.595442126644E+03   -0.14874E+00   -0.56335E+01  5920   0.219E+01    0.166E+01
DAV:   8    -0.593948267973E+03    0.14939E+01   -0.10292E+01  5552   0.843E+00    0.461E+00
DAV:   9    -0.593452621644E+03    0.49565E+00   -0.24962E+00  5464   0.516E+00    0.223E+00
DAV:  10    -0.593414055054E+03    0.38567E-01   -0.32369E-01  5976   0.170E+00    0.121E+00
DAV:  11    -0.593305775844E+03    0.10828E+00   -0.14256E-01  5544   0.107E+00    0.732E-01
DAV:  12    -0.593272481615E+03    0.33294E-01   -0.50369E-02  5808   0.585E-01    0.329E-01
DAV:  13    -0.593264209107E+03    0.82725E-02   -0.24655E-02  5744   0.390E-01    0.253E-01
DAV:  14    -0.593260068027E+03    0.41411E-02   -0.95006E-03  5584   0.230E-01    0.147E-01
DAV:  15    -0.593265870424E+03   -0.58024E-02   -0.12351E-02  5616   0.214E-01    0.137E-01
DAV:  16    -0.593268649161E+03   -0.27787E-02   -0.26988E-03  5960   0.152E-01    0.832E-02
DAV:  17    -0.593273420790E+03   -0.47716E-02   -0.23233E-03  5968   0.101E-01    0.837E-02
DAV:  18    -0.593277337279E+03   -0.39165E-02   -0.73350E-04  5320   0.741E-02    0.535E-02
DAV:  19    -0.593278932913E+03   -0.15956E-02   -0.46155E-04  5680   0.479E-02    0.207E-02
DAV:  20    -0.593281568677E+03   -0.26358E-02   -0.10472E-04  5384   0.211E-02    0.199E-02
DAV:  21    -0.593284276486E+03   -0.27078E-02   -0.12777E-04  3944   0.163E-02    0.111E-02
DAV:  22    -0.593285455501E+03   -0.11790E-02   -0.10991E-04  4704   0.142E-02    0.801E-03
DAV:  23    -0.593285879137E+03   -0.42364E-03   -0.13848E-05  4688   0.917E-03    0.380E-03
DAV:  24    -0.593286243791E+03   -0.36465E-03   -0.15717E-05  4400   0.595E-03    0.322E-03
DAV:  25    -0.593286392727E+03   -0.14894E-03   -0.43601E-06  3992   0.402E-03    0.145E-03
DAV:  26    -0.593286458281E+03   -0.65554E-04   -0.11463E-06  2928   0.255E-03    0.146E-03
DAV:  27    -0.593286477337E+03   -0.19055E-04   -0.43369E-07  2616   0.232E-03    0.107E-03
DAV:  28    -0.593286508936E+03   -0.31600E-04   -0.71470E-07  2832   0.162E-03    0.834E-04
DAV:  29    -0.593286520020E+03   -0.11084E-04   -0.38873E-07  2616   0.199E-03    0.708E-04
DAV:  30    -0.593286523171E+03   -0.31510E-05   -0.27599E-07  2520   0.123E-03    0.624E-04
DAV:  31    -0.593286525079E+03   -0.19080E-05   -0.16743E-07  2520   0.127E-03    0.614E-04
DAV:  32    -0.593286526971E+03   -0.18919E-05   -0.11738E-07  2592   0.827E-04    0.507E-04
DAV:  33    -0.593286527465E+03   -0.49420E-06   -0.77016E-08  2472   0.805E-04
   1 F= -.59328653E+03 E0= -.59328653E+03  d E =-.473294E-28
