 running on   52 total cores
 distrk:  each k-point on   52 cores,    1 groups
 distr:  one band on   13 cores,    4 groups
 using from now: INCAR     
 vasp.5.4.4.18Apr17-6-g9f103f2a35 (build Oct 31 2019 15:01:46) complex          
  
 POSCAR found type information on POSCAR  Sc Cl C 
 POSCAR found :  3 types and      80 ions
 scaLAPACK is switched off
 LDA part: xc-table for Pade appr. of Perdew
 generate k-points for:    3    3    1
 POSCAR, INCAR and KPOINTS ok, starting setup
 FFT: planning ...
 WAVECAR not read
 entering main loop
       N       E                     dE             d eps       ncg     rms          rms(c)
DAV:   1     0.122072431929E+05    0.12207E+05   -0.26794E+05  4440   0.152E+03
DAV:   2     0.175909197748E+04   -0.10448E+05   -0.10181E+05  5200   0.522E+02
DAV:   3    -0.399114359825E+03   -0.21582E+04   -0.20711E+04  6800   0.285E+02
DAV:   4    -0.641602535783E+03   -0.24249E+03   -0.23790E+03  6088   0.100E+02
DAV:   5    -0.652398964273E+03   -0.10796E+02   -0.10738E+02  6080   0.284E+01    0.693E+01
DAV:   6    -0.521147640580E+03    0.13125E+03   -0.69879E+02  5856   0.500E+01    0.307E+01
DAV:   7    -0.526308448331E+03   -0.51608E+01   -0.92080E+01  5936   0.236E+01    0.155E+01
DAV:   8    -0.523980989516E+03    0.23275E+01   -0.10306E+01  5664   0.791E+00    0.950E+00
DAV:   9    -0.523457098206E+03    0.52389E+00   -0.41559E+00  5448   0.409E+00    0.302E+00
DAV:  10    -0.523308279272E+03    0.14882E+00   -0.60649E-01  5672   0.224E+00    0.175E+00
DAV:  11    -0.523287174688E+03    0.21105E-01   -0.28501E-01  5736   0.991E-01    0.766E-01
DAV:  12    -0.523273759451E+03    0.13415E-01   -0.45224E-02  5944   0.570E-01    0.338E-01
DAV:  13    -0.523270377283E+03    0.33822E-02   -0.12494E-02  5384   0.301E-01    0.207E-01
DAV:  14    -0.523268492569E+03    0.18847E-02   -0.60145E-03  5480   0.163E-01    0.170E-01
DAV:  15    -0.523269705421E+03   -0.12129E-02   -0.24355E-03  5456   0.105E-01    0.102E-01
DAV:  16    -0.523271077662E+03   -0.13722E-02   -0.11356E-03  5680   0.673E-02    0.614E-02
DAV:  17    -0.523273939077E+03   -0.28614E-02   -0.99345E-04  5440   0.571E-02    0.434E-02
DAV:  18    -0.523276459339E+03   -0.25203E-02   -0.30791E-04  5232   0.373E-02    0.277E-02
DAV:  19    -0.523277645673E+03   -0.11863E-02   -0.15838E-04  5256   0.224E-02    0.175E-02
DAV:  20    -0.523279048028E+03   -0.14024E-02   -0.90423E-05  4272   0.159E-02    0.122E-02
DAV:  21    -0.523279673736E+03   -0.62571E-03   -0.29524E-05  4456   0.107E-02    0.878E-03
DAV:  22    -0.523279968276E+03   -0.29454E-03   -0.10154E-05  4232   0.572E-03    0.694E-03
DAV:  23    -0.523280498603E+03   -0.53033E-03   -0.84208E-06  3960   0.526E-03    0.434E-03
DAV:  24    -0.523280892381E+03   -0.39378E-03   -0.11380E-05  3384   0.437E-03    0.471E-03
DAV:  25    -0.523280971610E+03   -0.79229E-04   -0.14021E-06  3200   0.291E-03    0.320E-03
DAV:  26    -0.523281056376E+03   -0.84766E-04   -0.26622E-06  3312   0.270E-03    0.154E-03
DAV:  27    -0.523281122429E+03   -0.66053E-04   -0.15756E-06  3104   0.219E-03    0.237E-03
DAV:  28    -0.523281135804E+03   -0.13375E-04   -0.27719E-07  2640   0.179E-03    0.152E-03
DAV:  29    -0.523281150244E+03   -0.14440E-04   -0.38025E-07  2608   0.141E-03    0.569E-04
DAV:  30    -0.523281158116E+03   -0.78715E-05   -0.29860E-07  2552   0.156E-03    0.640E-04
DAV:  31    -0.523281168164E+03   -0.10048E-04   -0.39836E-07  2752   0.130E-03    0.611E-04
DAV:  32    -0.523281170203E+03   -0.20394E-05   -0.19605E-07  2456   0.134E-03    0.307E-04
DAV:  33    -0.523281170758E+03   -0.55428E-06   -0.11404E-07  2400   0.708E-04
   1 F= -.52328117E+03 E0= -.52328117E+03  d E =-.132488E-19
