 vasp.5.4.4.18Apr17-6-g9f103f2a35 (build Oct 31 2019 15:01:46) complex          
  
 executed on             LinuxIFC date 2024.04.30  18:01:25
 running on   52 total cores
 distrk:  each k-point on   52 cores,    1 groups
 distr:  one band on NCORES_PER_BAND=  13 cores,    4 groups


--------------------------------------------------------------------------------------------------------


 INCAR:
 POTCAR:    PAW_PBE Sc_sv 07Sep2000               
 POTCAR:    PAW_PBE Cl 06Sep2000                  
 POTCAR:    PAW_PBE C 08Apr2002                   
 POTCAR:    PAW_PBE Sc_sv 07Sep2000               
   VRHFIN =Sc: 3p4s3d                                                           
   LEXCH  = PE                                                                  
   EATOM  =  1273.2868 eV,   93.5839 Ry                                         
                                                                                
   TITEL  = PAW_PBE Sc_sv 07Sep2000                                             
   LULTRA =        F    use ultrasoft PP ?                                      
   IUNSCR =        1    unscreen: 0-lin 1-nonlin 2-no                           
   RPACOR =    2.200    partial core radius                                     
   POMASS =   44.956; ZVAL   =   11.000    mass and valenz                      
   RCORE  =    2.500    outmost cutoff radius                                   
   RWIGS  =    2.700; RWIGS  =    1.429    wigner-seitz radius (au A)           
   ENMAX  =  222.660; ENMIN  =  166.995 eV                                      
   RCLOC  =    1.805    cutoff for local pot                                    
   LCOR   =        T    correct aug charges                                     
   LPAW   =        T    paw PP                                                  
   EAUG   =  443.063                                                            
   RMAX   =    2.551    core radius for proj-oper                               
   RAUG   =    1.300    factor for augmentation sphere                          
   RDEP   =    2.650    radius for radial grids                                 
   RDEPT  =    2.038    core radius for aug-charge                              
                                                                                
   Atomic configuration                                                         
    8 entries                                                                   
     n  l   j            E        occ.                                          
     1  0  0.50     -4394.2533   2.0000                                         
     2  0  0.50      -471.0040   2.0000                                         
     2  1  1.50      -384.9788   6.0000                                         
     3  0  0.50       -52.1410   2.0000                                         
     4  0  0.50        -3.5584   1.0000                                         
     3  1  1.50       -30.8841   6.0000                                         
     3  2  2.50        -1.3655   2.0000                                         
     4  3  2.50        -1.3606   0.0000                                         
   Description                                                                  
     l       E           TYP  RCUT    TYP  RCUT                                 
     0    -52.1409870     23  1.800                                             
     0     -3.5583698     23  2.500                                             
     1    -30.8840697     23  2.300                                             
     1      4.0817478     23  2.300                                             
     2     -1.3655397     23  2.500                                             
     2      0.3564476     23  2.500                                             
  local pseudopotential read in
  partial core-charges read in
  partial kinetic energy density read in
  atomic valenz-charges read in
  non local Contribution for L=           0  read in
    real space projection operators read in
  non local Contribution for L=           0  read in
    real space projection operators read in
  non local Contribution for L=           1  read in
    real space projection operators read in
  non local Contribution for L=           1  read in
    real space projection operators read in
  non local Contribution for L=           2  read in
    real space projection operators read in
  non local Contribution for L=           2  read in
    real space projection operators read in
    PAW grid and wavefunctions read in
 
   number of l-projection  operators is LMAX  =           6
   number of lm-projection operators is LMMAX =          18
 
 POTCAR:    PAW_PBE Cl 06Sep2000                  
   VRHFIN =Cl: s2p5                                                             
   LEXCH  = PE                                                                  
   EATOM  =   409.7259 eV,   30.1140 Ry                                         
                                                                                
   TITEL  = PAW_PBE Cl 06Sep2000                                                
   LULTRA =        F    use ultrasoft PP ?                                      
   IUNSCR =        1    unscreen: 0-lin 1-nonlin 2-no                           
   RPACOR =    1.500    partial core radius                                     
   POMASS =   35.453; ZVAL   =    7.000    mass and valenz                      
   RCORE  =    1.900    outmost cutoff radius                                   
   RWIGS  =    2.100; RWIGS  =    1.111    wigner-seitz radius (au A)           
   ENMAX  =  262.472; ENMIN  =  196.854 eV                                      
   ICORE  =        2    local potential                                         
   LCOR   =        T    correct aug charges                                     
   LPAW   =        T    paw PP                                                  
   EAUG   =  356.192                                                            
   DEXC   =    0.000                                                            
   RMAX   =    1.945    core radius for proj-oper                               
   RAUG   =    1.300    factor for augmentation sphere                          
   RDEP   =    2.020    radius for radial grids                                 
   RDEPT  =    1.678    core radius for aug-charge                              
                                                                                
   Atomic configuration                                                         
    6 entries                                                                   
     n  l   j            E        occ.                                          
     1  0  0.50     -2751.1850   2.0000                                         
     2  0  0.50      -252.6861   2.0000                                         
     2  1  1.50      -191.6157   6.0000                                         
     3  0  0.50       -20.6916   2.0000                                         
     3  1  0.50        -8.5949   5.0000                                         
     3  2  1.50        -8.1635   0.0000                                         
   Description                                                                  
     l       E           TYP  RCUT    TYP  RCUT                                 
     0    -20.6915656     23  1.900                                             
     0    -22.0521482     23  1.900                                             
     1     -8.5948577     23  1.900                                             
     1     -5.3847331     23  1.900                                             
     2     -8.1634956     23  1.900                                             
  local pseudopotential read in
  partial core-charges read in
  partial kinetic energy density read in
  atomic valenz-charges read in
  non local Contribution for L=           0  read in
    real space projection operators read in
  non local Contribution for L=           0  read in
    real space projection operators read in
  non local Contribution for L=           1  read in
    real space projection operators read in
  non local Contribution for L=           1  read in
    real space projection operators read in
    PAW grid and wavefunctions read in
 
   number of l-projection  operators is LMAX  =           4
   number of lm-projection operators is LMMAX =           8
 
 POTCAR:    PAW_PBE C 08Apr2002                   
   VRHFIN =C: s2p2                                                              
   LEXCH  = PE                                                                  
   EATOM  =   147.1560 eV,   10.8157 Ry                                         
                                                                                
   TITEL  = PAW_PBE C 08Apr2002                                                 
   LULTRA =        F    use ultrasoft PP ?                                      
   IUNSCR =        1    unscreen: 0-lin 1-nonlin 2-no                           
   RPACOR =    1.200    partial core radius                                     
   POMASS =   12.011; ZVAL   =    4.000    mass and valenz                      
   RCORE  =    1.500    outmost cutoff radius                                   
   RWIGS  =    1.630; RWIGS  =    0.863    wigner-seitz radius (au A)           
   ENMAX  =  400.000; ENMIN  =  300.000 eV                                      
   ICORE  =        2    local potential                                         
   LCOR   =        T    correct aug charges                                     
   LPAW   =        T    paw PP                                                  
   EAUG   =  644.873                                                            
   DEXC   =    0.000                                                            
   RMAX   =    1.529    core radius for proj-oper                               
   RAUG   =    1.300    factor for augmentation sphere                          
   RDEP   =    1.501    radius for radial grids                                 
   RDEPT  =    1.300    core radius for aug-charge                              
                                                                                
   Atomic configuration                                                         
    4 entries                                                                   
     n  l   j            E        occ.                                          
     1  0  0.50      -273.3789   2.0000                                         
     2  0  0.50       -13.7508   2.0000                                         
     2  1  0.50        -5.2854   2.0000                                         
     3  2  1.50        -5.4423   0.0000                                         
   Description                                                                  
     l       E           TYP  RCUT    TYP  RCUT                                 
     0    -13.7508458     23  1.200                                             
     0     -8.2022199     23  1.200                                             
     1     -5.2854383     23  1.500                                             
     1     34.0145650     23  1.500                                             
     2     -5.4423304      7  1.500                                             
  local pseudopotential read in
  partial core-charges read in
  partial kinetic energy density read in
  atomic valenz-charges read in
  non local Contribution for L=           0  read in
    real space projection operators read in
  non local Contribution for L=           0  read in
    real space projection operators read in
  non local Contribution for L=           1  read in
    real space projection operators read in
  non local Contribution for L=           1  read in
    real space projection operators read in
    PAW grid and wavefunctions read in
 
   number of l-projection  operators is LMAX  =           4
   number of lm-projection operators is LMMAX =           8
 
 Optimization of the real space projectors (new method)

 maximal supplied QI-value         = 15.12
 optimisation between [QCUT,QGAM] = [ 12.55, 25.10] = [ 44.09,176.36] Ry 
 Optimized for a Real-space Cutoff    1.56 Angstroem

   l    n(q)    QCUT    max X(q) W(low)/X(q) W(high)/X(q)  e(spline) 
   0     12    12.548     2.962    0.12E-05    0.11E-06    0.46E-07
   0     12    12.548    26.414    0.30E-04    0.15E-05    0.76E-07
   1     11    12.548     3.969    0.45E-05    0.12E-05    0.60E-07
   1     11    12.548     5.137    0.15E-04    0.18E-04    0.36E-06
   2     11    12.548   143.970    0.20E-03    0.19E-03    0.76E-06
   2     11    12.548   121.201    0.20E-03    0.19E-03    0.76E-06
 Optimization of the real space projectors (new method)

 maximal supplied QI-value         = 19.84
 optimisation between [QCUT,QGAM] = [ 12.50, 25.00] = [ 43.76,175.03] Ry 
 Optimized for a Real-space Cutoff    1.20 Angstroem

   l    n(q)    QCUT    max X(q) W(low)/X(q) W(high)/X(q)  e(spline) 
   0      9    12.501   168.010    0.44E-04    0.61E-04    0.77E-07
   0      9    12.501   164.674    0.43E-04    0.60E-04    0.75E-07
   1      8    12.501    69.222    0.11E-03    0.13E-03    0.91E-07
   1      8    12.501    56.786    0.11E-03    0.13E-03    0.90E-07
 Optimization of the real space projectors (new method)

 maximal supplied QI-value         = 25.13
 optimisation between [QCUT,QGAM] = [ 12.32, 24.88] = [ 42.47,173.37] Ry 
 Optimized for a Real-space Cutoff    1.16 Angstroem

   l    n(q)    QCUT    max X(q) W(low)/X(q) W(high)/X(q)  e(spline) 
   0      9    12.315   115.676    0.19E-03    0.80E-05    0.34E-06
   0      9    12.315    87.132    0.19E-03    0.82E-05    0.34E-06
   1      8    12.315     4.429    0.18E-03    0.13E-03    0.22E-06
   1      8    12.315     2.733    0.14E-03    0.10E-03    0.18E-06
  PAW_PBE Sc_sv 07Sep2000               :
 energy of atom  1       EATOM=-1273.2868
 kinetic energy error for atom=    0.0014 (will be added to EATOM!!)
  PAW_PBE Cl 06Sep2000                  :
 energy of atom  2       EATOM= -409.7259
 kinetic energy error for atom=    0.0013 (will be added to EATOM!!)
  PAW_PBE C 08Apr2002                   :
 energy of atom  3       EATOM= -147.1560
 kinetic energy error for atom=    0.0057 (will be added to EATOM!!)
 
 
 POSCAR: Sc Cl  C                                
  positions in cartesian coordinates
  No initial velocities read in
 exchange correlation table for  LEXCH =        8
   RHO(1)=    0.500       N(1)  =     2000
   RHO(2)=  100.500       N(2)  =     4000
 


--------------------------------------------------------------------------------------------------------


 ion  position               nearest neighbor table
   1  0.085  0.159  0.543-  65 2.24  70 2.30  66 2.33  61 2.53  49 2.63  50 2.75  29 3.07  17 3.09
                            18 3.16   5 3.25   4 3.29  16 3.41
   2  0.099  0.420  0.547-  71 2.25  66 2.34  67 2.37  51 2.51  50 2.58  62 2.63   6 3.20  18 3.22
                            30 3.31   7 3.31  19 3.34
   3  0.081  0.670  0.546-  68 2.17  67 2.41  72 2.52  52 2.62  63 2.62  51 2.69  20 3.15  31 3.18
                            19 3.30   8 3.39  14 3.41   7 3.42   4 3.43
   4  0.079  0.917  0.548-  65 2.35  68 2.41  69 2.51  49 2.59  64 2.69  52 2.74  17 3.18   1 3.29
                            20 3.31   5 3.37   8 3.39  16 3.43   3 3.43
   5  0.322  0.162  0.546-  69 2.22  49 2.31  70 2.37  53 2.40  74 2.47  54 2.61  17 3.01  21 3.16
                             1 3.25  22 3.33   4 3.37   8 3.39
   6  0.331  0.419  0.544-  75 2.30  71 2.31  70 2.37  54 2.54  55 2.55  50 2.57  18 3.17   2 3.20
                            11 3.27  22 3.28  23 3.28
   7  0.329  0.669  0.545-  72 2.26  71 2.28  76 2.32  56 2.55  55 2.58  51 2.68  24 3.13  19 3.25
                            23 3.27   2 3.31  11 3.42   3 3.42
   8  0.324  0.918  0.542-  69 2.19  72 2.30  73 2.40  56 2.52  53 2.64  52 2.74  20 3.06  24 3.12
                            21 3.20   5 3.39   3 3.39   4 3.39   9 3.42
   9  0.578  0.159  0.547-  74 2.26  73 2.27  58 2.41  78 2.51  53 2.55  57 2.56  25 3.15  21 3.16
                            12 3.16  26 3.23  10 3.41   8 3.42
  10  0.585  0.409  0.545-  74 2.29  79 2.39  75 2.40  54 2.44  59 2.61  58 2.64  26 3.18  22 3.20
                            27 3.25  14 3.40   9 3.41
  11  0.569  0.655  0.550-  75 2.29  76 2.37  55 2.53  60 2.58  80 2.60  59 2.61  23 3.10   6 3.27
                            28 3.29  27 3.40   7 3.42
  12  0.585  0.934  0.545-  73 2.17  77 2.46  76 2.48  56 2.51  57 2.59  60 2.75  24 3.01  25 3.08
                             9 3.16  28 3.21  13 3.37
  13  0.838  0.169  0.545-  78 2.26  66 2.36  77 2.37  61 2.46  62 2.68  57 2.89  30 3.12  29 3.25
                            25 3.29  12 3.37  16 3.40
  14  0.836  0.420  0.547-  79 2.29  63 2.41  78 2.44  62 2.48  58 2.51  67 2.52  31 3.12  26 3.19
                            30 3.32  10 3.40   3 3.41
  15  0.828  0.669  0.543-  68 2.30  80 2.35  79 2.41  63 2.55  64 2.59  59 2.59  32 3.07  27 3.08
                            31 3.30  16 3.42
  16  0.831  0.919  0.542-  77 2.31  80 2.35  65 2.40  60 2.54  61 2.54  64 2.83  28 3.10  29 3.10
                            32 3.19  13 3.40   1 3.41  15 3.42   4 3.43
  17  0.177  0.082  0.458-  69 2.21  70 2.32  65 2.35  36 2.55  37 2.67  33 2.77   5 3.01   1 3.09
                             4 3.18  21 3.24  20 3.42  18 3.43
  18  0.168  0.326  0.455-  70 2.22  66 2.31  33 2.53  71 2.53  34 2.74  38 2.75   1 3.16   6 3.17
                             2 3.22  29 3.34  30 3.40  17 3.43
  19  0.166  0.588  0.451-  67 2.26  72 2.39  71 2.45  34 2.49  39 2.64  35 2.70   7 3.25   3 3.30
                            31 3.33  20 3.33   2 3.34
  20  0.165  0.829  0.456-  72 2.35  68 2.44  35 2.50  69 2.51  36 2.63  40 2.66   8 3.06   3 3.15
                             4 3.31  19 3.33  17 3.42
  21  0.419  0.097  0.457-  74 2.19  69 2.29  73 2.49  37 2.52  40 2.54  41 2.61   9 3.16   5 3.16
                             8 3.20  17 3.24  22 3.28  26 3.36  25 3.42
  22  0.424  0.337  0.454-  75 2.36  38 2.42  70 2.45  74 2.48  37 2.56  42 2.58  10 3.20  21 3.28
                             6 3.28   5 3.33  27 3.40
  23  0.434  0.598  0.455-  76 2.26  75 2.39  43 2.45  71 2.51  38 2.63  39 2.65  11 3.10  28 3.16
                             7 3.27   6 3.28  24 3.41  27 3.42
  24  0.428  0.842  0.460-  73 2.21  72 2.27  76 2.29  44 2.61  39 2.68  40 2.87  12 3.01   8 3.12
                             7 3.13  25 3.27  28 3.28  23 3.41
  25  0.660  0.084  0.455-  73 2.28  78 2.34  77 2.41  44 2.57  41 2.66  45 2.69  12 3.08   9 3.15
                            24 3.27  13 3.29  26 3.29  21 3.42
  26  0.672  0.329  0.457-  79 2.31  78 2.35  74 2.40  41 2.58  46 2.63  42 2.67  10 3.18  14 3.19
                             9 3.23  25 3.29  21 3.36  31 3.37
  27  0.673  0.581  0.455-  79 2.36  80 2.37  75 2.49  47 2.51  42 2.57  43 2.66  15 3.08  32 3.14
                            10 3.25  11 3.40  22 3.40  23 3.42
  28  0.660  0.830  0.459-  80 2.24  76 2.30  77 2.35  48 2.56  43 2.79  44 2.96  16 3.10  23 3.16
                            12 3.21  24 3.28  11 3.29  32 3.33
  29  0.927  0.082  0.456-  65 2.21  77 2.32  66 2.43  48 2.49  33 2.53  45 2.63   1 3.07  16 3.10
                            13 3.25  18 3.34  30 3.42
  30  0.921  0.327  0.456-  78 2.31  66 2.32  67 2.41  34 2.66  46 2.78  45 2.79  13 3.12   2 3.31
                            14 3.32  18 3.40  31 3.41  29 3.42
  31  0.918  0.572  0.456-  79 2.30  67 2.36  68 2.44  35 2.67  46 2.70  47 2.78  14 3.12   3 3.18
                            15 3.30  19 3.33  26 3.37  30 3.41
  32  0.893  0.816  0.453-  80 2.12  48 2.40  65 2.57  68 2.60  36 2.60  47 2.68  15 3.07  27 3.14
                            16 3.19  28 3.33
  33  0.083  0.167  0.395-  29 2.53  18 2.53  17 2.77
  34  0.090  0.428  0.394-  19 2.49  30 2.66  18 2.74
  35  0.082  0.682  0.392-  20 2.50  31 2.67  19 2.70
  36  0.074  0.917  0.401-  17 2.55  32 2.60  20 2.63
  37  0.343  0.174  0.394-  21 2.52  22 2.56  17 2.67
  38  0.355  0.423  0.397-  22 2.42  23 2.63  18 2.75
  39  0.343  0.679  0.394-  19 2.64  23 2.65  24 2.68
  40  0.337  0.938  0.396-  21 2.54  20 2.66  24 2.87
  41  0.579  0.173  0.393-  26 2.58  21 2.61  25 2.66
  42  0.590  0.418  0.395-  27 2.57  22 2.58  26 2.67
  43  0.577  0.654  0.393-  23 2.45  27 2.66  28 2.79
  44  0.572  0.932  0.390-  25 2.57  24 2.61  28 2.96
  45  0.829  0.146  0.393-  29 2.63  25 2.69  30 2.79
  46  0.827  0.407  0.390-  26 2.63  31 2.70  30 2.78
  47  0.818  0.646  0.389-  27 2.51  32 2.68  31 2.78
  48  0.830  0.915  0.403-  32 2.40  29 2.49  28 2.56
  49  0.183  0.089  0.604-   5 2.31   4 2.59   1 2.63
  50  0.175  0.332  0.608-   6 2.57   2 2.58   1 2.75
  51  0.159  0.575  0.607-   2 2.51   7 2.68   3 2.69
  52  0.163  0.827  0.612-   3 2.62   4 2.74   8 2.74
  53  0.407  0.091  0.601-   5 2.40   9 2.55   8 2.64
  54  0.424  0.342  0.599-  10 2.44   6 2.54   5 2.61
  55  0.401  0.578  0.605-  11 2.53   6 2.55   7 2.58
  56  0.415  0.843  0.598-  12 2.51   8 2.52   7 2.55
  57  0.653  0.083  0.612-   9 2.56  12 2.59  13 2.89
  58  0.669  0.315  0.601-   9 2.41  14 2.51  10 2.64
  59  0.667  0.577  0.606-  15 2.59  10 2.61  11 2.61
  60  0.671  0.832  0.602-  16 2.54  11 2.58  12 2.75
  61  0.919  0.086  0.599-  13 2.46   1 2.53  16 2.54
  62  0.924  0.348  0.604-  14 2.48   2 2.63  13 2.68
  63  0.903  0.578  0.601-  14 2.41  15 2.55   3 2.62
  64  0.907  0.819  0.610-  15 2.59   4 2.69  16 2.83
  65  0.004  0.002  0.499-  29 2.21   1 2.24  17 2.35   4 2.35  16 2.40  32 2.57
  66  0.009  0.254  0.502-  18 2.31  30 2.32   1 2.33   2 2.34  13 2.36  29 2.43
  67  0.015  0.501  0.500-  19 2.26  31 2.36   2 2.37   3 2.41  30 2.41  14 2.52
  68  0.997  0.741  0.505-   3 2.17  15 2.30   4 2.41  20 2.44  31 2.44  32 2.60
  69  0.259  0.009  0.502-   8 2.19  17 2.21   5 2.22  21 2.29   4 2.51  20 2.51
  70  0.248  0.251  0.499-  18 2.22   1 2.30  17 2.32   5 2.37   6 2.37  22 2.45
  71  0.254  0.507  0.501-   2 2.25   7 2.28   6 2.31  19 2.45  23 2.51  18 2.53
  72  0.260  0.755  0.498-   7 2.26  24 2.27   8 2.30  20 2.35  19 2.39   3 2.52
  73  0.502  0.001  0.501-  12 2.17  24 2.21   9 2.27  25 2.28   8 2.40  21 2.49
  74  0.503  0.244  0.503-  21 2.19   9 2.26  10 2.29  26 2.40   5 2.47  22 2.48
  75  0.498  0.497  0.503-  11 2.29   6 2.30  22 2.36  23 2.39  10 2.40  27 2.49
  76  0.498  0.749  0.503-  23 2.26  24 2.29  28 2.30   7 2.32  11 2.37  12 2.48
  77  0.757  0.006  0.497-  16 2.31  29 2.32  28 2.35  13 2.37  25 2.41  12 2.46
  78  0.759  0.248  0.501-  13 2.26  30 2.31  25 2.34  26 2.35  14 2.44   9 2.51
  79  0.754  0.495  0.500-  14 2.29  31 2.30  26 2.31  27 2.36  10 2.39  15 2.41
  80  0.748  0.753  0.496-  32 2.12  28 2.24  15 2.35  16 2.35  27 2.37  11 2.60
 
  LATTYP: Found a hexagonal cell.
 ALAT       =    13.7939866762
 C/A-ratio  =     2.0161119278
  
  Lattice vectors:
  
 A1 = (  13.7939866800,   0.0000000000,   0.0000000000)
 A2 = (  -6.8969933400,  11.9459428800,   0.0000000000)
 A3 = (   0.0000000000,   0.0000000000,  27.8102210700)


Analysis of symmetry for initial positions (statically):
=====================================================================
 Subroutine PRICEL returns:
 Original cell was already a primitive cell.
 

 Routine SETGRP: Setting up the symmetry group for a 
 hexagonal supercell.


 Subroutine GETGRP returns: Found  1 space group operations
 (whereof  1 operations were pure point group operations)
 out of a pool of 24 trial point group operations.


The static configuration has the point symmetry C_1 .


Analysis of symmetry for dynamics (positions and initial velocities):
=====================================================================
 Subroutine PRICEL returns:
 Original cell was already a primitive cell.
 

 Routine SETGRP: Setting up the symmetry group for a 
 hexagonal supercell.


 Subroutine GETGRP returns: Found  1 space group operations
 (whereof  1 operations were pure point group operations)
 out of a pool of 24 trial point group operations.


The dynamic configuration has the point symmetry C_1 .


 Subroutine INISYM returns: Found  1 space group operations
 (whereof  1 operations are pure point group operations),
 and found     1 'primitive' translations

 
 

Automatic generation of k-mesh.
 generate k-points for:    3    3    1
Space group operators:
 irot       det(A)        alpha          n_x          n_y          n_z        tau_x        tau_y        tau_z
    1     1.000000     0.000000     1.000000     0.000000     0.000000     0.000000     0.000000     0.000000
 
 Subroutine IBZKPT returns following result:
 ===========================================
 
 Found      5 irreducible k-points:
 
 Following reciprocal coordinates:
            Coordinates               Weight
  0.000000  0.000000  0.000000      1.000000
  0.333333 -0.000000  0.000000      2.000000
  0.000000  0.333333  0.000000      2.000000
  0.333333  0.333333  0.000000      2.000000
 -0.333333  0.333333  0.000000      2.000000
 
 Following cartesian coordinates:
            Coordinates               Weight
  0.000000  0.000000  0.000000      1.000000
  0.024165  0.013952  0.000000      2.000000
  0.000000  0.027903  0.000000      2.000000
  0.024165  0.041855  0.000000      2.000000
 -0.024165  0.013952  0.000000      2.000000
 


--------------------------------------------------------------------------------------------------------




 Dimension of arrays:
   k-points           NKPTS =      5   k-points in BZ     NKDIM =      5   number of bands    NBANDS=    384
   number of dos      NEDOS =    301   number of ions     NIONS =     80
   non local maximal  LDIM  =      6   non local SUM 2l+1 LMDIM =     18
   total plane-waves  NPLWV = ******
   max r-space proj   IRMAX =   9806   max aug-charges    IRDMAX= 216835
   dimension x,y,z NGX =   112 NGY =  112 NGZ =  224
   dimension x,y,z NGXF=   224 NGYF=  224 NGZF=  448
   support grid    NGXF=   448 NGYF=  448 NGZF=  896
   ions per type =              32  32  16
   NGX,Y,Z   is equivalent  to a cutoff of  13.50, 13.50, 13.39 a.u.
   NGXF,Y,Z  is equivalent  to a cutoff of  27.00, 27.00, 26.78 a.u.

 SYSTEM =  unknown system                          
 POSCAR =  Sc Cl  C                                

 Startparameter for this run:
   NWRITE =      2    write-flag & timer
   PREC   = anorma    normal or accurate (medium, high low for compatibility)
   ISTART =      0    job   : 0-new  1-cont  2-samecut
   ICHARG =      2    charge: 1-file 2-atom 10-const
   ISPIN  =      1    spin polarized calculation?
   LNONCOLLINEAR =      F non collinear calculations
   LSORBIT =      F    spin-orbit coupling
   INIWAV =      1    electr: 0-lowe 1-rand  2-diag
   LASPH  =      F    aspherical Exc in radial PAW
   METAGGA=      F    non-selfconsistent MetaGGA calc.

 Electronic Relaxation 1
   ENCUT  =  600.0 eV  44.10 Ry    6.64 a.u.  27.55 27.55 55.54*2*pi/ulx,y,z
   ENINI  =  600.0     initial cutoff
   ENAUG  =  644.9 eV  augmentation charge cutoff
   NELM   =     60;   NELMIN=  2; NELMDL= -5     # of ELM steps 
   EDIFF  = 0.1E-05   stopping-criterion for ELM
   LREAL  =      T    real-space projection
   NLSPLINE    = F    spline interpolate recip. space projectors
   LCOMPAT=      F    compatible to vasp.4.4
   GGA_COMPAT  = T    GGA compatible to vasp.4.4-vasp.4.6
   LMAXPAW     = -100 max onsite density
   LMAXMIX     =    2 max onsite mixed and CHGCAR
   VOSKOWN=      0    Vosko Wilk Nusair interpolation
   ROPT   =   -0.00025  -0.00025  -0.00025
 Ionic relaxation
   EDIFFG = -.1E-01   stopping-criterion for IOM
   NSW    =      1    number of steps for IOM
   NBLOCK =      1;   KBLOCK =      1    inner block; outer block 
   IBRION =     -1    ionic relax: 0-MD 1-quasi-New 2-CG
   NFREE  =      0    steps in history (QN), initial steepest desc. (CG)
   ISIF   =      2    stress and relaxation
   IWAVPR =     10    prediction:  0-non 1-charg 2-wave 3-comb
   ISYM   =      2    0-nonsym 1-usesym 2-fastsym
   LCORR  =      T    Harris-Foulkes like correction to forces

   POTIM  = 1.0000    time-step for ionic-motion
   TEIN   =    0.0    initial temperature
   TEBEG  =    0.0;   TEEND  =   0.0 temperature during run
   SMASS  =  -3.00    Nose mass-parameter (am)
   estimated Nose-frequenzy (Omega)   =  0.10E-29 period in steps =****** mass=  -0.435E-26a.u.
   SCALEE = 1.0000    scale energy and forces
   NPACO  =    256;   APACO  = 16.0  distance and # of slots for P.C.
   PSTRESS=    0.0 pullay stress

  Mass of Ions in am
   POMASS =  44.96 35.45 12.01
  Ionic Valenz
   ZVAL   =  11.00  7.00  4.00
  Atomic Wigner-Seitz radii
   RWIGS  =  -1.00 -1.00 -1.00
  virtual crystal weights 
   VCA    =   1.00  1.00  1.00
   NELECT =     640.0000    total number of electrons
   NUPDOWN=      -1.0000    fix difference up-down

 DOS related values:
   EMIN   =  10.00;   EMAX   =-10.00  energy-range for DOS
   EFERMI =   0.00
   ISMEAR =     0;   SIGMA  =   0.05  broadening in eV -4-tet -1-fermi 0-gaus

 Electronic relaxation 2 (details)
   IALGO  =     38    algorithm
   LDIAG  =      T    sub-space diagonalisation (order eigenvalues)
   LSUBROT=      F    optimize rotation matrix (better conditioning)
   TURBO    =      0    0=normal 1=particle mesh
   IRESTART =      0    0=no restart 2=restart with 2 vectors
   NREBOOT  =      0    no. of reboots
   NMIN     =      0    reboot dimension
   EREF     =   0.00    reference energy to select bands
   IMIX   =      4    mixing-type and parameters
     AMIX     =   0.40;   BMIX     =  1.00
     AMIX_MAG =   1.60;   BMIX_MAG =  1.00
     AMIN     =   0.10
     WC   =   100.;   INIMIX=   1;  MIXPRE=   1;  MAXMIX= -45

 Intra band minimization:
   WEIMIN = 0.0000     energy-eigenvalue tresh-hold
   EBREAK =  0.65E-09  absolut break condition
   DEPER  =   0.30     relativ break condition  

   TIME   =   0.40     timestep for ELM

  volume/ion in A,a.u.               =      57.28       386.56
  Fermi-wavevector in a.u.,A,eV,Ry     =   0.849369  1.605075  9.815628  0.721428
  Thomas-Fermi vector in A             =   1.965179
 
 Write flags
   LWAVE        =      F    write WAVECAR
   LDOWNSAMPLE  =      F    k-point downsampling of WAVECAR
   LCHARG       =      F    write CHGCAR
   LVTOT        =      F    write LOCPOT, total local potential
   LVHAR        =      F    write LOCPOT, Hartree potential only
   LELF         =      F    write electronic localiz. function (ELF)
   LORBIT       =      0    0 simple, 1 ext, 2 COOP (PROOUT), +10 PAW based schemes


 Dipole corrections
   LMONO  =      F    monopole corrections only (constant potential shift)
   LDIPOL =      F    correct potential (dipole corrections)
   IDIPOL =      0    1-x, 2-y, 3-z, 4-all directions 
   EPSILON=  1.0000000 bulk dielectric constant

 Exchange correlation treatment:
   GGA     =    --    GGA type
   LEXCH   =     8    internal setting for exchange type
   VOSKOWN=      0    Vosko Wilk Nusair interpolation
   LHFCALC =     F    Hartree Fock is set to
   LHFONE  =     F    Hartree Fock one center treatment
   AEXX    =    0.0000 exact exchange contribution

 Linear response parameters
   LEPSILON=     F    determine dielectric tensor
   LRPA    =     F    only Hartree local field effects (RPA)
   LNABLA  =     F    use nabla operator in PAW spheres
   LVEL    =     F    velocity operator in full k-point grid
   LINTERFAST=   F  fast interpolation
   KINTER  =     0    interpolate to denser k-point grid
   CSHIFT  =0.1000    complex shift for real part using Kramers Kronig
   OMEGAMAX=  -1.0    maximum frequency
   DEG_THRESHOLD= 0.2000000E-02 threshold for treating states as degnerate
   RTIME   =   -0.100 relaxation time in fs
  (WPLASMAI=    0.000 imaginary part of plasma frequency in eV, 0.658/RTIME)
   DFIELD  = 0.0000000 0.0000000 0.0000000 field for delta impulse in time
 
 Orbital magnetization related:
   ORBITALMAG=     F  switch on orbital magnetization
   LCHIMAG   =     F  perturbation theory with respect to B field
   DQ        =  0.001000  dq finite difference perturbation B field
   LLRAUG    =     F  two centre corrections for induced B field



--------------------------------------------------------------------------------------------------------


 Static calculation
 charge density and potential will be updated during run
 non-spin polarized calculation
 Variant of blocked Davidson
 Davidson routine will perform the subspace rotation
 perform sub-space diagonalisation
    after iterative eigenvector-optimisation
 modified Broyden-mixing scheme, WC =      100.0
 initial mixing is a Kerker type mixing with AMIX =  0.4000 and BMIX =      1.0000
 Hartree-type preconditioning will be used
 using additional bands           64
 real space projection scheme for non local part
 use partial core corrections
 calculate Harris-corrections to forces 
   (improved forces if not selfconsistent)
 use gradient corrections 
 use of overlap-Matrix (Vanderbilt PP)
 Gauss-broadening in eV      SIGMA  =   0.05


--------------------------------------------------------------------------------------------------------


  energy-cutoff  :      600.00
  volume of cell :     4582.63
      direct lattice vectors                 reciprocal lattice vectors
    13.793986680  0.000000000  0.000000000     0.072495358  0.041855214  0.000000000
    -6.896993340 11.945942880  0.000000000     0.000000000  0.083710429  0.000000000
     0.000000000  0.000000000 27.810221070     0.000000000  0.000000000  0.035958003

  length of vectors
    13.793986680 13.793986676 27.810221070     0.083710429  0.083710429  0.035958003


 
 k-points in units of 2pi/SCALE and weight: read from INCAR                         
   0.00000000  0.00000000  0.00000000       0.111
   0.02416512  0.01395174  0.00000000       0.222
   0.00000000  0.02790348  0.00000000       0.222
   0.02416512  0.04185521  0.00000000       0.222
  -0.02416512  0.01395174  0.00000000       0.222
 
 k-points in reciprocal lattice and weights: read from INCAR                         
   0.00000000  0.00000000  0.00000000       0.111
   0.33333333 -0.00000000  0.00000000       0.222
   0.00000000  0.33333333  0.00000000       0.222
   0.33333333  0.33333333  0.00000000       0.222
  -0.33333333  0.33333333  0.00000000       0.222
 
 position of ions in fractional coordinates (direct lattice) 
   0.08497690  0.15870172  0.54277928
   0.09935788  0.42008246  0.54690140
   0.08133758  0.66983859  0.54599866
   0.07853499  0.91699813  0.54788517
   0.32242929  0.16209093  0.54647258
   0.33089417  0.41891227  0.54439998
   0.32917324  0.66915741  0.54469601
   0.32425866  0.91771910  0.54164440
   0.57786855  0.15890307  0.54661017
   0.58471287  0.40912205  0.54545627
   0.56926374  0.65454850  0.54989386
   0.58534858  0.93355684  0.54476723
   0.83827914  0.16881183  0.54508386
   0.83622027  0.42030860  0.54734993
   0.82752615  0.66889038  0.54340529
   0.83113324  0.91867055  0.54235817
   0.17662319  0.08195881  0.45830266
   0.16756027  0.32566271  0.45463650
   0.16627182  0.58786602  0.45125260
   0.16529865  0.82880690  0.45558977
   0.41855248  0.09726200  0.45650909
   0.42355222  0.33708777  0.45355108
   0.43398802  0.59784500  0.45497479
   0.42824608  0.84214321  0.46034874
   0.65950291  0.08442390  0.45515800
   0.67229328  0.32924283  0.45674627
   0.67301221  0.58092073  0.45479084
   0.65964430  0.83009599  0.45861172
   0.92712481  0.08175837  0.45585370
   0.92145054  0.32691837  0.45570907
   0.91759240  0.57238405  0.45598213
   0.89331287  0.81551053  0.45279944
   0.08337078  0.16674725  0.39475862
   0.09020392  0.42818792  0.39364317
   0.08160644  0.68181475  0.39192566
   0.07382914  0.91734746  0.40085503
   0.34251253  0.17402286  0.39405605
   0.35533548  0.42346568  0.39726646
   0.34341287  0.67864920  0.39424817
   0.33676917  0.93811693  0.39574200
   0.57891121  0.17301956  0.39289594
   0.59032892  0.41761139  0.39451720
   0.57740925  0.65383027  0.39266913
   0.57197976  0.93216241  0.39020165
   0.82876410  0.14564268  0.39267038
   0.82734629  0.40694743  0.38968010
   0.81817085  0.64645621  0.38946305
   0.83036265  0.91458607  0.40284030
   0.18264651  0.08906688  0.60375794
   0.17464772  0.33200600  0.60759066
   0.15940783  0.57470132  0.60747480
   0.16272315  0.82674608  0.61165101
   0.40742309  0.09086174  0.60088257
   0.42358498  0.34200466  0.59923769
   0.40104164  0.57762552  0.60532258
   0.41530991  0.84322680  0.59769295
   0.65303802  0.08319895  0.61185600
   0.66930202  0.31509895  0.60109388
   0.66702828  0.57675356  0.60577364
   0.67134066  0.83248308  0.60229478
   0.91870463  0.08553844  0.59871702
   0.92418003  0.34760828  0.60353604
   0.90310102  0.57794616  0.60085079
   0.90700575  0.81918297  0.61034102
   0.00370227  0.00186843  0.49850208
   0.00945518  0.25406829  0.50249897
   0.01501273  0.50112565  0.49952405
   0.99746166  0.74094146  0.50541451
   0.25898719  0.00939971  0.50169370
   0.24786770  0.25124654  0.49869729
   0.25418517  0.50741956  0.50132451
   0.26026835  0.75498706  0.49838775
   0.50204671  0.00078817  0.50124393
   0.50303548  0.24421357  0.50323110
   0.49766312  0.49722920  0.50307858
   0.49796819  0.74947401  0.50348428
   0.75743051  0.00576656  0.49651102
   0.75874986  0.24757796  0.50071185
   0.75439880  0.49504495  0.49966796
   0.74796117  0.75314434  0.49649298
 
 position of ions in cartesian coordinates  (Angst):
   0.07760550  1.89584166 15.09481188
  -1.52676458  5.01828103 15.20944877
  -3.49790278  8.00185358 15.18434330
  -5.24121945 10.95440729 15.23680779
   3.32964529  1.93632894 15.19752330
   1.67511469  5.00430199 15.13988390
  -0.07456285  7.99371617 15.14811639
  -1.85668289 10.96301990 15.06325060
   6.87515769  1.89824704 15.20134972
   5.24380952  4.88734863 15.16925939
   3.33799973  7.81919900 15.29266974
   1.63555515 11.15221668 15.15009715
  10.39891722  2.01661644 15.15890272
   8.63594568  5.02098251 15.22192258
   6.80155221  7.99052633 15.11222129
   5.12857619 10.97438597 15.08310051
   1.87106853  0.97907528 12.74549832
   0.06523065  3.89034808 12.64354163
  -1.76095670  7.02261390 12.54943448
  -3.43614826  9.90087987 12.67005232
   5.10269201  1.16188630 12.69561875
   3.51758155  4.02683126 12.61335578
   1.86309191  7.14182228 12.65294957
   0.09896462 10.06019466 12.80240035
   8.51490329  1.00852303 12.65804463
   7.00281888  3.93311606 12.70221465
   5.27691507  6.93964586 12.64783389
   3.37395818  9.91627931 12.75409327
  12.22486037  0.97668086 12.67739212
  10.45572271  3.90534817 12.67336990
   8.70952838  6.83766715 12.68096392
   6.69777514  9.74204216 12.59245242
  -0.00003927  1.99195308 10.97832440
  -1.70893754  5.11510843 10.94730364
  -3.57679357  8.14492004 10.89953933
  -5.30854122 10.95858039 11.14786698
   3.52437876  2.07886713 10.95878591
   1.98085291  5.05869684 11.04806804
   0.05639357  8.10710460 10.96412863
  -1.82479685 11.20669130 11.00567261
   6.79217876  2.06688179 10.92652289
   5.26272626  4.98876177 10.97161055
   3.45531245  7.81061902 10.92021534
   1.46076317 11.13555896 10.85159427
  10.42746438  1.73983912 10.92025017
   8.60568995  4.86137077 10.83708974
   6.82723362  7.72252892 10.83105362
   5.14611729 10.92559290 11.20307770
   1.90512981  1.06398784 16.79064180
   0.11924515  3.96612471 16.89723069
  -1.76484171  6.86534917 16.89400835
  -3.45746131  9.87626148 17.01014976
   4.99331593  1.08542911 16.71067705
   3.48412167  4.08556814 16.66493274
   1.54808365  6.90028147 16.83415471
  -0.08695025 10.07313916 16.62197307
   8.43417520  0.99388988 17.01585064
   7.05910784  3.76415408 16.71655378
   5.22311377  6.88986514 16.84669876
   3.51883387  9.94479534 16.74995110
  12.08264132  1.02183734 16.65045273
  10.35067507  4.15250867 16.78447058
   8.47127266  6.90411185 16.70979331
   6.86132573  9.78591296 16.97371880
   0.03818251  0.02232013 13.86345310
  -1.62188262  3.03508527 13.97460755
  -3.24917489  5.98641834 13.89187434
   8.64870458  8.85124430 14.05568938
   3.50763611  0.11228837 13.95221279
   1.68623806  3.00137676 13.86888177
   0.00655758  6.06160503 13.94194543
  -1.61700265  9.01903234 13.86027364
   6.91978957  0.00941543 13.93970463
   5.25452539  2.91736132 13.99496818
   3.43537195  5.93987158 13.99072666
   1.69984933  8.95317376 14.00200909
  10.40821450  0.06888694 13.80808112
   8.75864197  2.95755213 13.92490720
   6.99184522  5.91377870 13.89587640
   5.12293493  8.99701923 13.80757958
 


--------------------------------------------------------------------------------------------------------


 k-point  1 :   0.0000 0.0000 0.0000  plane waves:  153003
 k-point  2 :   0.3333-0.0000 0.0000  plane waves:  152954
 k-point  3 :   0.0000 0.3333 0.0000  plane waves:  152954
 k-point  4 :   0.3333 0.3333 0.0000  plane waves:  152898
 k-point  5 :  -0.3333 0.3333 0.0000  plane waves:  152954

 maximum and minimum number of plane-waves per node :     11814    11730

 maximum number of plane-waves:    153003
 maximum index in each direction: 
   IXMAX=   27   IYMAX=   27   IZMAX=   55
   IXMIN=  -27   IYMIN=  -27   IZMIN=  -55


 real space projection operators:
  total allocation   :      55056.31 KBytes
  max/ min on nodes  :       4459.84       3896.31


 parallel 3D FFT for wavefunctions:
    minimum data exchange during FFTs selected (reduces bandwidth)
 parallel 3D FFT for charge:
    minimum data exchange during FFTs selected (reduces bandwidth)


 total amount of memory used by VASP MPI-rank0   253945. kBytes
=======================================================================

   base      :      30000. kBytes
   nonlr-proj:      18761. kBytes
   fftplans  :      72602. kBytes
   grid      :      41267. kBytes
   one-center:        108. kBytes
   wavefun   :      91207. kBytes
 
     INWAV:  cpu time    0.0000: real time    0.0000
 Broyden mixing: mesh for mixing (old mesh)
   NGX = 55   NGY = 55   NGZ =111
  (NGX  =224   NGY  =224   NGZ  =448)
  gives a total of 335775 points

 initial charge density was supplied:
 charge density of overlapping atoms calculated
 number of electron     640.0000000 magnetization 
 keeping initial charge density in first step


--------------------------------------------------------------------------------------------------------


 Maximum index for non-local projection operator          947
 Maximum index for augmentation-charges         5263 (set IRDMAX)


--------------------------------------------------------------------------------------------------------


 First call to EWALD:  gamma=   0.107
 Maximum number of real-space cells 4x 4x 2
 Maximum number of reciprocal cells 2x 2x 4

    FEWALD:  cpu time    0.0029: real time    0.0029


--------------------------------------- Iteration      1(   1)  ---------------------------------------


    POTLOK:  cpu time    0.4102: real time    0.4156
    SETDIJ:  cpu time    0.4228: real time    0.4229
     EDDAV:  cpu time   50.1327: real time   50.1364
       DOS:  cpu time    0.0015: real time    0.0015
    --------------------------------------------
      LOOP:  cpu time   50.9672: real time   50.9764

 eigenvalue-minimisations  :  4432
 total energy-change (2. order) : 0.1223107E+05  (-0.2678504E+05)
 number of electron     640.0000000 magnetization 
 augmentation part      640.0000000 magnetization 

 Free energy of the ion-electron system (eV)
  ---------------------------------------------------
  alpha Z        PSCENC =       784.57699423
  Ewald energy   TEWEN  =    252595.89733643
  -Hartree energ DENC   =   -300247.25299431
  -exchange      EXHF   =         0.00000000
  -V(xc)+E(xc)   XCENC  =      2503.34461864
  PAW double counting   =     43679.68029659   -43417.33247688
  entropy T*S    EENTRO =        -0.06464348
  eigenvalues    EBANDS =       121.49448849
  atomic energy  EATOM  =     56210.72393729
  Solvation  Ediel_sol  =         0.00000000
  ---------------------------------------------------
  free energy    TOTEN  =     12231.06755701 eV

  energy without entropy =    12231.13220049  energy(sigma->0) =    12231.09987875


--------------------------------------------------------------------------------------------------------




--------------------------------------- Iteration      1(   2)  ---------------------------------------


     EDDAV:  cpu time   56.8510: real time   56.8662
       DOS:  cpu time    0.0013: real time    0.0013
    --------------------------------------------
      LOOP:  cpu time   56.8523: real time   56.8675

 eigenvalue-minimisations  :  5216
 total energy-change (2. order) :-0.1048230E+05  (-0.1021511E+05)
 number of electron     640.0000000 magnetization 
 augmentation part      640.0000000 magnetization 

 Free energy of the ion-electron system (eV)
  ---------------------------------------------------
  alpha Z        PSCENC =       784.57699423
  Ewald energy   TEWEN  =    252595.89733643
  -Hartree energ DENC   =   -300247.25299431
  -exchange      EXHF   =         0.00000000
  -V(xc)+E(xc)   XCENC  =      2503.34461864
  PAW double counting   =     43679.68029659   -43417.33247688
  entropy T*S    EENTRO =        -0.03564771
  eigenvalues    EBANDS =    -10360.83522720
  atomic energy  EATOM  =     56210.72393729
  Solvation  Ediel_sol  =         0.00000000
  ---------------------------------------------------
  free energy    TOTEN  =      1748.76683708 eV

  energy without entropy =     1748.80248479  energy(sigma->0) =     1748.78466094


--------------------------------------------------------------------------------------------------------




--------------------------------------- Iteration      1(   3)  ---------------------------------------


     EDDAV:  cpu time   70.8329: real time   70.8389
       DOS:  cpu time    0.0005: real time    0.0005
    --------------------------------------------
      LOOP:  cpu time   70.8334: real time   70.8394

 eigenvalue-minimisations  :  6800
 total energy-change (2. order) :-0.2151846E+04  (-0.2065959E+04)
 number of electron     640.0000000 magnetization 
 augmentation part      640.0000000 magnetization 

 Free energy of the ion-electron system (eV)
  ---------------------------------------------------
  alpha Z        PSCENC =       784.57699423
  Ewald energy   TEWEN  =    252595.89733643
  -Hartree energ DENC   =   -300247.25299431
  -exchange      EXHF   =         0.00000000
  -V(xc)+E(xc)   XCENC  =      2503.34461864
  PAW double counting   =     43679.68029659   -43417.33247688
  entropy T*S    EENTRO =        -0.00000000
  eigenvalues    EBANDS =    -12512.71664115
  atomic energy  EATOM  =     56210.72393729
  Solvation  Ediel_sol  =         0.00000000
  ---------------------------------------------------
  free energy    TOTEN  =      -403.07892916 eV

  energy without entropy =     -403.07892916  energy(sigma->0) =     -403.07892916


--------------------------------------------------------------------------------------------------------




--------------------------------------- Iteration      1(   4)  ---------------------------------------


     EDDAV:  cpu time   64.6159: real time   64.6246
       DOS:  cpu time    0.0005: real time    0.0005
    --------------------------------------------
      LOOP:  cpu time   64.6164: real time   64.6251

 eigenvalue-minimisations  :  6088
 total energy-change (2. order) :-0.2391132E+03  (-0.2345111E+03)
 number of electron     640.0000000 magnetization 
 augmentation part      640.0000000 magnetization 

 Free energy of the ion-electron system (eV)
  ---------------------------------------------------
  alpha Z        PSCENC =       784.57699423
  Ewald energy   TEWEN  =    252595.89733643
  -Hartree energ DENC   =   -300247.25299431
  -exchange      EXHF   =         0.00000000
  -V(xc)+E(xc)   XCENC  =      2503.34461864
  PAW double counting   =     43679.68029659   -43417.33247688
  entropy T*S    EENTRO =        -0.00000000
  eigenvalues    EBANDS =    -12751.82983268
  atomic energy  EATOM  =     56210.72393729
  Solvation  Ediel_sol  =         0.00000000
  ---------------------------------------------------
  free energy    TOTEN  =      -642.19212068 eV

  energy without entropy =     -642.19212068  energy(sigma->0) =     -642.19212068


--------------------------------------------------------------------------------------------------------




--------------------------------------- Iteration      1(   5)  ---------------------------------------


     EDDAV:  cpu time   64.5262: real time   64.5346
       DOS:  cpu time    0.0006: real time    0.0006
    CHARGE:  cpu time    3.8733: real time    3.8735
    MIXING:  cpu time    0.0123: real time    0.0124
    --------------------------------------------
      LOOP:  cpu time   68.4124: real time   68.4211

 eigenvalue-minimisations  :  6080
 total energy-change (2. order) :-0.1059745E+02  (-0.1054226E+02)
 number of electron     640.0000003 magnetization 
 augmentation part       59.2227429 magnetization 

 Broyden mixing:
  rms(total) = 0.69687E+01    rms(broyden)= 0.69686E+01
  rms(prec ) = 0.73318E+01
  weight for this iteration     100.00

 Free energy of the ion-electron system (eV)
  ---------------------------------------------------
  alpha Z        PSCENC =       784.57699423
  Ewald energy   TEWEN  =    252595.89733643
  -Hartree energ DENC   =   -300247.25299431
  -exchange      EXHF   =         0.00000000
  -V(xc)+E(xc)   XCENC  =      2503.34461864
  PAW double counting   =     43679.68029659   -43417.33247688
  entropy T*S    EENTRO =        -0.00000000
  eigenvalues    EBANDS =    -12762.42728180
  atomic energy  EATOM  =     56210.72393729
  Solvation  Ediel_sol  =         0.00000000
  ---------------------------------------------------
  free energy    TOTEN  =      -652.78956980 eV

  energy without entropy =     -652.78956980  energy(sigma->0) =     -652.78956980


--------------------------------------------------------------------------------------------------------




--------------------------------------- Iteration      1(   6)  ---------------------------------------


    POTLOK:  cpu time    0.3843: real time    0.3929
    SETDIJ:  cpu time    0.4176: real time    0.4205
     EDDAV:  cpu time   62.6138: real time   62.6225
       DOS:  cpu time    0.0010: real time    0.0010
    CHARGE:  cpu time    3.8725: real time    3.8725
    MIXING:  cpu time    0.0166: real time    0.0166
    --------------------------------------------
      LOOP:  cpu time   67.3057: real time   67.3260

 eigenvalue-minimisations  :  5840
 total energy-change (2. order) : 0.1308684E+03  (-0.6931088E+02)
 number of electron     640.0000004 magnetization 
 augmentation part       70.1313550 magnetization 

 Broyden mixing:
  rms(total) = 0.30905E+01    rms(broyden)= 0.30904E+01
  rms(prec ) = 0.31232E+01
  weight for this iteration     100.00

 eigenvalues of (default mixing * dielectric matrix)
  average eigenvalue GAMMA=   0.9493
  0.9493

 Free energy of the ion-electron system (eV)
  ---------------------------------------------------
  alpha Z        PSCENC =       784.57699423
  Ewald energy   TEWEN  =    252595.89733643
  -Hartree energ DENC   =   -300060.33430514
  -exchange      EXHF   =         0.00000000
  -V(xc)+E(xc)   XCENC  =      2492.95549091
  PAW double counting   =     49273.39397420   -49065.64908876
  entropy T*S    EENTRO =        -0.00000190
  eigenvalues    EBANDS =    -12753.48551756
  atomic energy  EATOM  =     56210.72393729
  Solvation  Ediel_sol  =         0.00000000
  ---------------------------------------------------
  free energy    TOTEN  =      -521.92118030 eV

  energy without entropy =     -521.92117839  energy(sigma->0) =     -521.92117934


--------------------------------------------------------------------------------------------------------




--------------------------------------- Iteration      1(   7)  ---------------------------------------


    POTLOK:  cpu time    0.3852: real time    0.3940
    SETDIJ:  cpu time    0.4201: real time    0.4201
     EDDAV:  cpu time   63.1392: real time   63.1430
       DOS:  cpu time    0.0006: real time    0.0006
    CHARGE:  cpu time    3.8703: real time    3.8704
    MIXING:  cpu time    0.0159: real time    0.0159
    --------------------------------------------
      LOOP:  cpu time   67.8313: real time   67.8439

 eigenvalue-minimisations  :  5904
 total energy-change (2. order) :-0.5295208E+01  (-0.9228672E+01)
 number of electron     640.0000004 magnetization 
 augmentation part       69.5325395 magnetization 

 Broyden mixing:
  rms(total) = 0.15577E+01    rms(broyden)= 0.15577E+01
  rms(prec ) = 0.15946E+01
  weight for this iteration     100.00

 eigenvalues of (default mixing * dielectric matrix)
  average eigenvalue GAMMA=   0.9885
  0.9885  0.9885

 Free energy of the ion-electron system (eV)
  ---------------------------------------------------
  alpha Z        PSCENC =       784.57699423
  Ewald energy   TEWEN  =    252595.89733643
  -Hartree energ DENC   =   -300162.75969801
  -exchange      EXHF   =         0.00000000
  -V(xc)+E(xc)   XCENC  =      2488.99191980
  PAW double counting   =     54384.94666434   -54191.22766377
  entropy T*S    EENTRO =        -0.00000000
  eigenvalues    EBANDS =    -12638.36587827
  atomic energy  EATOM  =     56210.72393729
  Solvation  Ediel_sol  =         0.00000000
  ---------------------------------------------------
  free energy    TOTEN  =      -527.21638796 eV

  energy without entropy =     -527.21638796  energy(sigma->0) =     -527.21638796


--------------------------------------------------------------------------------------------------------




--------------------------------------- Iteration      1(   8)  ---------------------------------------


    POTLOK:  cpu time    0.3858: real time    0.3945
    SETDIJ:  cpu time    0.4196: real time    0.4196
     EDDAV:  cpu time   62.5372: real time   62.5401
       DOS:  cpu time    0.0005: real time    0.0005
    CHARGE:  cpu time    3.8684: real time    3.8685
    MIXING:  cpu time    0.0169: real time    0.0169
    --------------------------------------------
      LOOP:  cpu time   67.2284: real time   67.2400

 eigenvalue-minimisations  :  5832
 total energy-change (2. order) : 0.2365133E+01  (-0.1006603E+01)
 number of electron     640.0000004 magnetization 
 augmentation part       69.2532993 magnetization 

 Broyden mixing:
  rms(total) = 0.95721E+00    rms(broyden)= 0.95721E+00
  rms(prec ) = 0.97324E+00
  weight for this iteration     100.00

 eigenvalues of (default mixing * dielectric matrix)
  average eigenvalue GAMMA=   1.4276
  2.5508  0.8660  0.8660

 Free energy of the ion-electron system (eV)
  ---------------------------------------------------
  alpha Z        PSCENC =       784.57699423
  Ewald energy   TEWEN  =    252595.89733643
  -Hartree energ DENC   =   -300231.87778995
  -exchange      EXHF   =         0.00000000
  -V(xc)+E(xc)   XCENC  =      2489.07855415
  PAW double counting   =     56272.22758009   -56088.97823188
  entropy T*S    EENTRO =        -0.00000000
  eigenvalues    EBANDS =    -12556.49963535
  atomic energy  EATOM  =     56210.72393729
  Solvation  Ediel_sol  =         0.00000000
  ---------------------------------------------------
  free energy    TOTEN  =      -524.85125500 eV

  energy without entropy =     -524.85125500  energy(sigma->0) =     -524.85125500


--------------------------------------------------------------------------------------------------------




--------------------------------------- Iteration      1(   9)  ---------------------------------------


    POTLOK:  cpu time    0.3859: real time    0.3951
    SETDIJ:  cpu time    0.4204: real time    0.4204
     EDDAV:  cpu time   58.2309: real time   58.2333
       DOS:  cpu time    0.0005: real time    0.0005
    CHARGE:  cpu time    3.8706: real time    3.8707
    MIXING:  cpu time    0.0169: real time    0.0169
    --------------------------------------------
      LOOP:  cpu time   62.9252: real time   62.9369

 eigenvalue-minimisations  :  5344
 total energy-change (2. order) : 0.5421810E+00  (-0.4174891E+00)
 number of electron     640.0000004 magnetization 
 augmentation part       70.0074393 magnetization 

 Broyden mixing:
  rms(total) = 0.31362E+00    rms(broyden)= 0.31361E+00
  rms(prec ) = 0.32696E+00
  weight for this iteration     100.00

 eigenvalues of (default mixing * dielectric matrix)
  average eigenvalue GAMMA=   1.2182
  2.1348  0.8602  0.8602  1.0173

 Free energy of the ion-electron system (eV)
  ---------------------------------------------------
  alpha Z        PSCENC =       784.57699423
  Ewald energy   TEWEN  =    252595.89733643
  -Hartree energ DENC   =   -300363.67202192
  -exchange      EXHF   =         0.00000000
  -V(xc)+E(xc)   XCENC  =      2488.60682433
  PAW double counting   =     60160.82726746   -59995.04535511
  entropy T*S    EENTRO =        -0.00000000
  eigenvalues    EBANDS =    -12406.22405666
  atomic energy  EATOM  =     56210.72393729
  Solvation  Ediel_sol  =         0.00000000
  ---------------------------------------------------
  free energy    TOTEN  =      -524.30907395 eV

  energy without entropy =     -524.30907395  energy(sigma->0) =     -524.30907395


--------------------------------------------------------------------------------------------------------




--------------------------------------- Iteration      1(  10)  ---------------------------------------


    POTLOK:  cpu time    0.3865: real time    0.3951
    SETDIJ:  cpu time    0.4191: real time    0.4191
     EDDAV:  cpu time   61.0520: real time   61.0543
       DOS:  cpu time    0.0005: real time    0.0005
    CHARGE:  cpu time    3.8693: real time    3.8694
    MIXING:  cpu time    0.0167: real time    0.0166
    --------------------------------------------
      LOOP:  cpu time   65.7441: real time   65.7551

 eigenvalue-minimisations  :  5664
 total energy-change (2. order) : 0.1440694E+00  (-0.6352322E-01)
 number of electron     640.0000004 magnetization 
 augmentation part       69.7872540 magnetization 

 Broyden mixing:
  rms(total) = 0.17547E+00    rms(broyden)= 0.17547E+00
  rms(prec ) = 0.18259E+00
  weight for this iteration     100.00

 eigenvalues of (default mixing * dielectric matrix)
  average eigenvalue GAMMA=   1.2059
  2.1587  1.3961  0.9073  0.9073  0.6601

 Free energy of the ion-electron system (eV)
  ---------------------------------------------------
  alpha Z        PSCENC =       784.57699423
  Ewald energy   TEWEN  =    252595.89733643
  -Hartree energ DENC   =   -300390.27733574
  -exchange      EXHF   =         0.00000000
  -V(xc)+E(xc)   XCENC  =      2489.23396246
  PAW double counting   =     59561.27465156   -59392.92673601
  entropy T*S    EENTRO =        -0.00000000
  eigenvalues    EBANDS =    -12382.66781483
  atomic energy  EATOM  =     56210.72393729
  Solvation  Ediel_sol  =         0.00000000
  ---------------------------------------------------
  free energy    TOTEN  =      -524.16500460 eV

  energy without entropy =     -524.16500460  energy(sigma->0) =     -524.16500460


--------------------------------------------------------------------------------------------------------




--------------------------------------- Iteration      1(  11)  ---------------------------------------


    POTLOK:  cpu time    0.3856: real time    0.3950
    SETDIJ:  cpu time    0.4207: real time    0.4207
     EDDAV:  cpu time   62.3902: real time   62.3939
       DOS:  cpu time    0.0005: real time    0.0005
    CHARGE:  cpu time    3.8856: real time    3.8858
    MIXING:  cpu time    0.0182: real time    0.0182
    --------------------------------------------
      LOOP:  cpu time   67.1009: real time   67.1140

 eigenvalue-minimisations  :  5816
 total energy-change (2. order) : 0.2006597E-01  (-0.2349044E-01)
 number of electron     640.0000004 magnetization 
 augmentation part       69.7518723 magnetization 

 Broyden mixing:
  rms(total) = 0.76924E-01    rms(broyden)= 0.76922E-01
  rms(prec ) = 0.83358E-01
  weight for this iteration     100.00

 eigenvalues of (default mixing * dielectric matrix)
  average eigenvalue GAMMA=   1.2577
  2.3593  1.7972  0.8966  0.8966  0.7982  0.7982

 Free energy of the ion-electron system (eV)
  ---------------------------------------------------
  alpha Z        PSCENC =       784.57699423
  Ewald energy   TEWEN  =    252595.89733643
  -Hartree energ DENC   =   -300438.36100917
  -exchange      EXHF   =         0.00000000
  -V(xc)+E(xc)   XCENC  =      2489.76659382
  PAW double counting   =     59704.64632917   -59536.66909697
  entropy T*S    EENTRO =        -0.00000000
  eigenvalues    EBANDS =    -12334.72602343
  atomic energy  EATOM  =     56210.72393729
  Solvation  Ediel_sol  =         0.00000000
  ---------------------------------------------------
  free energy    TOTEN  =      -524.14493863 eV

  energy without entropy =     -524.14493863  energy(sigma->0) =     -524.14493863


--------------------------------------------------------------------------------------------------------




--------------------------------------- Iteration      1(  12)  ---------------------------------------


    POTLOK:  cpu time    0.3850: real time    0.3937
    SETDIJ:  cpu time    0.4196: real time    0.4196
     EDDAV:  cpu time   64.9291: real time   64.9309
       DOS:  cpu time    0.0005: real time    0.0005
    CHARGE:  cpu time    3.8754: real time    3.8755
    MIXING:  cpu time    0.0178: real time    0.0178
    --------------------------------------------
      LOOP:  cpu time   69.6274: real time   69.6379

 eigenvalue-minimisations  :  6104
 total energy-change (2. order) : 0.1386706E-01  (-0.3416205E-02)
 number of electron     640.0000004 magnetization 
 augmentation part       69.7296439 magnetization 

 Broyden mixing:
  rms(total) = 0.32042E-01    rms(broyden)= 0.32042E-01
  rms(prec ) = 0.39152E-01
  weight for this iteration     100.00

 eigenvalues of (default mixing * dielectric matrix)
  average eigenvalue GAMMA=   1.2709
  2.3426  2.1452  0.9226  0.9226  0.9091  0.9091  0.7449

 Free energy of the ion-electron system (eV)
  ---------------------------------------------------
  alpha Z        PSCENC =       784.57699423
  Ewald energy   TEWEN  =    252595.89733643
  -Hartree energ DENC   =   -300473.12697291
  -exchange      EXHF   =         0.00000000
  -V(xc)+E(xc)   XCENC  =      2490.18714017
  PAW double counting   =     59769.44738536   -59601.59825897
  entropy T*S    EENTRO =        -0.00000000
  eigenvalues    EBANDS =    -12300.23863316
  atomic energy  EATOM  =     56210.72393729
  Solvation  Ediel_sol  =         0.00000000
  ---------------------------------------------------
  free energy    TOTEN  =      -524.13107157 eV

  energy without entropy =     -524.13107157  energy(sigma->0) =     -524.13107157


--------------------------------------------------------------------------------------------------------




--------------------------------------- Iteration      1(  13)  ---------------------------------------


    POTLOK:  cpu time    0.3881: real time    0.3977
    SETDIJ:  cpu time    0.4196: real time    0.4217
     EDDAV:  cpu time   57.7289: real time   57.7308
       DOS:  cpu time    0.0005: real time    0.0005
    CHARGE:  cpu time    3.8812: real time    3.8813
    MIXING:  cpu time    0.0183: real time    0.0184
    --------------------------------------------
      LOOP:  cpu time   62.4367: real time   62.4504

 eigenvalue-minimisations  :  5288
 total energy-change (2. order) : 0.4362513E-02  (-0.1065917E-02)
 number of electron     640.0000004 magnetization 
 augmentation part       69.7413010 magnetization 

 Broyden mixing:
  rms(total) = 0.19041E-01    rms(broyden)= 0.19041E-01
  rms(prec ) = 0.25466E-01
  weight for this iteration     100.00

 eigenvalues of (default mixing * dielectric matrix)
  average eigenvalue GAMMA=   1.2984
  2.7057  1.9102  1.5406  0.9061  0.9061  0.8711  0.8711  0.6765

 Free energy of the ion-electron system (eV)
  ---------------------------------------------------
  alpha Z        PSCENC =       784.57699423
  Ewald energy   TEWEN  =    252595.89733643
  -Hartree energ DENC   =   -300498.47622736
  -exchange      EXHF   =         0.00000000
  -V(xc)+E(xc)   XCENC  =      2490.39656963
  PAW double counting   =     59763.35003426   -59595.48506514
  entropy T*S    EENTRO =        -0.00000000
  eigenvalues    EBANDS =    -12275.11028838
  atomic energy  EATOM  =     56210.72393729
  Solvation  Ediel_sol  =         0.00000000
  ---------------------------------------------------
  free energy    TOTEN  =      -524.12670905 eV

  energy without entropy =     -524.12670905  energy(sigma->0) =     -524.12670905


--------------------------------------------------------------------------------------------------------




--------------------------------------- Iteration      1(  14)  ---------------------------------------


    POTLOK:  cpu time    0.3832: real time    0.3919
    SETDIJ:  cpu time    0.4197: real time    0.4197
     EDDAV:  cpu time   59.3672: real time   59.3694
       DOS:  cpu time    0.0005: real time    0.0005
    CHARGE:  cpu time    3.8756: real time    3.8757
    MIXING:  cpu time    0.0177: real time    0.0177
    --------------------------------------------
      LOOP:  cpu time   64.0638: real time   64.0749

 eigenvalue-minimisations  :  5472
 total energy-change (2. order) : 0.1286888E-02  (-0.5207793E-03)
 number of electron     640.0000004 magnetization 
 augmentation part       69.7522140 magnetization 

 Broyden mixing:
  rms(total) = 0.17113E-01    rms(broyden)= 0.17113E-01
  rms(prec ) = 0.20947E-01
  weight for this iteration     100.00

 eigenvalues of (default mixing * dielectric matrix)
  average eigenvalue GAMMA=   1.3272
  2.5855  2.5855  1.6769  0.9317  0.9317  0.8917  0.8917  0.7249  0.7249

 Free energy of the ion-electron system (eV)
  ---------------------------------------------------
  alpha Z        PSCENC =       784.57699423
  Ewald energy   TEWEN  =    252595.89733643
  -Hartree energ DENC   =   -300521.38982587
  -exchange      EXHF   =         0.00000000
  -V(xc)+E(xc)   XCENC  =      2490.52993958
  PAW double counting   =     59762.97013418   -59595.12557062
  entropy T*S    EENTRO =        -0.00000000
  eigenvalues    EBANDS =    -12252.30836737
  atomic energy  EATOM  =     56210.72393729
  Solvation  Ediel_sol  =         0.00000000
  ---------------------------------------------------
  free energy    TOTEN  =      -524.12542216 eV

  energy without entropy =     -524.12542216  energy(sigma->0) =     -524.12542216


--------------------------------------------------------------------------------------------------------




--------------------------------------- Iteration      1(  15)  ---------------------------------------


    POTLOK:  cpu time    0.3858: real time    0.3943
    SETDIJ:  cpu time    0.4197: real time    0.4197
     EDDAV:  cpu time   59.4537: real time   59.4570
       DOS:  cpu time    0.0005: real time    0.0005
    CHARGE:  cpu time    3.8974: real time    3.8975
    MIXING:  cpu time    0.0182: real time    0.0182
    --------------------------------------------
      LOOP:  cpu time   64.1754: real time   64.1872

 eigenvalue-minimisations  :  5480
 total energy-change (2. order) :-0.1436608E-02  (-0.2060759E-03)
 number of electron     640.0000004 magnetization 
 augmentation part       69.7542264 magnetization 

 Broyden mixing:
  rms(total) = 0.10161E-01    rms(broyden)= 0.10161E-01
  rms(prec ) = 0.13344E-01
  weight for this iteration     100.00

 eigenvalues of (default mixing * dielectric matrix)
  average eigenvalue GAMMA=   1.3416
  2.7664  2.7664  1.5390  1.1384  0.9083  0.9083  0.9033  0.9033  0.9311  0.6512

 Free energy of the ion-electron system (eV)
  ---------------------------------------------------
  alpha Z        PSCENC =       784.57699423
  Ewald energy   TEWEN  =    252595.89733643
  -Hartree energ DENC   =   -300539.36814534
  -exchange      EXHF   =         0.00000000
  -V(xc)+E(xc)   XCENC  =      2490.61795980
  PAW double counting   =     59724.97317845   -59557.00948445
  entropy T*S    EENTRO =        -0.00000000
  eigenvalues    EBANDS =    -12234.53863518
  atomic energy  EATOM  =     56210.72393729
  Solvation  Ediel_sol  =         0.00000000
  ---------------------------------------------------
  free energy    TOTEN  =      -524.12685877 eV

  energy without entropy =     -524.12685877  energy(sigma->0) =     -524.12685877


--------------------------------------------------------------------------------------------------------




--------------------------------------- Iteration      1(  16)  ---------------------------------------


    POTLOK:  cpu time    0.3870: real time    0.3962
    SETDIJ:  cpu time    0.4192: real time    0.4192
     EDDAV:  cpu time   60.3099: real time   60.3128
       DOS:  cpu time    0.0005: real time    0.0005
    CHARGE:  cpu time    3.9099: real time    3.9100
    MIXING:  cpu time    0.0187: real time    0.0187
    --------------------------------------------
      LOOP:  cpu time   65.0453: real time   65.0574

 eigenvalue-minimisations  :  5576
 total energy-change (2. order) :-0.1953068E-02  (-0.1086206E-03)
 number of electron     640.0000004 magnetization 
 augmentation part       69.7534653 magnetization 

 Broyden mixing:
  rms(total) = 0.61420E-02    rms(broyden)= 0.61420E-02
  rms(prec ) = 0.85093E-02
  weight for this iteration     100.00

 eigenvalues of (default mixing * dielectric matrix)
  average eigenvalue GAMMA=   1.4034
  3.4232  2.5847  2.0225  1.3956  0.9080  0.9080  0.9484  0.9484  0.8954  0.7416
  0.6619

 Free energy of the ion-electron system (eV)
  ---------------------------------------------------
  alpha Z        PSCENC =       784.57699423
  Ewald energy   TEWEN  =    252595.89733643
  -Hartree energ DENC   =   -300552.84231294
  -exchange      EXHF   =         0.00000000
  -V(xc)+E(xc)   XCENC  =      2490.68164168
  PAW double counting   =     59717.52537597   -59549.56903522
  entropy T*S    EENTRO =        -0.00000000
  eigenvalues    EBANDS =    -12221.12274928
  atomic energy  EATOM  =     56210.72393729
  Solvation  Ediel_sol  =         0.00000000
  ---------------------------------------------------
  free energy    TOTEN  =      -524.12881184 eV

  energy without entropy =     -524.12881184  energy(sigma->0) =     -524.12881184


--------------------------------------------------------------------------------------------------------




--------------------------------------- Iteration      1(  17)  ---------------------------------------


    POTLOK:  cpu time    0.3889: real time    0.3972
    SETDIJ:  cpu time    0.4206: real time    0.4206
     EDDAV:  cpu time   57.7280: real time   57.7314
       DOS:  cpu time    0.0006: real time    0.0006
    CHARGE:  cpu time    3.8732: real time    3.8733
    MIXING:  cpu time    0.0190: real time    0.0190
    --------------------------------------------
      LOOP:  cpu time   62.4302: real time   62.4420

 eigenvalue-minimisations  :  5280
 total energy-change (2. order) :-0.3483723E-02  (-0.7844107E-04)
 number of electron     640.0000004 magnetization 
 augmentation part       69.7503744 magnetization 

 Broyden mixing:
  rms(total) = 0.32975E-02    rms(broyden)= 0.32974E-02
  rms(prec ) = 0.48486E-02
  weight for this iteration     100.00

 eigenvalues of (default mixing * dielectric matrix)
  average eigenvalue GAMMA=   1.4619
  4.1980  2.6903  2.2977  1.3862  1.0711  0.9524  0.9524  0.9067  0.9067  0.7700
  0.7700  0.6416

 Free energy of the ion-electron system (eV)
  ---------------------------------------------------
  alpha Z        PSCENC =       784.57699423
  Ewald energy   TEWEN  =    252595.89733643
  -Hartree energ DENC   =   -300566.36544379
  -exchange      EXHF   =         0.00000000
  -V(xc)+E(xc)   XCENC  =      2490.73031493
  PAW double counting   =     59711.42624842   -59543.48696402
  entropy T*S    EENTRO =        -0.00000000
  eigenvalues    EBANDS =    -12207.63471905
  atomic energy  EATOM  =     56210.72393729
  Solvation  Ediel_sol  =         0.00000000
  ---------------------------------------------------
  free energy    TOTEN  =      -524.13229556 eV

  energy without entropy =     -524.13229556  energy(sigma->0) =     -524.13229556


--------------------------------------------------------------------------------------------------------




--------------------------------------- Iteration      1(  18)  ---------------------------------------


    POTLOK:  cpu time    0.3908: real time    0.3998
    SETDIJ:  cpu time    0.4198: real time    0.4198
     EDDAV:  cpu time   55.5292: real time   55.5314
       DOS:  cpu time    0.0005: real time    0.0005
    CHARGE:  cpu time    3.8865: real time    3.8866
    MIXING:  cpu time    0.0182: real time    0.0182
    --------------------------------------------
      LOOP:  cpu time   60.2450: real time   60.2563

 eigenvalue-minimisations  :  5032
 total energy-change (2. order) :-0.2378001E-02  (-0.2857878E-04)
 number of electron     640.0000004 magnetization 
 augmentation part       69.7512848 magnetization 

 Broyden mixing:
  rms(total) = 0.21996E-02    rms(broyden)= 0.21995E-02
  rms(prec ) = 0.30437E-02
  weight for this iteration     100.00

 eigenvalues of (default mixing * dielectric matrix)
  average eigenvalue GAMMA=   1.4663
  4.5418  2.6191  2.3674  1.5405  1.0563  1.0563  0.9124  0.9124  1.0215  0.8428
  0.8428  0.7049  0.6442

 Free energy of the ion-electron system (eV)
  ---------------------------------------------------
  alpha Z        PSCENC =       784.57699423
  Ewald energy   TEWEN  =    252595.89733643
  -Hartree energ DENC   =   -300574.88107095
  -exchange      EXHF   =         0.00000000
  -V(xc)+E(xc)   XCENC  =      2490.75500867
  PAW double counting   =     59708.19659351   -59540.27099560
  entropy T*S    EENTRO =        -0.00000000
  eigenvalues    EBANDS =    -12199.13247714
  atomic energy  EATOM  =     56210.72393729
  Solvation  Ediel_sol  =         0.00000000
  ---------------------------------------------------
  free energy    TOTEN  =      -524.13467356 eV

  energy without entropy =     -524.13467356  energy(sigma->0) =     -524.13467356


--------------------------------------------------------------------------------------------------------




--------------------------------------- Iteration      1(  19)  ---------------------------------------


    POTLOK:  cpu time    0.3951: real time    0.4042
    SETDIJ:  cpu time    0.4200: real time    0.4200
     EDDAV:  cpu time   56.9582: real time   56.9620
       DOS:  cpu time    0.0006: real time    0.0006
    CHARGE:  cpu time    3.8912: real time    3.8913
    MIXING:  cpu time    0.0191: real time    0.0191
    --------------------------------------------
      LOOP:  cpu time   61.6841: real time   61.6971

 eigenvalue-minimisations  :  5192
 total energy-change (2. order) :-0.1073592E-02  (-0.1019312E-04)
 number of electron     640.0000004 magnetization 
 augmentation part       69.7515951 magnetization 

 Broyden mixing:
  rms(total) = 0.14290E-02    rms(broyden)= 0.14289E-02
  rms(prec ) = 0.21073E-02
  weight for this iteration     100.00

 eigenvalues of (default mixing * dielectric matrix)
  average eigenvalue GAMMA=   1.5682
  5.5393  2.9106  2.2351  2.1635  1.1806  1.1806  0.9893  0.9893  0.9127  0.9127
  0.8040  0.8040  0.7025  0.6306

 Free energy of the ion-electron system (eV)
  ---------------------------------------------------
  alpha Z        PSCENC =       784.57699423
  Ewald energy   TEWEN  =    252595.89733643
  -Hartree energ DENC   =   -300578.24257678
  -exchange      EXHF   =         0.00000000
  -V(xc)+E(xc)   XCENC  =      2490.76336981
  PAW double counting   =     59708.59530585   -59540.67524885
  entropy T*S    EENTRO =        -0.00000000
  eigenvalues    EBANDS =    -12195.77486513
  atomic energy  EATOM  =     56210.72393729
  Solvation  Ediel_sol  =         0.00000000
  ---------------------------------------------------
  free energy    TOTEN  =      -524.13574716 eV

  energy without entropy =     -524.13574716  energy(sigma->0) =     -524.13574716


--------------------------------------------------------------------------------------------------------




--------------------------------------- Iteration      1(  20)  ---------------------------------------


    POTLOK:  cpu time    0.3943: real time    0.4032
    SETDIJ:  cpu time    0.4202: real time    0.4202
     EDDAV:  cpu time   49.1809: real time   49.1833
       DOS:  cpu time    0.0007: real time    0.0007
    CHARGE:  cpu time    3.8758: real time    3.8758
    MIXING:  cpu time    0.0193: real time    0.0193
    --------------------------------------------
      LOOP:  cpu time   53.8912: real time   53.9026

 eigenvalue-minimisations  :  4304
 total energy-change (2. order) :-0.1255725E-02  (-0.5113622E-05)
 number of electron     640.0000004 magnetization 
 augmentation part       69.7510574 magnetization 

 Broyden mixing:
  rms(total) = 0.10265E-02    rms(broyden)= 0.10263E-02
  rms(prec ) = 0.13544E-02
  weight for this iteration     100.00

 eigenvalues of (default mixing * dielectric matrix)
  average eigenvalue GAMMA=   1.5864
  6.0811  3.0398  2.2849  2.2849  1.2945  1.0200  1.0200  0.9055  0.9055  0.9961
  0.9961  0.8550  0.7880  0.7000  0.6241

 Free energy of the ion-electron system (eV)
  ---------------------------------------------------
  alpha Z        PSCENC =       784.57699423
  Ewald energy   TEWEN  =    252595.89733643
  -Hartree energ DENC   =   -300582.04028068
  -exchange      EXHF   =         0.00000000
  -V(xc)+E(xc)   XCENC  =      2490.76913862
  PAW double counting   =     59707.55513948   -59539.63332051
  entropy T*S    EENTRO =        -0.00000000
  eigenvalues    EBANDS =    -12191.98594773
  atomic energy  EATOM  =     56210.72393729
  Solvation  Ediel_sol  =         0.00000000
  ---------------------------------------------------
  free energy    TOTEN  =      -524.13700288 eV

  energy without entropy =     -524.13700288  energy(sigma->0) =     -524.13700288


--------------------------------------------------------------------------------------------------------




--------------------------------------- Iteration      1(  21)  ---------------------------------------


    POTLOK:  cpu time    0.3945: real time    0.3996
    SETDIJ:  cpu time    0.4230: real time    0.4230
     EDDAV:  cpu time   47.7687: real time   47.7709
       DOS:  cpu time    0.0007: real time    0.0007
    CHARGE:  cpu time    3.8810: real time    3.8810
    MIXING:  cpu time    0.0196: real time    0.0195
    --------------------------------------------
      LOOP:  cpu time   52.4873: real time   52.4948

 eigenvalue-minimisations  :  4136
 total energy-change (2. order) :-0.5220731E-03  (-0.1507831E-05)
 number of electron     640.0000004 magnetization 
 augmentation part       69.7513748 magnetization 

 Broyden mixing:
  rms(total) = 0.68498E-03    rms(broyden)= 0.68481E-03
  rms(prec ) = 0.93513E-03
  weight for this iteration     100.00

 eigenvalues of (default mixing * dielectric matrix)
  average eigenvalue GAMMA=   1.5952
  6.4889  3.0347  2.4849  1.7378  1.7378  1.2260  1.2260  0.9948  0.9948  0.9097
  0.9097  0.8762  0.7984  0.7984  0.6804  0.6240

 Free energy of the ion-electron system (eV)
  ---------------------------------------------------
  alpha Z        PSCENC =       784.57699423
  Ewald energy   TEWEN  =    252595.89733643
  -Hartree energ DENC   =   -300583.20928496
  -exchange      EXHF   =         0.00000000
[...]
    -6.896993340 11.945942880  0.000000000     0.000000000  0.083710429  0.000000000
     0.000000000  0.000000000 27.810221070     0.000000000  0.000000000  0.035958003

  length of vectors
    13.793986680 13.793986676 27.810221070     0.083710429  0.083710429  0.035958003


 FORCES acting on ions
    electron-ion (+dipol)            ewald-force                    non-local-force                 convergence-correction
 -----------------------------------------------------------------------------------------------
   0.334E+02 -.159E+02 -.106E+04   -.344E+02 0.174E+02 0.106E+04   0.593E+00 -.366E+00 0.537E+01   -.268E-04 0.655E-05 0.456E-04
   0.365E+02 0.160E+02 -.108E+04   -.372E+02 -.155E+02 0.108E+04   -.295E+00 -.580E+00 0.447E+01   -.891E-05 0.438E-04 0.370E-04
   -.297E+02 0.939E+01 -.109E+04   0.295E+02 -.100E+02 0.108E+04   0.783E+00 -.620E-01 0.441E+01   0.229E-04 -.333E-04 0.222E-04
   0.257E+02 0.546E+02 -.112E+04   -.263E+02 -.559E+02 0.112E+04   0.519E+00 0.274E+00 0.439E+01   0.251E-05 -.152E-04 0.322E-04
   -.276E+01 -.611E+02 -.108E+04   0.439E+01 0.620E+02 0.108E+04   -.621E-01 0.742E+00 0.376E+01   0.426E-04 0.292E-04 0.743E-04
   0.330E+01 -.675E+00 -.102E+04   -.343E+01 0.881E+00 0.102E+04   0.255E+00 -.320E+00 0.432E+01   -.147E-05 0.295E-04 0.342E-04
   0.108E+02 0.394E+01 -.107E+04   -.106E+02 -.442E+01 0.107E+04   -.888E-01 0.943E-01 0.514E+01   -.103E-04 -.907E-05 0.403E-04
   0.185E+02 0.434E+02 -.102E+04   -.176E+02 -.436E+02 0.102E+04   -.940E-01 0.241E-01 0.480E+01   0.408E-04 -.132E-04 0.681E-04
   -.378E+02 -.979E+01 -.110E+04   0.373E+02 0.100E+02 0.109E+04   0.374E+00 0.163E+00 0.394E+01   -.136E-04 0.315E-04 0.494E-04
   -.928E+01 -.383E+02 -.108E+04   0.861E+01 0.381E+02 0.107E+04   0.538E+00 0.607E+00 0.433E+01   -.144E-04 -.308E-04 0.283E-04
   -.277E+02 -.402E+02 -.118E+04   0.273E+02 0.403E+02 0.118E+04   0.796E+00 0.502E+00 0.418E+01   -.126E-04 -.503E-05 0.358E-04
   -.904E+02 0.366E+02 -.111E+04   0.905E+02 -.375E+02 0.110E+04   0.902E+00 -.182E+00 0.418E+01   0.188E-04 -.207E-04 0.618E-04
   0.128E+02 -.343E+01 -.110E+04   -.127E+02 0.438E+01 0.109E+04   -.282E+00 -.521E+00 0.557E+01   -.885E-05 0.143E-05 0.313E-04
   -.394E+02 0.853E+01 -.108E+04   0.401E+02 -.923E+01 0.107E+04   0.225E-01 -.140E+00 0.358E+01   0.373E-04 -.189E-04 0.422E-04
   0.131E+02 -.198E+02 -.103E+04   -.114E+02 0.197E+02 0.102E+04   -.861E+00 -.261E+00 0.370E+01   0.181E-04 -.782E-05 0.220E-04
   -.115E+02 0.248E+02 -.105E+04   0.107E+02 -.245E+02 0.104E+04   0.893E+00 -.437E+00 0.454E+01   -.234E-04 0.211E-04 0.215E-04
   0.341E+02 0.263E+02 0.107E+04   -.352E+02 -.263E+02 -.107E+04   -.107E+00 0.177E+00 -.482E+01   -.147E-04 0.895E-05 -.105E-03
   0.250E+02 -.733E+02 0.114E+04   -.250E+02 0.732E+02 -.113E+04   -.736E-01 0.112E+01 -.511E+01   -.174E-04 0.221E-04 -.711E-04
   -.185E+02 0.161E+01 0.117E+04   0.196E+02 -.248E+01 -.117E+04   -.163E+00 0.681E+00 -.450E+01   0.175E-04 -.138E-04 -.191E-04
   0.264E+02 0.101E+02 0.107E+04   -.255E+02 -.101E+02 -.107E+04   -.832E+00 0.561E+00 -.337E+01   0.605E-05 -.435E-05 -.596E-04
   -.191E+02 0.367E+02 0.106E+04   0.198E+02 -.373E+02 -.106E+04   -.157E-01 -.384E+00 -.367E+01   0.212E-04 0.185E-04 -.907E-04
   0.139E+02 -.130E+02 0.107E+04   -.146E+02 0.136E+02 -.107E+04   0.606E+00 -.574E+00 -.325E+01   0.838E-05 -.453E-05 -.580E-04
   0.583E+02 0.275E+02 0.108E+04   -.598E+02 -.285E+02 -.107E+04   0.186E-01 -.304E+00 -.393E+01   -.277E-04 -.179E-04 -.447E-04
   0.204E+02 0.401E+02 0.102E+04   -.214E+02 -.409E+02 -.102E+04   0.424E-01 0.370E-01 -.450E+01   -.629E-05 -.189E-04 -.107E-03
   -.580E+02 -.202E+02 0.110E+04   0.597E+02 0.203E+02 -.109E+04   -.484E+00 0.266E+00 -.377E+01   0.130E-04 0.223E-04 -.830E-04
   -.309E+02 -.169E+02 0.103E+04   0.314E+02 0.170E+02 -.103E+04   -.499E+00 -.362E-01 -.381E+01   0.584E-05 -.443E-04 -.515E-04
   0.228E+02 -.398E+01 0.104E+04   -.232E+02 0.313E+01 -.104E+04   -.492E+00 0.139E+00 -.328E+01   -.324E-04 -.129E-04 -.504E-04
   0.333E+02 -.903E+01 0.103E+04   -.326E+02 0.990E+01 -.103E+04   -.646E+00 -.206E+00 -.552E+01   -.862E-05 0.269E-04 -.574E-04
   0.309E+02 -.273E+02 0.108E+04   -.321E+02 0.275E+02 -.107E+04   0.465E-01 0.186E+00 -.407E+01   -.124E-04 -.105E-04 -.894E-04
   -.741E+01 -.119E+02 0.109E+04   0.755E+01 0.121E+02 -.109E+04   -.227E+00 0.129E+00 -.495E+01   0.129E-05 0.661E-05 -.351E-04
   -.250E+02 -.199E+02 0.108E+04   0.252E+02 0.194E+02 -.107E+04   -.295E+00 0.755E+00 -.486E+01   0.397E-04 -.118E-06 -.231E-04
   -.940E+02 -.550E+01 0.112E+04   0.947E+02 0.680E+01 -.112E+04   0.123E+01 -.314E+00 -.368E+01   0.155E-04 0.379E-04 -.598E-04
   -.897E+01 -.200E+01 0.147E+04   0.883E+01 0.196E+01 -.147E+04   0.506E+00 0.107E+00 0.183E+01   -.623E-05 -.548E-05 0.444E-05
   -.116E+02 0.140E+02 0.145E+04   0.116E+02 -.138E+02 -.145E+04   0.155E+00 -.726E+00 0.207E+01   0.456E-05 -.636E-06 0.530E-05
   -.768E+00 0.739E+01 0.147E+04   0.609E+00 -.709E+01 -.147E+04   0.396E+00 -.812E+00 0.235E+01   0.114E-04 0.148E-05 -.368E-05
   0.521E+01 0.883E+01 0.140E+04   -.519E+01 -.869E+01 -.140E+04   0.340E+00 -.287E+00 0.187E+01   -.105E-05 0.128E-04 -.961E-05
   0.392E+02 0.104E+02 0.148E+04   -.391E+02 -.105E+02 -.148E+04   -.714E+00 0.293E-01 0.214E+01   0.862E-05 -.841E-05 0.561E-05
   0.619E+02 -.734E+01 0.143E+04   -.616E+02 0.743E+01 -.144E+04   -.143E+01 -.233E+00 0.173E+01   -.215E-05 0.338E-05 -.174E-05
   0.120E+02 0.611E+01 0.144E+04   -.119E+02 -.589E+01 -.145E+04   -.113E+00 -.363E+00 0.255E+01   0.204E-05 0.109E-04 0.910E-05
   0.120E+01 0.439E+02 0.144E+04   -.991E+00 -.437E+02 -.144E+04   -.252E+00 -.107E+01 0.254E+01   0.157E-04 0.100E-04 0.315E-05
   -.206E+02 0.305E+01 0.147E+04   0.206E+02 -.307E+01 -.148E+04   0.452E+00 0.226E-01 0.259E+01   -.974E-05 -.137E-04 0.110E-04
   -.571E+01 0.249E+01 0.145E+04   0.581E+01 -.245E+01 -.145E+04   -.200E+00 -.261E+00 0.250E+01   -.882E-05 -.957E-05 -.281E-05
   -.318E+01 -.372E+02 0.147E+04   0.299E+01 0.369E+02 -.148E+04   0.603E+00 0.129E+01 0.215E+01   -.115E-04 -.678E-05 -.395E-05
   -.279E+02 0.289E+02 0.148E+04   0.276E+02 -.287E+02 -.148E+04   0.963E+00 -.747E+00 0.277E+01   -.167E-04 -.139E-05 0.113E-04
   -.214E+01 -.167E+02 0.145E+04   0.216E+01 0.163E+02 -.145E+04   -.154E+00 0.125E+01 0.272E+01   0.698E-05 -.619E-05 0.102E-04
   -.368E+02 -.607E+00 0.147E+04   0.366E+02 0.492E+00 -.147E+04   0.612E+00 0.298E+00 0.311E+01   0.625E-05 -.121E-04 0.201E-05
   -.350E+02 -.240E+02 0.149E+04   0.350E+02 0.237E+02 -.149E+04   0.441E+00 0.114E+01 0.270E+01   -.317E-05 0.330E-05 -.762E-05
   0.207E+02 -.436E+01 0.142E+04   -.206E+02 0.449E+01 -.142E+04   -.436E+00 -.343E+00 0.577E+00   0.246E-05 0.238E-04 -.993E-05
   0.493E+02 0.207E+02 -.149E+04   -.490E+02 -.204E+02 0.149E+04   -.199E+01 -.106E+01 -.484E+00   0.203E-04 0.171E-04 0.696E-05
   0.150E+02 0.282E+02 -.148E+04   -.150E+02 -.281E+02 0.148E+04   -.219E+00 -.415E+00 -.217E+01   -.196E-05 0.121E-04 0.430E-05
   0.108E+02 -.216E+02 -.146E+04   -.109E+02 0.214E+02 0.147E+04   0.127E+00 0.932E+00 -.211E+01   0.951E-05 -.348E-05 -.786E-05
   -.353E+01 0.316E+01 -.149E+04   0.369E+01 -.330E+01 0.149E+04   -.192E+00 0.437E+00 -.301E+01   0.249E-04 0.173E-05 -.114E-04
   -.200E+02 0.184E+02 -.146E+04   0.199E+02 -.184E+02 0.146E+04   0.103E+01 -.647E+00 -.108E+01   0.789E-05 0.821E-05 0.372E-06
   0.202E+01 -.841E+01 -.143E+04   -.200E+01 0.854E+01 0.143E+04   -.229E+00 -.577E+00 -.104E+01   0.159E-05 -.918E-05 0.262E-05
   0.767E-01 -.238E+02 -.147E+04   -.259E+00 0.237E+02 0.147E+04   0.678E+00 0.565E+00 -.156E+01   -.143E-04 -.102E-06 -.105E-04
   -.101E+02 0.199E+02 -.142E+04   0.999E+01 -.198E+02 0.142E+04   0.181E+00 -.338E+00 -.104E+01   -.709E-05 -.247E-05 0.315E-05
   -.470E+02 0.450E+01 -.151E+04   0.469E+02 -.449E+01 0.151E+04   0.963E+00 -.261E+00 -.246E+01   -.846E-05 0.938E-05 0.819E-05
   0.192E+01 -.237E+02 -.145E+04   -.171E+01 0.235E+02 0.145E+04   -.778E+00 0.140E+01 -.103E+01   0.600E-05 -.220E-04 0.115E-04
   0.531E+01 -.531E+01 -.146E+04   -.512E+01 0.536E+01 0.146E+04   -.427E+00 -.211E-02 -.215E+01   -.476E-05 -.726E-05 -.909E-05
   0.141E+02 -.725E+01 -.142E+04   -.139E+02 0.735E+01 0.143E+04   -.558E+00 0.161E-02 -.191E+01   -.135E-04 0.575E-05 -.841E-05
   0.233E+01 0.628E+01 -.143E+04   -.243E+01 -.621E+01 0.143E+04   0.329E+00 -.358E+00 -.813E+00   -.166E-04 0.827E-05 -.745E-06
   -.181E+02 0.231E+02 -.144E+04   0.181E+02 -.228E+02 0.144E+04   0.374E+00 -.110E+01 -.171E+01   -.578E-05 0.814E-06 0.396E-05
   -.664E+01 -.185E+02 -.143E+04   0.656E+01 0.183E+02 0.143E+04   0.493E+00 0.638E+00 -.112E+01   0.733E-05 -.134E-04 -.340E-05
   0.127E+02 -.224E+02 -.147E+04   -.128E+02 0.221E+02 0.148E+04   0.206E+00 0.107E+01 -.292E+01   -.542E-05 -.466E-05 -.214E-04
   -.947E+01 0.419E+02 0.235E+02   0.947E+01 -.416E+02 -.238E+02   0.360E+00 -.949E+00 0.143E+01   -.730E-05 0.127E-05 -.206E-04
   0.138E+02 -.751E+01 -.200E+02   -.138E+02 0.782E+01 0.202E+02   -.140E+00 -.889E+00 -.877E+00   -.600E-05 -.406E-05 -.838E-05
   0.955E+00 0.117E+02 0.132E+01   -.328E+00 -.117E+02 -.133E+01   -.212E+01 0.154E+00 -.300E+00   0.352E-05 -.160E-05 -.263E-05
   0.128E+02 -.209E+02 -.184E+02   -.127E+02 0.205E+02 0.190E+02   -.522E+00 0.118E+01 -.156E+01   -.976E-06 -.181E-05 -.366E-05
   0.141E+02 0.420E+02 -.152E+00   -.137E+02 -.417E+02 0.690E-01   -.142E+01 -.113E+01 -.145E+00   0.112E-04 0.820E-05 -.826E-05
   -.836E+01 -.206E+02 0.199E+02   0.812E+01 0.207E+02 -.200E+02   0.828E+00 -.488E+00 0.248E+00   0.397E-05 0.948E-06 -.104E-04
   0.478E-01 -.177E+01 0.376E+02   -.139E+00 0.195E+01 -.374E+02   0.414E+00 -.527E+00 -.521E+00   0.957E-06 0.835E-05 -.748E-05
   0.175E+02 0.220E+02 0.267E+02   -.170E+02 -.220E+02 -.269E+02   -.212E+01 0.231E+00 0.251E+00   0.119E-04 -.231E-05 -.523E-05
   0.218E+02 -.349E+01 0.324E+01   -.218E+02 0.344E+01 -.327E+01   -.158E+00 0.570E+00 0.870E-02   -.103E-04 -.189E-05 -.912E-05
   0.107E+02 -.235E+02 -.293E+02   -.105E+02 0.232E+02 0.296E+02   -.413E+00 0.116E+01 -.952E+00   -.819E-07 -.105E-04 -.486E-06
   -.984E+01 -.435E+01 -.171E+02   0.958E+01 0.416E+01 0.174E+02   0.956E+00 0.616E+00 -.769E+00   -.427E-05 -.809E-06 -.479E-05
   -.947E+01 -.489E+01 -.497E+02   0.928E+01 0.466E+01 0.498E+02   0.783E+00 0.582E+00 -.630E+00   -.120E-04 -.149E-05 -.179E-05
   0.116E+02 -.445E+01 0.370E+02   -.113E+02 0.464E+01 -.375E+02   -.914E+00 -.863E+00 0.166E+01   0.423E-05 0.629E-05 -.920E-05
   -.486E+01 -.898E+01 -.768E+01   0.532E+01 0.894E+01 0.757E+01   -.115E+01 0.157E+00 -.287E+00   0.562E-06 -.246E-05 -.446E-06
   0.430E+01 -.998E+01 0.241E+01   -.410E+01 0.980E+01 -.253E+01   -.725E+00 0.557E+00 -.701E-02   0.594E-06 -.155E-05 0.669E-06
   0.244E+02 0.167E+02 -.400E+00   -.245E+02 -.164E+02 0.218E+00   0.272E+00 -.120E+01 0.964E+00   -.218E-05 0.299E-05 -.322E-05
 -----------------------------------------------------------------------------------------------
   0.280E+01 -.516E+00 -.117E+02   -.405E-12 -.256E-12 -.180E-11   -.280E+01 0.516E+00 0.117E+02   0.640E-04 0.267E-04 -.463E-03
 
 
 POSITION                                       TOTAL-FORCE (eV/Angst)
 -----------------------------------------------------------------------------------
      0.07761      1.89584     15.09481        -0.436432      1.166618      0.098077
     -1.52676      5.01828     15.20945        -0.955936     -0.085916     -1.005408
     -3.49790      8.00185     15.18434         0.575052     -0.679771     -0.041745
     -5.24122     10.95441     15.23681        -0.011599     -0.990420     -0.573501
      3.32965      1.93633     15.19752         1.562876      1.686731     -1.701074
      1.67511      5.00430     15.13988         0.131077     -0.113061     -0.904444
     -0.07456      7.99372     15.14812         0.151227     -0.388042     -0.370324
     -1.85668     10.96302     15.06325         0.810301     -0.153509      0.750383
      6.87516      1.89825     15.20135        -0.137008      0.391846     -0.783425
      5.24381      4.88735     15.16926        -0.130777      0.330156     -0.600641
      3.33800      7.81920     15.29267         0.366474      0.625630     -0.688168
      1.63556     11.15222     15.15010         1.060717     -1.049012      0.540018
     10.39892      2.01662     15.15890        -0.226706      0.431871     -0.646288
      8.63595      5.02098     15.22192         0.686910     -0.848747     -1.377230
      6.80155      7.99053     15.11222         0.788710     -0.340069      0.157042
      5.12858     10.97439     15.08310         0.036726     -0.136123     -0.109553
      1.87107      0.97908     12.74550        -1.178462      0.144886     -1.012623
      0.06523      3.89035     12.64354        -0.150925      1.075861      0.129561
     -1.76096      7.02261     12.54943         0.953762     -0.182604      1.012720
     -3.43615      9.90088     12.67005         0.043529      0.539873     -0.067238
      5.10269      1.16189     12.69562         0.679616     -0.972601     -0.159544
      3.51758      4.02683     12.61336        -0.110695      0.031416      1.100838
      1.86309      7.14182     12.65295        -1.524622     -1.316923      0.679654
      0.09896     10.06019     12.80240        -0.987176     -0.721442     -1.649896
      8.51490      1.00852     12.65804         1.241587      0.389098     -0.454263
      7.00282      3.93312     12.70221        -0.057490      0.064095     -0.092582
      5.27692      6.93965     12.64783        -0.917517     -0.716711      0.372985
      3.37396      9.91628     12.75409         0.042977      0.656861     -0.365630
     12.22486      0.97668     12.67739        -1.210795      0.429765     -0.146731
     10.45572      3.90535     12.67337        -0.086415      0.339373      0.061172
      8.70953      6.83767     12.68096        -0.022233      0.232556     -0.014270
      6.69778      9.74204     12.59245         1.837601      0.985972      0.289696
     -0.00004      1.99195     10.97832         0.367536      0.075227     -0.150079
     -1.70894      5.11511     10.94730         0.134215     -0.593117     -0.050010
     -3.57679      8.14492     10.89954         0.237358     -0.515418      0.276256
     -5.30854     10.95858     11.14787         0.353319     -0.148858     -0.316247
      3.52438      2.07887     10.95879        -0.529616     -0.065010      0.102443
      1.98085      5.05870     11.04807        -1.131730     -0.138023     -0.352110
      0.05639      8.10710     10.96413        -0.023493     -0.141696      0.308529
     -1.82480     11.20669     11.00567        -0.043923     -0.877657      0.323768
      6.79218      2.06688     10.92652         0.374552     -0.000938      0.478759
      5.26273      4.98876     10.97161        -0.099003     -0.223325      0.341780
      3.45531      7.81062     10.92022         0.410973      0.966844      0.138907
      1.46076     11.13556     10.85159         0.611201     -0.580307      0.693618
     10.42746      1.73984     10.92025        -0.133589      0.881221      0.462851
      8.60569      4.86137     10.83709         0.446754      0.183047      0.886871
      6.82723      7.72253     10.83105         0.405584      0.798337      0.596224
      5.14612     10.92559     11.20308        -0.379026     -0.207200     -1.447893
      1.90513      1.06399     16.79064        -1.691994     -0.816989      1.381141
      0.11925      3.96612     16.89723        -0.172455     -0.321890     -0.095908
     -1.76484      6.86535     16.89401         0.071921      0.729326     -0.037655
     -3.45746      9.87626     17.01015        -0.034769      0.296436     -0.798916
      4.99332      1.08543     16.71068         0.955858     -0.653738      1.036549
      3.48412      4.08557     16.66493        -0.207905     -0.446738      1.032954
      1.54808      6.90028     16.83415         0.495845      0.432662      0.453655
     -0.08695     10.07314     16.62197         0.115862     -0.262746      1.084591
      8.43418      0.99389     17.01585         0.766471     -0.253459     -0.428853
      7.05911      3.76415     16.71655        -0.571374      1.161280      1.030767
      5.22311      6.88987     16.84670        -0.240062      0.046417     -0.018458
      3.51883      9.94480     16.74995        -0.373140      0.100271      0.237234
     12.08264      1.02184     16.65045         0.230788     -0.287402      1.157488
     10.35068      4.15251     16.78447         0.326697     -0.817754      0.384756
      8.47127      6.90411     16.70979         0.411893      0.510569      0.949572
      6.86133      9.78591     16.97372         0.068969      0.733994     -0.740007
      0.03818      0.02232     13.86345         0.354546     -0.662827      1.139839
     -1.62188      3.03509     13.97461        -0.116123     -0.585199     -0.661215
     -3.24917      5.98642     13.89187        -1.489705      0.189050     -0.305503
      8.64870      8.85124     14.05569        -0.404974      0.782583     -0.952398
      3.50764      0.11229     13.95221        -0.993922     -0.806308     -0.228193
      1.68624      3.00138     13.86888         0.582256     -0.349022      0.161088
      0.00656      6.06161     13.94195         0.322611     -0.345857     -0.299838
     -1.61700      9.01903     13.86027        -1.550468      0.290398      0.076031
      6.91979      0.00942     13.93970        -0.151749      0.522532     -0.020317
      5.25453      2.91736     13.99497        -0.169968      0.917094     -0.636049
      3.43537      5.93987     13.99073         0.698907      0.423568     -0.515977
      1.69985      8.95317     14.00201         0.599606      0.359132     -0.527359
     10.40821      0.06889     13.80808        -0.606707     -0.677808      1.160293
      8.75864      2.95755     13.92491        -0.688794      0.123647     -0.395779
      6.99185      5.91378     13.89588        -0.527842      0.376032     -0.125713
      5.12293      8.99702     13.80758         0.164256     -0.948036      0.780945
 -----------------------------------------------------------------------------------
    total drift:                                0.002650      0.000014      0.000531


--------------------------------------------------------------------------------------------------------



  FREE ENERGIE OF THE ION-ELECTRON SYSTEM (eV)
  ---------------------------------------------------
  free  energy   TOTEN  =      -524.13882436 eV

  energy  without entropy=     -524.13882436  energy(sigma->0) =     -524.13882436
 


--------------------------------------------------------------------------------------------------------


    POTLOK:  cpu time    0.8135: real time    0.8136


--------------------------------------------------------------------------------------------------------


     LOOP+:  cpu time 1893.6753: real time 1894.0607
    4ORBIT:  cpu time    0.0000: real time    0.0000

 total amount of memory used by VASP MPI-rank0   253945. kBytes
=======================================================================

   base      :      30000. kBytes
   nonlr-proj:      18761. kBytes
   fftplans  :      72602. kBytes
   grid      :      41267. kBytes
   one-center:        108. kBytes
   wavefun   :      91207. kBytes
 
  
  
 General timing and accounting informations for this job:
 ========================================================
  
                  Total CPU time used (sec):     1924.470
                            User time (sec):     1919.079
                          System time (sec):        5.391
                         Elapsed time (sec):     1924.966
  
                   Maximum memory used (kb):      465812.
                   Average memory used (kb):           0.
  
                          Minor page faults:       175020
                          Major page faults:            0
                 Voluntary context switches:         2271
