<?xml version="1.0" encoding="ISO-8859-1"?>
<modeling>
 <generator>
  <i name="program" type="string">vasp </i>
  <i name="version" type="string">5.4.4.18Apr17-6-g9f103f2a35  </i>
  <i name="subversion" type="string">(build Oct 31 2019 15:01:46) complex            parallel </i>
  <i name="platform" type="string">LinuxIFC </i>
  <i name="date" type="string">2024 04 30 </i>
  <i name="time" type="string">18:01:25 </i>
 </generator>
 <incar>
  <i type="int" name="ISTART">     0</i>
  <i type="string" name="PREC">anormal</i>
  <i type="logical" name="ADDGRID"> T  </i>
  <i type="int" name="IBRION">    -1</i>
  <i name="EDIFF">      0.00000100</i>
  <i name="EDIFFG">     -0.01000000</i>
  <i type="int" name="NSW">     1</i>
  <i type="int" name="ISIF">     2</i>
  <i type="int" name="ISYM">     2</i>
  <i name="ENCUT">    600.00000000</i>
  <i name="POTIM">      1.00000000</i>
  <i type="string" name="LREAL"> Auto.</i>
  <i type="int" name="ISMEAR">     0</i>
  <i name="SIGMA">      0.05000000</i>
  <i name="KSPACING">      0.25000000</i>
  <i type="logical" name="LWAVE"> F  </i>
  <i type="logical" name="LCHARG"> F  </i>
  <i type="logical" name="LSCALAPACK"> F  </i>
  <v type="int" name="KPOINT_BSE">    -1     0     0     0</v>
 </incar>
 <structure name="primitive_cell" >
  <crystal>
   <varray name="basis" >
    <v>      13.79398668       0.00000000       0.00000000 </v>
    <v>      -6.89699334      11.94594288       0.00000000 </v>
    <v>       0.00000000       0.00000000      27.81022107 </v>
   </varray>
   <i name="volume">   4582.62876984 </i>
   <varray name="rec_basis" >
    <v>       0.07249536       0.04185521       0.00000000 </v>
    <v>       0.00000000       0.08371043       0.00000000 </v>
    <v>       0.00000000       0.00000000       0.03595800 </v>
   </varray>
  </crystal>
  <varray name="positions" >
   <v>       0.08497690       0.15870172      -0.45722072 </v>
   <v>       0.00370227       0.00186843       0.49850208 </v>
   <v>       0.24786770       0.25124654       0.49869729 </v>
   <v>       0.00945518       0.25406829      -0.49750103 </v>
   <v>      -0.08129537       0.08553844      -0.40128298 </v>
   <v>       0.18264651       0.08906688      -0.39624206 </v>
   <v>       0.17464772       0.33200600      -0.39240934 </v>
   <v>      -0.07287519       0.08175837       0.45585370 </v>
   <v>       0.17662319       0.08195881       0.45830266 </v>
   <v>       0.16756027       0.32566271       0.45463650 </v>
   <v>       0.32242929       0.16209093      -0.45352742 </v>
   <v>       0.07853499      -0.08300187      -0.45211483 </v>
   <v>      -0.16886676      -0.08132945      -0.45764183 </v>
   <v>      -0.16172086       0.16881183      -0.45491614 </v>
   <v>       0.33089417       0.41891227      -0.45560002 </v>
   <v>       0.09935788       0.42008246      -0.45309860 </v>
   <v>       0.25898719       0.00939971      -0.49830630 </v>
   <v>       0.08337078       0.16674725       0.39475862 </v>
   <v>      -0.24256949       0.00576656       0.49651102 </v>
   <v>       0.25418517      -0.49258044      -0.49867549 </v>
   <v>       0.42358498       0.34200466      -0.40076231 </v>
   <v>      -0.09299425      -0.18081703      -0.38965898 </v>
   <v>      -0.07581997       0.34760828      -0.39646396 </v>
   <v>      -0.07854946       0.32691837       0.45570907 </v>
   <v>       0.42355222       0.33708777       0.45355108 </v>
   <v>      -0.10668713      -0.18448947       0.45279944 </v>
   <v>       0.07382914      -0.08265254       0.40085503 </v>
   <v>      -0.16963735      -0.08541393       0.40284030 </v>
   <v>       0.40742309       0.09086174      -0.39911743 </v>
   <v>      -0.25203883      -0.24685566       0.49649298 </v>
   <v>      -0.24125014       0.24757796      -0.49928815 </v>
   <v>      -0.00253834      -0.25905854      -0.49458549 </v>
   <v>       0.49766312       0.49722920      -0.49692142 </v>
   <v>       0.34251253       0.17402286       0.39405605 </v>
   <v>      -0.49696452       0.24421357      -0.49676890 </v>
   <v>       0.01501273      -0.49887435       0.49952405 </v>
   <v>      -0.17123590       0.14564268       0.39267038 </v>
   <v>      -0.32865934      -0.16751692      -0.39770522 </v>
   <v>       0.35533548       0.42346568       0.39726646 </v>
   <v>       0.40104164      -0.42237448      -0.39467742 </v>
   <v>       0.16272315      -0.17325392      -0.38834899 </v>
   <v>       0.09020392       0.42818792       0.39364317 </v>
   <v>       0.15940783      -0.42529868      -0.39252520 </v>
   <v>       0.41855248       0.09726200       0.45650909 </v>
   <v>       0.16529865      -0.17119310       0.45558977 </v>
   <v>       0.32425866      -0.08228090      -0.45835560 </v>
   <v>      -0.34035570      -0.16990401       0.45861172 </v>
   <v>      -0.34696198       0.08319895      -0.38814400 </v>
   <v>      -0.17247385      -0.33110962      -0.45659471 </v>
   <v>      -0.34049709       0.08442390       0.45515800 </v>
   <v>      -0.41528713       0.40912205      -0.45454373 </v>
   <v>      -0.41465142      -0.06644316      -0.45523277 </v>
   <v>       0.16627182      -0.41213398       0.45125260 </v>
   <v>       0.43398802      -0.40215500       0.45497479 </v>
   <v>      -0.16377973       0.42030860      -0.45265007 </v>
   <v>       0.32917324      -0.33084259      -0.45530399 </v>
   <v>       0.08133758      -0.33016141      -0.45400134 </v>
   <v>      -0.43073626      -0.34545150      -0.45010614 </v>
   <v>      -0.42213145       0.15890307      -0.45338983 </v>
   <v>       0.33676917      -0.06188307       0.39574200 </v>
   <v>      -0.49795329       0.00078817      -0.49875607 </v>
   <v>       0.26026835      -0.24501294       0.49838775 </v>
   <v>      -0.33069798       0.31509895      -0.39890612 </v>
   <v>       0.49796819      -0.25052599      -0.49651572 </v>
   <v>      -0.09689898      -0.42205384      -0.39914921 </v>
   <v>      -0.40967108       0.41761139       0.39451720 </v>
   <v>      -0.33297172      -0.42324644      -0.39422636 </v>
   <v>      -0.17265371       0.40694743       0.38968010 </v>
   <v>       0.34341287      -0.32135080       0.39424817 </v>
   <v>      -0.18182915      -0.35354379       0.38946305 </v>
   <v>      -0.42802024      -0.06783759       0.39020165 </v>
   <v>      -0.32698779      -0.41907927       0.45479084 </v>
   <v>      -0.08240760      -0.42761595       0.45598213 </v>
   <v>      -0.32770672       0.32924283       0.45674627 </v>
   <v>       0.08160644      -0.31818525       0.39192566 </v>
   <v>       0.41530991      -0.15677320      -0.40230705 </v>
   <v>      -0.42108879       0.17301956       0.39289594 </v>
   <v>      -0.42259075      -0.34616973       0.39266913 </v>
   <v>      -0.24560120       0.49504495       0.49966796 </v>
   <v>       0.42824608      -0.15785679       0.46034874 </v>
  </varray>
 </structure>
 <varray name="primitive_index" >
  <v type="int" >        1 </v>
  <v type="int" >       65 </v>
  <v type="int" >       70 </v>
  <v type="int" >       66 </v>
  <v type="int" >       61 </v>
  <v type="int" >       49 </v>
  <v type="int" >       50 </v>
  <v type="int" >       29 </v>
  <v type="int" >       17 </v>
  <v type="int" >       18 </v>
  <v type="int" >        5 </v>
  <v type="int" >        4 </v>
  <v type="int" >       16 </v>
  <v type="int" >       13 </v>
  <v type="int" >        6 </v>
  <v type="int" >        2 </v>
  <v type="int" >       69 </v>
  <v type="int" >       33 </v>
  <v type="int" >       77 </v>
  <v type="int" >       71 </v>
  <v type="int" >       54 </v>
  <v type="int" >       64 </v>
  <v type="int" >       62 </v>
  <v type="int" >       30 </v>
  <v type="int" >       22 </v>
  <v type="int" >       32 </v>
  <v type="int" >       36 </v>
  <v type="int" >       48 </v>
  <v type="int" >       53 </v>
  <v type="int" >       80 </v>
  <v type="int" >       78 </v>
  <v type="int" >       68 </v>
  <v type="int" >       75 </v>
  <v type="int" >       37 </v>
  <v type="int" >       74 </v>
  <v type="int" >       67 </v>
  <v type="int" >       45 </v>
  <v type="int" >       60 </v>
  <v type="int" >       38 </v>
  <v type="int" >       55 </v>
  <v type="int" >       52 </v>
  <v type="int" >       34 </v>
  <v type="int" >       51 </v>
  <v type="int" >       21 </v>
  <v type="int" >       20 </v>
  <v type="int" >        8 </v>
  <v type="int" >       28 </v>
  <v type="int" >       57 </v>
  <v type="int" >       15 </v>
  <v type="int" >       25 </v>
  <v type="int" >       10 </v>
  <v type="int" >       12 </v>
  <v type="int" >       19 </v>
  <v type="int" >       23 </v>
  <v type="int" >       14 </v>
  <v type="int" >        7 </v>
  <v type="int" >        3 </v>
  <v type="int" >       11 </v>
  <v type="int" >        9 </v>
  <v type="int" >       40 </v>
  <v type="int" >       73 </v>
  <v type="int" >       72 </v>
  <v type="int" >       58 </v>
  <v type="int" >       76 </v>
  <v type="int" >       63 </v>
  <v type="int" >       42 </v>
  <v type="int" >       59 </v>
  <v type="int" >       46 </v>
  <v type="int" >       39 </v>
  <v type="int" >       47 </v>
  <v type="int" >       44 </v>
  <v type="int" >       27 </v>
  <v type="int" >       31 </v>
  <v type="int" >       26 </v>
  <v type="int" >       35 </v>
  <v type="int" >       56 </v>
  <v type="int" >       41 </v>
  <v type="int" >       43 </v>
  <v type="int" >       79 </v>
  <v type="int" >       24 </v>
 </varray>
 <kpoints>
  <generation param="Gamma">
   <v type="int" name="divisions">       3        3        1 </v>
   <v name="usershift">      0.00000000       0.00000000       0.00000000 </v>
   <v name="genvec1">      0.33333333      -0.00000000       0.00000000 </v>
   <v name="genvec2">      0.00000000       0.33333333       0.00000000 </v>
   <v name="genvec3">      0.00000000       0.00000000       1.00000000 </v>
   <v name="shift">      0.00000000       0.00000000       0.00000000 </v>
  </generation>
  <varray name="kpointlist" >
   <v>       0.00000000       0.00000000       0.00000000 </v>
   <v>       0.33333333      -0.00000000       0.00000000 </v>
   <v>       0.00000000       0.33333333       0.00000000 </v>
   <v>       0.33333333       0.33333333       0.00000000 </v>
   <v>      -0.33333333       0.33333333       0.00000000 </v>
  </varray>
  <varray name="weights" >
   <v>       0.11111111 </v>
   <v>       0.22222222 </v>
   <v>       0.22222222 </v>
   <v>       0.22222222 </v>
   <v>       0.22222222 </v>
  </varray>
 </kpoints>
 <parameters>
  <separator name="general" >
   <i type="string" name="SYSTEM">unknown system</i>
   <i type="logical" name="LCOMPAT"> F  </i>
  </separator>
  <separator name="electronic" >
   <i type="string" name="PREC">anorma</i>
   <i name="ENMAX">    600.00000000</i>
   <i name="ENAUG">    644.87300000</i>
   <i name="EDIFF">      0.00000100</i>
   <i type="int" name="IALGO">    38</i>
   <i type="int" name="IWAVPR">    10</i>
   <i type="int" name="NBANDS">   384</i>
   <i name="NELECT">    640.00000000</i>
   <i type="int" name="TURBO">     0</i>
   <i type="int" name="IRESTART">     0</i>
   <i type="int" name="NREBOOT">     0</i>
   <i type="int" name="NMIN">     0</i>
   <i name="EREF">      0.00000000</i>
   <separator name="electronic smearing" >
    <i type="int" name="ISMEAR">     0</i>
    <i name="SIGMA">      0.05000000</i>
    <i name="KSPACING">      0.25000000</i>
    <i type="logical" name="KGAMMA"> T  </i>
   </separator>
   <separator name="electronic projectors" >
    <i type="logical" name="LREAL"> T  </i>
    <v name="ROPT">     -0.00025000     -0.00025000     -0.00025000</v>
    <i type="int" name="LMAXPAW">  -100</i>
    <i type="int" name="LMAXMIX">     2</i>
    <i type="logical" name="NLSPLINE"> F  </i>
   </separator>
   <separator name="electronic startup" >
    <i type="int" name="ISTART">     0</i>
    <i type="int" name="ICHARG">     2</i>
    <i type="int" name="INIWAV">     1</i>
   </separator>
   <separator name="electronic spin" >
    <i type="int" name="ISPIN">     1</i>
    <i type="logical" name="LNONCOLLINEAR"> F  </i>
    <v name="MAGMOM">      1.00000000      1.00000000      1.00000000      1.00000000      1.00000000      1.00000000      1.00000000      1.00000000      1.00000000      1.00000000      1.00000000      1.00000000      1.00000000      1.00000000      1.00000000      1.00000000      1.00000000      1.00000000      1.00000000      1.00000000
      1.00000000      1.00000000      1.00000000      1.00000000      1.00000000      1.00000000      1.00000000      1.00000000      1.00000000      1.00000000      1.00000000      1.00000000      1.00000000      1.00000000      1.00000000      1.00000000      1.00000000      1.00000000      1.00000000      1.00000000
      1.00000000      1.00000000      1.00000000      1.00000000      1.00000000      1.00000000      1.00000000      1.00000000      1.00000000      1.00000000      1.00000000      1.00000000      1.00000000      1.00000000      1.00000000      1.00000000      1.00000000      1.00000000      1.00000000      1.00000000
      1.00000000      1.00000000      1.00000000      1.00000000      1.00000000      1.00000000      1.00000000      1.00000000      1.00000000      1.00000000      1.00000000      1.00000000      1.00000000      1.00000000      1.00000000      1.00000000      1.00000000      1.00000000      1.00000000      1.00000000
</v>
    <i name="NUPDOWN">     -1.00000000</i>
    <i type="logical" name="LSORBIT"> F  </i>
    <v name="SAXIS">      0.00000000      0.00000000      1.00000000</v>
    <i type="logical" name="LSPIRAL"> F  </i>
    <v name="QSPIRAL">      0.00000000      0.00000000      0.00000000</v>
    <i type="logical" name="LZEROZ"> F  </i>
   </separator>
   <separator name="electronic exchange-correlation" >
    <i type="logical" name="LASPH"> F  </i>
    <i type="logical" name="LMETAGGA"> F  </i>
   </separator>
   <separator name="electronic convergence" >
    <i type="int" name="NELM">    60</i>
    <i type="int" name="NELMDL">    -5</i>
    <i type="int" name="NELMIN">     2</i>
    <i name="ENINI">    600.00000000</i>
    <separator name="electronic convergence detail" >
     <i type="logical" name="LDIAG"> T  </i>
     <i type="logical" name="LSUBROT"> F  </i>
     <i name="WEIMIN">      0.00000000</i>
     <i name="EBREAK">      0.00000000</i>
     <i name="DEPER">      0.30000000</i>
     <i type="int" name="NRMM">     4</i>
     <i name="TIME">      0.40000000</i>
    </separator>
   </separator>
   <separator name="electronic mixer" >
    <i name="AMIX">      0.40000000</i>
    <i name="BMIX">      1.00000000</i>
    <i name="AMIN">      0.10000000</i>
    <i name="AMIX_MAG">      1.60000000</i>
    <i name="BMIX_MAG">      1.00000000</i>
    <separator name="electronic mixer details" >
     <i type="int" name="IMIX">     4</i>
     <i type="logical" name="MIXFIRST"> F  </i>
     <i type="int" name="MAXMIX">   -45</i>
     <i name="WC">    100.00000000</i>
     <i type="int" name="INIMIX">     1</i>
     <i type="int" name="MIXPRE">     1</i>
     <i type="int" name="MREMOVE">     5</i>
    </separator>
   </separator>
   <separator name="electronic dipolcorrection" >
    <i type="logical" name="LDIPOL"> F  </i>
    <i type="logical" name="LMONO"> F  </i>
    <i type="int" name="IDIPOL">     0</i>
    <i name="EPSILON">      1.00000000</i>
    <v name="DIPOL">   -100.00000000   -100.00000000   -100.00000000</v>
    <i name="EFIELD">      0.00000000</i>
   </separator>
  </separator>
  <separator name="grids" >
   <i type="int" name="NGX">   112</i>
   <i type="int" name="NGY">   112</i>
   <i type="int" name="NGZ">   224</i>
   <i type="int" name="NGXF">   224</i>
   <i type="int" name="NGYF">   224</i>
   <i type="int" name="NGZF">   448</i>
   <i type="logical" name="ADDGRID"> T  </i>
  </separator>
  <separator name="ionic" >
   <i type="int" name="NSW">     1</i>
   <i type="int" name="IBRION">    -1</i>
   <i type="int" name="MDALGO">     0</i>
   <i type="int" name="ISIF">     2</i>
   <i name="PSTRESS">      0.00000000</i>
   <i name="EDIFFG">     -0.01000000</i>
   <i type="int" name="NFREE">     0</i>
   <i name="POTIM">      1.00000000</i>
   <i name="SMASS">     -3.00000000</i>
   <i name="SCALEE">      1.00000000</i>
  </separator>
  <separator name="ionic md" >
   <i name="TEBEG">      0.00010000</i>
   <i name="TEEND">      0.00010000</i>
   <i type="int" name="NBLOCK">     1</i>
   <i type="int" name="KBLOCK">     1</i>
   <i type="int" name="NPACO">   256</i>
   <i name="APACO">     16.00000000</i>
  </separator>
  <separator name="symmetry" >
   <i type="int" name="ISYM">     2</i>
   <i name="SYMPREC">      0.00001000</i>
  </separator>
  <separator name="dos" >
   <i type="int" name="LORBIT">     0</i>
   <v name="RWIGS">     -1.00000000     -1.00000000     -1.00000000</v>
   <i type="int" name="NEDOS">   301</i>
   <i name="EMIN">     10.00000000</i>
   <i name="EMAX">    -10.00000000</i>
   <i name="EFERMI">      0.00000000</i>
  </separator>
  <separator name="writing" >
   <i type="int" name="NWRITE">     2</i>
   <i type="logical" name="LWAVE"> F  </i>
   <i type="logical" name="LDOWNSAMPLE"> F  </i>
   <i type="logical" name="LCHARG"> F  </i>
   <i type="logical" name="LPARD"> F  </i>
   <i type="logical" name="LVTOT"> F  </i>
   <i type="logical" name="LVHAR"> F  </i>
   <i type="logical" name="LELF"> F  </i>
   <i type="logical" name="LOPTICS"> F  </i>
   <v name="STM">      0.00000000      0.00000000      0.00000000      0.00000000      0.00000000      0.00000000      0.00000000</v>
  </separator>
  <separator name="performance" >
   <i type="int" name="NPAR">     4</i>
   <i type="int" name="NSIM">     4</i>
   <i type="int" name="NBLK">    -1</i>
   <i type="logical" name="LPLANE"> T  </i>
   <i type="logical" name="LSCALAPACK"> F  </i>
   <i type="logical" name="LSCAAWARE"> F  </i>
   <i type="logical" name="LSCALU"> F  </i>
   <i type="logical" name="LASYNC"> F  </i>
   <i type="logical" name="LORBITALREAL"> F  </i>
  </separator>
  <separator name="miscellaneous" >
   <i type="int" name="IDIOT">     3</i>
   <i type="int" name="ISPECIAL">     0</i>
   <i type="logical" name="LMUSIC"> F  </i>
   <v name="POMASS">     44.95600000     35.45300000     12.01100000</v>
   <v name="DARWINR">      0.00000000      0.00000000      0.00000000</v>
   <v name="DARWINV">      1.00000000      1.00000000      1.00000000</v>
   <i type="logical" name="LCORR"> T  </i>
  </separator>
  <i type="logical" name="GGA_COMPAT"> T  </i>
  <i type="logical" name="LBERRY"> F  </i>
  <i type="int" name="ICORELEVEL">     0</i>
  <i type="logical" name="LDAU"> F  </i>
  <i type="int" name="I_CONSTRAINED_M">     0</i>
  <separator name="electronic exchange-correlation" >
   <i type="string" name="GGA">--</i>
   <i type="int" name="VOSKOWN">     0</i>
   <i type="logical" name="LHFCALC"> F  </i>
   <i type="string" name="PRECFOCK"></i>
   <i type="logical" name="LSYMGRAD"> F  </i>
   <i type="logical" name="LHFONE"> F  </i>
   <i type="logical" name="LRHFCALC"> F  </i>
   <i type="logical" name="LTHOMAS"> F  </i>
   <i type="logical" name="LMODELHF"> F  </i>
   <i name="ENCUT4O">     -1.00000000</i>
   <i type="int" name="EXXOEP">     0</i>
   <i type="int" name="FOURORBIT">     0</i>
   <i name="AEXX">      0.00000000</i>
   <i name="HFALPHA">      0.00000000</i>
   <i name="MCALPHA">      0.00000000</i>
   <i name="ALDAX">      1.00000000</i>
   <i name="AGGAX">      1.00000000</i>
   <i name="ALDAC">      1.00000000</i>
   <i name="AGGAC">      1.00000000</i>
   <i type="int" name="NKREDX">     1</i>
   <i type="int" name="NKREDY">     1</i>
   <i type="int" name="NKREDZ">     1</i>
   <i type="logical" name="SHIFTRED"> F  </i>
   <i type="logical" name="ODDONLY"> F  </i>
   <i type="logical" name="EVENONLY"> F  </i>
   <i type="int" name="LMAXFOCK">     0</i>
   <i type="int" name="NMAXFOCKAE">     0</i>
   <i type="logical" name="LFOCKAEDFT"> F  </i>
   <i name="HFSCREEN">      0.00000000</i>
   <i name="HFSCREENC">      0.00000000</i>
   <i type="int" name="NBANDSGWLOW">     0</i>
  </separator>
  <separator name="vdW DFT" >
   <i type="logical" name="LUSE_VDW"> F  </i>
   <i name="Zab_VDW">     -0.84910000</i>
   <i name="PARAM1">      0.12340000</i>
   <i name="PARAM2">      1.00000000</i>
   <i name="PARAM3">      0.00000000</i>
  </separator>
  <separator name="model GW" >
   <i type="int" name="MODEL_GW">     0</i>
   <i name="MODEL_EPS0">     34.36971577</i>
   <i name="MODEL_ALPHA">      1.00000000</i>
  </separator>
  <separator name="linear response parameters" >
   <i type="logical" name="LEPSILON"> F  </i>
   <i type="logical" name="LRPA"> F  </i>
   <i type="logical" name="LNABLA"> F  </i>
   <i type="logical" name="LVEL"> F  </i>
   <i type="int" name="KINTER">     0</i>
   <i name="CSHIFT">      0.10000000</i>
   <i name="OMEGAMAX">     -1.00000000</i>
   <i name="DEG_THRESHOLD">      0.00200000</i>
   <i name="RTIME">     -0.10000000</i>
   <i name="WPLASMAI">      0.00000000</i>
   <v name="DFIELD">      0.00000000      0.00000000      0.00000000</v>
   <v name="WPLASMA">      0.00000000      0.00000000      0.00000000      0.00000000      0.00000000      0.00000000      0.00000000      0.00000000      0.00000000</v>
  </separator>
  <separator name="orbital magnetization" >
   <i type="logical" name="NUCIND"> F  </i>
   <v name="MAGPOS">      0.00000000      0.00000000      0.00000000</v>
   <i type="logical" name="LNICSALL"> T  </i>
   <i type="logical" name="ORBITALMAG"> F  </i>
   <i type="logical" name="LMAGBLOCH"> F  </i>
   <i type="logical" name="LCHIMAG"> F  </i>
   <i type="logical" name="LGAUGE"> T  </i>
   <i type="int" name="MAGATOM">     0</i>
   <v name="MAGDIPOL">      0.00000000      0.00000000      0.00000000</v>
   <v name="AVECCONST">      0.00000000      0.00000000      0.00000000</v>
  </separator>
  <separator name="response functions" >
   <i type="logical" name="LADDER"> F  </i>
   <i type="logical" name="LRPAFORCE"> F  </i>
   <i type="logical" name="LFXC"> F  </i>
   <i type="logical" name="LHARTREE"> T  </i>
   <i type="int" name="IBSE">     0</i>
   <v type="int" name="KPOINT">    -1     0     0     0</v>
   <i type="logical" name="LTCTE"> F  </i>
   <i type="logical" name="LTETE"> F  </i>
   <i type="logical" name="LTRIPLET"> F  </i>
   <i type="logical" name="LFXCEPS"> F  </i>
   <i type="logical" name="LFXHEG"> F  </i>
   <i type="int" name="NATURALO">     2</i>
   <i type="logical" name="L2ORDER"> F  </i>
   <i type="logical" name="LMP2LT"> F  </i>
   <i type="logical" name="LUSEW"> F  </i>
   <i name="ENCUTGW">     -2.00000000</i>
   <i name="ENCUTGWSOFT">     -2.00000000</i>
   <i name="ENCUTLF">     -1.00000000</i>
   <i type="int" name="LMAXMP2">    -1</i>
   <i name="SCISSOR">      0.00000000</i>
   <i type="int" name="NOMEGA">     0</i>
   <i type="int" name="NOMEGAR">     0</i>
   <i type="int" name="NBANDSGW">    -1</i>
   <i type="int" name="NBANDSO">    -1</i>
   <i type="int" name="NBANDSV">    -1</i>
   <i type="int" name="NELM">     1</i>
   <i type="int" name="NELMHF">     1</i>
   <i type="int" name="DIM">     3</i>
   <i type="int" name="ANTIRES">     0</i>
   <i name="OMEGAMAX">    -30.00000000</i>
   <i name="OMEGAMIN">    -30.00000000</i>
   <i name="OMEGATL">   -200.00000000</i>
   <i type="int" name="OMEGAGRID">   140</i>
   <i name="CSHIFT">     -0.10000000</i>
   <i type="logical" name="SELFENERGY"> F  </i>
   <i type="logical" name="LSPECTRAL"> F  </i>
   <i type="logical" name="LSPECTRALGW"> F  </i>
   <i type="logical" name="LSINGLES"> F  </i>
   <i type="logical" name="LFERMIGW"> F  </i>
   <i type="logical" name="ODDONLYGW"> F  </i>
   <i type="logical" name="EVENONLYGW"> F  </i>
   <i type="int" name="NKREDLFX">     1</i>
   <i type="int" name="NKREDLFY">     1</i>
   <i type="int" name="NKREDLFZ">     1</i>
   <i type="int" name="MAXMEM">  2800</i>
   <i type="int" name="TELESCOPE">     0</i>
   <i type="int" name="TAUPAR">     1</i>
   <i type="int" name="OMEGAPAR">    -1</i>
   <i name="LAMBDA">      1.00000000</i>
  </separator>
  <separator name="External order field" >
   <i name="OFIELD_KAPPA">      0.00000000</i>
   <v name="OFIELD_K">      0.00000000      0.00000000      0.00000000</v>
   <i name="OFIELD_Q6_NEAR">      0.00000000</i>
   <i name="OFIELD_Q6_FAR">      0.00000000</i>
   <i name="OFIELD_A">      0.00000000</i>
  </separator>
 </parameters>
 <atominfo>
  <atoms>      80 </atoms>
  <types>       3 </types>
  <array name="atoms" >
   <dimension dim="1">ion</dimension>
   <field type="string">element</field>
   <field type="int">atomtype</field>
   <set>
    <rc><c>Sc</c><c>   1</c></rc>
    <rc><c>Sc</c><c>   1</c></rc>
    <rc><c>Sc</c><c>   1</c></rc>
    <rc><c>Sc</c><c>   1</c></rc>
    <rc><c>Sc</c><c>   1</c></rc>
    <rc><c>Sc</c><c>   1</c></rc>
    <rc><c>Sc</c><c>   1</c></rc>
    <rc><c>Sc</c><c>   1</c></rc>
    <rc><c>Sc</c><c>   1</c></rc>
    <rc><c>Sc</c><c>   1</c></rc>
    <rc><c>Sc</c><c>   1</c></rc>
    <rc><c>Sc</c><c>   1</c></rc>
    <rc><c>Sc</c><c>   1</c></rc>
    <rc><c>Sc</c><c>   1</c></rc>
    <rc><c>Sc</c><c>   1</c></rc>
    <rc><c>Sc</c><c>   1</c></rc>
    <rc><c>Sc</c><c>   1</c></rc>
    <rc><c>Sc</c><c>   1</c></rc>
    <rc><c>Sc</c><c>   1</c></rc>
    <rc><c>Sc</c><c>   1</c></rc>
    <rc><c>Sc</c><c>   1</c></rc>
    <rc><c>Sc</c><c>   1</c></rc>
    <rc><c>Sc</c><c>   1</c></rc>
    <rc><c>Sc</c><c>   1</c></rc>
    <rc><c>Sc</c><c>   1</c></rc>
    <rc><c>Sc</c><c>   1</c></rc>
    <rc><c>Sc</c><c>   1</c></rc>
    <rc><c>Sc</c><c>   1</c></rc>
    <rc><c>Sc</c><c>   1</c></rc>
    <rc><c>Sc</c><c>   1</c></rc>
    <rc><c>Sc</c><c>   1</c></rc>
    <rc><c>Sc</c><c>   1</c></rc>
    <rc><c>Cl</c><c>   2</c></rc>
    <rc><c>Cl</c><c>   2</c></rc>
    <rc><c>Cl</c><c>   2</c></rc>
    <rc><c>Cl</c><c>   2</c></rc>
    <rc><c>Cl</c><c>   2</c></rc>
    <rc><c>Cl</c><c>   2</c></rc>
    <rc><c>Cl</c><c>   2</c></rc>
    <rc><c>Cl</c><c>   2</c></rc>
    <rc><c>Cl</c><c>   2</c></rc>
    <rc><c>Cl</c><c>   2</c></rc>
    <rc><c>Cl</c><c>   2</c></rc>
    <rc><c>Cl</c><c>   2</c></rc>
    <rc><c>Cl</c><c>   2</c></rc>
    <rc><c>Cl</c><c>   2</c></rc>
    <rc><c>Cl</c><c>   2</c></rc>
    <rc><c>Cl</c><c>   2</c></rc>
    <rc><c>Cl</c><c>   2</c></rc>
    <rc><c>Cl</c><c>   2</c></rc>
    <rc><c>Cl</c><c>   2</c></rc>
    <rc><c>Cl</c><c>   2</c></rc>
    <rc><c>Cl</c><c>   2</c></rc>
    <rc><c>Cl</c><c>   2</c></rc>
    <rc><c>Cl</c><c>   2</c></rc>
    <rc><c>Cl</c><c>   2</c></rc>
    <rc><c>Cl</c><c>   2</c></rc>
    <rc><c>Cl</c><c>   2</c></rc>
    <rc><c>Cl</c><c>   2</c></rc>
    <rc><c>Cl</c><c>   2</c></rc>
    <rc><c>Cl</c><c>   2</c></rc>
    <rc><c>Cl</c><c>   2</c></rc>
    <rc><c>Cl</c><c>   2</c></rc>
    <rc><c>Cl</c><c>   2</c></rc>
    <rc><c>C </c><c>   3</c></rc>
    <rc><c>C </c><c>   3</c></rc>
    <rc><c>C </c><c>   3</c></rc>
    <rc><c>C </c><c>   3</c></rc>
    <rc><c>C </c><c>   3</c></rc>
    <rc><c>C </c><c>   3</c></rc>
    <rc><c>C </c><c>   3</c></rc>
    <rc><c>C </c><c>   3</c></rc>
    <rc><c>C </c><c>   3</c></rc>
    <rc><c>C </c><c>   3</c></rc>
    <rc><c>C </c><c>   3</c></rc>
    <rc><c>C </c><c>   3</c></rc>
    <rc><c>C </c><c>   3</c></rc>
    <rc><c>C </c><c>   3</c></rc>
    <rc><c>C </c><c>   3</c></rc>
    <rc><c>C </c><c>   3</c></rc>
   </set>
  </array>
  <array name="atomtypes" >
   <dimension dim="1">type</dimension>
   <field type="int">atomspertype</field>
   <field type="string">element</field>
   <field>mass</field>
   <field>valence</field>
   <field type="string">pseudopotential</field>
   <set>
    <rc><c>  32</c><c>Sc</c><c>     44.95600000</c><c>     11.00000000</c><c>  PAW_PBE Sc_sv 07Sep2000               </c></rc>
    <rc><c>  32</c><c>Cl</c><c>     35.45300000</c><c>      7.00000000</c><c>  PAW_PBE Cl 06Sep2000                  </c></rc>
    <rc><c>  16</c><c>C </c><c>     12.01100000</c><c>      4.00000000</c><c>  PAW_PBE C 08Apr2002                   </c></rc>
   </set>
  </array>
 </atominfo>
 <structure name="initialpos" >
  <crystal>
   <varray name="basis" >
    <v>      13.79398668       0.00000000       0.00000000 </v>
    <v>      -6.89699334      11.94594288       0.00000000 </v>
    <v>       0.00000000       0.00000000      27.81022107 </v>
   </varray>
   <i name="volume">   4582.62876984 </i>
   <varray name="rec_basis" >
    <v>       0.07249536       0.04185521       0.00000000 </v>
    <v>       0.00000000       0.08371043       0.00000000 </v>
    <v>       0.00000000       0.00000000       0.03595800 </v>
   </varray>
  </crystal>
  <varray name="positions" >
   <v>       0.08497690       0.15870172       0.54277928 </v>
   <v>       0.09935788       0.42008246       0.54690140 </v>
   <v>       0.08133758       0.66983859       0.54599866 </v>
   <v>       0.07853499       0.91699813       0.54788517 </v>
   <v>       0.32242929       0.16209093       0.54647258 </v>
   <v>       0.33089417       0.41891227       0.54439998 </v>
   <v>       0.32917324       0.66915741       0.54469601 </v>
   <v>       0.32425866       0.91771910       0.54164440 </v>
   <v>       0.57786855       0.15890307       0.54661017 </v>
   <v>       0.58471287       0.40912205       0.54545627 </v>
   <v>       0.56926374       0.65454850       0.54989386 </v>
   <v>       0.58534858       0.93355684       0.54476723 </v>
   <v>       0.83827914       0.16881183       0.54508386 </v>
   <v>       0.83622027       0.42030860       0.54734993 </v>
   <v>       0.82752615       0.66889038       0.54340529 </v>
   <v>       0.83113324       0.91867055       0.54235817 </v>
   <v>       0.17662319       0.08195881       0.45830266 </v>
   <v>       0.16756027       0.32566271       0.45463650 </v>
   <v>       0.16627182       0.58786602       0.45125260 </v>
   <v>       0.16529865       0.82880690       0.45558977 </v>
   <v>       0.41855248       0.09726200       0.45650909 </v>
   <v>       0.42355222       0.33708777       0.45355108 </v>
   <v>       0.43398802       0.59784500       0.45497479 </v>
   <v>       0.42824608       0.84214321       0.46034874 </v>
   <v>       0.65950291       0.08442390       0.45515800 </v>
   <v>       0.67229328       0.32924283       0.45674627 </v>
   <v>       0.67301221       0.58092073       0.45479084 </v>
   <v>       0.65964430       0.83009599       0.45861172 </v>
   <v>       0.92712481       0.08175837       0.45585370 </v>
   <v>       0.92145054       0.32691837       0.45570907 </v>
   <v>       0.91759240       0.57238405       0.45598213 </v>
   <v>       0.89331287       0.81551053       0.45279944 </v>
   <v>       0.08337078       0.16674725       0.39475862 </v>
   <v>       0.09020392       0.42818792       0.39364317 </v>
   <v>       0.08160644       0.68181475       0.39192566 </v>
   <v>       0.07382914       0.91734746       0.40085503 </v>
   <v>       0.34251253       0.17402286       0.39405605 </v>
   <v>       0.35533548       0.42346568       0.39726646 </v>
   <v>       0.34341287       0.67864920       0.39424817 </v>
   <v>       0.33676917       0.93811693       0.39574200 </v>
   <v>       0.57891121       0.17301956       0.39289594 </v>
   <v>       0.59032892       0.41761139       0.39451720 </v>
   <v>       0.57740925       0.65383027       0.39266913 </v>
   <v>       0.57197976       0.93216241       0.39020165 </v>
   <v>       0.82876410       0.14564268       0.39267038 </v>
   <v>       0.82734629       0.40694743       0.38968010 </v>
   <v>       0.81817085       0.64645621       0.38946305 </v>
   <v>       0.83036265       0.91458607       0.40284030 </v>
   <v>       0.18264651       0.08906688       0.60375794 </v>
   <v>       0.17464772       0.33200600       0.60759066 </v>
   <v>       0.15940783       0.57470132       0.60747480 </v>
   <v>       0.16272315       0.82674608       0.61165101 </v>
   <v>       0.40742309       0.09086174       0.60088257 </v>
   <v>       0.42358498       0.34200466       0.59923769 </v>
   <v>       0.40104164       0.57762552       0.60532258 </v>
   <v>       0.41530991       0.84322680       0.59769295 </v>
   <v>       0.65303802       0.08319895       0.61185600 </v>
   <v>       0.66930202       0.31509895       0.60109388 </v>
   <v>       0.66702828       0.57675356       0.60577364 </v>
   <v>       0.67134066       0.83248308       0.60229478 </v>
   <v>       0.91870463       0.08553844       0.59871702 </v>
   <v>       0.92418003       0.34760828       0.60353604 </v>
   <v>       0.90310102       0.57794616       0.60085079 </v>
   <v>       0.90700575       0.81918297       0.61034102 </v>
   <v>       0.00370227       0.00186843       0.49850208 </v>
   <v>       0.00945518       0.25406829       0.50249897 </v>
   <v>       0.01501273       0.50112565       0.49952405 </v>
   <v>       0.99746166       0.74094146       0.50541451 </v>
   <v>       0.25898719       0.00939971       0.50169370 </v>
   <v>       0.24786770       0.25124654       0.49869729 </v>
   <v>       0.25418517       0.50741956       0.50132451 </v>
   <v>       0.26026835       0.75498706       0.49838775 </v>
   <v>       0.50204671       0.00078817       0.50124393 </v>
   <v>       0.50303548       0.24421357       0.50323110 </v>
   <v>       0.49766312       0.49722920       0.50307858 </v>
   <v>       0.49796819       0.74947401       0.50348428 </v>
   <v>       0.75743051       0.00576656       0.49651102 </v>
   <v>       0.75874986       0.24757796       0.50071185 </v>
   <v>       0.75439880       0.49504495       0.49966796 </v>
   <v>       0.74796117       0.75314434       0.49649298 </v>
  </varray>
  <varray name="velocities" >
   <v>       0.00000000       0.00000000       0.00000000 </v>
   <v>       0.00000000       0.00000000       0.00000000 </v>
   <v>       0.00000000       0.00000000       0.00000000 </v>
   <v>       0.00000000       0.00000000       0.00000000 </v>
   <v>       0.00000000       0.00000000       0.00000000 </v>
   <v>       0.00000000       0.00000000       0.00000000 </v>
   <v>       0.00000000       0.00000000       0.00000000 </v>
   <v>       0.00000000       0.00000000       0.00000000 </v>
   <v>       0.00000000       0.00000000       0.00000000 </v>
   <v>       0.00000000       0.00000000       0.00000000 </v>
   <v>       0.00000000       0.00000000       0.00000000 </v>
   <v>       0.00000000       0.00000000       0.00000000 </v>
   <v>       0.00000000       0.00000000       0.00000000 </v>
   <v>       0.00000000       0.00000000       0.00000000 </v>
   <v>       0.00000000       0.00000000       0.00000000 </v>
   <v>       0.00000000       0.00000000       0.00000000 </v>
   <v>       0.00000000       0.00000000       0.00000000 </v>
   <v>       0.00000000       0.00000000       0.00000000 </v>
   <v>       0.00000000       0.00000000       0.00000000 </v>
   <v>       0.00000000       0.00000000       0.00000000 </v>
   <v>       0.00000000       0.00000000       0.00000000 </v>
   <v>       0.00000000       0.00000000       0.00000000 </v>
   <v>       0.00000000       0.00000000       0.00000000 </v>
   <v>       0.00000000       0.00000000       0.00000000 </v>
   <v>       0.00000000       0.00000000       0.00000000 </v>
   <v>       0.00000000       0.00000000       0.00000000 </v>
   <v>       0.00000000       0.00000000       0.00000000 </v>
   <v>       0.00000000       0.00000000       0.00000000 </v>
   <v>       0.00000000       0.00000000       0.00000000 </v>
   <v>       0.00000000       0.00000000       0.00000000 </v>
   <v>       0.00000000       0.00000000       0.00000000 </v>
   <v>       0.00000000       0.00000000       0.00000000 </v>
   <v>       0.00000000       0.00000000       0.00000000 </v>
   <v>       0.00000000       0.00000000       0.00000000 </v>
   <v>       0.00000000       0.00000000       0.00000000 </v>
   <v>       0.00000000       0.00000000       0.00000000 </v>
   <v>       0.00000000       0.00000000       0.00000000 </v>
   <v>       0.00000000       0.00000000       0.00000000 </v>
   <v>       0.00000000       0.00000000       0.00000000 </v>
   <v>       0.00000000       0.00000000       0.00000000 </v>
   <v>       0.00000000       0.00000000       0.00000000 </v>
   <v>       0.00000000       0.00000000       0.00000000 </v>
   <v>       0.00000000       0.00000000       0.00000000 </v>
   <v>       0.00000000       0.00000000       0.00000000 </v>
   <v>       0.00000000       0.00000000       0.00000000 </v>
   <v>       0.00000000       0.00000000       0.00000000 </v>
   <v>       0.00000000       0.00000000       0.00000000 </v>
   <v>       0.00000000       0.00000000       0.00000000 </v>
   <v>       0.00000000       0.00000000       0.00000000 </v>
   <v>       0.00000000       0.00000000       0.00000000 </v>
   <v>       0.00000000       0.00000000       0.00000000 </v>
   <v>       0.00000000       0.00000000       0.00000000 </v>
   <v>       0.00000000       0.00000000       0.00000000 </v>
   <v>       0.00000000       0.00000000       0.00000000 </v>
   <v>       0.00000000       0.00000000       0.00000000 </v>
   <v>       0.00000000       0.00000000       0.00000000 </v>
   <v>       0.00000000       0.00000000       0.00000000 </v>
   <v>       0.00000000       0.00000000       0.00000000 </v>
   <v>       0.00000000       0.00000000       0.00000000 </v>
   <v>       0.00000000       0.00000000       0.00000000 </v>
   <v>       0.00000000       0.00000000       0.00000000 </v>
   <v>       0.00000000       0.00000000       0.00000000 </v>
   <v>       0.00000000       0.00000000       0.00000000 </v>
   <v>       0.00000000       0.00000000       0.00000000 </v>
   <v>       0.00000000       0.00000000       0.00000000 </v>
   <v>       0.00000000       0.00000000       0.00000000 </v>
   <v>       0.00000000       0.00000000       0.00000000 </v>
   <v>       0.00000000       0.00000000       0.00000000 </v>
   <v>       0.00000000       0.00000000       0.00000000 </v>
   <v>       0.00000000       0.00000000       0.00000000 </v>
   <v>       0.00000000       0.00000000       0.00000000 </v>
   <v>       0.00000000       0.00000000       0.00000000 </v>
   <v>       0.00000000       0.00000000       0.00000000 </v>
   <v>       0.00000000       0.00000000       0.00000000 </v>
   <v>       0.00000000       0.00000000       0.00000000 </v>
   <v>       0.00000000       0.00000000       0.00000000 </v>
   <v>       0.00000000       0.00000000       0.00000000 </v>
   <v>       0.00000000       0.00000000       0.00000000 </v>
   <v>       0.00000000       0.00000000       0.00000000 </v>
   <v>       0.00000000       0.00000000       0.00000000 </v>
  </varray>
 </structure>
 <calculation>
  <scstep>
   <time name="dav">   50.13   50.14</time>
   <time name="total">   50.97   50.98</time>
   <energy>
    <i name="alphaZ">    784.57699423 </i>
    <i name="ewald"> 252595.89733643 </i>
    <i name="hartreedc">-300247.25299431 </i>
    <i name="XCdc">   2503.34461864 </i>
    <i name="pawpsdc">  43679.68029659 </i>
    <i name="pawaedc"> -43417.33247688 </i>
    <i name="eentropy">     -0.06464348 </i>
    <i name="bandstr">    121.49448849 </i>
    <i name="atom">  56210.72393729 </i>
    <i name="e_fr_energy">  12231.06755701 </i>
    <i name="e_wo_entrp">  12231.13220049 </i>
    <i name="e_0_energy">  12231.09987875 </i>
   </energy>
  </scstep>
  <scstep>
   <time name="dav">   56.85   56.87</time>
   <time name="total">   56.85   56.87</time>
   <energy>
    <i name="e_fr_energy">   1748.76683708 </i>
    <i name="e_wo_entrp">   1748.80248479 </i>
    <i name="e_0_energy">   1748.78466094 </i>
   </energy>
  </scstep>
  <scstep>
   <time name="dav">   70.83   70.84</time>
   <time name="total">   70.83   70.84</time>
   <energy>
    <i name="e_fr_energy">   -403.07892916 </i>
    <i name="e_wo_entrp">   -403.07892916 </i>
    <i name="e_0_energy">   -403.07892916 </i>
   </energy>
  </scstep>
  <scstep>
   <time name="dav">   64.62   64.62</time>
   <time name="total">   64.62   64.63</time>
   <energy>
    <i name="e_fr_energy">   -642.19212068 </i>
    <i name="e_wo_entrp">   -642.19212068 </i>
    <i name="e_0_energy">   -642.19212068 </i>
   </energy>
  </scstep>
  <scstep>
   <time name="dav">   64.53   64.53</time>
   <time name="total">   68.41   68.42</time>
   <energy>
    <i name="e_fr_energy">   -652.78956980 </i>
    <i name="e_wo_entrp">   -652.78956980 </i>
    <i name="e_0_energy">   -652.78956980 </i>
   </energy>
  </scstep>
  <scstep>
   <time name="dav">   62.61   62.62</time>
   <time name="total">   67.31   67.33</time>
   <energy>
    <i name="e_fr_energy">   -521.92118030 </i>
    <i name="e_wo_entrp">   -521.92117839 </i>
    <i name="e_0_energy">   -521.92117934 </i>
   </energy>
  </scstep>
  <scstep>
   <time name="dav">   63.14   63.14</time>
   <time name="total">   67.83   67.84</time>
   <energy>
    <i name="e_fr_energy">   -527.21638796 </i>
    <i name="e_wo_entrp">   -527.21638796 </i>
    <i name="e_0_energy">   -527.21638796 </i>
   </energy>
  </scstep>
  <scstep>
   <time name="dav">   62.54   62.54</time>
   <time name="total">   67.23   67.24</time>
   <energy>
    <i name="e_fr_energy">   -524.85125500 </i>
    <i name="e_wo_entrp">   -524.85125500 </i>
    <i name="e_0_energy">   -524.85125500 </i>
   </energy>
  </scstep>
  <scstep>
   <time name="dav">   58.23   58.23</time>
   <time name="total">   62.93   62.94</time>
   <energy>
    <i name="e_fr_energy">   -524.30907395 </i>
    <i name="e_wo_entrp">   -524.30907395 </i>
    <i name="e_0_energy">   -524.30907395 </i>
   </energy>
  </scstep>
  <scstep>
   <time name="dav">   61.05   61.05</time>
   <time name="total">   65.74   65.76</time>
   <energy>
    <i name="e_fr_energy">   -524.16500460 </i>
    <i name="e_wo_entrp">   -524.16500460 </i>
    <i name="e_0_energy">   -524.16500460 </i>
   </energy>
  </scstep>
  <scstep>
   <time name="dav">   62.39   62.39</time>
   <time name="total">   67.10   67.11</time>
   <energy>
    <i name="e_fr_energy">   -524.14493863 </i>
    <i name="e_wo_entrp">   -524.14493863 </i>
    <i name="e_0_energy">   -524.14493863 </i>
   </energy>
  </scstep>
  <scstep>
   <time name="dav">   64.93   64.93</time>
   <time name="total">   69.63   69.64</time>
   <energy>
    <i name="e_fr_energy">   -524.13107157 </i>
    <i name="e_wo_entrp">   -524.13107157 </i>
    <i name="e_0_energy">   -524.13107157 </i>
   </energy>
  </scstep>
  <scstep>
   <time name="dav">   57.73   57.73</time>
   <time name="total">   62.44   62.45</time>
   <energy>
    <i name="e_fr_energy">   -524.12670905 </i>
    <i name="e_wo_entrp">   -524.12670905 </i>
    <i name="e_0_energy">   -524.12670905 </i>
   </energy>
  </scstep>
  <scstep>
   <time name="dav">   59.37   59.37</time>
   <time name="total">   64.06   64.07</time>
   <energy>
    <i name="e_fr_energy">   -524.12542216 </i>
    <i name="e_wo_entrp">   -524.12542216 </i>
    <i name="e_0_energy">   -524.12542216 </i>
   </energy>
  </scstep>
  <scstep>
   <time name="dav">   59.45   59.46</time>
   <time name="total">   64.18   64.19</time>
   <energy>
    <i name="e_fr_energy">   -524.12685877 </i>
    <i name="e_wo_entrp">   -524.12685877 </i>
    <i name="e_0_energy">   -524.12685877 </i>
   </energy>
  </scstep>
  <scstep>
   <time name="dav">   60.31   60.31</time>
   <time name="total">   65.05   65.06</time>
   <energy>
    <i name="e_fr_energy">   -524.12881184 </i>
    <i name="e_wo_entrp">   -524.12881184 </i>
    <i name="e_0_energy">   -524.12881184 </i>
   </energy>
  </scstep>
  <scstep>
   <time name="dav">   57.73   57.73</time>
   <time name="total">   62.43   62.44</time>
   <energy>
    <i name="e_fr_energy">   -524.13229556 </i>
    <i name="e_wo_entrp">   -524.13229556 </i>
    <i name="e_0_energy">   -524.13229556 </i>
   </energy>
  </scstep>
  <scstep>
   <time name="dav">   55.53   55.53</time>
   <time name="total">   60.25   60.26</time>
   <energy>
    <i name="e_fr_energy">   -524.13467356 </i>
    <i name="e_wo_entrp">   -524.13467356 </i>
    <i name="e_0_energy">   -524.13467356 </i>
   </energy>
  </scstep>
  <scstep>
   <time name="dav">   56.96   56.96</time>
   <time name="total">   61.68   61.70</time>
   <energy>
    <i name="e_fr_energy">   -524.13574716 </i>
    <i name="e_wo_entrp">   -524.13574716 </i>
    <i name="e_0_energy">   -524.13574716 </i>
   </energy>
  </scstep>
  <scstep>
   <time name="dav">   49.18   49.18</time>
   <time name="total">   53.89   53.90</time>
   <energy>
    <i name="e_fr_energy">   -524.13700288 </i>
    <i name="e_wo_entrp">   -524.13700288 </i>
    <i name="e_0_energy">   -524.13700288 </i>
   </energy>
  </scstep>
  <scstep>
   <time name="dav">   47.77   47.77</time>
   <time name="total">   52.49   52.49</time>
   <energy>
    <i name="e_fr_energy">   -524.13752495 </i>
    <i name="e_wo_entrp">   -524.13752495 </i>
    <i name="e_0_energy">   -524.13752495 </i>
   </energy>
  </scstep>
  <scstep>
   <time name="dav">   44.58   44.58</time>
   <time name="total">   49.27   49.29</time>
   <energy>
    <i name="e_fr_energy">   -524.13794768 </i>
    <i name="e_wo_entrp">   -524.13794768 </i>
    <i name="e_0_energy">   -524.13794768 </i>
   </energy>
  </scstep>
  <scstep>
   <time name="dav">   41.59   41.59</time>
   <time name="total">   46.30   46.31</time>
   <energy>
    <i name="e_fr_energy">   -524.13848292 </i>
    <i name="e_wo_entrp">   -524.13848292 </i>
    <i name="e_0_energy">   -524.13848292 </i>
   </energy>
  </scstep>
  <scstep>
   <time name="dav">   44.18   44.18</time>
   <time name="total">   48.88   48.89</time>
   <energy>
    <i name="e_fr_energy">   -524.13862004 </i>
    <i name="e_wo_entrp">   -524.13862004 </i>
    <i name="e_0_energy">   -524.13862004 </i>
   </energy>
  </scstep>
  <scstep>
   <time name="dav">   37.62   37.63</time>
   <time name="total">   42.34   42.35</time>
   <energy>
    <i name="e_fr_energy">   -524.13869690 </i>
    <i name="e_wo_entrp">   -524.13869690 </i>
    <i name="e_0_energy">   -524.13869690 </i>
   </energy>
  </scstep>
  <scstep>
   <time name="dav">   41.73   41.74</time>
   <time name="total">   46.42   46.43</time>
   <energy>
    <i name="e_fr_energy">   -524.13878657 </i>
    <i name="e_wo_entrp">   -524.13878657 </i>
    <i name="e_0_energy">   -524.13878657 </i>
   </energy>
  </scstep>
  <scstep>
   <time name="dav">   34.86   34.87</time>
   <time name="total">   39.56   39.58</time>
   <energy>
    <i name="e_fr_energy">   -524.13879287 </i>
    <i name="e_wo_entrp">   -524.13879287 </i>
    <i name="e_0_energy">   -524.13879287 </i>
   </energy>
  </scstep>
  <scstep>
   <time name="dav">   33.34   33.34</time>
   <time name="total">   38.05   38.06</time>
   <energy>
    <i name="e_fr_energy">   -524.13879850 </i>
    <i name="e_wo_entrp">   -524.13879850 </i>
    <i name="e_0_energy">   -524.13879850 </i>
   </energy>
  </scstep>
  <scstep>
   <time name="dav">   35.00   35.00</time>
   <time name="total">   39.72   39.72</time>
   <energy>
    <i name="e_fr_energy">   -524.13880995 </i>
    <i name="e_wo_entrp">   -524.13880995 </i>
    <i name="e_0_energy">   -524.13880995 </i>
   </energy>
  </scstep>
  <scstep>
   <time name="dav">   34.95   34.95</time>
   <time name="total">   39.68   39.69</time>
   <energy>
    <i name="e_fr_energy">   -524.13881851 </i>
    <i name="e_wo_entrp">   -524.13881851 </i>
    <i name="e_0_energy">   -524.13881851 </i>
   </energy>
  </scstep>
  <scstep>
   <time name="dav">   33.62   33.62</time>
   <time name="total">   38.41   38.42</time>
   <energy>
    <i name="e_fr_energy">   -524.13882212 </i>
    <i name="e_wo_entrp">   -524.13882212 </i>
    <i name="e_0_energy">   -524.13882212 </i>
   </energy>
  </scstep>
  <scstep>
   <time name="dav">   33.24   33.25</time>
   <time name="total">   38.01   38.02</time>
   <energy>
    <i name="e_fr_energy">   -524.13882394 </i>
    <i name="e_wo_entrp">   -524.13882394 </i>
    <i name="e_0_energy">   -524.13882394 </i>
   </energy>
  </scstep>
  <scstep>
   <time name="dav">   32.49   32.49</time>
   <time name="total">   33.30   33.31</time>
   <energy>
    <i name="alphaZ">    784.57699423 </i>
    <i name="ewald"> 252595.89733643 </i>
    <i name="hartreedc">-300584.77264959 </i>
    <i name="XCdc">   2490.76612743 </i>
    <i name="pawpsdc">  59708.26027057 </i>
    <i name="pawaedc"> -59540.33653664 </i>
    <i name="eentropy">     -0.00000000 </i>
    <i name="bandstr"> -12189.25430408 </i>
    <i name="atom">  56210.72393729 </i>
    <i name="e_fr_energy">   -524.13882436 </i>
    <i name="e_wo_entrp">   -524.13882436 </i>
    <i name="e_0_energy">   -524.13882436 </i>
   </energy>
  </scstep>
  <structure>
   <crystal>
    <varray name="basis" >
     <v>      13.79398668       0.00000000       0.00000000 </v>
     <v>      -6.89699334      11.94594288       0.00000000 </v>
     <v>       0.00000000       0.00000000      27.81022107 </v>
    </varray>
    <i name="volume">   4582.62876984 </i>
    <varray name="rec_basis" >
     <v>       0.07249536       0.04185521       0.00000000 </v>
     <v>       0.00000000       0.08371043       0.00000000 </v>
     <v>       0.00000000       0.00000000       0.03595800 </v>
    </varray>
   </crystal>
   <varray name="positions" >
    <v>       0.08497690       0.15870172       0.54277928 </v>
    <v>       0.09935788       0.42008246       0.54690140 </v>
    <v>       0.08133758       0.66983859       0.54599866 </v>
    <v>       0.07853499       0.91699813       0.54788517 </v>
    <v>       0.32242929       0.16209093       0.54647258 </v>
    <v>       0.33089417       0.41891227       0.54439998 </v>
    <v>       0.32917324       0.66915741       0.54469601 </v>
    <v>       0.32425866       0.91771910       0.54164440 </v>
    <v>       0.57786855       0.15890307       0.54661017 </v>
    <v>       0.58471287       0.40912205       0.54545627 </v>
    <v>       0.56926374       0.65454850       0.54989386 </v>
    <v>       0.58534858       0.93355684       0.54476723 </v>
    <v>       0.83827914       0.16881183       0.54508386 </v>
    <v>       0.83622027       0.42030860       0.54734993 </v>
    <v>       0.82752615       0.66889038       0.54340529 </v>
    <v>       0.83113324       0.91867055       0.54235817 </v>
    <v>       0.17662319       0.08195881       0.45830266 </v>
    <v>       0.16756027       0.32566271       0.45463650 </v>
    <v>       0.16627182       0.58786602       0.45125260 </v>
    <v>       0.16529865       0.82880690       0.45558977 </v>
    <v>       0.41855248       0.09726200       0.45650909 </v>
    <v>       0.42355222       0.33708777       0.45355108 </v>
    <v>       0.43398802       0.59784500       0.45497479 </v>
    <v>       0.42824608       0.84214321       0.46034874 </v>
    <v>       0.65950291       0.08442390       0.45515800 </v>
    <v>       0.67229328       0.32924283       0.45674627 </v>
    <v>       0.67301221       0.58092073       0.45479084 </v>
    <v>       0.65964430       0.83009599       0.45861172 </v>
    <v>       0.92712481       0.08175837       0.45585370 </v>
    <v>       0.92145054       0.32691837       0.45570907 </v>
    <v>       0.91759240       0.57238405       0.45598213 </v>
    <v>       0.89331287       0.81551053       0.45279944 </v>
    <v>       0.08337078       0.16674725       0.39475862 </v>
    <v>       0.09020392       0.42818792       0.39364317 </v>
    <v>       0.08160644       0.68181475       0.39192566 </v>
    <v>       0.07382914       0.91734746       0.40085503 </v>
    <v>       0.34251253       0.17402286       0.39405605 </v>
    <v>       0.35533548       0.42346568       0.39726646 </v>
    <v>       0.34341287       0.67864920       0.39424817 </v>
    <v>       0.33676917       0.93811693       0.39574200 </v>
    <v>       0.57891121       0.17301956       0.39289594 </v>
    <v>       0.59032892       0.41761139       0.39451720 </v>
    <v>       0.57740925       0.65383027       0.39266913 </v>
    <v>       0.57197976       0.93216241       0.39020165 </v>
    <v>       0.82876410       0.14564268       0.39267038 </v>
    <v>       0.82734629       0.40694743       0.38968010 </v>
    <v>       0.81817085       0.64645621       0.38946305 </v>
    <v>       0.83036265       0.91458607       0.40284030 </v>
    <v>       0.18264651       0.08906688       0.60375794 </v>
    <v>       0.17464772       0.33200600       0.60759066 </v>
    <v>       0.15940783       0.57470132       0.60747480 </v>
    <v>       0.16272315       0.82674608       0.61165101 </v>
    <v>       0.40742309       0.09086174       0.60088257 </v>
    <v>       0.42358498       0.34200466       0.59923769 </v>
    <v>       0.40104164       0.57762552       0.60532258 </v>
    <v>       0.41530991       0.84322680       0.59769295 </v>
    <v>       0.65303802       0.08319895       0.61185600 </v>
    <v>       0.66930202       0.31509895       0.60109388 </v>
    <v>       0.66702828       0.57675356       0.60577364 </v>
    <v>       0.67134066       0.83248308       0.60229478 </v>
    <v>       0.91870463       0.08553844       0.59871702 </v>
    <v>       0.92418003       0.34760828       0.60353604 </v>
    <v>       0.90310102       0.57794616       0.60085079 </v>
    <v>       0.90700575       0.81918297       0.61034102 </v>
    <v>       0.00370227       0.00186843       0.49850208 </v>
    <v>       0.00945518       0.25406829       0.50249897 </v>
    <v>       0.01501273       0.50112565       0.49952405 </v>
    <v>       0.99746166       0.74094146       0.50541451 </v>
    <v>       0.25898719       0.00939971       0.50169370 </v>
    <v>       0.24786770       0.25124654       0.49869729 </v>
    <v>       0.25418517       0.50741956       0.50132451 </v>
    <v>       0.26026835       0.75498706       0.49838775 </v>
    <v>       0.50204671       0.00078817       0.50124393 </v>
    <v>       0.50303548       0.24421357       0.50323110 </v>
    <v>       0.49766312       0.49722920       0.50307858 </v>
    <v>       0.49796819       0.74947401       0.50348428 </v>
    <v>       0.75743051       0.00576656       0.49651102 </v>
    <v>       0.75874986       0.24757796       0.50071185 </v>
    <v>       0.75439880       0.49504495       0.49966796 </v>
    <v>       0.74796117       0.75314434       0.49649298 </v>
   </varray>
  </structure>
  <varray name="forces" >
   <v>      -0.43643209       1.16661785       0.09807728 </v>
   <v>      -0.95593608      -0.08591559      -1.00540840 </v>
   <v>       0.57505164      -0.67977057      -0.04174479 </v>
   <v>      -0.01159898      -0.99042041      -0.57350119 </v>
   <v>       1.56287613       1.68673115      -1.70107385 </v>
   <v>       0.13107689      -0.11306110      -0.90444408 </v>
   <v>       0.15122726      -0.38804225      -0.37032375 </v>
   <v>       0.81030105      -0.15350932       0.75038347 </v>
   <v>      -0.13700831       0.39184614      -0.78342545 </v>
   <v>      -0.13077750       0.33015555      -0.60064067 </v>
   <v>       0.36647351       0.62563049      -0.68816797 </v>
   <v>       1.06071738      -1.04901231       0.54001805 </v>
   <v>      -0.22670584       0.43187141      -0.64628838 </v>
   <v>       0.68690989      -0.84874692      -1.37723033 </v>
   <v>       0.78871015      -0.34006855       0.15704153 </v>
   <v>       0.03672593      -0.13612312      -0.10955324 </v>
   <v>      -1.17846184       0.14488638      -1.01262329 </v>
   <v>      -0.15092463       1.07586061       0.12956103 </v>
   <v>       0.95376176      -0.18260412       1.01271972 </v>
   <v>       0.04352935       0.53987261      -0.06723815 </v>
   <v>       0.67961579      -0.97260088      -0.15954420 </v>
   <v>      -0.11069484       0.03141578       1.10083808 </v>
   <v>      -1.52462157      -1.31692323       0.67965407 </v>
   <v>      -0.98717565      -0.72144226      -1.64989602 </v>
   <v>       1.24158704       0.38909783      -0.45426296 </v>
   <v>      -0.05748998       0.06409501      -0.09258205 </v>
   <v>      -0.91751719      -0.71671115       0.37298479 </v>
   <v>       0.04297738       0.65686119      -0.36562957 </v>
   <v>      -1.21079543       0.42976547      -0.14673120 </v>
   <v>      -0.08641461       0.33937338       0.06117249 </v>
   <v>      -0.02223321       0.23255576      -0.01426962 </v>
   <v>       1.83760099       0.98597242       0.28969587 </v>
   <v>       0.36753596       0.07522722      -0.15007898 </v>
   <v>       0.13421519      -0.59311666      -0.05000996 </v>
   <v>       0.23735794      -0.51541849       0.27625644 </v>
   <v>       0.35331937      -0.14885794      -0.31624705 </v>
   <v>      -0.52961564      -0.06501047       0.10244305 </v>
   <v>      -1.13173005      -0.13802326      -0.35210959 </v>
   <v>      -0.02349345      -0.14169581       0.30852912 </v>
   <v>      -0.04392280      -0.87765676       0.32376820 </v>
   <v>       0.37455190      -0.00093826       0.47875888 </v>
   <v>      -0.09900324      -0.22332457       0.34177993 </v>
   <v>       0.41097288       0.96684440       0.13890698 </v>
   <v>       0.61120147      -0.58030718       0.69361751 </v>
   <v>      -0.13358903       0.88122081       0.46285090 </v>
   <v>       0.44675359       0.18304709       0.88687112 </v>
   <v>       0.40558405       0.79833733       0.59622364 </v>
   <v>      -0.37902594      -0.20719981      -1.44789287 </v>
   <v>      -1.69199354      -0.81698877       1.38114100 </v>
   <v>      -0.17245516      -0.32188987      -0.09590772 </v>
   <v>       0.07192086       0.72932580      -0.03765498 </v>
   <v>      -0.03476852       0.29643646      -0.79891644 </v>
   <v>       0.95585772      -0.65373825       1.03654883 </v>
   <v>      -0.20790516      -0.44673821       1.03295387 </v>
   <v>       0.49584481       0.43266187       0.45365518 </v>
   <v>       0.11586238      -0.26274645       1.08459147 </v>
   <v>       0.76647126      -0.25345897      -0.42885344 </v>
   <v>      -0.57137420       1.16127972       1.03076721 </v>
   <v>      -0.24006216       0.04641693      -0.01845825 </v>
   <v>      -0.37314010       0.10027056       0.23723430 </v>
   <v>       0.23078750      -0.28740204       1.15748817 </v>
   <v>       0.32669721      -0.81775391       0.38475611 </v>
   <v>       0.41189301       0.51056866       0.94957177 </v>
   <v>       0.06896935       0.73399427      -0.74000736 </v>
   <v>       0.35454573      -0.66282738       1.13983950 </v>
   <v>      -0.11612317      -0.58519901      -0.66121509 </v>
   <v>      -1.48970544       0.18904980      -0.30550331 </v>
   <v>      -0.40497367       0.78258264      -0.95239842 </v>
   <v>      -0.99392237      -0.80630836      -0.22819270 </v>
   <v>       0.58225561      -0.34902157       0.16108800 </v>
   <v>       0.32261107      -0.34585686      -0.29983754 </v>
   <v>      -1.55046850       0.29039788       0.07603086 </v>
   <v>      -0.15174883       0.52253163      -0.02031675 </v>
   <v>      -0.16996816       0.91709365      -0.63604926 </v>
   <v>       0.69890703       0.42356844      -0.51597693 </v>
   <v>       0.59960636       0.35913153      -0.52735892 </v>
   <v>      -0.60670711      -0.67780783       1.16029307 </v>
   <v>      -0.68879392       0.12364678      -0.39577873 </v>
   <v>      -0.52784223       0.37603173      -0.12571347 </v>
   <v>       0.16425576      -0.94803571       0.78094542 </v>
  </varray>
  <varray name="stress" >
   <v>       3.86407437       0.97666598       1.41647595 </v>
   <v>       0.97666595       4.52267209       0.38019716 </v>
   <v>       1.41647597       0.38019717      -0.09784549 </v>
  </varray>
  <energy>
   <i name="e_fr_energy">   -524.13882436 </i>
   <i name="e_wo_entrp">   -524.13882436 </i>
   <i name="e_0_energy">     -0.00000000 </i>
  </energy>
  <time name="totalsc"> 1893.68 1894.06</time>
  <eigenvalues>
   <array>
    <dimension dim="1">band</dimension>
    <dimension dim="2">kpoint</dimension>
    <dimension dim="3">spin</dimension>
    <field>eigene</field>
    <field>occ</field>
    <set>
     <set comment="spin 1">
      <set comment="kpoint 1">
       <r>  -51.9165    1.0000 </r>
       <r>  -51.7030    1.0000 </r>
       <r>  -51.7023    1.0000 </r>
       <r>  -51.6326    1.0000 </r>
       <r>  -51.5754    1.0000 </r>
       <r>  -51.5631    1.0000 </r>
       <r>  -51.5348    1.0000 </r>
       <r>  -51.4924    1.0000 </r>
       <r>  -51.4860    1.0000 </r>
       <r>  -51.4524    1.0000 </r>
       <r>  -51.4358    1.0000 </r>
       <r>  -51.4201    1.0000 </r>
       <r>  -51.4184    1.0000 </r>
       <r>  -51.3869    1.0000 </r>
       <r>  -51.3717    1.0000 </r>
       <r>  -51.3714    1.0000 </r>
       <r>  -51.3615    1.0000 </r>
       <r>  -51.3299    1.0000 </r>
       <r>  -51.3272    1.0000 </r>
       <r>  -51.3159    1.0000 </r>
       <r>  -51.3016    1.0000 </r>
       <r>  -51.2767    1.0000 </r>
       <r>  -51.2655    1.0000 </r>
       <r>  -51.2534    1.0000 </r>
       <r>  -51.2004    1.0000 </r>
       <r>  -51.1891    1.0000 </r>
       <r>  -51.1685    1.0000 </r>
       <r>  -51.1652    1.0000 </r>
       <r>  -51.1601    1.0000 </r>
       <r>  -51.0899    1.0000 </r>
       <r>  -51.0731    1.0000 </r>
       <r>  -51.0677    1.0000 </r>
       <r>  -30.5942    1.0000 </r>
       <r>  -30.5692    1.0000 </r>
       <r>  -30.5217    1.0000 </r>
       <r>  -30.4298    1.0000 </r>
       <r>  -30.4077    1.0000 </r>
       <r>  -30.4040    1.0000 </r>
       <r>  -30.3799    1.0000 </r>
       <r>  -30.3596    1.0000 </r>
       <r>  -30.3470    1.0000 </r>
       <r>  -30.3358    1.0000 </r>
       <r>  -30.3188    1.0000 </r>
       <r>  -30.3081    1.0000 </r>
       <r>  -30.3030    1.0000 </r>
       <r>  -30.2801    1.0000 </r>
       <r>  -30.2654    1.0000 </r>
       <r>  -30.2626    1.0000 </r>
       <r>  -30.2494    1.0000 </r>
       <r>  -30.2385    1.0000 </r>
       <r>  -30.2311    1.0000 </r>
       <r>  -30.2097    1.0000 </r>
       <r>  -30.2018    1.0000 </r>
       <r>  -30.1958    1.0000 </r>
       <r>  -30.1821    1.0000 </r>
       <r>  -30.1774    1.0000 </r>
       <r>  -30.1726    1.0000 </r>
       <r>  -30.1657    1.0000 </r>
       <r>  -30.1602    1.0000 </r>
       <r>  -30.1455    1.0000 </r>
       <r>  -30.1311    1.0000 </r>
       <r>  -30.1224    1.0000 </r>
       <r>  -30.1141    1.0000 </r>
       <r>  -30.1094    1.0000 </r>
       <r>  -30.1076    1.0000 </r>
       <r>  -30.0986    1.0000 </r>
       <r>  -30.0934    1.0000 </r>
       <r>  -30.0896    1.0000 </r>
       <r>  -30.0819    1.0000 </r>
       <r>  -30.0789    1.0000 </r>
       <r>  -30.0778    1.0000 </r>
       <r>  -30.0678    1.0000 </r>
       <r>  -30.0636    1.0000 </r>
       <r>  -30.0597    1.0000 </r>
       <r>  -30.0574    1.0000 </r>
       <r>  -30.0511    1.0000 </r>
       <r>  -30.0457    1.0000 </r>
       <r>  -30.0419    1.0000 </r>
       <r>  -30.0342    1.0000 </r>
       <r>  -30.0301    1.0000 </r>
       <r>  -30.0256    1.0000 </r>
       <r>  -30.0185    1.0000 </r>
       <r>  -30.0127    1.0000 </r>
       <r>  -30.0036    1.0000 </r>
       <r>  -29.9970    1.0000 </r>
       <r>  -29.9956    1.0000 </r>
       <r>  -29.9926    1.0000 </r>
       <r>  -29.9861    1.0000 </r>
       <r>  -29.9824    1.0000 </r>
       <r>  -29.9818    1.0000 </r>
       <r>  -29.9793    1.0000 </r>
       <r>  -29.9675    1.0000 </r>
       <r>  -29.9659    1.0000 </r>
       <r>  -29.9627    1.0000 </r>
       <r>  -29.9576    1.0000 </r>
       <r>  -29.9483    1.0000 </r>
       <r>  -29.9415    1.0000 </r>
       <r>  -29.9323    1.0000 </r>
       <r>  -29.9242    1.0000 </r>
       <r>  -29.9191    1.0000 </r>
       <r>  -29.9153    1.0000 </r>
       <r>  -29.9099    1.0000 </r>
       <r>  -29.8978    1.0000 </r>
       <r>  -29.8925    1.0000 </r>
       <r>  -29.8797    1.0000 </r>
       <r>  -29.8714    1.0000 </r>
       <r>  -29.8634    1.0000 </r>
       <r>  -29.8548    1.0000 </r>
       <r>  -29.8504    1.0000 </r>
       <r>  -29.8445    1.0000 </r>
       <r>  -29.8347    1.0000 </r>
       <r>  -29.8289    1.0000 </r>
       <r>  -29.8186    1.0000 </r>
       <r>  -29.8126    1.0000 </r>
       <r>  -29.8065    1.0000 </r>
       <r>  -29.7958    1.0000 </r>
       <r>  -29.7891    1.0000 </r>
       <r>  -29.7777    1.0000 </r>
       <r>  -29.7643    1.0000 </r>
       <r>  -29.7539    1.0000 </r>
       <r>  -29.7404    1.0000 </r>
       <r>  -29.7294    1.0000 </r>
       <r>  -29.7216    1.0000 </r>
       <r>  -29.7164    1.0000 </r>
       <r>  -29.7070    1.0000 </r>
       <r>  -29.7051    1.0000 </r>
       <r>  -29.6780    1.0000 </r>
       <r>  -29.6445    1.0000 </r>
       <r>  -18.7891    1.0000 </r>
       <r>  -18.5769    1.0000 </r>
       <r>  -18.5283    1.0000 </r>
       <r>  -18.5158    1.0000 </r>
       <r>  -18.4066    1.0000 </r>
       <r>  -18.3831    1.0000 </r>
       <r>  -18.3528    1.0000 </r>
       <r>  -18.3102    1.0000 </r>
       <r>  -18.2487    1.0000 </r>
       <r>  -18.1976    1.0000 </r>
       <r>  -18.1895    1.0000 </r>
       <r>  -18.1723    1.0000 </r>
       <r>  -18.1200    1.0000 </r>
       <r>  -18.0767    1.0000 </r>
       <r>  -18.0071    1.0000 </r>
       <r>  -18.0066    1.0000 </r>
       <r>  -17.9988    1.0000 </r>
       <r>  -17.9771    1.0000 </r>
       <r>  -17.8992    1.0000 </r>
       <r>  -17.8911    1.0000 </r>
       <r>  -17.8725    1.0000 </r>
       <r>  -17.8439    1.0000 </r>
       <r>  -17.8436    1.0000 </r>
       <r>  -17.8397    1.0000 </r>
       <r>  -17.7932    1.0000 </r>
       <r>  -17.7706    1.0000 </r>
       <r>  -17.7219    1.0000 </r>
       <r>  -17.6541    1.0000 </r>
       <r>  -17.5635    1.0000 </r>
       <r>  -17.5033    1.0000 </r>
       <r>  -17.4327    1.0000 </r>
       <r>  -17.3309    1.0000 </r>
       <r>  -11.7557    1.0000 </r>
       <r>  -11.4724    1.0000 </r>
       <r>  -11.3753    1.0000 </r>
       <r>  -11.3410    1.0000 </r>
       <r>  -11.2960    1.0000 </r>
       <r>  -11.2625    1.0000 </r>
       <r>  -11.2534    1.0000 </r>
       <r>  -10.9822    1.0000 </r>
       <r>  -10.9553    1.0000 </r>
       <r>  -10.8826    1.0000 </r>
       <r>  -10.8618    1.0000 </r>
       <r>  -10.8425    1.0000 </r>
       <r>  -10.7884    1.0000 </r>
       <r>  -10.7493    1.0000 </r>
       <r>  -10.6771    1.0000 </r>
       <r>  -10.5590    1.0000 </r>
       <r>   -8.1577    1.0000 </r>
       <r>   -8.0781    1.0000 </r>
       <r>   -8.0021    1.0000 </r>
       <r>   -7.8245    1.0000 </r>
       <r>   -7.7873    1.0000 </r>
       <r>   -7.7463    1.0000 </r>
       <r>   -7.7304    1.0000 </r>
       <r>   -7.6919    1.0000 </r>
       <r>   -7.6300    1.0000 </r>
       <r>   -7.6046    1.0000 </r>
       <r>   -7.5682    1.0000 </r>
       <r>   -7.4821    1.0000 </r>
       <r>   -7.4599    1.0000 </r>
       <r>   -7.4411    1.0000 </r>
       <r>   -7.4142    1.0000 </r>
       <r>   -7.3474    1.0000 </r>
       <r>   -7.3244    1.0000 </r>
       <r>   -7.2946    1.0000 </r>
       <r>   -7.2337    1.0000 </r>
       <r>   -7.1950    1.0000 </r>
       <r>   -7.1387    1.0000 </r>
       <r>   -7.1170    1.0000 </r>
       <r>   -7.1010    1.0000 </r>
       <r>   -7.0902    1.0000 </r>
       <r>   -7.0683    1.0000 </r>
       <r>   -7.0525    1.0000 </r>
       <r>   -6.9959    1.0000 </r>
       <r>   -6.9788    1.0000 </r>
       <r>   -6.9622    1.0000 </r>
       <r>   -6.9113    1.0000 </r>
       <r>   -6.8989    1.0000 </r>
       <r>   -6.8737    1.0000 </r>
       <r>   -6.8509    1.0000 </r>
       <r>   -6.8453    1.0000 </r>
       <r>   -6.8276    1.0000 </r>
       <r>   -6.8082    1.0000 </r>
       <r>   -6.7721    1.0000 </r>
       <r>   -6.7568    1.0000 </r>
       <r>   -6.7305    1.0000 </r>
       <r>   -6.7261    1.0000 </r>
       <r>   -6.7112    1.0000 </r>
       <r>   -6.6709    1.0000 </r>
       <r>   -6.6651    1.0000 </r>
       <r>   -6.6392    1.0000 </r>
       <r>   -6.6239    1.0000 </r>
       <r>   -6.6193    1.0000 </r>
       <r>   -6.5792    1.0000 </r>
       <r>   -6.5649    1.0000 </r>
       <r>   -6.5556    1.0000 </r>
       <r>   -6.5468    1.0000 </r>
       <r>   -6.5409    1.0000 </r>
       <r>   -6.5224    1.0000 </r>
       <r>   -6.5015    1.0000 </r>
       <r>   -6.4888    1.0000 </r>
       <r>   -6.4724    1.0000 </r>
       <r>   -6.4600    1.0000 </r>
       <r>   -6.4557    1.0000 </r>
       <r>   -6.4506    1.0000 </r>
       <r>   -6.4231    1.0000 </r>
       <r>   -6.4142    1.0000 </r>
       <r>   -6.4033    1.0000 </r>
       <r>   -6.3824    1.0000 </r>
       <r>   -6.3739    1.0000 </r>
       <r>   -6.3233    1.0000 </r>
       <r>   -6.3141    1.0000 </r>
       <r>   -6.2872    1.0000 </r>
       <r>   -6.2828    1.0000 </r>
       <r>   -6.2433    1.0000 </r>
       <r>   -6.2195    1.0000 </r>
       <r>   -6.1833    1.0000 </r>
       <r>   -6.1446    1.0000 </r>
       <r>   -6.0945    1.0000 </r>
       <r>   -6.0664    1.0000 </r>
       <r>   -6.0253    1.0000 </r>
       <r>   -5.9749    1.0000 </r>
       <r>   -5.9577    1.0000 </r>
       <r>   -5.9439    1.0000 </r>
       <r>   -5.7885    1.0000 </r>
       <r>   -5.7552    1.0000 </r>
       <r>   -5.7066    1.0000 </r>
       <r>   -5.6463    1.0000 </r>
       <r>   -5.6237    1.0000 </r>
       <r>   -5.5974    1.0000 </r>
       <r>   -5.5748    1.0000 </r>
       <r>   -5.5285    1.0000 </r>
       <r>   -5.5149    1.0000 </r>
       <r>   -5.4605    1.0000 </r>
       <r>   -5.4328    1.0000 </r>
       <r>   -5.3641    1.0000 </r>
       <r>   -5.3492    1.0000 </r>
       <r>   -5.3297    1.0000 </r>
       <r>   -5.3173    1.0000 </r>
       <r>   -5.2060    1.0000 </r>
       <r>   -5.1086    1.0000 </r>
       <r>   -4.9695    1.0000 </r>
       <r>   -4.8986    1.0000 </r>
       <r>   -4.8336    1.0000 </r>
       <r>   -4.8091    1.0000 </r>
       <r>   -4.7505    1.0000 </r>
       <r>   -4.5934    1.0000 </r>
       <r>   -4.5613    1.0000 </r>
       <r>   -4.5477    1.0000 </r>
       <r>   -4.5140    1.0000 </r>
       <r>   -4.4783    1.0000 </r>
       <r>   -4.4542    1.0000 </r>
       <r>   -4.2037    1.0000 </r>
       <r>   -4.1570    1.0000 </r>
       <r>   -4.1266    1.0000 </r>
       <r>   -4.1019    1.0000 </r>
       <r>   -4.0814    1.0000 </r>
       <r>   -4.0499    1.0000 </r>
       <r>   -4.0076    1.0000 </r>
       <r>   -3.9928    1.0000 </r>
       <r>   -3.9667    1.0000 </r>
       <r>   -3.9635    1.0000 </r>
       <r>   -3.9134    1.0000 </r>
       <r>   -3.9070    1.0000 </r>
       <r>   -3.8571    1.0000 </r>
       <r>   -3.8348    1.0000 </r>
       <r>   -3.8307    1.0000 </r>
       <r>   -3.7658    1.0000 </r>
       <r>   -3.7401    1.0000 </r>
       <r>   -3.7263    1.0000 </r>
       <r>   -3.6849    1.0000 </r>
       <r>   -3.6629    1.0000 </r>
       <r>   -3.6398    1.0000 </r>
       <r>   -3.6110    1.0000 </r>
       <r>   -3.5913    1.0000 </r>
       <r>   -3.5525    1.0000 </r>
       <r>   -3.5239    1.0000 </r>
       <r>   -3.4731    1.0000 </r>
       <r>   -3.4528    1.0000 </r>
       <r>   -3.3891    1.0000 </r>
       <r>   -3.3624    1.0000 </r>
       <r>   -3.3363    1.0000 </r>
       <r>   -3.2360    1.0000 </r>
       <r>   -3.2041    1.0000 </r>
       <r>   -3.1791    1.0000 </r>
       <r>   -3.1354    1.0000 </r>
       <r>   -3.1267    1.0000 </r>
       <r>   -3.0697    1.0000 </r>
       <r>   -3.0313    1.0000 </r>
       <r>   -2.8770    1.0000 </r>
       <r>   -2.7693    1.0000 </r>
       <r>   -2.0704    0.0000 </r>
       <r>   -2.0421    0.0000 </r>
       <r>   -2.0006    0.0000 </r>
       <r>   -1.5164    0.0000 </r>
       <r>   -1.4679    0.0000 </r>
       <r>   -1.4081    0.0000 </r>
       <r>   -1.3867    0.0000 </r>
       <r>   -1.3460    0.0000 </r>
       <r>   -1.2724    0.0000 </r>
       <r>   -0.6788    0.0000 </r>
       <r>   -0.6308    0.0000 </r>
       <r>   -0.6289    0.0000 </r>
       <r>   -0.5621    0.0000 </r>
       <r>   -0.5350    0.0000 </r>
       <r>   -0.5178    0.0000 </r>
       <r>   -0.4733    0.0000 </r>
       <r>   -0.4470    0.0000 </r>
       <r>   -0.4243    0.0000 </r>
       <r>   -0.4118    0.0000 </r>
       <r>   -0.4063    0.0000 </r>
       <r>   -0.3813    0.0000 </r>
       <r>   -0.3402    0.0000 </r>
       <r>   -0.2880    0.0000 </r>
       <r>   -0.2791    0.0000 </r>
       <r>    0.0272    0.0000 </r>
       <r>    0.0989    0.0000 </r>
       <r>    0.1202    0.0000 </r>
       <r>    0.1457    0.0000 </r>
       <r>    0.1842    0.0000 </r>
       <r>    0.1987    0.0000 </r>
       <r>    0.2212    0.0000 </r>
       <r>    0.2498    0.0000 </r>
       <r>    0.2581    0.0000 </r>
       <r>    0.2956    0.0000 </r>
       <r>    0.3217    0.0000 </r>
       <r>    0.3611    0.0000 </r>
       <r>    0.4213    0.0000 </r>
       <r>    0.5087    0.0000 </r>
       <r>    0.5514    0.0000 </r>
       <r>    0.6194    0.0000 </r>
       <r>    0.6530    0.0000 </r>
       <r>    0.6627    0.0000 </r>
       <r>    0.6941    0.0000 </r>
       <r>    0.7231    0.0000 </r>
       <r>    0.7423    0.0000 </r>
       <r>    0.7531    0.0000 </r>
       <r>    0.7835    0.0000 </r>
       <r>    0.7939    0.0000 </r>
       <r>    0.8055    0.0000 </r>
       <r>    0.8200    0.0000 </r>
       <r>    0.8664    0.0000 </r>
       <r>    0.8715    0.0000 </r>
       <r>    0.8825    0.0000 </r>
       <r>    0.8938    0.0000 </r>
       <r>    0.9053    0.0000 </r>
       <r>    0.9273    0.0000 </r>
       <r>    0.9515    0.0000 </r>
       <r>    0.9763    0.0000 </r>
       <r>    0.9827    0.0000 </r>
       <r>    0.9943    0.0000 </r>
       <r>    1.0107    0.0000 </r>
       <r>    1.0295    0.0000 </r>
       <r>    1.0610    0.0000 </r>
       <r>    1.1094    0.0000 </r>
      </set>
      <set comment="kpoint 2">
       <r>  -51.9165    1.0000 </r>
       <r>  -51.7030    1.0000 </r>
       <r>  -51.7023    1.0000 </r>
       <r>  -51.6326    1.0000 </r>
       <r>  -51.5754    1.0000 </r>
       <r>  -51.5631    1.0000 </r>
       <r>  -51.5348    1.0000 </r>
       <r>  -51.4924    1.0000 </r>
       <r>  -51.4860    1.0000 </r>
       <r>  -51.4524    1.0000 </r>
       <r>  -51.4358    1.0000 </r>
       <r>  -51.4201    1.0000 </r>
       <r>  -51.4184    1.0000 </r>
       <r>  -51.3869    1.0000 </r>
       <r>  -51.3717    1.0000 </r>
       <r>  -51.3714    1.0000 </r>
       <r>  -51.3615    1.0000 </r>
       <r>  -51.3299    1.0000 </r>
       <r>  -51.3272    1.0000 </r>
       <r>  -51.3159    1.0000 </r>
       <r>  -51.3016    1.0000 </r>
       <r>  -51.2767    1.0000 </r>
       <r>  -51.2655    1.0000 </r>
       <r>  -51.2534    1.0000 </r>
       <r>  -51.2004    1.0000 </r>
       <r>  -51.1891    1.0000 </r>
       <r>  -51.1685    1.0000 </r>
       <r>  -51.1652    1.0000 </r>
       <r>  -51.1600    1.0000 </r>
       <r>  -51.0899    1.0000 </r>
       <r>  -51.0731    1.0000 </r>
       <r>  -51.0677    1.0000 </r>
       <r>  -30.5942    1.0000 </r>
       <r>  -30.5692    1.0000 </r>
       <r>  -30.5216    1.0000 </r>
       <r>  -30.4295    1.0000 </r>
       <r>  -30.4074    1.0000 </r>
       <r>  -30.4039    1.0000 </r>
       <r>  -30.3799    1.0000 </r>
       <r>  -30.3594    1.0000 </r>
       <r>  -30.3470    1.0000 </r>
       <r>  -30.3345    1.0000 </r>
       <r>  -30.3192    1.0000 </r>
       <r>  -30.3090    1.0000 </r>
       <r>  -30.3034    1.0000 </r>
       <r>  -30.2797    1.0000 </r>
       <r>  -30.2655    1.0000 </r>
       <r>  -30.2624    1.0000 </r>
       <r>  -30.2514    1.0000 </r>
       <r>  -30.2382    1.0000 </r>
       <r>  -30.2318    1.0000 </r>
       <r>  -30.2095    1.0000 </r>
       <r>  -30.2017    1.0000 </r>
       <r>  -30.1957    1.0000 </r>
       <r>  -30.1824    1.0000 </r>
       <r>  -30.1766    1.0000 </r>
       <r>  -30.1727    1.0000 </r>
       <r>  -30.1667    1.0000 </r>
       <r>  -30.1599    1.0000 </r>
       <r>  -30.1452    1.0000 </r>
       <r>  -30.1304    1.0000 </r>
       <r>  -30.1233    1.0000 </r>
       <r>  -30.1134    1.0000 </r>
       <r>  -30.1112    1.0000 </r>
       <r>  -30.1079    1.0000 </r>
       <r>  -30.0966    1.0000 </r>
       <r>  -30.0944    1.0000 </r>
       <r>  -30.0875    1.0000 </r>
       <r>  -30.0815    1.0000 </r>
       <r>  -30.0793    1.0000 </r>
       <r>  -30.0768    1.0000 </r>
       <r>  -30.0687    1.0000 </r>
       <r>  -30.0659    1.0000 </r>
       <r>  -30.0633    1.0000 </r>
       <r>  -30.0575    1.0000 </r>
       <r>  -30.0497    1.0000 </r>
       <r>  -30.0464    1.0000 </r>
       <r>  -30.0400    1.0000 </r>
       <r>  -30.0321    1.0000 </r>
       <r>  -30.0292    1.0000 </r>
       <r>  -30.0259    1.0000 </r>
       <r>  -30.0190    1.0000 </r>
       <r>  -30.0167    1.0000 </r>
       <r>  -30.0031    1.0000 </r>
       <r>  -29.9990    1.0000 </r>
       <r>  -29.9948    1.0000 </r>
       <r>  -29.9925    1.0000 </r>
       <r>  -29.9864    1.0000 </r>
       <r>  -29.9829    1.0000 </r>
       <r>  -29.9795    1.0000 </r>
       <r>  -29.9785    1.0000 </r>
       <r>  -29.9683    1.0000 </r>
       <r>  -29.9655    1.0000 </r>
       <r>  -29.9611    1.0000 </r>
       <r>  -29.9562    1.0000 </r>
       <r>  -29.9484    1.0000 </r>
       <r>  -29.9414    1.0000 </r>
       <r>  -29.9328    1.0000 </r>
       <r>  -29.9227    1.0000 </r>
       <r>  -29.9168    1.0000 </r>
       <r>  -29.9134    1.0000 </r>
       <r>  -29.9098    1.0000 </r>
       <r>  -29.9008    1.0000 </r>
       <r>  -29.8949    1.0000 </r>
       <r>  -29.8805    1.0000 </r>
       <r>  -29.8713    1.0000 </r>
       <r>  -29.8635    1.0000 </r>
       <r>  -29.8564    1.0000 </r>
       <r>  -29.8471    1.0000 </r>
       <r>  -29.8440    1.0000 </r>
       <r>  -29.8350    1.0000 </r>
       <r>  -29.8279    1.0000 </r>
       <r>  -29.8179    1.0000 </r>
       <r>  -29.8131    1.0000 </r>
       <r>  -29.8066    1.0000 </r>
       <r>  -29.7955    1.0000 </r>
       <r>  -29.7891    1.0000 </r>
       <r>  -29.7786    1.0000 </r>
       <r>  -29.7645    1.0000 </r>
       <r>  -29.7545    1.0000 </r>
       <r>  -29.7404    1.0000 </r>
       <r>  -29.7298    1.0000 </r>
       <r>  -29.7216    1.0000 </r>
       <r>  -29.7165    1.0000 </r>
       <r>  -29.7070    1.0000 </r>
       <r>  -29.7053    1.0000 </r>
       <r>  -29.6776    1.0000 </r>
       <r>  -29.6450    1.0000 </r>
       <r>  -18.7845    1.0000 </r>
       <r>  -18.5906    1.0000 </r>
       <r>  -18.5222    1.0000 </r>
       <r>  -18.5037    1.0000 </r>
       <r>  -18.4215    1.0000 </r>
       <r>  -18.3938    1.0000 </r>
       <r>  -18.3573    1.0000 </r>
       <r>  -18.2931    1.0000 </r>
       <r>  -18.2438    1.0000 </r>
       <r>  -18.2398    1.0000 </r>
       <r>  -18.1580    1.0000 </r>
       <r>  -18.1507    1.0000 </r>
       <r>  -18.1183    1.0000 </r>
       <r>  -18.0672    1.0000 </r>
       <r>  -18.0259    1.0000 </r>
       <r>  -18.0167    1.0000 </r>
       <r>  -18.0040    1.0000 </r>
       <r>  -17.9678    1.0000 </r>
       <r>  -17.8894    1.0000 </r>
       <r>  -17.8826    1.0000 </r>
       <r>  -17.8688    1.0000 </r>
       <r>  -17.8597    1.0000 </r>
       <r>  -17.8501    1.0000 </r>
       <r>  -17.8331    1.0000 </r>
       <r>  -17.7962    1.0000 </r>
       <r>  -17.7784    1.0000 </r>
       <r>  -17.7190    1.0000 </r>
       <r>  -17.6444    1.0000 </r>
       <r>  -17.5742    1.0000 </r>
[...]
       <r>   -32.4030     0.0000    64.0000 </r>
       <r>   -32.2085     0.0000    64.0000 </r>
       <r>   -32.0141     0.0000    64.0000 </r>
       <r>   -31.8197     0.0000    64.0000 </r>
       <r>   -31.6253     0.0000    64.0000 </r>
       <r>   -31.4308     0.0000    64.0000 </r>
       <r>   -31.2364     0.0000    64.0000 </r>
       <r>   -31.0420     0.0000    64.0000 </r>
       <r>   -30.8475     0.0000    64.0000 </r>
       <r>   -30.6531     0.5837    64.1135 </r>
       <r>   -30.4587    33.5438    70.6353 </r>
       <r>   -30.2643   122.6867    94.4891 </r>
       <r>   -30.0698   250.6639   143.2253 </r>
       <r>   -29.8754   346.2947   210.5547 </r>
       <r>   -29.6810   210.0803   251.4003 </r>
       <r>   -29.4865    23.6577   256.0000 </r>
       <r>   -29.2921     0.0000   256.0000 </r>
       <r>   -29.0977     0.0000   256.0000 </r>
       <r>   -28.9033     0.0000   256.0000 </r>
       <r>   -28.7088     0.0000   256.0000 </r>
       <r>   -28.5144     0.0000   256.0000 </r>
       <r>   -28.3200     0.0000   256.0000 </r>
       <r>   -28.1255     0.0000   256.0000 </r>
       <r>   -27.9311     0.0000   256.0000 </r>
       <r>   -27.7367     0.0000   256.0000 </r>
       <r>   -27.5423     0.0000   256.0000 </r>
       <r>   -27.3478     0.0000   256.0000 </r>
       <r>   -27.1534     0.0000   256.0000 </r>
       <r>   -26.9590     0.0000   256.0000 </r>
       <r>   -26.7646     0.0000   256.0000 </r>
       <r>   -26.5701     0.0000   256.0000 </r>
       <r>   -26.3757     0.0000   256.0000 </r>
       <r>   -26.1813     0.0000   256.0000 </r>
       <r>   -25.9868     0.0000   256.0000 </r>
       <r>   -25.7924     0.0000   256.0000 </r>
       <r>   -25.5980     0.0000   256.0000 </r>
       <r>   -25.4036     0.0000   256.0000 </r>
       <r>   -25.2091     0.0000   256.0000 </r>
       <r>   -25.0147     0.0000   256.0000 </r>
       <r>   -24.8203     0.0000   256.0000 </r>
       <r>   -24.6258     0.0000   256.0000 </r>
       <r>   -24.4314     0.0000   256.0000 </r>
       <r>   -24.2370     0.0000   256.0000 </r>
       <r>   -24.0426     0.0000   256.0000 </r>
       <r>   -23.8481     0.0000   256.0000 </r>
       <r>   -23.6537     0.0000   256.0000 </r>
       <r>   -23.4593     0.0000   256.0000 </r>
       <r>   -23.2648     0.0000   256.0000 </r>
       <r>   -23.0704     0.0000   256.0000 </r>
       <r>   -22.8760     0.0000   256.0000 </r>
       <r>   -22.6816     0.0000   256.0000 </r>
       <r>   -22.4871     0.0000   256.0000 </r>
       <r>   -22.2927     0.0000   256.0000 </r>
       <r>   -22.0983     0.0000   256.0000 </r>
       <r>   -21.9038     0.0000   256.0000 </r>
       <r>   -21.7094     0.0000   256.0000 </r>
       <r>   -21.5150     0.0000   256.0000 </r>
       <r>   -21.3206     0.0000   256.0000 </r>
       <r>   -21.1261     0.0000   256.0000 </r>
       <r>   -20.9317     0.0000   256.0000 </r>
       <r>   -20.7373     0.0000   256.0000 </r>
       <r>   -20.5428     0.0000   256.0000 </r>
       <r>   -20.3484     0.0000   256.0000 </r>
       <r>   -20.1540     0.0000   256.0000 </r>
       <r>   -19.9596     0.0000   256.0000 </r>
       <r>   -19.7651     0.0000   256.0000 </r>
       <r>   -19.5707     0.0000   256.0000 </r>
       <r>   -19.3763     0.0000   256.0000 </r>
       <r>   -19.1818     0.0000   256.0000 </r>
       <r>   -18.9874     0.0000   256.0000 </r>
       <r>   -18.7930     4.2434   256.8250 </r>
       <r>   -18.5986     9.5728   258.6862 </r>
       <r>   -18.4041    38.7371   266.2178 </r>
       <r>   -18.2097    46.3751   275.2345 </r>
       <r>   -18.0153    59.5224   286.8073 </r>
       <r>   -17.8209    82.8479   302.9153 </r>
       <r>   -17.6264    44.9912   311.6629 </r>
       <r>   -17.4320    27.5674   317.0227 </r>
       <r>   -17.2376    15.2647   319.9906 </r>
       <r>   -17.0431     0.0483   320.0000 </r>
       <r>   -16.8487     0.0000   320.0000 </r>
       <r>   -16.6543     0.0000   320.0000 </r>
       <r>   -16.4599     0.0000   320.0000 </r>
       <r>   -16.2654     0.0000   320.0000 </r>
       <r>   -16.0710     0.0000   320.0000 </r>
       <r>   -15.8766     0.0000   320.0000 </r>
       <r>   -15.6821     0.0000   320.0000 </r>
       <r>   -15.4877     0.0000   320.0000 </r>
       <r>   -15.2933     0.0000   320.0000 </r>
       <r>   -15.0989     0.0000   320.0000 </r>
       <r>   -14.9044     0.0000   320.0000 </r>
       <r>   -14.7100     0.0000   320.0000 </r>
       <r>   -14.5156     0.0000   320.0000 </r>
       <r>   -14.3211     0.0000   320.0000 </r>
       <r>   -14.1267     0.0000   320.0000 </r>
       <r>   -13.9323     0.0000   320.0000 </r>
       <r>   -13.7379     0.0000   320.0000 </r>
       <r>   -13.5434     0.0000   320.0000 </r>
       <r>   -13.3490     0.0000   320.0000 </r>
       <r>   -13.1546     0.0000   320.0000 </r>
       <r>   -12.9601     0.0000   320.0000 </r>
       <r>   -12.7657     0.0000   320.0000 </r>
       <r>   -12.5713     0.0000   320.0000 </r>
       <r>   -12.3769     0.0000   320.0000 </r>
       <r>   -12.1824     0.0000   320.0000 </r>
       <r>   -11.9880     0.0000   320.0000 </r>
       <r>   -11.7936     0.2224   320.0432 </r>
       <r>   -11.5991    13.2185   322.6133 </r>
       <r>   -11.4047    16.7108   325.8623 </r>
       <r>   -11.2103    23.1377   330.3609 </r>
       <r>   -11.0159    28.4514   335.8927 </r>
       <r>   -10.8214    41.3172   343.9259 </r>
       <r>   -10.6270    29.3482   349.6321 </r>
       <r>   -10.4326    12.1734   351.9989 </r>
       <r>   -10.2381     0.0056   352.0000 </r>
       <r>   -10.0437     0.0000   352.0000 </r>
       <r>    -9.8493     0.0000   352.0000 </r>
       <r>    -9.6549     0.0000   352.0000 </r>
       <r>    -9.4604     0.0000   352.0000 </r>
       <r>    -9.2660     0.0000   352.0000 </r>
       <r>    -9.0716     0.0000   352.0000 </r>
       <r>    -8.8772     0.0000   352.0000 </r>
       <r>    -8.6827     0.0000   352.0000 </r>
       <r>    -8.4883     0.0000   352.0000 </r>
       <r>    -8.2939     0.0001   352.0000 </r>
       <r>    -8.0994     4.6170   352.8977 </r>
       <r>    -7.9050    20.7902   356.9399 </r>
       <r>    -7.7106    38.3337   364.3930 </r>
       <r>    -7.5162    57.6680   375.6053 </r>
       <r>    -7.3217    61.1983   387.5040 </r>
       <r>    -7.1273    59.6057   399.0931 </r>
       <r>    -6.9329    70.5616   412.8122 </r>
       <r>    -6.7384    91.0032   430.5058 </r>
       <r>    -6.5440   112.1990   452.3205 </r>
       <r>    -6.3496   101.6387   472.0819 </r>
       <r>    -6.1552    73.9632   486.4624 </r>
       <r>    -5.9607    66.8513   499.4602 </r>
       <r>    -5.7663    51.0167   509.3793 </r>
       <r>    -5.5719    61.0970   521.2583 </r>
       <r>    -5.3774    54.8914   531.9307 </r>
       <r>    -5.1830    33.3680   538.4184 </r>
       <r>    -4.9886    15.9743   541.5243 </r>
       <r>    -4.7942    19.2911   545.2750 </r>
       <r>    -4.5997    39.2089   552.8983 </r>
       <r>    -4.4053    45.1603   561.6788 </r>
       <r>    -4.2109    26.9733   566.9232 </r>
       <r>    -4.0164    31.7033   573.0872 </r>
       <r>    -3.8220    61.5024   585.0450 </r>
       <r>    -3.6276    87.0244   601.9650 </r>
       <r>    -3.4332    79.2063   617.3649 </r>
       <r>    -3.2387    58.1515   628.6712 </r>
       <r>    -3.0443    34.4635   635.3719 </r>
       <r>    -2.8499    18.3170   638.9333 </r>
       <r>    -2.6554     5.4858   639.9998 </r>
       <r>    -2.4610     0.0008   640.0000 </r>
       <r>    -2.2666     0.0000   640.0000 </r>
       <r>    -2.0722     0.8353   640.1624 </r>
       <r>    -1.8777     9.5886   642.0267 </r>
       <r>    -1.6833    22.2655   646.3558 </r>
       <r>    -1.4889    13.0868   648.9002 </r>
       <r>    -1.2944    18.5975   652.5161 </r>
       <r>    -1.1000    24.7423   657.3267 </r>
       <r>    -0.9056    28.2479   662.8189 </r>
       <r>    -0.7112    15.4449   665.8218 </r>
       <r>    -0.5167    29.6676   671.5900 </r>
       <r>    -0.3223    38.2635   679.0295 </r>
       <r>    -0.1279    29.7911   684.8218 </r>
       <r>     0.0665    37.4534   692.1038 </r>
       <r>     0.2610    36.4365   699.1881 </r>
       <r>     0.4554    46.0057   708.1329 </r>
       <r>     0.6498    61.9672   720.1810 </r>
       <r>     0.8443   107.4409   741.0706 </r>
       <r>     1.0387   114.3246   763.2985 </r>
       <r>     1.2331    24.1804   767.9999 </r>
       <r>     1.4275     0.0006   768.0000 </r>
       <r>     1.6220     0.0000   768.0000 </r>
       <r>     1.8164     0.0000   768.0000 </r>
       <r>     2.0108     0.0000   768.0000 </r>
       <r>     2.2053     0.0000   768.0000 </r>
       <r>     2.3997     0.0000   768.0000 </r>
       <r>     2.5941     0.0000   768.0000 </r>
       <r>     2.7885     0.0000   768.0000 </r>
       <r>     2.9830     0.0000   768.0000 </r>
       <r>     3.1774     0.0000   768.0000 </r>
       <r>     3.3718     0.0000   768.0000 </r>
       <r>     3.5663     0.0000   768.0000 </r>
       <r>     3.7607     0.0000   768.0000 </r>
      </set>
     </set>
    </array>
   </total>
  </dos>
 </calculation>
 <structure name="finalpos" >
  <crystal>
   <varray name="basis" >
    <v>      13.79398668       0.00000000       0.00000000 </v>
    <v>      -6.89699334      11.94594288       0.00000000 </v>
    <v>       0.00000000       0.00000000      27.81022107 </v>
   </varray>
   <i name="volume">   4582.62876984 </i>
   <varray name="rec_basis" >
    <v>       0.07249536       0.04185521       0.00000000 </v>
    <v>       0.00000000       0.08371043       0.00000000 </v>
    <v>       0.00000000       0.00000000       0.03595800 </v>
   </varray>
  </crystal>
  <varray name="positions" >
   <v>       0.08497690       0.15870172       0.54277928 </v>
   <v>       0.09935788       0.42008246       0.54690140 </v>
   <v>       0.08133758       0.66983859       0.54599866 </v>
   <v>       0.07853499       0.91699813       0.54788517 </v>
   <v>       0.32242929       0.16209093       0.54647258 </v>
   <v>       0.33089417       0.41891227       0.54439998 </v>
   <v>       0.32917324       0.66915741       0.54469601 </v>
   <v>       0.32425866       0.91771910       0.54164440 </v>
   <v>       0.57786855       0.15890307       0.54661017 </v>
   <v>       0.58471287       0.40912205       0.54545627 </v>
   <v>       0.56926374       0.65454850       0.54989386 </v>
   <v>       0.58534858       0.93355684       0.54476723 </v>
   <v>       0.83827914       0.16881183       0.54508386 </v>
   <v>       0.83622027       0.42030860       0.54734993 </v>
   <v>       0.82752615       0.66889038       0.54340529 </v>
   <v>       0.83113324       0.91867055       0.54235817 </v>
   <v>       0.17662319       0.08195881       0.45830266 </v>
   <v>       0.16756027       0.32566271       0.45463650 </v>
   <v>       0.16627182       0.58786602       0.45125260 </v>
   <v>       0.16529865       0.82880690       0.45558977 </v>
   <v>       0.41855248       0.09726200       0.45650909 </v>
   <v>       0.42355222       0.33708777       0.45355108 </v>
   <v>       0.43398802       0.59784500       0.45497479 </v>
   <v>       0.42824608       0.84214321       0.46034874 </v>
   <v>       0.65950291       0.08442390       0.45515800 </v>
   <v>       0.67229328       0.32924283       0.45674627 </v>
   <v>       0.67301221       0.58092073       0.45479084 </v>
   <v>       0.65964430       0.83009599       0.45861172 </v>
   <v>       0.92712481       0.08175837       0.45585370 </v>
   <v>       0.92145054       0.32691837       0.45570907 </v>
   <v>       0.91759240       0.57238405       0.45598213 </v>
   <v>       0.89331287       0.81551053       0.45279944 </v>
   <v>       0.08337078       0.16674725       0.39475862 </v>
   <v>       0.09020392       0.42818792       0.39364317 </v>
   <v>       0.08160644       0.68181475       0.39192566 </v>
   <v>       0.07382914       0.91734746       0.40085503 </v>
   <v>       0.34251253       0.17402286       0.39405605 </v>
   <v>       0.35533548       0.42346568       0.39726646 </v>
   <v>       0.34341287       0.67864920       0.39424817 </v>
   <v>       0.33676917       0.93811693       0.39574200 </v>
   <v>       0.57891121       0.17301956       0.39289594 </v>
   <v>       0.59032892       0.41761139       0.39451720 </v>
   <v>       0.57740925       0.65383027       0.39266913 </v>
   <v>       0.57197976       0.93216241       0.39020165 </v>
   <v>       0.82876410       0.14564268       0.39267038 </v>
   <v>       0.82734629       0.40694743       0.38968010 </v>
   <v>       0.81817085       0.64645621       0.38946305 </v>
   <v>       0.83036265       0.91458607       0.40284030 </v>
   <v>       0.18264651       0.08906688       0.60375794 </v>
   <v>       0.17464772       0.33200600       0.60759066 </v>
   <v>       0.15940783       0.57470132       0.60747480 </v>
   <v>       0.16272315       0.82674608       0.61165101 </v>
   <v>       0.40742309       0.09086174       0.60088257 </v>
   <v>       0.42358498       0.34200466       0.59923769 </v>
   <v>       0.40104164       0.57762552       0.60532258 </v>
   <v>       0.41530991       0.84322680       0.59769295 </v>
   <v>       0.65303802       0.08319895       0.61185600 </v>
   <v>       0.66930202       0.31509895       0.60109388 </v>
   <v>       0.66702828       0.57675356       0.60577364 </v>
   <v>       0.67134066       0.83248308       0.60229478 </v>
   <v>       0.91870463       0.08553844       0.59871702 </v>
   <v>       0.92418003       0.34760828       0.60353604 </v>
   <v>       0.90310102       0.57794616       0.60085079 </v>
   <v>       0.90700575       0.81918297       0.61034102 </v>
   <v>       0.00370227       0.00186843       0.49850208 </v>
   <v>       0.00945518       0.25406829       0.50249897 </v>
   <v>       0.01501273       0.50112565       0.49952405 </v>
   <v>       0.99746166       0.74094146       0.50541451 </v>
   <v>       0.25898719       0.00939971       0.50169370 </v>
   <v>       0.24786770       0.25124654       0.49869729 </v>
   <v>       0.25418517       0.50741956       0.50132451 </v>
   <v>       0.26026835       0.75498706       0.49838775 </v>
   <v>       0.50204671       0.00078817       0.50124393 </v>
   <v>       0.50303548       0.24421357       0.50323110 </v>
   <v>       0.49766312       0.49722920       0.50307858 </v>
   <v>       0.49796819       0.74947401       0.50348428 </v>
   <v>       0.75743051       0.00576656       0.49651102 </v>
   <v>       0.75874986       0.24757796       0.50071185 </v>
   <v>       0.75439880       0.49504495       0.49966796 </v>
   <v>       0.74796117       0.75314434       0.49649298 </v>
  </varray>
  <varray name="velocities" >
   <v>       0.00000000       0.00000000       0.00000000 </v>
   <v>       0.00000000       0.00000000       0.00000000 </v>
   <v>       0.00000000       0.00000000       0.00000000 </v>
   <v>       0.00000000       0.00000000       0.00000000 </v>
   <v>       0.00000000       0.00000000       0.00000000 </v>
   <v>       0.00000000       0.00000000       0.00000000 </v>
   <v>       0.00000000       0.00000000       0.00000000 </v>
   <v>       0.00000000       0.00000000       0.00000000 </v>
   <v>       0.00000000       0.00000000       0.00000000 </v>
   <v>       0.00000000       0.00000000       0.00000000 </v>
   <v>       0.00000000       0.00000000       0.00000000 </v>
   <v>       0.00000000       0.00000000       0.00000000 </v>
   <v>       0.00000000       0.00000000       0.00000000 </v>
   <v>       0.00000000       0.00000000       0.00000000 </v>
   <v>       0.00000000       0.00000000       0.00000000 </v>
   <v>       0.00000000       0.00000000       0.00000000 </v>
   <v>       0.00000000       0.00000000       0.00000000 </v>
   <v>       0.00000000       0.00000000       0.00000000 </v>
   <v>       0.00000000       0.00000000       0.00000000 </v>
   <v>       0.00000000       0.00000000       0.00000000 </v>
   <v>       0.00000000       0.00000000       0.00000000 </v>
   <v>       0.00000000       0.00000000       0.00000000 </v>
   <v>       0.00000000       0.00000000       0.00000000 </v>
   <v>       0.00000000       0.00000000       0.00000000 </v>
   <v>       0.00000000       0.00000000       0.00000000 </v>
   <v>       0.00000000       0.00000000       0.00000000 </v>
   <v>       0.00000000       0.00000000       0.00000000 </v>
   <v>       0.00000000       0.00000000       0.00000000 </v>
   <v>       0.00000000       0.00000000       0.00000000 </v>
   <v>       0.00000000       0.00000000       0.00000000 </v>
   <v>       0.00000000       0.00000000       0.00000000 </v>
   <v>       0.00000000       0.00000000       0.00000000 </v>
   <v>       0.00000000       0.00000000       0.00000000 </v>
   <v>       0.00000000       0.00000000       0.00000000 </v>
   <v>       0.00000000       0.00000000       0.00000000 </v>
   <v>       0.00000000       0.00000000       0.00000000 </v>
   <v>       0.00000000       0.00000000       0.00000000 </v>
   <v>       0.00000000       0.00000000       0.00000000 </v>
   <v>       0.00000000       0.00000000       0.00000000 </v>
   <v>       0.00000000       0.00000000       0.00000000 </v>
   <v>       0.00000000       0.00000000       0.00000000 </v>
   <v>       0.00000000       0.00000000       0.00000000 </v>
   <v>       0.00000000       0.00000000       0.00000000 </v>
   <v>       0.00000000       0.00000000       0.00000000 </v>
   <v>       0.00000000       0.00000000       0.00000000 </v>
   <v>       0.00000000       0.00000000       0.00000000 </v>
   <v>       0.00000000       0.00000000       0.00000000 </v>
   <v>       0.00000000       0.00000000       0.00000000 </v>
   <v>       0.00000000       0.00000000       0.00000000 </v>
   <v>       0.00000000       0.00000000       0.00000000 </v>
   <v>       0.00000000       0.00000000       0.00000000 </v>
   <v>       0.00000000       0.00000000       0.00000000 </v>
   <v>       0.00000000       0.00000000       0.00000000 </v>
   <v>       0.00000000       0.00000000       0.00000000 </v>
   <v>       0.00000000       0.00000000       0.00000000 </v>
   <v>       0.00000000       0.00000000       0.00000000 </v>
   <v>       0.00000000       0.00000000       0.00000000 </v>
   <v>       0.00000000       0.00000000       0.00000000 </v>
   <v>       0.00000000       0.00000000       0.00000000 </v>
   <v>       0.00000000       0.00000000       0.00000000 </v>
   <v>       0.00000000       0.00000000       0.00000000 </v>
   <v>       0.00000000       0.00000000       0.00000000 </v>
   <v>       0.00000000       0.00000000       0.00000000 </v>
   <v>       0.00000000       0.00000000       0.00000000 </v>
   <v>       0.00000000       0.00000000       0.00000000 </v>
   <v>       0.00000000       0.00000000       0.00000000 </v>
   <v>       0.00000000       0.00000000       0.00000000 </v>
   <v>       0.00000000       0.00000000       0.00000000 </v>
   <v>       0.00000000       0.00000000       0.00000000 </v>
   <v>       0.00000000       0.00000000       0.00000000 </v>
   <v>       0.00000000       0.00000000       0.00000000 </v>
   <v>       0.00000000       0.00000000       0.00000000 </v>
   <v>       0.00000000       0.00000000       0.00000000 </v>
   <v>       0.00000000       0.00000000       0.00000000 </v>
   <v>       0.00000000       0.00000000       0.00000000 </v>
   <v>       0.00000000       0.00000000       0.00000000 </v>
   <v>       0.00000000       0.00000000       0.00000000 </v>
   <v>       0.00000000       0.00000000       0.00000000 </v>
   <v>       0.00000000       0.00000000       0.00000000 </v>
   <v>       0.00000000       0.00000000       0.00000000 </v>
  </varray>
 </structure>
</modeling>
