 vasp.5.4.4.18Apr17-6-g9f103f2a35 (build Oct 31 2019 15:01:46) complex          
  
 executed on             LinuxIFC date 2024.04.30  18:05:40
 running on   52 total cores
 distrk:  each k-point on   52 cores,    1 groups
 distr:  one band on NCORES_PER_BAND=  13 cores,    4 groups


--------------------------------------------------------------------------------------------------------


 INCAR:
 POTCAR:    PAW_PBE Sc_sv 07Sep2000               
 POTCAR:    PAW_PBE Cl 06Sep2000                  
 POTCAR:    PAW_PBE C 08Apr2002                   
 POTCAR:    PAW_PBE Sc_sv 07Sep2000               
   VRHFIN =Sc: 3p4s3d                                                           
   LEXCH  = PE                                                                  
   EATOM  =  1273.2868 eV,   93.5839 Ry                                         
                                                                                
   TITEL  = PAW_PBE Sc_sv 07Sep2000                                             
   LULTRA =        F    use ultrasoft PP ?                                      
   IUNSCR =        1    unscreen: 0-lin 1-nonlin 2-no                           
   RPACOR =    2.200    partial core radius                                     
   POMASS =   44.956; ZVAL   =   11.000    mass and valenz                      
   RCORE  =    2.500    outmost cutoff radius                                   
   RWIGS  =    2.700; RWIGS  =    1.429    wigner-seitz radius (au A)           
   ENMAX  =  222.660; ENMIN  =  166.995 eV                                      
   RCLOC  =    1.805    cutoff for local pot                                    
   LCOR   =        T    correct aug charges                                     
   LPAW   =        T    paw PP                                                  
   EAUG   =  443.063                                                            
   RMAX   =    2.551    core radius for proj-oper                               
   RAUG   =    1.300    factor for augmentation sphere                          
   RDEP   =    2.650    radius for radial grids                                 
   RDEPT  =    2.038    core radius for aug-charge                              
                                                                                
   Atomic configuration                                                         
    8 entries                                                                   
     n  l   j            E        occ.                                          
     1  0  0.50     -4394.2533   2.0000                                         
     2  0  0.50      -471.0040   2.0000                                         
     2  1  1.50      -384.9788   6.0000                                         
     3  0  0.50       -52.1410   2.0000                                         
     4  0  0.50        -3.5584   1.0000                                         
     3  1  1.50       -30.8841   6.0000                                         
     3  2  2.50        -1.3655   2.0000                                         
     4  3  2.50        -1.3606   0.0000                                         
   Description                                                                  
     l       E           TYP  RCUT    TYP  RCUT                                 
     0    -52.1409870     23  1.800                                             
     0     -3.5583698     23  2.500                                             
     1    -30.8840697     23  2.300                                             
     1      4.0817478     23  2.300                                             
     2     -1.3655397     23  2.500                                             
     2      0.3564476     23  2.500                                             
  local pseudopotential read in
  partial core-charges read in
  partial kinetic energy density read in
  atomic valenz-charges read in
  non local Contribution for L=           0  read in
    real space projection operators read in
  non local Contribution for L=           0  read in
    real space projection operators read in
  non local Contribution for L=           1  read in
    real space projection operators read in
  non local Contribution for L=           1  read in
    real space projection operators read in
  non local Contribution for L=           2  read in
    real space projection operators read in
  non local Contribution for L=           2  read in
    real space projection operators read in
    PAW grid and wavefunctions read in
 
   number of l-projection  operators is LMAX  =           6
   number of lm-projection operators is LMMAX =          18
 
 POTCAR:    PAW_PBE Cl 06Sep2000                  
   VRHFIN =Cl: s2p5                                                             
   LEXCH  = PE                                                                  
   EATOM  =   409.7259 eV,   30.1140 Ry                                         
                                                                                
   TITEL  = PAW_PBE Cl 06Sep2000                                                
   LULTRA =        F    use ultrasoft PP ?                                      
   IUNSCR =        1    unscreen: 0-lin 1-nonlin 2-no                           
   RPACOR =    1.500    partial core radius                                     
   POMASS =   35.453; ZVAL   =    7.000    mass and valenz                      
   RCORE  =    1.900    outmost cutoff radius                                   
   RWIGS  =    2.100; RWIGS  =    1.111    wigner-seitz radius (au A)           
   ENMAX  =  262.472; ENMIN  =  196.854 eV                                      
   ICORE  =        2    local potential                                         
   LCOR   =        T    correct aug charges                                     
   LPAW   =        T    paw PP                                                  
   EAUG   =  356.192                                                            
   DEXC   =    0.000                                                            
   RMAX   =    1.945    core radius for proj-oper                               
   RAUG   =    1.300    factor for augmentation sphere                          
   RDEP   =    2.020    radius for radial grids                                 
   RDEPT  =    1.678    core radius for aug-charge                              
                                                                                
   Atomic configuration                                                         
    6 entries                                                                   
     n  l   j            E        occ.                                          
     1  0  0.50     -2751.1850   2.0000                                         
     2  0  0.50      -252.6861   2.0000                                         
     2  1  1.50      -191.6157   6.0000                                         
     3  0  0.50       -20.6916   2.0000                                         
     3  1  0.50        -8.5949   5.0000                                         
     3  2  1.50        -8.1635   0.0000                                         
   Description                                                                  
     l       E           TYP  RCUT    TYP  RCUT                                 
     0    -20.6915656     23  1.900                                             
     0    -22.0521482     23  1.900                                             
     1     -8.5948577     23  1.900                                             
     1     -5.3847331     23  1.900                                             
     2     -8.1634956     23  1.900                                             
  local pseudopotential read in
  partial core-charges read in
  partial kinetic energy density read in
  atomic valenz-charges read in
  non local Contribution for L=           0  read in
    real space projection operators read in
  non local Contribution for L=           0  read in
    real space projection operators read in
  non local Contribution for L=           1  read in
    real space projection operators read in
  non local Contribution for L=           1  read in
    real space projection operators read in
    PAW grid and wavefunctions read in
 
   number of l-projection  operators is LMAX  =           4
   number of lm-projection operators is LMMAX =           8
 
 POTCAR:    PAW_PBE C 08Apr2002                   
   VRHFIN =C: s2p2                                                              
   LEXCH  = PE                                                                  
   EATOM  =   147.1560 eV,   10.8157 Ry                                         
                                                                                
   TITEL  = PAW_PBE C 08Apr2002                                                 
   LULTRA =        F    use ultrasoft PP ?                                      
   IUNSCR =        1    unscreen: 0-lin 1-nonlin 2-no                           
   RPACOR =    1.200    partial core radius                                     
   POMASS =   12.011; ZVAL   =    4.000    mass and valenz                      
   RCORE  =    1.500    outmost cutoff radius                                   
   RWIGS  =    1.630; RWIGS  =    0.863    wigner-seitz radius (au A)           
   ENMAX  =  400.000; ENMIN  =  300.000 eV                                      
   ICORE  =        2    local potential                                         
   LCOR   =        T    correct aug charges                                     
   LPAW   =        T    paw PP                                                  
   EAUG   =  644.873                                                            
   DEXC   =    0.000                                                            
   RMAX   =    1.529    core radius for proj-oper                               
   RAUG   =    1.300    factor for augmentation sphere                          
   RDEP   =    1.501    radius for radial grids                                 
   RDEPT  =    1.300    core radius for aug-charge                              
                                                                                
   Atomic configuration                                                         
    4 entries                                                                   
     n  l   j            E        occ.                                          
     1  0  0.50      -273.3789   2.0000                                         
     2  0  0.50       -13.7508   2.0000                                         
     2  1  0.50        -5.2854   2.0000                                         
     3  2  1.50        -5.4423   0.0000                                         
   Description                                                                  
     l       E           TYP  RCUT    TYP  RCUT                                 
     0    -13.7508458     23  1.200                                             
     0     -8.2022199     23  1.200                                             
     1     -5.2854383     23  1.500                                             
     1     34.0145650     23  1.500                                             
     2     -5.4423304      7  1.500                                             
  local pseudopotential read in
  partial core-charges read in
  partial kinetic energy density read in
  atomic valenz-charges read in
  non local Contribution for L=           0  read in
    real space projection operators read in
  non local Contribution for L=           0  read in
    real space projection operators read in
  non local Contribution for L=           1  read in
    real space projection operators read in
  non local Contribution for L=           1  read in
    real space projection operators read in
    PAW grid and wavefunctions read in
 
   number of l-projection  operators is LMAX  =           4
   number of lm-projection operators is LMMAX =           8
 
 Optimization of the real space projectors (new method)

 maximal supplied QI-value         = 15.12
 optimisation between [QCUT,QGAM] = [ 12.55, 25.10] = [ 44.09,176.36] Ry 
 Optimized for a Real-space Cutoff    1.56 Angstroem

   l    n(q)    QCUT    max X(q) W(low)/X(q) W(high)/X(q)  e(spline) 
   0     12    12.548     2.962    0.12E-05    0.11E-06    0.46E-07
   0     12    12.548    26.414    0.30E-04    0.15E-05    0.76E-07
   1     11    12.548     3.969    0.45E-05    0.12E-05    0.60E-07
   1     11    12.548     5.137    0.15E-04    0.18E-04    0.36E-06
   2     11    12.548   143.970    0.20E-03    0.19E-03    0.76E-06
   2     11    12.548   121.201    0.20E-03    0.19E-03    0.76E-06
 Optimization of the real space projectors (new method)

 maximal supplied QI-value         = 19.84
 optimisation between [QCUT,QGAM] = [ 12.50, 25.00] = [ 43.76,175.03] Ry 
 Optimized for a Real-space Cutoff    1.20 Angstroem

   l    n(q)    QCUT    max X(q) W(low)/X(q) W(high)/X(q)  e(spline) 
   0      9    12.501   168.010    0.44E-04    0.61E-04    0.77E-07
   0      9    12.501   164.674    0.43E-04    0.60E-04    0.75E-07
   1      8    12.501    69.222    0.11E-03    0.13E-03    0.91E-07
   1      8    12.501    56.786    0.11E-03    0.13E-03    0.90E-07
 Optimization of the real space projectors (new method)

 maximal supplied QI-value         = 25.13
 optimisation between [QCUT,QGAM] = [ 12.32, 24.88] = [ 42.47,173.37] Ry 
 Optimized for a Real-space Cutoff    1.16 Angstroem

   l    n(q)    QCUT    max X(q) W(low)/X(q) W(high)/X(q)  e(spline) 
   0      9    12.315   115.676    0.19E-03    0.80E-05    0.34E-06
   0      9    12.315    87.132    0.19E-03    0.82E-05    0.34E-06
   1      8    12.315     4.429    0.18E-03    0.13E-03    0.22E-06
   1      8    12.315     2.733    0.14E-03    0.10E-03    0.18E-06
  PAW_PBE Sc_sv 07Sep2000               :
 energy of atom  1       EATOM=-1273.2868
 kinetic energy error for atom=    0.0014 (will be added to EATOM!!)
  PAW_PBE Cl 06Sep2000                  :
 energy of atom  2       EATOM= -409.7259
 kinetic energy error for atom=    0.0013 (will be added to EATOM!!)
  PAW_PBE C 08Apr2002                   :
 energy of atom  3       EATOM= -147.1560
 kinetic energy error for atom=    0.0057 (will be added to EATOM!!)
 
 
 POSCAR: Sc Cl  C                                
  positions in cartesian coordinates
  No initial velocities read in
 exchange correlation table for  LEXCH =        8
   RHO(1)=    0.500       N(1)  =     2000
   RHO(2)=  100.500       N(2)  =     4000
 


--------------------------------------------------------------------------------------------------------


 ion  position               nearest neighbor table
   1  0.080  0.161  0.543-  65 2.20  66 2.36  70 2.42  61 2.53  49 2.62  50 2.63  29 3.16  18 3.18
                            17 3.21   2 3.33  16 3.35   4 3.39
   2  0.077  0.401  0.550-  66 2.20  67 2.44  71 2.48  51 2.56  50 2.57  62 2.60  18 3.20  30 3.25
                            13 3.29   1 3.33  19 3.36   6 3.38
   3  0.085  0.657  0.541-  67 2.14  68 2.36  72 2.36  51 2.45  63 2.66  52 2.73  19 3.03  31 3.16
                            20 3.23  14 3.23   7 3.29   8 3.38
   4  0.094  0.924  0.541-  69 2.21  65 2.47  49 2.50  68 2.51  52 2.61  64 2.67  32 3.18  17 3.18
                            20 3.21   8 3.25   5 3.29   1 3.39
   5  0.330  0.164  0.539-  70 2.27  74 2.28  69 2.32  53 2.65  49 2.72  54 2.83  17 3.03  21 3.18
                            22 3.26   4 3.29
   6  0.331  0.418  0.546-  71 2.26  75 2.36  70 2.48  54 2.59  55 2.63  50 2.71  23 3.15  22 3.27
                            18 3.35   2 3.38
   7  0.327  0.666  0.546-  71 2.38  76 2.44  72 2.44  56 2.58  55 2.61  51 2.61  19 3.12  24 3.18
                            23 3.22   3 3.29   8 3.40
   8  0.322  0.909  0.537-  72 2.23  69 2.26  73 2.35  52 2.42  56 2.53  53 2.95  20 3.06  21 3.09
                            24 3.16   4 3.25   3 3.38   7 3.40
   9  0.583  0.162  0.542-  73 2.25  78 2.30  74 2.30  53 2.56  57 2.71  58 2.75  25 3.06  21 3.17
                            26 3.19  13 3.39
  10  0.587  0.415  0.542-  79 2.26  75 2.39  74 2.40  58 2.57  59 2.63  54 2.77  27 3.00  26 3.04
                            22 3.25  14 3.41
  11  0.591  0.673  0.548-  76 2.26  75 2.42  59 2.44  80 2.46  55 2.60  60 2.76  23 3.15  27 3.16
                            28 3.29  12 3.32  16 3.40  15 3.40
  12  0.591  0.913  0.548-  76 2.23  77 2.33  56 2.47  73 2.52  57 2.62  60 2.64  28 3.19  24 3.22
                            25 3.29  11 3.32
  13  0.832  0.170  0.550-  78 2.34  66 2.42  77 2.48  62 2.50  61 2.59  57 2.59  30 3.16  29 3.23
                            25 3.28   2 3.29   9 3.39
  14  0.842  0.433  0.546-  79 2.24  67 2.31  78 2.50  58 2.54  63 2.62  62 2.93  31 3.12  30 3.18
                             3 3.23  26 3.24  15 3.39  10 3.41
  15  0.840  0.678  0.545-  80 2.15  68 2.33  64 2.44  79 2.45  59 2.58  63 2.60  32 2.98  27 3.17
                            16 3.26  31 3.29  14 3.39  11 3.40
  16  0.841  0.915  0.544-  65 2.27  80 2.27  77 2.34  64 2.46  61 2.63  60 2.74  32 3.09  29 3.14
                            28 3.25  15 3.26   1 3.35  11 3.40
  17  0.175  0.093  0.452-  70 2.20  69 2.35  65 2.49  37 2.53  36 2.65  33 2.78   5 3.03   4 3.18
                             1 3.21  18 3.41  22 3.42
  18  0.150  0.327  0.454-  66 2.23  71 2.42  34 2.45  70 2.46  33 2.54  38 2.76   1 3.18   2 3.20
                            30 3.34   6 3.35  19 3.37  29 3.38  17 3.41
  19  0.168  0.579  0.457-  67 2.30  72 2.32  71 2.35  34 2.52  39 2.60  35 2.68   3 3.03   7 3.12
                             2 3.36  18 3.37
  20  0.165  0.827  0.450-  72 2.25  68 2.37  69 2.39  35 2.54  40 2.57  36 2.64   8 3.06   4 3.21
                             3 3.23  31 3.41
  21  0.417  0.076  0.453-  73 2.29  69 2.36  74 2.37  40 2.46  41 2.52  37 2.58   8 3.09   9 3.17
                             5 3.18  25 3.37
  22  0.419  0.346  0.451-  75 2.34  38 2.38  70 2.38  74 2.56  37 2.59  42 2.60  10 3.25   5 3.26
                             6 3.27  23 3.28  27 3.31  17 3.42
  23  0.428  0.587  0.460-  75 2.19  43 2.33  76 2.36  71 2.42  38 2.59  39 2.67  11 3.15   6 3.15
                             7 3.22  22 3.28  27 3.31  24 3.36  28 3.40
  24  0.426  0.830  0.456-  72 2.37  76 2.38  73 2.39  39 2.53  44 2.59  40 2.98   8 3.16   7 3.18
                            12 3.22  28 3.30  23 3.36
  25  0.667  0.086  0.456-  78 2.34  73 2.36  77 2.48  44 2.59  41 2.61  45 2.65   9 3.06  13 3.28
                            12 3.29  30 3.33  29 3.34  21 3.37
  26  0.668  0.340  0.456-  79 2.29  74 2.37  78 2.44  42 2.61  46 2.72  41 2.76  10 3.04   9 3.19
                            14 3.24  27 3.32  31 3.37  30 3.40
  27  0.664  0.578  0.460-  75 2.29  79 2.31  80 2.39  47 2.54  43 2.76  42 2.77  10 3.00  11 3.16
                            15 3.17  22 3.31  23 3.31  26 3.32  32 3.38
  28  0.669  0.838  0.454-  77 2.31  76 2.40  48 2.43  43 2.48  80 2.55  44 2.59  12 3.19  16 3.25
                            11 3.29  24 3.30  29 3.31  23 3.40
  29  0.906  0.081  0.457-  77 2.20  65 2.27  66 2.42  33 2.59  45 2.60  48 2.80  16 3.14   1 3.16
                            13 3.23  28 3.31  25 3.34  18 3.38  30 3.38
  30  0.908  0.327  0.459-  78 2.22  66 2.31  67 2.42  34 2.52  45 2.53  46 2.74  13 3.16  14 3.18
                             2 3.25  25 3.33  18 3.34  29 3.38  26 3.40
  31  0.916  0.581  0.453-  68 2.25  79 2.39  67 2.45  47 2.52  35 2.61  46 2.64  14 3.12   3 3.16
                            15 3.29  32 3.36  26 3.37  20 3.41
  32  0.911  0.822  0.458-  80 2.11  68 2.30  65 2.52  48 2.53  36 2.68  47 2.70  15 2.98  16 3.09
                             4 3.18  31 3.36  27 3.38
  33  0.063  0.169  0.393-  18 2.54  29 2.59  17 2.78
  34  0.072  0.413  0.402-  18 2.45  19 2.52  30 2.52
  35  0.083  0.662  0.393-  20 2.54  31 2.61  19 2.68
  36  0.078  0.918  0.394-  20 2.64  17 2.65  32 2.68
  37  0.341  0.171  0.396-  17 2.53  21 2.58  22 2.59
  38  0.341  0.425  0.398-  22 2.38  23 2.59  18 2.76
  39  0.337  0.667  0.398-  24 2.53  19 2.60  23 2.67
  40  0.328  0.930  0.391-  21 2.46  20 2.57  24 2.98
  41  0.578  0.161  0.394-  21 2.52  25 2.61  26 2.76
  42  0.584  0.413  0.391-  22 2.60  26 2.61  27 2.77
  43  0.569  0.671  0.402-  23 2.33  28 2.48  27 2.76
  44  0.588  0.924  0.394-  28 2.59  24 2.59  25 2.59
  45  0.839  0.175  0.395-  30 2.53  29 2.60  25 2.65
  46  0.836  0.417  0.390-  31 2.64  26 2.72  30 2.74
  47  0.816  0.646  0.397-  31 2.52  27 2.54  32 2.70
  48  0.823  0.893  0.398-  28 2.43  32 2.53  29 2.80
  49  0.160  0.073  0.604-   4 2.50   1 2.62   5 2.72
  50  0.159  0.318  0.610-   2 2.57   1 2.63   6 2.71
  51  0.152  0.577  0.602-   3 2.45   2 2.56   7 2.61
  52  0.181  0.840  0.600-   8 2.42   4 2.61   3 2.73
  53  0.427  0.101  0.604-   9 2.56   5 2.65   8 2.95
  54  0.413  0.338  0.608-   6 2.59  10 2.77   5 2.83
  55  0.419  0.589  0.606-  11 2.60   7 2.61   6 2.63
  56  0.419  0.846  0.596-  12 2.47   8 2.53   7 2.58
  57  0.663  0.079  0.609-  13 2.59  12 2.62   9 2.71
  58  0.676  0.342  0.603-  14 2.54  10 2.57   9 2.75
  59  0.668  0.587  0.601-  11 2.44  15 2.58  10 2.63
  60  0.681  0.846  0.614-  12 2.64  16 2.74  11 2.76
  61  0.923  0.085  0.605-   1 2.53  13 2.59  16 2.63
  62  0.916  0.319  0.613-  13 2.50   2 2.60  14 2.93
  63  0.925  0.599  0.607-  15 2.60  14 2.62   3 2.66
  64  0.920  0.836  0.601-  15 2.44  16 2.46   4 2.67
  65  0.998  0.010  0.499-   1 2.20  29 2.27  16 2.27   4 2.47  17 2.49  32 2.52
  66  0.000  0.255  0.502-   2 2.20  18 2.23  30 2.31   1 2.36  29 2.42  13 2.42
  67  0.007  0.502  0.503-   3 2.14  19 2.30  14 2.31  30 2.42   2 2.44  31 2.45
  68  0.998  0.740  0.497-  31 2.25  32 2.30  15 2.33   3 2.36  20 2.37   4 2.51
  69  0.247  0.997  0.496-   4 2.21   8 2.26   5 2.32  17 2.35  21 2.36  20 2.39
  70  0.250  0.246  0.496-  17 2.20   5 2.27  22 2.38   1 2.42  18 2.46   6 2.48
  71  0.251  0.496  0.501-   6 2.26  19 2.35   7 2.38  18 2.42  23 2.42   2 2.48
  72  0.249  0.753  0.494-   8 2.23  20 2.25  19 2.32   3 2.36  24 2.37   7 2.44
  73  0.499  0.001  0.500-   9 2.25  21 2.29   8 2.35  25 2.36  24 2.39  12 2.52
  74  0.498  0.242  0.499-   5 2.28   9 2.30  21 2.37  26 2.37  10 2.40  22 2.56
  75  0.498  0.503  0.501-  23 2.19  27 2.29  22 2.34   6 2.36  10 2.39  11 2.42
  76  0.509  0.753  0.506-  12 2.23  11 2.26  23 2.36  24 2.38  28 2.40   7 2.44
  77  0.754  0.996  0.502-  29 2.20  28 2.31  12 2.33  16 2.34  25 2.48  13 2.48
  78  0.752  0.250  0.502-  30 2.22   9 2.30  13 2.34  25 2.34  26 2.44  14 2.50
  79  0.751  0.499  0.502-  14 2.24  10 2.26  26 2.29  27 2.31  31 2.39  15 2.45
  80  0.766  0.753  0.502-  32 2.11  15 2.15  16 2.27  27 2.39  11 2.46  28 2.55
 
  LATTYP: Found a hexagonal cell.
 ALAT       =    13.7939866762
 C/A-ratio  =     2.0161119278
  
  Lattice vectors:
  
 A1 = (  13.7939866800,   0.0000000000,   0.0000000000)
 A2 = (  -6.8969933400,  11.9459428800,   0.0000000000)
 A3 = (   0.0000000000,   0.0000000000,  27.8102210700)


Analysis of symmetry for initial positions (statically):
=====================================================================
 Subroutine PRICEL returns:
 Original cell was already a primitive cell.
 

 Routine SETGRP: Setting up the symmetry group for a 
 hexagonal supercell.


 Subroutine GETGRP returns: Found  1 space group operations
 (whereof  1 operations were pure point group operations)
 out of a pool of 24 trial point group operations.


The static configuration has the point symmetry C_1 .


Analysis of symmetry for dynamics (positions and initial velocities):
=====================================================================
 Subroutine PRICEL returns:
 Original cell was already a primitive cell.
 

 Routine SETGRP: Setting up the symmetry group for a 
 hexagonal supercell.


 Subroutine GETGRP returns: Found  1 space group operations
 (whereof  1 operations were pure point group operations)
 out of a pool of 24 trial point group operations.


The dynamic configuration has the point symmetry C_1 .


 Subroutine INISYM returns: Found  1 space group operations
 (whereof  1 operations are pure point group operations),
 and found     1 'primitive' translations

 
 

Automatic generation of k-mesh.
 generate k-points for:    3    3    1
Space group operators:
 irot       det(A)        alpha          n_x          n_y          n_z        tau_x        tau_y        tau_z
    1     1.000000     0.000000     1.000000     0.000000     0.000000     0.000000     0.000000     0.000000
 
 Subroutine IBZKPT returns following result:
 ===========================================
 
 Found      5 irreducible k-points:
 
 Following reciprocal coordinates:
            Coordinates               Weight
  0.000000  0.000000  0.000000      1.000000
  0.333333 -0.000000  0.000000      2.000000
  0.000000  0.333333  0.000000      2.000000
  0.333333  0.333333  0.000000      2.000000
 -0.333333  0.333333  0.000000      2.000000
 
 Following cartesian coordinates:
            Coordinates               Weight
  0.000000  0.000000  0.000000      1.000000
  0.024165  0.013952  0.000000      2.000000
  0.000000  0.027903  0.000000      2.000000
  0.024165  0.041855  0.000000      2.000000
 -0.024165  0.013952  0.000000      2.000000
 


--------------------------------------------------------------------------------------------------------




 Dimension of arrays:
   k-points           NKPTS =      5   k-points in BZ     NKDIM =      5   number of bands    NBANDS=    384
   number of dos      NEDOS =    301   number of ions     NIONS =     80
   non local maximal  LDIM  =      6   non local SUM 2l+1 LMDIM =     18
   total plane-waves  NPLWV = ******
   max r-space proj   IRMAX =   9806   max aug-charges    IRDMAX= 216835
   dimension x,y,z NGX =   112 NGY =  112 NGZ =  224
   dimension x,y,z NGXF=   224 NGYF=  224 NGZF=  448
   support grid    NGXF=   448 NGYF=  448 NGZF=  896
   ions per type =              32  32  16
   NGX,Y,Z   is equivalent  to a cutoff of  13.50, 13.50, 13.39 a.u.
   NGXF,Y,Z  is equivalent  to a cutoff of  27.00, 27.00, 26.78 a.u.

 SYSTEM =  unknown system                          
 POSCAR =  Sc Cl  C                                

 Startparameter for this run:
   NWRITE =      2    write-flag & timer
   PREC   = anorma    normal or accurate (medium, high low for compatibility)
   ISTART =      0    job   : 0-new  1-cont  2-samecut
   ICHARG =      2    charge: 1-file 2-atom 10-const
   ISPIN  =      1    spin polarized calculation?
   LNONCOLLINEAR =      F non collinear calculations
   LSORBIT =      F    spin-orbit coupling
   INIWAV =      1    electr: 0-lowe 1-rand  2-diag
   LASPH  =      F    aspherical Exc in radial PAW
   METAGGA=      F    non-selfconsistent MetaGGA calc.

 Electronic Relaxation 1
   ENCUT  =  600.0 eV  44.10 Ry    6.64 a.u.  27.55 27.55 55.54*2*pi/ulx,y,z
   ENINI  =  600.0     initial cutoff
   ENAUG  =  644.9 eV  augmentation charge cutoff
   NELM   =     60;   NELMIN=  2; NELMDL= -5     # of ELM steps 
   EDIFF  = 0.1E-05   stopping-criterion for ELM
   LREAL  =      T    real-space projection
   NLSPLINE    = F    spline interpolate recip. space projectors
   LCOMPAT=      F    compatible to vasp.4.4
   GGA_COMPAT  = T    GGA compatible to vasp.4.4-vasp.4.6
   LMAXPAW     = -100 max onsite density
   LMAXMIX     =    2 max onsite mixed and CHGCAR
   VOSKOWN=      0    Vosko Wilk Nusair interpolation
   ROPT   =   -0.00025  -0.00025  -0.00025
 Ionic relaxation
   EDIFFG = -.1E-01   stopping-criterion for IOM
   NSW    =      1    number of steps for IOM
   NBLOCK =      1;   KBLOCK =      1    inner block; outer block 
   IBRION =     -1    ionic relax: 0-MD 1-quasi-New 2-CG
   NFREE  =      0    steps in history (QN), initial steepest desc. (CG)
   ISIF   =      2    stress and relaxation
   IWAVPR =     10    prediction:  0-non 1-charg 2-wave 3-comb
   ISYM   =      2    0-nonsym 1-usesym 2-fastsym
   LCORR  =      T    Harris-Foulkes like correction to forces

   POTIM  = 1.0000    time-step for ionic-motion
   TEIN   =    0.0    initial temperature
   TEBEG  =    0.0;   TEEND  =   0.0 temperature during run
   SMASS  =  -3.00    Nose mass-parameter (am)
   estimated Nose-frequenzy (Omega)   =  0.10E-29 period in steps =****** mass=  -0.435E-26a.u.
   SCALEE = 1.0000    scale energy and forces
   NPACO  =    256;   APACO  = 16.0  distance and # of slots for P.C.
   PSTRESS=    0.0 pullay stress

  Mass of Ions in am
   POMASS =  44.96 35.45 12.01
  Ionic Valenz
   ZVAL   =  11.00  7.00  4.00
  Atomic Wigner-Seitz radii
   RWIGS  =  -1.00 -1.00 -1.00
  virtual crystal weights 
   VCA    =   1.00  1.00  1.00
   NELECT =     640.0000    total number of electrons
   NUPDOWN=      -1.0000    fix difference up-down

 DOS related values:
   EMIN   =  10.00;   EMAX   =-10.00  energy-range for DOS
   EFERMI =   0.00
   ISMEAR =     0;   SIGMA  =   0.05  broadening in eV -4-tet -1-fermi 0-gaus

 Electronic relaxation 2 (details)
   IALGO  =     38    algorithm
   LDIAG  =      T    sub-space diagonalisation (order eigenvalues)
   LSUBROT=      F    optimize rotation matrix (better conditioning)
   TURBO    =      0    0=normal 1=particle mesh
   IRESTART =      0    0=no restart 2=restart with 2 vectors
   NREBOOT  =      0    no. of reboots
   NMIN     =      0    reboot dimension
   EREF     =   0.00    reference energy to select bands
   IMIX   =      4    mixing-type and parameters
     AMIX     =   0.40;   BMIX     =  1.00
     AMIX_MAG =   1.60;   BMIX_MAG =  1.00
     AMIN     =   0.10
     WC   =   100.;   INIMIX=   1;  MIXPRE=   1;  MAXMIX= -45

 Intra band minimization:
   WEIMIN = 0.0000     energy-eigenvalue tresh-hold
   EBREAK =  0.65E-09  absolut break condition
   DEPER  =   0.30     relativ break condition  

   TIME   =   0.40     timestep for ELM

  volume/ion in A,a.u.               =      57.28       386.56
  Fermi-wavevector in a.u.,A,eV,Ry     =   0.849369  1.605075  9.815628  0.721428
  Thomas-Fermi vector in A             =   1.965179
 
 Write flags
   LWAVE        =      F    write WAVECAR
   LDOWNSAMPLE  =      F    k-point downsampling of WAVECAR
   LCHARG       =      F    write CHGCAR
   LVTOT        =      F    write LOCPOT, total local potential
   LVHAR        =      F    write LOCPOT, Hartree potential only
   LELF         =      F    write electronic localiz. function (ELF)
   LORBIT       =      0    0 simple, 1 ext, 2 COOP (PROOUT), +10 PAW based schemes


 Dipole corrections
   LMONO  =      F    monopole corrections only (constant potential shift)
   LDIPOL =      F    correct potential (dipole corrections)
   IDIPOL =      0    1-x, 2-y, 3-z, 4-all directions 
   EPSILON=  1.0000000 bulk dielectric constant

 Exchange correlation treatment:
   GGA     =    --    GGA type
   LEXCH   =     8    internal setting for exchange type
   VOSKOWN=      0    Vosko Wilk Nusair interpolation
   LHFCALC =     F    Hartree Fock is set to
   LHFONE  =     F    Hartree Fock one center treatment
   AEXX    =    0.0000 exact exchange contribution

 Linear response parameters
   LEPSILON=     F    determine dielectric tensor
   LRPA    =     F    only Hartree local field effects (RPA)
   LNABLA  =     F    use nabla operator in PAW spheres
   LVEL    =     F    velocity operator in full k-point grid
   LINTERFAST=   F  fast interpolation
   KINTER  =     0    interpolate to denser k-point grid
   CSHIFT  =0.1000    complex shift for real part using Kramers Kronig
   OMEGAMAX=  -1.0    maximum frequency
   DEG_THRESHOLD= 0.2000000E-02 threshold for treating states as degnerate
   RTIME   =   -0.100 relaxation time in fs
  (WPLASMAI=    0.000 imaginary part of plasma frequency in eV, 0.658/RTIME)
   DFIELD  = 0.0000000 0.0000000 0.0000000 field for delta impulse in time
 
 Orbital magnetization related:
   ORBITALMAG=     F  switch on orbital magnetization
   LCHIMAG   =     F  perturbation theory with respect to B field
   DQ        =  0.001000  dq finite difference perturbation B field
   LLRAUG    =     F  two centre corrections for induced B field



--------------------------------------------------------------------------------------------------------


 Static calculation
 charge density and potential will be updated during run
 non-spin polarized calculation
 Variant of blocked Davidson
 Davidson routine will perform the subspace rotation
 perform sub-space diagonalisation
    after iterative eigenvector-optimisation
 modified Broyden-mixing scheme, WC =      100.0
 initial mixing is a Kerker type mixing with AMIX =  0.4000 and BMIX =      1.0000
 Hartree-type preconditioning will be used
 using additional bands           64
 real space projection scheme for non local part
 use partial core corrections
 calculate Harris-corrections to forces 
   (improved forces if not selfconsistent)
 use gradient corrections 
 use of overlap-Matrix (Vanderbilt PP)
 Gauss-broadening in eV      SIGMA  =   0.05


--------------------------------------------------------------------------------------------------------


  energy-cutoff  :      600.00
  volume of cell :     4582.63
      direct lattice vectors                 reciprocal lattice vectors
    13.793986680  0.000000000  0.000000000     0.072495358  0.041855214  0.000000000
    -6.896993340 11.945942880  0.000000000     0.000000000  0.083710429  0.000000000
     0.000000000  0.000000000 27.810221070     0.000000000  0.000000000  0.035958003

  length of vectors
    13.793986680 13.793986676 27.810221070     0.083710429  0.083710429  0.035958003


 
 k-points in units of 2pi/SCALE and weight: read from INCAR                         
   0.00000000  0.00000000  0.00000000       0.111
   0.02416512  0.01395174  0.00000000       0.222
   0.00000000  0.02790348  0.00000000       0.222
   0.02416512  0.04185521  0.00000000       0.222
  -0.02416512  0.01395174  0.00000000       0.222
 
 k-points in reciprocal lattice and weights: read from INCAR                         
   0.00000000  0.00000000  0.00000000       0.111
   0.33333333 -0.00000000  0.00000000       0.222
   0.00000000  0.33333333  0.00000000       0.222
   0.33333333  0.33333333  0.00000000       0.222
  -0.33333333  0.33333333  0.00000000       0.222
 
 position of ions in fractional coordinates (direct lattice) 
   0.07954594  0.16145834  0.54334302
   0.07735747  0.40107400  0.55022211
   0.08455198  0.65729604  0.54084403
   0.09412142  0.92362227  0.54054253
   0.33036601  0.16387697  0.53858736
   0.33061425  0.41816054  0.54622620
   0.32725133  0.66616847  0.54560318
   0.32182200  0.90929114  0.53729890
   0.58299015  0.16234875  0.54161346
   0.58701825  0.41514256  0.54233270
   0.59138776  0.67272215  0.54841949
   0.59050941  0.91269225  0.54758576
   0.83186486  0.16988555  0.55011234
   0.84207411  0.43260781  0.54561376
   0.84011045  0.67769391  0.54531973
   0.84126341  0.91490001  0.54440786
   0.17510829  0.09325409  0.45230976
   0.15018214  0.32676764  0.45408730
   0.16779157  0.57939617  0.45666889
   0.16460149  0.82671106  0.45035395
   0.41711186  0.07557089  0.45253367
   0.41862960  0.34581533  0.45102585
   0.42830331  0.58746848  0.45965466
   0.42619955  0.83017118  0.45591114
   0.66658599  0.08644834  0.45572912
   0.66831627  0.34027206  0.45601533
   0.66363098  0.57830536  0.46041280
   0.66931173  0.83809285  0.45381227
   0.90619360  0.08144445  0.45746941
   0.90826769  0.32728625  0.45878104
   0.91608647  0.58113048  0.45339439
   0.91059833  0.82174314  0.45793389
   0.06305327  0.16851804  0.39339999
   0.07162502  0.41284872  0.40165112
   0.08275243  0.66234879  0.39260198
   0.07761086  0.91779785  0.39391114
   0.34128750  0.17068149  0.39605884
   0.34136081  0.42529250  0.39808953
   0.33701422  0.66708492  0.39804895
   0.32753550  0.92985338  0.39077114
   0.57772576  0.16069893  0.39365934
   0.58397386  0.41253372  0.39068587
   0.56948134  0.67064206  0.40193849
   0.58810594  0.92351578  0.39433481
   0.83864295  0.17541061  0.39536981
   0.83552877  0.41738837  0.38972531
   0.81632022  0.64563980  0.39709570
   0.82277717  0.89287884  0.39772617
   0.15978029  0.07292466  0.60354667
   0.15934341  0.31817043  0.60966620
   0.15246874  0.57746021  0.60201176
   0.18051864  0.84017888  0.59963111
   0.42733592  0.10103078  0.60421023
   0.41287160  0.33752003  0.60770963
   0.41866532  0.58948200  0.60550259
   0.41926487  0.84647979  0.59638851
   0.66328377  0.07858775  0.60877446
   0.67648661  0.34226281  0.60307038
   0.66769619  0.58675211  0.60139727
   0.68057216  0.84578509  0.61430005
   0.92315953  0.08518753  0.60451761
   0.91608161  0.31921095  0.61299275
   0.92544395  0.59911578  0.60683863
   0.92041277  0.83557423  0.60113390
   0.99752255  0.00959815  0.49881965
   0.00027782  0.25491960  0.50199279
   0.00726037  0.50196023  0.50261813
   0.99839499  0.74002294  0.49686118
   0.24719319  0.99686899  0.49575265
   0.25038601  0.24635417  0.49639193
   0.25057755  0.49551823  0.50131792
   0.24876191  0.75264115  0.49391637
   0.49880109  0.00074341  0.50018364
   0.49760447  0.24186136  0.49889795
   0.49804891  0.50255408  0.50143914
   0.50948627  0.75254449  0.50619980
   0.75371728  0.99608689  0.50167343
   0.75183263  0.25004196  0.50196909
   0.75148020  0.49943802  0.50211237
   0.76649239  0.75295652  0.50173869
 
 position of ions in cartesian coordinates  (Angst):
  -0.01632152  1.92877212 15.11048945
  -1.69913675  4.79120711 15.30179848
  -3.36705746  7.85202094 15.04099201
  -5.07190701 11.03353888 15.03260724
   3.42680590  1.95766493 14.97823364
   1.67643804  4.99532195 15.19067149
  -0.08045898  7.95801050 15.17334501
  -1.83216662 10.86234003 14.94240120
   6.92204008  1.93940889 15.06239001
   5.23408652  4.95926930 15.08239219
   3.51783477  8.03630035 15.25166718
   1.85064662 10.90296945 15.22848117
  10.30303333  2.02944310 15.29874571
   8.63186586  5.16790822 15.17363923
   6.91442206  8.09569269 15.16546220
   5.29431699 10.92934325 15.14010306
   1.77226855  1.11400802 12.57883446
  -0.18210376  3.90354757 12.62826813
  -1.68157680  6.92143353 12.70006281
  -3.43130994  9.87584310 12.52444282
   5.23242350  0.90276552 12.58506142
   3.38948514  4.13109016 12.54312861
   1.85624402  7.01786488 12.78309760
   0.15330580  9.91717750 12.67898951
   8.59864468  1.03270691 12.67392760
   6.87189159  4.06487065 12.68188720
   5.16554860  6.90840285 12.80418172
   3.45215623 10.01180934 12.62061955
  11.93830060  0.97293080 12.72232539
  10.27134136  3.90974286 12.75880208
   8.62843156  6.94215151 12.60899824
   6.89322432  9.81649664 12.73524281
  -0.29251186  2.01310693 10.94054071
  -1.85942031  4.93186725 11.17000648
  -3.42672920  7.91238079 10.91834798
  -5.25948252 10.96396073 10.95475586
   3.53052613  2.03895134 11.01448386
   1.77548691  5.08051995 11.07095780
   0.04788943  7.96895836 11.06982925
  -1.89517220 11.10797536 10.86743192
   6.86080199  1.91970023 10.94775320
   5.21008529  4.92810420 10.86506044
   3.23000423  8.01145177 11.17799830
   1.74284336 11.03226680 10.96653838
  10.35842391  2.09544509 10.99532176
   8.64654787  4.98609767 10.83834703
   6.80733687  7.71277613 11.04331913
   5.19119800 10.66627958 11.06085266
   1.70104633  0.87115383 16.78476628
   0.00356154  3.80084575 16.95495179
  -1.87958742  6.89830673 16.74208024
  -3.30463643 10.03672889 16.67587371
   5.19785743  1.20690792 16.80322002
   3.36727192  4.03199494 16.90053915
   1.70941037  7.04191828 16.83916094
  -0.05483137 10.11199921 16.58569638
   8.60730835  0.93880479 16.93015221
   6.97086294  4.08865203 16.77152065
   5.16336691  7.00930718 16.72499107
   3.55442920 10.10370042 17.08382018
  12.14651246  1.01764534 16.81176840
  10.43482172  3.81327575 17.04746386
   8.63346397  7.15700284 16.87631636
   6.93321160  9.98172199 16.71766667
  13.69361444  0.11465892 13.87228469
  -1.75434653  3.04525504 13.96053059
  -3.36186698  5.99638824 13.97792133
   8.66791383  8.84027183 13.81781920
  -3.46561923 11.90854002 13.78699074
   1.75471823  2.94293282 13.80476930
   0.03887752  5.91943243 13.94176232
  -1.75954254  8.99100817 13.73592344
   6.87532834  0.00888077 13.91021770
   5.19583316  2.88926202 13.87446230
   3.40396783  6.00348232 13.94513347
   1.83755251  8.98985350 14.07752839
   3.52676149 11.89919713 13.95164902
   8.64623155  2.98698694 13.95987137
   6.92128711  5.96625810 13.96385592
   5.37984975  8.99477562 13.95346388
 


--------------------------------------------------------------------------------------------------------


 k-point  1 :   0.0000 0.0000 0.0000  plane waves:  153003
 k-point  2 :   0.3333-0.0000 0.0000  plane waves:  152954
 k-point  3 :   0.0000 0.3333 0.0000  plane waves:  152954
 k-point  4 :   0.3333 0.3333 0.0000  plane waves:  152898
 k-point  5 :  -0.3333 0.3333 0.0000  plane waves:  152954

 maximum and minimum number of plane-waves per node :     11814    11730

 maximum number of plane-waves:    153003
 maximum index in each direction: 
   IXMAX=   27   IYMAX=   27   IZMAX=   55
   IXMIN=  -27   IYMIN=  -27   IZMIN=  -55


 real space projection operators:
  total allocation   :      55032.38 KBytes
  max/ min on nodes  :       4436.39       3904.12


 parallel 3D FFT for wavefunctions:
    minimum data exchange during FFTs selected (reduces bandwidth)
 parallel 3D FFT for charge:
    minimum data exchange during FFTs selected (reduces bandwidth)


 total amount of memory used by VASP MPI-rank0   253941. kBytes
=======================================================================

   base      :      30000. kBytes
   nonlr-proj:      18757. kBytes
   fftplans  :      72602. kBytes
   grid      :      41267. kBytes
   one-center:        108. kBytes
   wavefun   :      91207. kBytes
 
     INWAV:  cpu time    0.0000: real time    0.0000
 Broyden mixing: mesh for mixing (old mesh)
   NGX = 55   NGY = 55   NGZ =111
  (NGX  =224   NGY  =224   NGZ  =448)
  gives a total of 335775 points

 initial charge density was supplied:
 charge density of overlapping atoms calculated
 number of electron     640.0000000 magnetization 
 keeping initial charge density in first step


--------------------------------------------------------------------------------------------------------


 Maximum index for non-local projection operator          945
 Maximum index for augmentation-charges         4577 (set IRDMAX)


--------------------------------------------------------------------------------------------------------


 First call to EWALD:  gamma=   0.107
 Maximum number of real-space cells 4x 4x 2
 Maximum number of reciprocal cells 2x 2x 4

    FEWALD:  cpu time    0.0029: real time    0.0029


--------------------------------------- Iteration      1(   1)  ---------------------------------------


    POTLOK:  cpu time    0.4108: real time    0.4176
    SETDIJ:  cpu time    0.4210: real time    0.4212
     EDDAV:  cpu time   50.0888: real time   50.0910
       DOS:  cpu time    0.0014: real time    0.0014
    --------------------------------------------
      LOOP:  cpu time   50.9220: real time   50.9311

 eigenvalue-minimisations  :  4424
 total energy-change (2. order) : 0.1219393E+05  (-0.2680670E+05)
 number of electron     640.0000000 magnetization 
 augmentation part      640.0000000 magnetization 

 Free energy of the ion-electron system (eV)
  ---------------------------------------------------
  alpha Z        PSCENC =       784.57699423
  Ewald energy   TEWEN  =    253053.18390450
  -Hartree energ DENC   =   -300697.81314157
  -exchange      EXHF   =         0.00000000
  -V(xc)+E(xc)   XCENC  =      2503.60539592
  PAW double counting   =     43679.68029659   -43417.33247688
  entropy T*S    EENTRO =        -0.06932622
  eigenvalues    EBANDS =        77.37529325
  atomic energy  EATOM  =     56210.72393729
  Solvation  Ediel_sol  =         0.00000000
  ---------------------------------------------------
  free energy    TOTEN  =     12193.93087711 eV

  energy without entropy =    12194.00020333  energy(sigma->0) =    12193.96554022


--------------------------------------------------------------------------------------------------------




--------------------------------------- Iteration      1(   2)  ---------------------------------------


     EDDAV:  cpu time   56.6718: real time   56.6829
       DOS:  cpu time    0.0012: real time    0.0012
    --------------------------------------------
      LOOP:  cpu time   56.6730: real time   56.6841

 eigenvalue-minimisations  :  5184
 total energy-change (2. order) :-0.1046937E+05  (-0.1020220E+05)
 number of electron     640.0000000 magnetization 
 augmentation part      640.0000000 magnetization 

 Free energy of the ion-electron system (eV)
  ---------------------------------------------------
  alpha Z        PSCENC =       784.57699423
  Ewald energy   TEWEN  =    253053.18390450
  -Hartree energ DENC   =   -300697.81314157
  -exchange      EXHF   =         0.00000000
  -V(xc)+E(xc)   XCENC  =      2503.60539592
  PAW double counting   =     43679.68029659   -43417.33247688
  entropy T*S    EENTRO =        -0.04638423
  eigenvalues    EBANDS =    -10392.02065215
  atomic energy  EATOM  =     56210.72393729
  Solvation  Ediel_sol  =         0.00000000
  ---------------------------------------------------
  free energy    TOTEN  =      1724.55787369 eV

  energy without entropy =     1724.60425793  energy(sigma->0) =     1724.58106581


--------------------------------------------------------------------------------------------------------




--------------------------------------- Iteration      1(   3)  ---------------------------------------


     EDDAV:  cpu time   70.9830: real time   70.9875
       DOS:  cpu time    0.0005: real time    0.0005
    --------------------------------------------
      LOOP:  cpu time   70.9835: real time   70.9880

 eigenvalue-minimisations  :  6800
 total energy-change (2. order) :-0.2134969E+04  (-0.2050440E+04)
 number of electron     640.0000000 magnetization 
 augmentation part      640.0000000 magnetization 

 Free energy of the ion-electron system (eV)
  ---------------------------------------------------
  alpha Z        PSCENC =       784.57699423
  Ewald energy   TEWEN  =    253053.18390450
  -Hartree energ DENC   =   -300697.81314157
  -exchange      EXHF   =         0.00000000
  -V(xc)+E(xc)   XCENC  =      2503.60539592
  PAW double counting   =     43679.68029659   -43417.33247688
  entropy T*S    EENTRO =        -0.00000000
  eigenvalues    EBANDS =    -12527.03580481
  atomic energy  EATOM  =     56210.72393729
  Solvation  Ediel_sol  =         0.00000000
  ---------------------------------------------------
  free energy    TOTEN  =      -410.41089473 eV

  energy without entropy =     -410.41089473  energy(sigma->0) =     -410.41089473


--------------------------------------------------------------------------------------------------------




--------------------------------------- Iteration      1(   4)  ---------------------------------------


     EDDAV:  cpu time   64.7265: real time   64.7343
       DOS:  cpu time    0.0005: real time    0.0005
    --------------------------------------------
      LOOP:  cpu time   64.7269: real time   64.7348

 eigenvalue-minimisations  :  6088
 total energy-change (2. order) :-0.2332460E+03  (-0.2288316E+03)
 number of electron     640.0000000 magnetization 
 augmentation part      640.0000000 magnetization 

 Free energy of the ion-electron system (eV)
  ---------------------------------------------------
  alpha Z        PSCENC =       784.57699423
  Ewald energy   TEWEN  =    253053.18390450
  -Hartree energ DENC   =   -300697.81314157
  -exchange      EXHF   =         0.00000000
  -V(xc)+E(xc)   XCENC  =      2503.60539592
  PAW double counting   =     43679.68029659   -43417.33247688
  entropy T*S    EENTRO =        -0.00000000
  eigenvalues    EBANDS =    -12760.28181131
  atomic energy  EATOM  =     56210.72393729
  Solvation  Ediel_sol  =         0.00000000
  ---------------------------------------------------
  free energy    TOTEN  =      -643.65690123 eV

  energy without entropy =     -643.65690123  energy(sigma->0) =     -643.65690123


--------------------------------------------------------------------------------------------------------




--------------------------------------- Iteration      1(   5)  ---------------------------------------


     EDDAV:  cpu time   64.6469: real time   64.6540
       DOS:  cpu time    0.0006: real time    0.0006
    CHARGE:  cpu time    3.8803: real time    3.8802
    MIXING:  cpu time    0.0123: real time    0.0124
    --------------------------------------------
      LOOP:  cpu time   68.5402: real time   68.5472

 eigenvalue-minimisations  :  6080
 total energy-change (2. order) :-0.1019783E+02  (-0.1014627E+02)
 number of electron     640.0000003 magnetization 
 augmentation part       59.2657025 magnetization 

 Broyden mixing:
  rms(total) = 0.69903E+01    rms(broyden)= 0.69901E+01
  rms(prec ) = 0.73509E+01
  weight for this iteration     100.00

 Free energy of the ion-electron system (eV)
  ---------------------------------------------------
  alpha Z        PSCENC =       784.57699423
  Ewald energy   TEWEN  =    253053.18390450
  -Hartree energ DENC   =   -300697.81314157
  -exchange      EXHF   =         0.00000000
  -V(xc)+E(xc)   XCENC  =      2503.60539592
  PAW double counting   =     43679.68029659   -43417.33247688
  entropy T*S    EENTRO =        -0.00000000
  eigenvalues    EBANDS =    -12770.47963826
  atomic energy  EATOM  =     56210.72393729
  Solvation  Ediel_sol  =         0.00000000
  ---------------------------------------------------
  free energy    TOTEN  =      -653.85472818 eV

  energy without entropy =     -653.85472818  energy(sigma->0) =     -653.85472818


--------------------------------------------------------------------------------------------------------




--------------------------------------- Iteration      1(   6)  ---------------------------------------


    POTLOK:  cpu time    0.3853: real time    0.3942
    SETDIJ:  cpu time    0.4179: real time    0.4179
     EDDAV:  cpu time   62.5734: real time   62.5720
       DOS:  cpu time    0.0006: real time    0.0006
    CHARGE:  cpu time    3.8796: real time    3.8795
    MIXING:  cpu time    0.0114: real time    0.0114
    --------------------------------------------
      LOOP:  cpu time   67.2681: real time   67.2757

 eigenvalue-minimisations  :  5840
 total energy-change (2. order) : 0.1305984E+03  (-0.6963030E+02)
 number of electron     640.0000004 magnetization 
 augmentation part       70.0735042 magnetization 

 Broyden mixing:
  rms(total) = 0.30518E+01    rms(broyden)= 0.30517E+01
  rms(prec ) = 0.30843E+01
  weight for this iteration     100.00

 eigenvalues of (default mixing * dielectric matrix)
  average eigenvalue GAMMA=   0.9569
  0.9569

 Free energy of the ion-electron system (eV)
  ---------------------------------------------------
  alpha Z        PSCENC =       784.57699423
  Ewald energy   TEWEN  =    253053.18390450
  -Hartree energ DENC   =   -300511.54302683
  -exchange      EXHF   =         0.00000000
  -V(xc)+E(xc)   XCENC  =      2493.26808437
  PAW double counting   =     49318.51820640   -49110.84021429
  entropy T*S    EENTRO =        -0.00000000
  eigenvalues    EBANDS =    -12761.14419384
  atomic energy  EATOM  =     56210.72393729
  Solvation  Ediel_sol  =         0.00000000
  ---------------------------------------------------
  free energy    TOTEN  =      -523.25630817 eV

  energy without entropy =     -523.25630817  energy(sigma->0) =     -523.25630817


--------------------------------------------------------------------------------------------------------




--------------------------------------- Iteration      1(   7)  ---------------------------------------


    POTLOK:  cpu time    0.3851: real time    0.3935
    SETDIJ:  cpu time    0.4174: real time    0.4174
     EDDAV:  cpu time   63.2326: real time   63.2313
       DOS:  cpu time    0.0006: real time    0.0006
    CHARGE:  cpu time    3.8724: real time    3.8723
    MIXING:  cpu time    0.0124: real time    0.0124
    --------------------------------------------
      LOOP:  cpu time   67.9206: real time   67.9274

 eigenvalue-minimisations  :  5920
 total energy-change (2. order) :-0.4992565E+01  (-0.8860082E+01)
 number of electron     640.0000004 magnetization 
 augmentation part       69.5424426 magnetization 

 Broyden mixing:
  rms(total) = 0.15402E+01    rms(broyden)= 0.15401E+01
  rms(prec ) = 0.15760E+01
  weight for this iteration     100.00

 eigenvalues of (default mixing * dielectric matrix)
  average eigenvalue GAMMA=   1.0009
  1.0009  1.0009

 Free energy of the ion-electron system (eV)
  ---------------------------------------------------
  alpha Z        PSCENC =       784.57699423
  Ewald energy   TEWEN  =    253053.18390450
  -Hartree energ DENC   =   -300613.61530826
  -exchange      EXHF   =         0.00000000
  -V(xc)+E(xc)   XCENC  =      2489.29989756
  PAW double counting   =     54426.39390826   -54233.21453425
  entropy T*S    EENTRO =        -0.00000000
  eigenvalues    EBANDS =    -12645.59767263
  atomic energy  EATOM  =     56210.72393729
  Solvation  Ediel_sol  =         0.00000000
  ---------------------------------------------------
  free energy    TOTEN  =      -528.24887331 eV

  energy without entropy =     -528.24887331  energy(sigma->0) =     -528.24887331


--------------------------------------------------------------------------------------------------------




--------------------------------------- Iteration      1(   8)  ---------------------------------------


    POTLOK:  cpu time    0.3858: real time    0.3936
    SETDIJ:  cpu time    0.4182: real time    0.4182
     EDDAV:  cpu time   62.3847: real time   62.3865
       DOS:  cpu time    0.0005: real time    0.0005
    CHARGE:  cpu time    3.8719: real time    3.8718
    MIXING:  cpu time    0.0123: real time    0.0123
    --------------------------------------------
      LOOP:  cpu time   67.0734: real time   67.0829

 eigenvalue-minimisations  :  5824
 total energy-change (2. order) : 0.2277817E+01  (-0.9728675E+00)
 number of electron     640.0000004 magnetization 
 augmentation part       69.2791509 magnetization 

 Broyden mixing:
  rms(total) = 0.93792E+00    rms(broyden)= 0.93792E+00
  rms(prec ) = 0.95357E+00
  weight for this iteration     100.00

 eigenvalues of (default mixing * dielectric matrix)
  average eigenvalue GAMMA=   1.4302
  2.5492  0.8707  0.8707

 Free energy of the ion-electron system (eV)
  ---------------------------------------------------
  alpha Z        PSCENC =       784.57699423
  Ewald energy   TEWEN  =    253053.18390450
  -Hartree energ DENC   =   -300684.21348014
  -exchange      EXHF   =         0.00000000
  -V(xc)+E(xc)   XCENC  =      2489.38935787
  PAW double counting   =     56390.40204956   -56207.89543415
  entropy T*S    EENTRO =        -0.00000000
  eigenvalues    EBANDS =    -12562.13838500
  atomic energy  EATOM  =     56210.72393729
  Solvation  Ediel_sol  =         0.00000000
  ---------------------------------------------------
  free energy    TOTEN  =      -525.97105584 eV

  energy without entropy =     -525.97105584  energy(sigma->0) =     -525.97105584


--------------------------------------------------------------------------------------------------------




--------------------------------------- Iteration      1(   9)  ---------------------------------------


    POTLOK:  cpu time    0.3864: real time    0.3968
    SETDIJ:  cpu time    0.4174: real time    0.4174
     EDDAV:  cpu time   58.8019: real time   58.8008
       DOS:  cpu time    0.0005: real time    0.0005
    CHARGE:  cpu time    3.8720: real time    3.8719
    MIXING:  cpu time    0.0123: real time    0.0123
    --------------------------------------------
      LOOP:  cpu time   63.4905: real time   63.4997

 eigenvalue-minimisations  :  5416
 total energy-change (2. order) : 0.5188927E+00  (-0.3805097E+00)
 number of electron     640.0000004 magnetization 
 augmentation part       69.9937876 magnetization 

 Broyden mixing:
  rms(total) = 0.30409E+00    rms(broyden)= 0.30408E+00
  rms(prec ) = 0.31707E+00
  weight for this iteration     100.00

 eigenvalues of (default mixing * dielectric matrix)
  average eigenvalue GAMMA=   1.2242
  2.1487  0.8674  0.8674  1.0135

 Free energy of the ion-electron system (eV)
  ---------------------------------------------------
  alpha Z        PSCENC =       784.57699423
  Ewald energy   TEWEN  =    253053.18390450
  -Hartree energ DENC   =   -300814.32492682
  -exchange      EXHF   =         0.00000000
  -V(xc)+E(xc)   XCENC  =      2488.94695140
  PAW double counting   =     60230.88100692   -60065.55268136
  entropy T*S    EENTRO =        -0.00000000
  eigenvalues    EBANDS =    -12413.88734925
  atomic energy  EATOM  =     56210.72393729
  Solvation  Ediel_sol  =         0.00000000
  ---------------------------------------------------
  free energy    TOTEN  =      -525.45216310 eV

  energy without entropy =     -525.45216310  energy(sigma->0) =     -525.45216310


--------------------------------------------------------------------------------------------------------




--------------------------------------- Iteration      1(  10)  ---------------------------------------


    POTLOK:  cpu time    0.3857: real time    0.3946
    SETDIJ:  cpu time    0.4186: real time    0.4186
     EDDAV:  cpu time   61.8979: real time   61.9100
       DOS:  cpu time    0.0005: real time    0.0005
    CHARGE:  cpu time    3.8745: real time    3.8752
    MIXING:  cpu time    0.0138: real time    0.0138
    --------------------------------------------
      LOOP:  cpu time   66.5910: real time   66.6127

 eigenvalue-minimisations  :  5768
 total energy-change (2. order) : 0.1321741E+00  (-0.5950340E-01)
 number of electron     640.0000004 magnetization 
 augmentation part       69.8014781 magnetization 

 Broyden mixing:
  rms(total) = 0.17275E+00    rms(broyden)= 0.17275E+00
  rms(prec ) = 0.17958E+00
  weight for this iteration     100.00

 eigenvalues of (default mixing * dielectric matrix)
  average eigenvalue GAMMA=   1.2230
  2.1322  1.5059  0.9090  0.9090  0.6587

 Free energy of the ion-electron system (eV)
  ---------------------------------------------------
  alpha Z        PSCENC =       784.57699423
  Ewald energy   TEWEN  =    253053.18390450
  -Hartree energ DENC   =   -300840.90724966
  -exchange      EXHF   =         0.00000000
  -V(xc)+E(xc)   XCENC  =      2489.55070761
  PAW double counting   =     59660.40209652   -59492.61248129
  entropy T*S    EENTRO =        -0.00000000
  eigenvalues    EBANDS =    -12390.23789821
  atomic energy  EATOM  =     56210.72393729
  Solvation  Ediel_sol  =         0.00000000
  ---------------------------------------------------
  free energy    TOTEN  =      -525.31998902 eV

  energy without entropy =     -525.31998902  energy(sigma->0) =     -525.31998902


--------------------------------------------------------------------------------------------------------




--------------------------------------- Iteration      1(  11)  ---------------------------------------


    POTLOK:  cpu time    0.3853: real time    0.3932
    SETDIJ:  cpu time    0.4185: real time    0.4187
     EDDAV:  cpu time   62.2920: real time   62.3036
       DOS:  cpu time    0.0006: real time    0.0006
    CHARGE:  cpu time    3.8699: real time    3.8707
    MIXING:  cpu time    0.0141: real time    0.0141
    --------------------------------------------
      LOOP:  cpu time   66.9804: real time   67.0008

 eigenvalue-minimisations  :  5816
 total energy-change (2. order) : 0.2009988E-01  (-0.2166161E-01)
 number of electron     640.0000004 magnetization 
 augmentation part       69.7417038 magnetization 

 Broyden mixing:
  rms(total) = 0.76582E-01    rms(broyden)= 0.76580E-01
  rms(prec ) = 0.82842E-01
  weight for this iteration     100.00

 eigenvalues of (default mixing * dielectric matrix)
  average eigenvalue GAMMA=   1.2685
  2.4869  1.7251  0.8910  0.8910  0.8086  0.8086

 Free energy of the ion-electron system (eV)
  ---------------------------------------------------
  alpha Z        PSCENC =       784.57699423
  Ewald energy   TEWEN  =    253053.18390450
  -Hartree energ DENC   =   -300890.03082285
  -exchange      EXHF   =         0.00000000
  -V(xc)+E(xc)   XCENC  =      2490.12522733
  PAW double counting   =     59788.20001734   -59620.65193391
  entropy T*S    EENTRO =        -0.00000000
  eigenvalues    EBANDS =    -12341.42721307
  atomic energy  EATOM  =     56210.72393729
  Solvation  Ediel_sol  =         0.00000000
  ---------------------------------------------------
  free energy    TOTEN  =      -525.29988914 eV

  energy without entropy =     -525.29988914  energy(sigma->0) =     -525.29988914


--------------------------------------------------------------------------------------------------------




--------------------------------------- Iteration      1(  12)  ---------------------------------------


    POTLOK:  cpu time    0.3854: real time    0.3932
    SETDIJ:  cpu time    0.4192: real time    0.4194
     EDDAV:  cpu time   63.8831: real time   63.8964
       DOS:  cpu time    0.0006: real time    0.0006
    CHARGE:  cpu time    3.8855: real time    3.8859
    MIXING:  cpu time    0.0150: real time    0.0150
    --------------------------------------------
      LOOP:  cpu time   68.5887: real time   68.6105

 eigenvalue-minimisations  :  5992
 total energy-change (2. order) : 0.1427036E-01  (-0.3396429E-02)
 number of electron     640.0000004 magnetization 
 augmentation part       69.7422678 magnetization 

 Broyden mixing:
  rms(total) = 0.29587E-01    rms(broyden)= 0.29587E-01
  rms(prec ) = 0.36735E-01
  weight for this iteration     100.00

 eigenvalues of (default mixing * dielectric matrix)
  average eigenvalue GAMMA=   1.2677
  2.2340  2.2340  0.9288  0.9288  0.9212  0.9212  0.7055

 Free energy of the ion-electron system (eV)
  ---------------------------------------------------
  alpha Z        PSCENC =       784.57699423
  Ewald energy   TEWEN  =    253053.18390450
  -Hartree energ DENC   =   -300924.40374840
  -exchange      EXHF   =         0.00000000
  -V(xc)+E(xc)   XCENC  =      2490.51274547
  PAW double counting   =     59895.58844181   -59728.33178280
  entropy T*S    EENTRO =        -0.00000000
  eigenvalues    EBANDS =    -12307.13611088
  atomic energy  EATOM  =     56210.72393729
  Solvation  Ediel_sol  =         0.00000000
  ---------------------------------------------------
  free energy    TOTEN  =      -525.28561878 eV

  energy without entropy =     -525.28561878  energy(sigma->0) =     -525.28561878


--------------------------------------------------------------------------------------------------------




--------------------------------------- Iteration      1(  13)  ---------------------------------------


    POTLOK:  cpu time    0.3841: real time    0.3926
    SETDIJ:  cpu time    0.4192: real time    0.4192
     EDDAV:  cpu time   58.4440: real time   58.4557
       DOS:  cpu time    0.0006: real time    0.0006
    CHARGE:  cpu time    3.8744: real time    3.8751
    MIXING:  cpu time    0.0143: real time    0.0143
    --------------------------------------------
      LOOP:  cpu time   63.1366: real time   63.1575

 eigenvalue-minimisations  :  5376
 total energy-change (2. order) : 0.2951082E-02  (-0.9738643E-03)
 number of electron     640.0000004 magnetization 
 augmentation part       69.7472204 magnetization 

 Broyden mixing:
  rms(total) = 0.18742E-01    rms(broyden)= 0.18741E-01
  rms(prec ) = 0.25362E-01
  weight for this iteration     100.00

 eigenvalues of (default mixing * dielectric matrix)
  average eigenvalue GAMMA=   1.3053
  2.7273  1.9357  1.5224  0.9035  0.9035  0.8938  0.8938  0.6623

 Free energy of the ion-electron system (eV)
  ---------------------------------------------------
  alpha Z        PSCENC =       784.57699423
  Ewald energy   TEWEN  =    253053.18390450
  -Hartree energ DENC   =   -300946.12485336
  -exchange      EXHF   =         0.00000000
  -V(xc)+E(xc)   XCENC  =      2490.69942302
  PAW double counting   =     59860.67733018   -59693.27444018
  entropy T*S    EENTRO =        -0.00000000
  eigenvalues    EBANDS =    -12285.74496338
  atomic energy  EATOM  =     56210.72393729
  Solvation  Ediel_sol  =         0.00000000
  ---------------------------------------------------
  free energy    TOTEN  =      -525.28266770 eV

  energy without entropy =     -525.28266770  energy(sigma->0) =     -525.28266770


--------------------------------------------------------------------------------------------------------




--------------------------------------- Iteration      1(  14)  ---------------------------------------


    POTLOK:  cpu time    0.3851: real time    0.3937
    SETDIJ:  cpu time    0.4188: real time    0.4188
     EDDAV:  cpu time   59.3601: real time   59.3719
       DOS:  cpu time    0.0006: real time    0.0006
    CHARGE:  cpu time    3.8759: real time    3.8767
    MIXING:  cpu time    0.0136: real time    0.0136
    --------------------------------------------
      LOOP:  cpu time   64.0542: real time   64.0753

 eigenvalue-minimisations  :  5480
 total energy-change (2. order) : 0.1557635E-02  (-0.6251799E-03)
 number of electron     640.0000004 magnetization 
 augmentation part       69.7577616 magnetization 

 Broyden mixing:
  rms(total) = 0.17400E-01    rms(broyden)= 0.17400E-01
  rms(prec ) = 0.21116E-01
  weight for this iteration     100.00

 eigenvalues of (default mixing * dielectric matrix)
  average eigenvalue GAMMA=   1.3321
  2.5928  2.5928  1.7278  0.9397  0.9397  0.8950  0.8950  0.7029  0.7029

 Free energy of the ion-electron system (eV)
  ---------------------------------------------------
  alpha Z        PSCENC =       784.57699423
  Ewald energy   TEWEN  =    253053.18390450
  -Hartree energ DENC   =   -300970.86788992
  -exchange      EXHF   =         0.00000000
  -V(xc)+E(xc)   XCENC  =      2490.85216970
  PAW double counting   =     59864.45339361   -59697.08588595
  entropy T*S    EENTRO =        -0.00000000
  eigenvalues    EBANDS =    -12261.11773353
  atomic energy  EATOM  =     56210.72393729
  Solvation  Ediel_sol  =         0.00000000
  ---------------------------------------------------
  free energy    TOTEN  =      -525.28111006 eV

  energy without entropy =     -525.28111006  energy(sigma->0) =     -525.28111006


--------------------------------------------------------------------------------------------------------




--------------------------------------- Iteration      1(  15)  ---------------------------------------


    POTLOK:  cpu time    0.3844: real time    0.3928
    SETDIJ:  cpu time    0.4180: real time    0.4182
     EDDAV:  cpu time   59.0047: real time   59.0158
       DOS:  cpu time    0.0006: real time    0.0006
    CHARGE:  cpu time    3.8729: real time    3.8735
    MIXING:  cpu time    0.0151: real time    0.0151
    --------------------------------------------
      LOOP:  cpu time   63.6957: real time   63.7161

 eigenvalue-minimisations  :  5440
 total energy-change (2. order) :-0.1515998E-02  (-0.2244517E-03)
 number of electron     640.0000004 magnetization 
 augmentation part       69.7604503 magnetization 

 Broyden mixing:
  rms(total) = 0.10661E-01    rms(broyden)= 0.10661E-01
  rms(prec ) = 0.13688E-01
  weight for this iteration     100.00

 eigenvalues of (default mixing * dielectric matrix)
  average eigenvalue GAMMA=   1.3378
  2.7851  2.7851  1.3524  1.3524  0.9399  0.9399  0.8678  0.8678  0.8508  0.6367

 Free energy of the ion-electron system (eV)
  ---------------------------------------------------
  alpha Z        PSCENC =       784.57699423
  Ewald energy   TEWEN  =    253053.18390450
  -Hartree energ DENC   =   -300988.60437761
  -exchange      EXHF   =         0.00000000
  -V(xc)+E(xc)   XCENC  =      2490.93620763
  PAW double counting   =     59826.46604152   -59658.98120004
  entropy T*S    EENTRO =        -0.00000000
  eigenvalues    EBANDS =    -12243.58413358
  atomic energy  EATOM  =     56210.72393729
  Solvation  Ediel_sol  =         0.00000000
  ---------------------------------------------------
  free energy    TOTEN  =      -525.28262606 eV

  energy without entropy =     -525.28262606  energy(sigma->0) =     -525.28262606


--------------------------------------------------------------------------------------------------------




--------------------------------------- Iteration      1(  16)  ---------------------------------------


    POTLOK:  cpu time    0.3852: real time    0.3933
    SETDIJ:  cpu time    0.4180: real time    0.4179
     EDDAV:  cpu time   63.3478: real time   63.3616
       DOS:  cpu time    0.0006: real time    0.0006
    CHARGE:  cpu time    3.8731: real time    3.8736
    MIXING:  cpu time    0.0160: real time    0.0160
    --------------------------------------------
      LOOP:  cpu time   68.0405: real time   68.0630

 eigenvalue-minimisations  :  5944
 total energy-change (2. order) :-0.1856464E-02  (-0.1080274E-03)
 number of electron     640.0000004 magnetization 
 augmentation part       69.7585925 magnetization 

 Broyden mixing:
  rms(total) = 0.60282E-02    rms(broyden)= 0.60282E-02
  rms(prec ) = 0.84628E-02
  weight for this iteration     100.00

 eigenvalues of (default mixing * dielectric matrix)
  average eigenvalue GAMMA=   1.4010
  3.4250  2.4378  2.1633  1.2545  1.0569  0.8890  0.8890  0.9619  0.9619  0.7303
  0.6417

 Free energy of the ion-electron system (eV)
  ---------------------------------------------------
  alpha Z        PSCENC =       784.57699423
  Ewald energy   TEWEN  =    253053.18390450
  -Hartree energ DENC   =   -301000.87729010
  -exchange      EXHF   =         0.00000000
  -V(xc)+E(xc)   XCENC  =      2490.99473819
  PAW double counting   =     59815.61640738   -59648.12281808
  entropy T*S    EENTRO =        -0.00000000
  eigenvalues    EBANDS =    -12231.38035593
  atomic energy  EATOM  =     56210.72393729
  Solvation  Ediel_sol  =         0.00000000
  ---------------------------------------------------
  free energy    TOTEN  =      -525.28448253 eV

  energy without entropy =     -525.28448253  energy(sigma->0) =     -525.28448253


--------------------------------------------------------------------------------------------------------




--------------------------------------- Iteration      1(  17)  ---------------------------------------


    POTLOK:  cpu time    0.3869: real time    0.3958
    SETDIJ:  cpu time    0.4179: real time    0.4179
     EDDAV:  cpu time   56.8784: real time   56.8903
       DOS:  cpu time    0.0007: real time    0.0007
    CHARGE:  cpu time    3.8819: real time    3.8826
    MIXING:  cpu time    0.0163: real time    0.0163
    --------------------------------------------
      LOOP:  cpu time   61.5821: real time   61.6035

 eigenvalue-minimisations  :  5208
 total energy-change (2. order) :-0.3578994E-02  (-0.9049655E-04)
 number of electron     640.0000004 magnetization 
 augmentation part       69.7575661 magnetization 

 Broyden mixing:
  rms(total) = 0.35978E-02    rms(broyden)= 0.35976E-02
  rms(prec ) = 0.50843E-02
  weight for this iteration     100.00

 eigenvalues of (default mixing * dielectric matrix)
  average eigenvalue GAMMA=   1.4564
  4.1762  2.7050  2.3261  1.3759  1.0425  0.9309  0.9309  0.8969  0.8969  0.7796
  0.7796  0.6360

 Free energy of the ion-electron system (eV)
  ---------------------------------------------------
  alpha Z        PSCENC =       784.57699423
  Ewald energy   TEWEN  =    253053.18390450
  -Hartree energ DENC   =   -301014.74262392
  -exchange      EXHF   =         0.00000000
  -V(xc)+E(xc)   XCENC  =      2491.04136070
  PAW double counting   =     59814.18352856   -59646.73536009
  entropy T*S    EENTRO =        -0.00000000
  eigenvalues    EBANDS =    -12217.51980279
  atomic energy  EATOM  =     56210.72393729
  Solvation  Ediel_sol  =         0.00000000
  ---------------------------------------------------
  free energy    TOTEN  =      -525.28806152 eV

  energy without entropy =     -525.28806152  energy(sigma->0) =     -525.28806152


--------------------------------------------------------------------------------------------------------




--------------------------------------- Iteration      1(  18)  ---------------------------------------


    POTLOK:  cpu time    0.3893: real time    0.3983
    SETDIJ:  cpu time    0.4176: real time    0.4179
     EDDAV:  cpu time   55.8335: real time   55.8438
       DOS:  cpu time    0.0007: real time    0.0007
    CHARGE:  cpu time    3.8778: real time    3.8783
    MIXING:  cpu time    0.0148: real time    0.0148
    --------------------------------------------
      LOOP:  cpu time   60.5336: real time   60.5537

 eigenvalue-minimisations  :  5088
 total energy-change (2. order) :-0.2251065E-02  (-0.2890849E-04)
 number of electron     640.0000004 magnetization 
 augmentation part       69.7582353 magnetization 

 Broyden mixing:
  rms(total) = 0.25173E-02    rms(broyden)= 0.25172E-02
  rms(prec ) = 0.33259E-02
  weight for this iteration     100.00

 eigenvalues of (default mixing * dielectric matrix)
  average eigenvalue GAMMA=   1.4617
  4.5266  2.6515  2.2844  1.5608  1.0808  1.0808  0.9187  0.9187  0.8984  0.8984
  0.8598  0.6414  0.6823

 Free energy of the ion-electron system (eV)
  ---------------------------------------------------
  alpha Z        PSCENC =       784.57699423
  Ewald energy   TEWEN  =    253053.18390450
  -Hartree energ DENC   =   -301022.95744548
  -exchange      EXHF   =         0.00000000
  -V(xc)+E(xc)   XCENC  =      2491.06447788
  PAW double counting   =     59809.09659959   -59641.65427562
  entropy T*S    EENTRO =        -0.00000000
  eigenvalues    EBANDS =    -12209.32450497
  atomic energy  EATOM  =     56210.72393729
  Solvation  Ediel_sol  =         0.00000000
  ---------------------------------------------------
  free energy    TOTEN  =      -525.29031258 eV

  energy without entropy =     -525.29031258  energy(sigma->0) =     -525.29031258


--------------------------------------------------------------------------------------------------------




--------------------------------------- Iteration      1(  19)  ---------------------------------------


    POTLOK:  cpu time    0.3903: real time    0.3993
    SETDIJ:  cpu time    0.4177: real time    0.4177
     EDDAV:  cpu time   54.5420: real time   54.5538
       DOS:  cpu time    0.0006: real time    0.0006
    CHARGE:  cpu time    3.8944: real time    3.8951
    MIXING:  cpu time    0.0161: real time    0.0161
    --------------------------------------------
      LOOP:  cpu time   59.2611: real time   59.2826

 eigenvalue-minimisations  :  4936
 total energy-change (2. order) :-0.1052106E-02  (-0.1260602E-04)
 number of electron     640.0000004 magnetization 
 augmentation part       69.7581354 magnetization 

 Broyden mixing:
  rms(total) = 0.15667E-02    rms(broyden)= 0.15666E-02
  rms(prec ) = 0.22401E-02
  weight for this iteration     100.00

 eigenvalues of (default mixing * dielectric matrix)
  average eigenvalue GAMMA=   1.5409
  5.2971  2.8255  2.2047  2.0950  1.1796  1.1796  0.9939  0.9939  0.9010  0.9010
  0.8397  0.8397  0.6938  0.6288

 Free energy of the ion-electron system (eV)
  ---------------------------------------------------
  alpha Z        PSCENC =       784.57699423
  Ewald energy   TEWEN  =    253053.18390450
  -Hartree energ DENC   =   -301026.30886837
  -exchange      EXHF   =         0.00000000
  -V(xc)+E(xc)   XCENC  =      2491.07402528
  PAW double counting   =     59809.16406917   -59641.72201787
  entropy T*S    EENTRO =        -0.00000000
  eigenvalues    EBANDS =    -12205.98340892
  atomic energy  EATOM  =     56210.72393729
  Solvation  Ediel_sol  =         0.00000000
  ---------------------------------------------------
  free energy    TOTEN  =      -525.29136469 eV

  energy without entropy =     -525.29136469  energy(sigma->0) =     -525.29136469


--------------------------------------------------------------------------------------------------------




--------------------------------------- Iteration      1(  20)  ---------------------------------------


    POTLOK:  cpu time    0.3917: real time    0.3978
    SETDIJ:  cpu time    0.4185: real time    0.4186
     EDDAV:  cpu time   49.5804: real time   49.5912
       DOS:  cpu time    0.0006: real time    0.0006
    CHARGE:  cpu time    3.8869: real time    3.8875
    MIXING:  cpu time    0.0159: real time    0.0159
    --------------------------------------------
      LOOP:  cpu time   54.2940: real time   54.3116

 eigenvalue-minimisations  :  4368
 total energy-change (2. order) :-0.1299319E-02  (-0.4754250E-05)
 number of electron     640.0000004 magnetization 
 augmentation part       69.7578902 magnetization 

 Broyden mixing:
  rms(total) = 0.11179E-02    rms(broyden)= 0.11178E-02
  rms(prec ) = 0.14613E-02
  weight for this iteration     100.00

 eigenvalues of (default mixing * dielectric matrix)
  average eigenvalue GAMMA=   1.5749
  5.9607  3.0475  2.3368  2.2139  1.0386  1.0386  1.2376  0.8916  0.8916  0.9792
  0.9792  0.9458  0.7538  0.6859  0.6222

 Free energy of the ion-electron system (eV)
  ---------------------------------------------------
  alpha Z        PSCENC =       784.57699423
  Ewald energy   TEWEN  =    253053.18390450
  -Hartree energ DENC   =   -301029.91711631
  -exchange      EXHF   =         0.00000000
  -V(xc)+E(xc)   XCENC  =      2491.07923368
  PAW double counting   =     59808.88138681   -59641.44002949
  entropy T*S    EENTRO =        -0.00000000
  eigenvalues    EBANDS =    -12202.38097472
  atomic energy  EATOM  =     56210.72393729
  Solvation  Ediel_sol  =         0.00000000
  ---------------------------------------------------
  free energy    TOTEN  =      -525.29266401 eV

  energy without entropy =     -525.29266401  energy(sigma->0) =     -525.29266401


--------------------------------------------------------------------------------------------------------




--------------------------------------- Iteration      1(  21)  ---------------------------------------


    POTLOK:  cpu time    0.3927: real time    0.4008
    SETDIJ:  cpu time    0.4179: real time    0.4179
     EDDAV:  cpu time   48.7058: real time   48.7163
       DOS:  cpu time    0.0006: real time    0.0006
    CHARGE:  cpu time    3.8790: real time    3.8797
    MIXING:  cpu time    0.0179: real time    0.0179
    --------------------------------------------
      LOOP:  cpu time   53.4139: real time   53.4332

 eigenvalue-minimisations  :  4256
 total energy-change (2. order) :-0.5298230E-03  (-0.1619565E-05)
 number of electron     640.0000004 magnetization 
 augmentation part       69.7580853 magnetization 

 Broyden mixing:
  rms(total) = 0.81930E-03    rms(broyden)= 0.81914E-03
  rms(prec ) = 0.10563E-02
  weight for this iteration     100.00

 eigenvalues of (default mixing * dielectric matrix)
  average eigenvalue GAMMA=   1.5751
  6.3778  3.0023  2.4819  1.7961  1.5089  1.2215  1.2215  0.9946  0.9946  0.8927
  0.8927  0.8887  0.8164  0.8164  0.6717  0.6232

 Free energy of the ion-electron system (eV)
  ---------------------------------------------------
  alpha Z        PSCENC =       784.57699423
  Ewald energy   TEWEN  =    253053.18390450
  -Hartree energ DENC   =   -301031.32010921
  -exchange      EXHF   =         0.00000000
  -V(xc)+E(xc)   XCENC  =      2491.07977005
[...]
    -6.896993340 11.945942880  0.000000000     0.000000000  0.083710429  0.000000000
     0.000000000  0.000000000 27.810221070     0.000000000  0.000000000  0.035958003

  length of vectors
    13.793986680 13.793986676 27.810221070     0.083710429  0.083710429  0.035958003


 FORCES acting on ions
    electron-ion (+dipol)            ewald-force                    non-local-force                 convergence-correction
 -----------------------------------------------------------------------------------------------
   -.546E+02 -.321E+02 -.103E+04   0.546E+02 0.314E+02 0.102E+04   0.448E+00 0.877E+00 0.405E+01   -.119E-05 -.447E-04 -.301E-04
   -.202E+02 -.432E+02 -.118E+04   0.202E+02 0.434E+02 0.118E+04   -.404E-01 0.770E+00 0.409E+01   0.210E-04 0.923E-05 -.254E-04
   0.115E+02 -.477E+02 -.102E+04   -.129E+02 0.480E+02 0.101E+04   0.389E+00 0.104E+01 0.469E+01   -.157E-04 0.511E-04 0.421E-05
   0.104E+01 0.181E+02 -.977E+03   -.712E+00 -.176E+02 0.973E+03   -.786E+00 -.103E+01 0.380E+01   -.227E-04 0.401E-06 -.900E-05
   -.141E+02 -.396E+02 -.990E+03   0.153E+02 0.404E+02 0.987E+03   -.595E+00 -.179E+00 0.460E+01   0.366E-04 0.151E-04 -.253E-04
   -.117E+02 0.301E+02 -.111E+04   0.120E+02 -.303E+02 0.110E+04   -.992E-01 -.372E+00 0.427E+01   -.295E-04 0.314E-05 -.398E-04
   -.962E+01 0.608E+01 -.111E+04   0.110E+02 -.674E+01 0.110E+04   -.493E+00 0.377E+00 0.406E+01   -.456E-04 -.579E-04 -.272E-04
   -.300E+02 -.447E+02 -.949E+03   0.307E+02 0.454E+02 0.945E+03   0.335E+00 0.371E+00 0.424E+01   0.249E-05 -.769E-05 -.787E-05
   0.115E+02 -.106E+02 -.104E+04   -.129E+02 0.104E+02 0.104E+04   0.576E+00 0.376E+00 0.441E+01   -.518E-04 -.108E-04 -.188E-04
   0.492E+02 0.551E+02 -.106E+04   -.493E+02 -.562E+02 0.106E+04   -.529E+00 0.268E+00 0.401E+01   0.969E-05 -.517E-04 -.172E-04
   0.245E+02 0.132E+01 -.116E+04   -.254E+02 -.144E+01 0.116E+04   0.403E+00 0.201E+00 0.379E+01   0.614E-04 -.137E-04 0.721E-05
   0.197E+02 -.196E+02 -.113E+04   -.194E+02 0.197E+02 0.112E+04   -.398E+00 0.518E+00 0.397E+01   -.215E-04 0.711E-04 0.149E-04
   0.351E+02 0.184E+02 -.116E+04   -.352E+02 -.184E+02 0.116E+04   0.261E-01 -.536E+00 0.340E+01   0.140E-04 -.231E-05 0.360E-06
   -.139E+02 0.412E+02 -.112E+04   0.132E+02 -.417E+02 0.112E+04   0.796E+00 -.489E+00 0.439E+01   -.129E-04 0.134E-04 0.172E-04
   -.352E+02 0.470E+02 -.111E+04   0.359E+02 -.475E+02 0.111E+04   0.102E+00 -.675E+00 0.417E+01   0.185E-04 0.230E-04 -.184E-04
   0.367E+02 -.135E+02 -.107E+04   -.369E+02 0.148E+02 0.107E+04   -.573E+00 -.401E+00 0.442E+01   0.489E-04 -.606E-05 -.311E-04
   0.433E+02 0.157E+02 0.117E+04   -.435E+02 -.161E+02 -.117E+04   -.649E+00 -.395E+00 -.473E+01   -.127E-04 -.665E-05 0.126E-04
   -.777E+02 -.236E+02 0.110E+04   0.784E+02 0.236E+02 -.110E+04   0.679E+00 0.401E+00 -.440E+01   0.703E-05 0.114E-04 0.219E-04
   -.331E+02 0.298E+01 0.106E+04   0.332E+02 -.287E+01 -.106E+04   0.418E-01 -.224E+00 -.470E+01   0.352E-04 0.134E-04 0.347E-04
   0.179E+02 -.107E+02 0.120E+04   -.182E+02 0.108E+02 -.119E+04   -.230E+00 0.220E+00 -.390E+01   -.818E-05 -.222E-04 0.333E-04
   -.783E+00 -.217E+02 0.110E+04   0.908E+00 0.225E+02 -.110E+04   -.169E+00 0.697E-01 -.371E+01   0.107E-04 0.490E-04 0.237E-04
   -.838E+01 0.315E+02 0.112E+04   0.826E+01 -.330E+02 -.112E+04   0.666E+00 0.152E+00 -.342E+01   0.189E-04 -.409E-04 0.773E-05
   0.666E+02 0.199E+02 0.956E+03   -.675E+02 -.208E+02 -.951E+03   -.929E+00 0.337E+00 -.423E+01   -.385E-04 -.550E-04 -.278E-04
   0.179E+02 -.925E+01 0.107E+04   -.190E+02 0.976E+01 -.107E+04   0.211E+00 -.626E-01 -.466E+01   -.418E-04 0.284E-04 -.832E-05
   -.674E+01 0.677E+01 0.105E+04   0.598E+01 -.672E+01 -.105E+04   0.804E+00 -.170E+00 -.405E+01   -.280E-04 -.139E-04 -.740E-05
   -.819E+01 0.333E+02 0.106E+04   0.787E+01 -.344E+02 -.106E+04   0.576E+00 0.106E+00 -.447E+01   -.404E-04 -.366E-04 0.898E-05
   0.238E+02 -.298E+01 0.992E+03   -.228E+02 0.343E+01 -.988E+03   -.809E+00 0.193E+00 -.467E+01   0.129E-04 0.154E-04 0.996E-05
   0.689E+01 -.203E+01 0.109E+04   -.641E+01 0.290E+01 -.108E+04   -.341E+00 -.744E+00 -.357E+01   0.420E-04 0.181E-04 -.242E-04
   -.166E+02 0.166E+02 0.107E+04   0.179E+02 -.168E+02 -.106E+04   -.355E+00 0.208E+00 -.518E+01   0.450E-04 0.113E-04 0.535E-06
   0.296E+02 -.230E+02 0.990E+03   -.297E+02 0.232E+02 -.985E+03   0.108E+00 0.520E+00 -.452E+01   0.170E-04 -.965E-05 -.209E-04
   -.168E+02 0.195E+02 0.112E+04   0.168E+02 -.186E+02 -.112E+04   0.323E+00 -.797E+00 -.392E+01   -.715E-05 0.303E-04 0.242E-04
   -.431E+02 -.564E+02 0.108E+04   0.438E+02 0.569E+02 -.107E+04   0.210E+00 0.479E+00 -.443E+01   -.974E-06 0.125E-04 0.466E-04
   -.292E+02 0.209E+02 0.147E+04   0.289E+02 -.209E+02 -.147E+04   0.119E+01 -.158E+00 0.205E+01   0.126E-05 -.565E-05 0.169E-04
   -.106E+02 -.213E+02 0.143E+04   0.105E+02 0.212E+02 -.143E+04   0.401E+00 0.448E+00 0.883E+00   -.254E-05 -.101E-04 0.273E-04
   -.131E+02 0.578E+01 0.148E+04   0.131E+02 -.582E+01 -.148E+04   -.199E-02 -.663E-01 0.212E+01   -.619E-05 0.205E-05 0.458E-04
   0.238E+02 -.864E+01 0.145E+04   -.239E+02 0.869E+01 -.145E+04   0.923E-01 -.128E+00 0.233E+01   -.392E-05 0.828E-05 0.342E-04
   0.153E+02 -.115E+02 0.145E+04   -.151E+02 0.113E+02 -.145E+04   -.602E+00 0.363E+00 0.168E+01   0.580E-05 0.918E-05 0.232E-04
   0.483E+02 0.361E+01 0.144E+04   -.481E+02 -.354E+01 -.144E+04   -.105E+01 -.720E-01 0.115E+01   0.487E-05 -.542E-05 0.165E-04
   0.101E+02 0.127E+02 0.144E+04   -.100E+02 -.128E+02 -.144E+04   -.231E+00 -.103E-01 0.188E+01   0.101E-04 -.214E-05 0.292E-04
   -.216E+02 0.336E+02 0.148E+04   0.214E+02 -.332E+02 -.149E+04   0.721E+00 -.123E+01 0.182E+01   0.330E-05 0.143E-04 0.263E-04
   -.135E+02 -.199E+02 0.146E+04   0.134E+02 0.199E+02 -.146E+04   0.574E+00 0.463E+00 0.228E+01   -.446E-05 0.370E-05 0.228E-04
   0.382E+01 -.717E+01 0.148E+04   -.360E+01 0.712E+01 -.148E+04   -.386E+00 0.313E+00 0.282E+01   -.306E-05 -.174E-04 0.159E-04
   -.292E+02 0.616E+01 0.143E+04   0.289E+02 -.626E+01 -.144E+04   0.176E+01 0.123E+00 0.559E+00   -.721E-05 -.159E-05 0.162E-04
   0.471E+01 -.206E+01 0.147E+04   -.480E+01 0.214E+01 -.147E+04   0.115E+00 -.294E+00 0.218E+01   0.172E-05 0.649E-05 0.143E-04
   0.592E+01 0.174E+02 0.146E+04   -.573E+01 -.171E+02 -.147E+04   -.654E+00 -.801E+00 0.211E+01   0.434E-06 0.524E-06 0.174E-04
   -.329E+01 0.138E+02 0.148E+04   0.334E+01 -.138E+02 -.148E+04   -.162E+00 -.255E+00 0.307E+01   -.349E-05 -.129E-04 0.328E-04
   0.116E+02 -.216E+02 0.146E+04   -.117E+02 0.214E+02 -.146E+04   0.799E-01 0.961E+00 0.193E+01   0.855E-06 -.469E-05 0.311E-04
   -.226E+02 -.264E+02 0.145E+04   0.227E+02 0.262E+02 -.146E+04   -.730E-01 0.104E+01 0.136E+01   -.333E-05 0.107E-04 0.215E-04
   -.338E+02 -.175E+02 -.145E+04   0.339E+02 0.174E+02 0.145E+04   0.246E+00 0.499E+00 -.227E+01   0.146E-05 -.903E-05 -.131E-04
   -.393E+02 -.148E+02 -.148E+04   0.394E+02 0.145E+02 0.148E+04   0.165E+00 0.845E+00 -.255E+01   -.204E-05 -.104E-04 -.214E-04
   -.213E+02 -.141E+02 -.145E+04   0.210E+02 0.143E+02 0.146E+04   0.117E+01 0.695E-01 -.128E+01   -.222E-04 0.677E-05 -.119E-04
   0.495E+01 0.579E+01 -.144E+04   -.468E+01 -.562E+01 0.144E+04   -.967E+00 -.525E+00 -.153E+01   -.879E-05 -.431E-05 0.179E-05
   0.130E+02 0.118E+02 -.144E+04   -.129E+02 -.116E+02 0.144E+04   -.281E+00 -.637E+00 -.250E+01   -.227E-05 0.282E-06 -.156E-04
   -.186E+02 0.175E+02 -.144E+04   0.186E+02 -.176E+02 0.145E+04   0.257E+00 0.357E-01 -.296E+01   0.122E-04 -.162E-04 -.213E-04
   0.111E+02 0.268E+01 -.146E+04   -.110E+02 -.276E+01 0.146E+04   -.287E+00 0.440E-01 -.220E+01   0.561E-06 -.412E-05 -.259E-04
   0.191E+02 -.196E+01 -.140E+04   -.193E+02 0.230E+01 0.140E+04   -.125E-01 -.102E+01 -.114E+01   -.165E-04 0.196E-04 -.120E-04
   0.370E+02 -.440E+01 -.147E+04   -.372E+02 0.435E+01 0.147E+04   0.196E+00 0.336E+00 -.257E+01   -.773E-05 0.688E-05 -.225E-04
   0.133E+02 0.214E+02 -.144E+04   -.133E+02 -.215E+02 0.144E+04   -.387E-01 -.714E-02 -.207E+01   0.151E-05 -.270E-05 -.159E-04
   -.437E+01 0.350E+02 -.145E+04   0.428E+01 -.350E+02 0.145E+04   0.442E+00 -.250E+00 -.140E+01   0.942E-05 0.321E-05 -.172E-04
   0.845E+01 0.116E+02 -.151E+04   -.837E+01 -.113E+02 0.151E+04   -.213E+00 -.780E+00 -.315E+01   0.862E-05 0.494E-05 -.237E-04
   -.119E+01 0.148E+02 -.145E+04   0.133E+01 -.148E+02 0.146E+04   -.333E+00 -.378E+00 -.205E+01   0.896E-05 0.142E-05 -.242E-04
   0.371E+02 -.316E+02 -.150E+04   -.371E+02 0.314E+02 0.151E+04   -.316E+00 0.866E+00 -.242E+01   -.103E-04 0.398E-05 -.907E-05
   -.594E+01 -.402E+01 -.148E+04   0.594E+01 0.418E+01 0.148E+04   0.153E+00 -.558E+00 -.237E+01   0.583E-05 0.811E-05 -.184E-05
   -.349E+02 -.104E+02 -.146E+04   0.349E+02 0.104E+02 0.146E+04   0.516E+00 0.208E+00 -.116E+01   0.176E-04 -.554E-06 -.111E-04
   -.289E+02 0.119E+02 0.443E+02   0.284E+02 -.115E+02 -.444E+02   0.124E+01 -.132E+01 0.204E+00   0.269E-05 0.300E-05 -.459E-05
   0.123E+01 0.150E+02 -.147E+02   -.114E+01 -.146E+02 0.146E+02   -.346E+00 -.108E+01 0.132E+00   0.291E-06 -.872E-05 -.841E-05
   -.453E+01 0.268E+02 -.105E+02   0.472E+01 -.267E+02 0.106E+02   -.105E+01 -.845E+00 -.569E+00   -.352E-05 0.647E-06 -.265E-05
   -.147E+02 -.188E+02 0.163E+02   0.148E+02 0.183E+02 -.165E+02   -.260E+00 0.102E+01 0.247E+00   0.660E-05 -.403E-05 0.618E-05
   0.105E+01 -.824E+01 0.482E+02   -.105E+01 0.814E+01 -.482E+02   -.204E+00 0.246E+00 0.415E-01   -.197E-05 0.938E-05 -.469E-05
   0.677E+01 -.317E+02 0.217E+02   -.657E+01 0.315E+02 -.217E+02   -.539E+00 0.804E+00 0.336E+00   0.200E-05 -.126E-05 -.490E-05
   -.550E+00 0.310E+01 -.543E+01   0.817E+00 -.323E+01 0.527E+01   -.757E+00 0.572E+00 0.502E+00   0.113E-05 0.170E-05 -.893E-05
   -.186E+02 0.601E+01 0.592E+02   0.183E+02 -.583E+01 -.596E+02   0.108E+01 -.817E+00 0.112E+01   -.839E-05 -.307E-05 -.440E-05
   -.109E+02 0.155E+02 -.168E+02   0.105E+02 -.153E+02 0.171E+02   0.968E+00 -.519E+00 -.122E+01   0.206E-05 0.937E-05 0.306E-05
   0.140E+02 -.104E+02 0.950E+01   -.139E+02 0.990E+01 -.914E+01   0.113E+00 0.170E+01 -.624E+00   0.232E-05 -.433E-05 -.417E-05
   0.130E+00 0.201E+02 -.421E+02   -.396E+00 -.201E+02 0.422E+02   0.116E+01 0.348E-01 -.163E+00   -.523E-05 -.254E-05 -.302E-05
   0.145E+02 0.669E+01 -.568E+02   -.143E+02 -.668E+01 0.573E+02   -.703E+00 -.499E-01 -.153E+01   0.307E-05 -.237E-05 -.794E-05
   0.210E+02 -.795E+01 -.235E+02   -.207E+02 0.775E+01 0.236E+02   -.120E+01 0.307E+00 -.319E+00   -.464E-06 0.236E-05 -.453E-05
   0.161E+02 -.981E+01 -.293E+02   -.159E+02 0.965E+01 0.294E+02   -.488E-01 0.138E+00 -.392E+00   -.481E-05 0.164E-05 -.544E-05
   -.610E+01 -.534E+01 -.222E+02   0.618E+01 0.526E+01 0.225E+02   -.317E+00 -.973E-01 -.869E+00   0.712E-05 0.367E-05 0.611E-06
   0.511E+02 0.725E+01 -.290E+01   -.508E+02 -.718E+01 0.288E+01   -.230E+01 -.805E+00 0.153E+00   0.259E-06 0.536E-05 -.294E-05
 -----------------------------------------------------------------------------------------------
   0.992E+00 -.176E+00 0.855E+01   -.114E-12 0.462E-13 0.521E-11   -.985E+00 0.168E+00 -.855E+01   0.163E-04 0.106E-04 0.189E-04
 
 
 POSITION                                       TOTAL-FORCE (eV/Angst)
 -----------------------------------------------------------------------------------
     -0.01632      1.92877     15.11049         0.418039      0.145764     -0.081896
     -1.69914      4.79121     15.30180        -0.029910      0.928066     -0.744382
     -3.36706      7.85202     15.04099        -1.027756      1.267972      0.209699
     -5.07191     11.03354     15.03261        -0.455997     -0.528283     -0.079756
      3.42681      1.95766     14.97823         0.683183      0.582780      0.997377
      1.67644      4.99532     15.19067         0.225991     -0.531913     -0.134314
     -0.08046      7.95801     15.17335         0.834546     -0.282344     -0.161012
     -1.83217     10.86234     14.94240         1.043514      1.076497      0.411676
      6.92204      1.93941     15.06239        -0.784496      0.225459      0.992637
      5.23409      4.95927     15.08239        -0.646105     -0.757231      1.134272
      3.51783      8.03630     15.25167        -0.497035      0.078209     -0.130038
      1.85065     10.90297     15.22848        -0.112412      0.629063     -0.200409
     10.30303      2.02944     15.29875        -0.065064     -0.525110     -0.512390
      8.63187      5.16791     15.17364         0.023014     -0.995285      0.358124
      6.91442      8.09569     15.16546         0.863863     -1.195484      0.045459
      5.29432     10.92934     15.14010        -0.736862      0.940498     -0.025249
      1.77227      1.11401     12.57883        -0.867987     -0.728742     -0.423545
     -0.18210      3.90355     12.62827         1.356796      0.415509      0.915209
     -1.68158      6.92143     12.70006         0.173390     -0.117319     -0.121503
     -3.43131      9.87584     12.52444        -0.524260      0.286644     -0.207045
      5.23242      0.90277     12.58506        -0.044069      0.802895      0.426927
      3.38949      4.13109     12.54313         0.550920     -1.418662      1.240039
      1.85624      7.01786     12.78310        -1.816601     -0.580357      0.925202
      0.15331      9.91718     12.67899        -0.876560      0.449351      0.204464
      8.59864      1.03271     12.67393         0.038386     -0.120191      0.389059
      6.87189      4.06487     12.68189         0.254043     -0.975224     -0.401739
      5.16555      6.90840     12.80418         0.191593      0.647986     -0.695051
      3.45216     10.01181     12.62062         0.135363      0.130968      1.561009
     11.93830      0.97293     12.72233         0.903000     -0.078058     -0.199163
     10.27134      3.90974     12.75880         0.033018      0.671851      0.242769
      8.62843      6.94215     12.60900         0.311266      0.120806      0.260135
      6.89322      9.81650     12.73524         0.913604      1.004970     -1.387014
     -0.29251      2.01311     10.94054         0.848981     -0.153782     -0.009343
     -1.85942      4.93187     11.17001         0.283378      0.404722     -1.075744
     -3.42673      7.91238     10.91835         0.006827     -0.109621      0.009951
     -5.25948     10.96396     10.95476        -0.019932     -0.081202      0.177602
      3.53053      2.03895     11.01448        -0.454333      0.196989     -0.446727
      1.77549      5.08052     11.07096        -0.836019      0.000360     -0.791047
      0.04789      7.96896     11.06983        -0.136047     -0.015671     -0.193381
     -1.89517     11.10798     10.86743         0.547920     -0.905609     -0.162564
      6.86080      1.91970     10.94775         0.449220      0.415092      0.131782
      5.21009      4.92810     10.86506        -0.165111      0.263687      0.646715
      3.23000      8.01145     11.17800         1.473999      0.021408     -1.382993
      1.74284     11.03227     10.96654         0.019827     -0.215452      0.062040
     10.35842      2.09545     10.99532        -0.464542     -0.558121      0.067418
      8.64655      4.98610     10.83835        -0.111976     -0.239423      0.858826
      6.80734      7.71278     11.04332         0.002447      0.715453     -0.151079
      5.19120     10.66628     11.06085         0.061644      0.853976     -0.632315
      1.70105      0.87115     16.78477         0.279797      0.410729     -0.189872
      0.00356      3.80085     16.95495         0.210758      0.561487     -0.432111
     -1.87959      6.89831     16.74208         0.862810      0.215066      0.816370
     -3.30464     10.03673     16.67587        -0.696365     -0.356795      0.422193
      5.19786      1.20691     16.80322        -0.237077     -0.484904     -0.392033
      3.36727      4.03199     16.90054         0.255270     -0.094052     -0.752571
      1.70941      7.04192     16.83916        -0.189448     -0.036351      0.018695
     -0.05483     10.11200     16.58570        -0.217360     -0.678093      0.981083
      8.60731      0.93880     16.93015         0.035296      0.283841     -0.431805
      6.97086      4.08865     16.77152        -0.101418     -0.119259      0.043404
      5.16337      7.00931     16.72499         0.352282     -0.325221      0.695122
      3.55443     10.10370     17.08382        -0.134125     -0.479649     -0.943880
     12.14651      1.01765     16.81177        -0.190599     -0.319651      0.111977
     10.43482      3.81328     17.04746        -0.308742      0.631805     -0.374185
      8.63346      7.15700     16.87632         0.150223     -0.401819     -0.247487
      6.93321      9.98172     16.71767         0.458330      0.209405      0.807903
     13.69361      0.11466     13.87228         0.795137     -0.887093      0.120915
     -1.75435      3.04526     13.96053        -0.260673     -0.748024      0.067469
     -3.36187      5.99639     13.97792        -0.857010     -0.713459     -0.457335
      8.66791      8.84027     13.81782        -0.186674      0.615072      0.077869
     -3.46562     11.90854     13.78699        -0.196866      0.154752      0.119352
      1.75472      2.94293     13.80477        -0.344577      0.544019      0.262051
      0.03888      5.91943     13.94176        -0.490240      0.448817      0.341652
     -1.75954      8.99101     13.73592         0.818907     -0.633412      0.721712
      6.87533      0.00888     13.91022         0.643419     -0.298107     -0.946647
      5.19583      2.88926     13.87446         0.175980      1.229628     -0.260246
      3.40397      6.00348     13.94513         0.895065     -0.009776     -0.068753
      1.83755      8.98985     14.07753        -0.510421     -0.039714     -1.054506
      3.52676     11.89920     13.95165        -0.850446      0.101998     -0.211472
      8.64623      2.98699     13.95987         0.060634     -0.017695     -0.276491
      6.92129      5.96626     13.96386        -0.231711     -0.185839     -0.614594
      5.37985      8.99478     13.95346        -1.964848     -0.741603      0.127528
 -----------------------------------------------------------------------------------
    total drift:                                0.006644     -0.008030      0.005411


--------------------------------------------------------------------------------------------------------



  FREE ENERGIE OF THE ION-ELECTRON SYSTEM (eV)
  ---------------------------------------------------
  free  energy   TOTEN  =      -525.29455027 eV

  energy  without entropy=     -525.29455027  energy(sigma->0) =     -525.29455027
 


--------------------------------------------------------------------------------------------------------


    POTLOK:  cpu time    0.8091: real time    0.8091


--------------------------------------------------------------------------------------------------------


     LOOP+:  cpu time 1898.7820: real time 1899.2360
    4ORBIT:  cpu time    0.0000: real time    0.0000

 total amount of memory used by VASP MPI-rank0   253941. kBytes
=======================================================================

   base      :      30000. kBytes
   nonlr-proj:      18757. kBytes
   fftplans  :      72602. kBytes
   grid      :      41267. kBytes
   one-center:        108. kBytes
   wavefun   :      91207. kBytes
 
  
  
 General timing and accounting informations for this job:
 ========================================================
  
                  Total CPU time used (sec):     1929.547
                            User time (sec):     1924.328
                          System time (sec):        5.220
                         Elapsed time (sec):     1930.150
  
                   Maximum memory used (kb):      457444.
                   Average memory used (kb):           0.
  
                          Minor page faults:       426629
                          Major page faults:            0
                 Voluntary context switches:         1830
