 running on   48 total cores
 distrk:  each k-point on   48 cores,    1 groups
 distr:  one band on   12 cores,    4 groups
 using from now: INCAR     
 vasp.5.4.4.18Apr17-6-g9f103f2a35 (build Mar 16 2023 09:39:13) complex          
  
 POSCAR found type information on POSCAR  Ca Si O 
 POSCAR found :  3 types and     135 ions
 scaLAPACK is switched off
 LDA part: xc-table for Pade appr. of Perdew
 generate k-points for:    2    2    2
 POSCAR, INCAR and KPOINTS ok, starting setup
 FFT: planning ...
 WAVECAR not read
 entering main loop
       N       E                     dE             d eps       ncg     rms          rms(c)
DAV:   1     0.928191862901E+04    0.92819E+04   -0.46255E+05  8320   0.174E+03
DAV:   2    -0.281884062647E+01   -0.92847E+04   -0.90092E+04 10208   0.453E+02
DAV:   3    -0.103198302382E+04   -0.10292E+04   -0.10228E+04 10264   0.153E+02
DAV:   4    -0.107840572448E+04   -0.46423E+02   -0.46247E+02 10864   0.318E+01
DAV:   5    -0.108512028440E+04   -0.67146E+01   -0.67114E+01 15456   0.718E+00    0.863E+01
DAV:   6    -0.919860826626E+03    0.16526E+03   -0.81691E+02 10424   0.424E+01    0.375E+01
DAV:   7    -0.920493007333E+03   -0.63218E+00   -0.80141E+01 10768   0.139E+01    0.191E+01
DAV:   8    -0.919548559990E+03    0.94445E+00   -0.12817E+01 11224   0.617E+00    0.156E+01
DAV:   9    -0.919145252169E+03    0.40331E+00   -0.10121E+01 11408   0.339E+00    0.803E+00
DAV:  10    -0.918421301522E+03    0.72395E+00   -0.28192E+00 11184   0.276E+00    0.423E+00
DAV:  11    -0.918287385100E+03    0.13392E+00   -0.10492E+00 10800   0.165E+00    0.554E+00
DAV:  12    -0.918231370233E+03    0.56015E-01   -0.20329E-01 10456   0.607E-01    0.230E+00
DAV:  13    -0.918170615449E+03    0.60755E-01   -0.53912E-02 10208   0.396E-01    0.187E+00
DAV:  14    -0.918132940479E+03    0.37675E-01   -0.18670E-01 10680   0.100E+00    0.657E+00
DAV:  15    -0.918076062096E+03    0.56878E-01   -0.84405E-02  9896   0.405E-01    0.134E+00
DAV:  16    -0.918077819407E+03   -0.17573E-02   -0.19049E-02 10928   0.209E-01    0.432E-01
DAV:  17    -0.918080572795E+03   -0.27534E-02   -0.94532E-03  9616   0.220E-01    0.264E-01
DAV:  18    -0.918081110016E+03   -0.53722E-03   -0.43605E-03 11176   0.109E-01    0.183E-01
DAV:  19    -0.918081422591E+03   -0.31257E-03   -0.12796E-03 10584   0.599E-02    0.162E-01
DAV:  20    -0.918081408159E+03    0.14432E-04   -0.61552E-04  9840   0.613E-02    0.887E-02
DAV:  21    -0.918081409673E+03   -0.15144E-05   -0.37621E-04 11056   0.367E-02    0.442E-02
DAV:  22    -0.918081426977E+03   -0.17303E-04   -0.13225E-04 10736   0.191E-02    0.364E-02
DAV:  23    -0.918081426098E+03    0.87840E-06   -0.25998E-05 10280   0.939E-03    0.239E-02
DAV:  24    -0.918081425986E+03    0.11231E-06   -0.98172E-06  8896   0.524E-03
   1 F= -.91808143E+03 E0= -.91807513E+03  d E =-.125870E-01
