 vasp.5.4.4.18Apr17-6-g9f103f2a35 (build Mar 16 2023 09:39:13) complex          
  
 executed on             LinuxIFC date 2024.04.30  16:24:33
 running on   48 total cores
 distrk:  each k-point on   48 cores,    1 groups
 distr:  one band on NCORES_PER_BAND=  12 cores,    4 groups


--------------------------------------------------------------------------------------------------------


 INCAR:
 POTCAR:    PAW_PBE Ca_sv 06Sep2000               
 POTCAR:    PAW_PBE Si 05Jan2001                  
 POTCAR:    PAW_PBE O 08Apr2002                   
 POTCAR:    PAW_PBE Ca_sv 06Sep2000               
   SHA256 =  a47365830e737f14e0e6c5cf1ed81b94e081eecf0a33df105380881bc9da05d5 Ca
   COPYR  = (c) Copyright 06Sep2000 Georg Kresse                                
   COPYR  = This file is part of the software VASP. Any use, copying, and all ot
   COPYR  = If you do not have a valid VASP license, you may not use, copy or di
   VRHFIN =Ca: 3s3p4s                                                           
   LEXCH  = PE                                                                  
   EATOM  =  1006.0909 eV,   73.9456 Ry                                         
                                                                                
   TITEL  = PAW_PBE Ca_sv 06Sep2000                                             
   LULTRA =        F    use ultrasoft PP ?                                      
   IUNSCR =        1    unscreen: 0-lin 1-nonlin 2-no                           
   RPACOR =    2.000    partial core radius                                     
   POMASS =   40.078; ZVAL   =   10.000    mass and valenz                      
   RCORE  =    2.300    outmost cutoff radius                                   
   RWIGS  =    2.500; RWIGS  =    1.323    wigner-seitz radius (au A)           
   ENMAX  =  266.622; ENMIN  =  199.967 eV                                      
   RCLOC  =    1.808    cutoff for local pot                                    
   LCOR   =        T    correct aug charges                                     
   LPAW   =        T    paw PP                                                  
   EAUG   =  420.852                                                            
   RMAX   =    2.359    core radius for proj-oper                               
   RAUG   =    1.300    factor for augmentation sphere                          
   RDEP   =    2.392    radius for radial grids                                 
   RDEPT  =    1.987    core radius for aug-charge                              
                                                                                
   Atomic configuration                                                         
    7 entries                                                                   
     n  l   j            E        occ.                                          
     1  0  0.50     -3949.1705   2.0000                                         
     2  0  0.50      -414.3434   2.0000                                         
     2  1  1.50      -334.7047   6.0000                                         
     3  0  0.50       -47.0896   2.0000                                         
     4  0  0.50        -3.7663   2.0000                                         
     3  1  1.50       -28.0061   6.0000                                         
     3  2  1.50        -4.0817   0.0000                                         
   Description                                                                  
     l       E           TYP  RCUT    TYP  RCUT                                 
     0    -47.0896403     23  2.300                                             
     0     -3.7663320     23  2.300                                             
     1    -28.0060855     23  2.300                                             
     1      6.8029130     23  2.300                                             
     2     -4.0817478     23  2.300                                             
     2      0.4464412     23  2.300                                             
  local pseudopotential read in
  partial core-charges read in
  partial kinetic energy density read in
  atomic valenz-charges read in
  non local Contribution for L=           0  read in
    real space projection operators read in
  non local Contribution for L=           0  read in
    real space projection operators read in
  non local Contribution for L=           1  read in
    real space projection operators read in
  non local Contribution for L=           1  read in
    real space projection operators read in
  non local Contribution for L=           2  read in
    real space projection operators read in
  non local Contribution for L=           2  read in
    real space projection operators read in
    PAW grid and wavefunctions read in
 
   number of l-projection  operators is LMAX  =           6
   number of lm-projection operators is LMMAX =          18
 
 POTCAR:    PAW_PBE Si 05Jan2001                  
   SHA256 =  79d9987ad8750f624c4d6acb2a16d13abf6a777132adc04dc6c8399be72b42bb Si
   COPYR  = (c) Copyright 05Jan2001 Georg Kresse                                
   COPYR  = This file is part of the software VASP. Any use, copying, and all ot
   COPYR  = If you do not have a valid VASP license, you may not use, copy or di
   VRHFIN =Si: s2p2                                                             
   LEXCH  = PE                                                                  
   EATOM  =   103.0669 eV,    7.5752 Ry                                         
                                                                                
   TITEL  = PAW_PBE Si 05Jan2001                                                
   LULTRA =        F    use ultrasoft PP ?                                      
   IUNSCR =        1    unscreen: 0-lin 1-nonlin 2-no                           
   RPACOR =    1.500    partial core radius                                     
   POMASS =   28.085; ZVAL   =    4.000    mass and valenz                      
   RCORE  =    1.900    outmost cutoff radius                                   
   RWIGS  =    2.480; RWIGS  =    1.312    wigner-seitz radius (au A)           
   ENMAX  =  245.345; ENMIN  =  184.009 eV                                      
   ICORE  =        2    local potential                                         
   LCOR   =        T    correct aug charges                                     
   LPAW   =        T    paw PP                                                  
   EAUG   =  322.069                                                            
   DEXC   =    0.000                                                            
   RMAX   =    1.950    core radius for proj-oper                               
   RAUG   =    1.300    factor for augmentation sphere                          
   RDEP   =    1.993    radius for radial grids                                 
   RDEPT  =    1.837    core radius for aug-charge                              
                                                                                
   Atomic configuration                                                         
    6 entries                                                                   
     n  l   j            E        occ.                                          
     1  0  0.50     -1785.8828   2.0000                                         
     2  0  0.50      -139.4969   2.0000                                         
     2  1  1.50       -95.5546   6.0000                                         
     3  0  0.50       -10.8127   2.0000                                         
     3  1  0.50        -4.0811   2.0000                                         
     3  2  1.50        -4.0817   0.0000                                         
   Description                                                                  
     l       E           TYP  RCUT    TYP  RCUT                                 
     0    -10.8127223     23  1.900                                             
     0     -7.6451159     23  1.900                                             
     1     -4.0811372     23  1.900                                             
     1      2.4879257     23  1.900                                             
     2     -4.0817478      7  1.900                                             
  local pseudopotential read in
  partial core-charges read in
  partial kinetic energy density read in
  atomic valenz-charges read in
  non local Contribution for L=           0  read in
    real space projection operators read in
  non local Contribution for L=           0  read in
    real space projection operators read in
  non local Contribution for L=           1  read in
    real space projection operators read in
  non local Contribution for L=           1  read in
    real space projection operators read in
    PAW grid and wavefunctions read in
 
   number of l-projection  operators is LMAX  =           4
   number of lm-projection operators is LMMAX =           8
 
 POTCAR:    PAW_PBE O 08Apr2002                   
   SHA256 =  818f92134a0a090dccd8ba1447fa70422a3b330e708bb4f08108d8ae51209ddf O/
   COPYR  = (c) Copyright 08Apr2002 Georg Kresse                                
   COPYR  = This file is part of the software VASP. Any use, copying, and all ot
   COPYR  = If you do not have a valid VASP license, you may not use, copy or di
   VRHFIN =O: s2p4                                                              
   LEXCH  = PE                                                                  
   EATOM  =   432.3788 eV,   31.7789 Ry                                         
                                                                                
   TITEL  = PAW_PBE O 08Apr2002                                                 
   LULTRA =        F    use ultrasoft PP ?                                      
   IUNSCR =        1    unscreen: 0-lin 1-nonlin 2-no                           
   RPACOR =    1.200    partial core radius                                     
   POMASS =   16.000; ZVAL   =    6.000    mass and valenz                      
   RCORE  =    1.520    outmost cutoff radius                                   
   RWIGS  =    1.550; RWIGS  =    0.820    wigner-seitz radius (au A)           
   ENMAX  =  400.000; ENMIN  =  300.000 eV                                      
   ICORE  =        2    local potential                                         
   LCOR   =        T    correct aug charges                                     
   LPAW   =        T    paw PP                                                  
   EAUG   =  605.392                                                            
   DEXC   =    0.000                                                            
   RMAX   =    1.553    core radius for proj-oper                               
   RAUG   =    1.300    factor for augmentation sphere                          
   RDEP   =    1.550    radius for radial grids                                 
   RDEPT  =    1.329    core radius for aug-charge                              
                                                                                
   Atomic configuration                                                         
    4 entries                                                                   
     n  l   j            E        occ.                                          
     1  0  0.50      -514.6923   2.0000                                         
     2  0  0.50       -23.9615   2.0000                                         
     2  1  0.50        -9.0305   4.0000                                         
     3  2  1.50        -9.5241   0.0000                                         
   Description                                                                  
     l       E           TYP  RCUT    TYP  RCUT                                 
     0    -23.9615318     23  1.200                                             
     0     -9.5240782     23  1.200                                             
     1     -9.0304911     23  1.520                                             
     1      8.1634956     23  1.520                                             
     2     -9.5240782      7  1.500                                             
  local pseudopotential read in
  partial core-charges read in
  partial kinetic energy density read in
  kinetic energy density of atom read in
  atomic valenz-charges read in
  non local Contribution for L=           0  read in
    real space projection operators read in
  non local Contribution for L=           0  read in
    real space projection operators read in
  non local Contribution for L=           1  read in
    real space projection operators read in
  non local Contribution for L=           1  read in
    real space projection operators read in
    PAW grid and wavefunctions read in
 
   number of l-projection  operators is LMAX  =           4
   number of lm-projection operators is LMMAX =           8
 
 Optimization of the real space projectors (new method)

 maximal supplied QI-value         = 16.25
 optimisation between [QCUT,QGAM] = [ 12.51, 25.03] = [ 43.85,175.40] Ry 
 Optimized for a Real-space Cutoff    1.47 Angstroem

   l    n(q)    QCUT    max X(q) W(low)/X(q) W(high)/X(q)  e(spline) 
   0     11    12.514    11.817    0.25E-04    0.32E-05    0.87E-07
   0     11    12.514     8.461    0.39E-04    0.59E-05    0.18E-06
   1     11    12.514     3.957    0.97E-05    0.57E-05    0.28E-07
   1     11    12.514     4.314    0.42E-04    0.14E-04    0.23E-06
   2     10    12.514    14.565    0.79E-04    0.50E-03    0.16E-05
   2     10    12.514    14.552    0.75E-04    0.48E-03    0.15E-05
 Optimization of the real space projectors (new method)

 maximal supplied QI-value         = 19.84
 optimisation between [QCUT,QGAM] = [ 12.50, 25.00] = [ 43.76,175.03] Ry 
 Optimized for a Real-space Cutoff    1.16 Angstroem

   l    n(q)    QCUT    max X(q) W(low)/X(q) W(high)/X(q)  e(spline) 
   0      9    12.501   159.560    0.10E-03    0.83E-04    0.71E-07
   0      9    12.501   115.863    0.99E-04    0.81E-04    0.70E-07
   1      8    12.501    88.339    0.20E-03    0.25E-03    0.76E-07
   1      8    12.501    48.592    0.20E-03    0.24E-03    0.75E-07
 Optimization of the real space projectors (new method)

 maximal supplied QI-value         = 24.76
 optimisation between [QCUT,QGAM] = [ 12.38, 25.00] = [ 42.90,175.06] Ry 
 Optimized for a Real-space Cutoff    1.16 Angstroem

   l    n(q)    QCUT    max X(q) W(low)/X(q) W(high)/X(q)  e(spline) 
   0      9    12.378    20.381    0.16E-03    0.67E-05    0.31E-06
   0      9    12.378    15.268    0.17E-03    0.81E-05    0.33E-06
   1      8    12.378     5.964    0.20E-03    0.16E-03    0.30E-06
   1      8    12.378     5.382    0.18E-03    0.14E-03    0.26E-06
  PAW_PBE Ca_sv 06Sep2000               :
 energy of atom  1       EATOM=-1006.0909
 kinetic energy error for atom=    0.0012 (will be added to EATOM!!)
  PAW_PBE Si 05Jan2001                  :
 energy of atom  2       EATOM= -103.0669
 kinetic energy error for atom=    0.0003 (will be added to EATOM!!)
  PAW_PBE O 08Apr2002                   :
 energy of atom  3       EATOM= -432.3788
 kinetic energy error for atom=    0.0168 (will be added to EATOM!!)
 
 
 POSCAR: Ca Si  O                                
  positions in direct lattice
  No initial velocities read in
 exchange correlation table for  LEXCH =        8
   RHO(1)=    0.500       N(1)  =     2000
   RHO(2)=  100.500       N(2)  =     4000
 


--------------------------------------------------------------------------------------------------------


 ion  position               nearest neighbor table
   1  0.605  0.426  0.456- 111 2.20  88 2.26 100 2.34  97 2.46  21 2.95  47 3.00  33 3.04
   2  0.836  0.824  0.411-  96 2.30  83 2.41
   3  0.042  0.368  0.983-  80 1.92  66 2.49  70 2.54  44 3.14
   4  0.535  0.640  0.864- 125 2.11 134 2.14 126 2.42 116 2.49  36 2.99
   5  0.023  0.579  0.218-  64 2.08  66 2.21  53 2.88
   6  0.916  0.590  0.519- 130 1.98  96 2.07  92 2.23 122 2.49  68 2.55  50 2.93  47 3.11
   7  0.165  0.902  0.934-  59 2.35  56 2.35 118 2.42 120 2.42 113 2.43  69 2.52  43 2.93  45 3.00

   8  0.268  0.124  0.328- 127 2.17  61 2.18  93 2.19
   9  0.300  0.115  0.698-  84 1.88 101 2.23  56 2.48  49 2.92
  10  0.455  0.859  0.287-  72 2.02 129 2.11  81 2.35 108 2.43  48 3.08  33 3.15
  11  0.911  0.584  0.942-  66 2.02 117 2.18 103 2.24  99 2.33  31 2.71  53 3.13
  12  0.760  0.430  0.705-  77 2.05 122 2.44  14 3.14
  13  0.195  0.844  0.269-  81 2.02 129 2.29  58 2.29  61 2.46  50 3.02  46 3.14
  14  0.574  0.267  0.747- 104 2.09 109 2.19  94 2.21 102 2.29  88 2.32  37 2.83  36 2.86  12 3.14

  15  0.341  0.190  0.981- 120 2.22 106 2.51 105 2.52 101 2.55
  16  0.296  0.557  0.389- 111 2.16  65 2.33 121 2.33  33 2.88
  17  0.337  0.533  0.068- 105 2.07  95 2.11  86 2.20  67 2.55  28 2.68
  18  0.977  0.133  0.314- 132 2.28  93 2.45  34 3.02
  19  0.609  0.615  0.131-  85 2.08 125 2.16 108 2.29 114 2.45
  20  0.620  0.954  0.545-  75 1.86 115 2.30
  21  0.519  0.318  0.265- 100 2.18 106 2.31 112 2.37  67 2.41   1 2.95  35 3.12
  22  0.898  0.753  0.717-  99 2.12 130 2.46 133 2.56  51 2.94
  23  0.811  0.282  0.192- 132 2.19  90 2.34  44 3.10
  24  0.091  0.384  0.406-  63 1.89 121 2.49
  25  0.921  0.877  0.119-  69 2.14  83 2.21 113 2.38 117 2.51
  26  0.829  0.140  0.740- 109 2.23 133 2.42 102 2.46  51 2.99
  27  0.418  0.744  0.611-  87 2.15 126 2.17  74 2.30  65 2.35  38 3.05  43 3.12  33 3.15
  28  0.249  0.356  0.148-  98 1.66 127 1.70  67 1.73 105 1.76  17 2.68
  29  0.689  0.173  0.397-  75 1.61 100 1.62  55 1.79  89 1.79  52 2.86  32 3.08
  30  0.451  0.224  0.525-  88 1.58 112 1.59  84 1.71  60 2.02
  31  0.757  0.734  0.959-  71 1.57 125 1.69 117 1.75  99 1.80  11 2.71  41 2.75
  32  0.700  0.977  0.250-  72 1.59  89 1.63  83 1.64 135 1.65  29 3.08  41 3.12
  33  0.509  0.642  0.401-  65 1.60 108 1.67 111 1.74  62 1.75  16 2.88   1 3.04  27 3.15  10 3.15

  34  0.082  0.096  0.528-  76 1.54  93 1.56  82 1.56 107 1.73  18 3.02
  35  0.559  0.329  0.020- 114 1.63 106 1.67  73 1.81  94 2.21  42 2.92  21 3.12
  36  0.430  0.438  0.793- 134 1.57 128 1.60  94 1.70 116 1.77  14 2.86   4 2.99  39 3.13
  37  0.548  0.053  0.814- 102 1.65  79 1.69 104 1.69  91 1.74  14 2.83
  38  0.658  0.705  0.617- 126 1.60 115 1.66 122 1.77  62 1.81  27 3.05
  39  0.256  0.387  0.621- 128 1.53 121 1.61  78 1.67  60 1.75  40 2.96  36 3.13
  40  0.073  0.486  0.734-  80 1.66  92 1.73 131 1.80  78 1.87  39 2.96
  41  0.647  0.915  0.015- 135 1.54 123 1.73  71 1.78  91 1.82  31 2.75  32 3.12
  42  0.777  0.319  0.936- 103 1.57 109 1.68  90 1.69  73 1.78  35 2.92
  43  0.365  0.876  0.815-  56 1.59 118 1.69  79 1.73  87 1.90   7 2.93  27 3.12  48 3.14
  44  0.941  0.144  0.034- 132 1.56 124 1.69  90 1.70 110 1.70  69 2.33  45 2.73  23 3.10   3 3.14

  45  0.131  0.065  0.106-  69 1.60 120 1.62 124 1.63  61 1.74  44 2.73   7 3.00
  46  0.252  0.902  0.506- 119 1.51  74 1.67  81 1.79  76 1.84  50 3.00  13 3.14
  47  0.782  0.517  0.322-  97 1.64  64 1.72  85 1.85  96 1.87   1 3.00   6 3.11
  48  0.421  0.806  0.050- 123 1.61  95 1.61 118 1.66 129 1.81  10 3.08  43 3.14
  49  0.100  0.213  0.768- 101 1.56  70 1.64 107 1.64  78 2.17   9 2.92
  50  0.075  0.749  0.455-  68 1.61 130 1.61  58 1.68 119 1.77   6 2.93  46 3.00  13 3.02
  51  0.916  0.947  0.849-  59 1.48 133 1.64 110 1.70  22 2.94  26 2.99
  52  0.838  0.324  0.481-  55 1.49  63 1.52  77 1.57  97 1.62  29 2.86
  53  0.125  0.673  0.034-  86 1.59 113 1.60  57 1.75  66 1.86   5 2.88  11 3.13
  54  0.258  0.641  0.813- 131 1.63  57 1.68  87 1.70 116 1.78
  55  0.820  0.227  0.416-  52 1.49  29 1.79
  56  0.262  0.938  0.777-  43 1.59   7 2.35   9 2.48
  57  0.176  0.693  0.906-  54 1.68  53 1.75
  58  0.032  0.798  0.338-  50 1.68  13 2.29
  59  0.019  0.898  0.818-  51 1.48   7 2.35
  60  0.301  0.269  0.560-  39 1.75  30 2.02
  61  0.148  0.033  0.240-  45 1.74   8 2.18  13 2.46
  62  0.590  0.712  0.490-  33 1.75  38 1.81
  63  0.958  0.338  0.461-  52 1.52  24 1.89
  64  0.897  0.478  0.259-  47 1.72   5 2.08
  65  0.402  0.705  0.428-  33 1.60  16 2.33  27 2.35
  66  0.033  0.556  0.043-  53 1.86  11 2.02   5 2.21   3 2.49
  67  0.352  0.405  0.225-  28 1.73  21 2.41  17 2.55
  68  0.085  0.629  0.412-  50 1.61   6 2.55
  69  0.039  0.988  0.064-  45 1.60  25 2.14  44 2.33   7 2.52
  70  0.990  0.242  0.833-  49 1.64   3 2.54
  71  0.772  0.857  0.980-  31 1.57  41 1.78
  72  0.595  0.937  0.310-  32 1.59  10 2.02
  73  0.683  0.256  0.023-  42 1.78  35 1.81
  74  0.377  0.913  0.551-  46 1.67  27 2.30
  75  0.634  0.076  0.461-  29 1.61  20 1.86
  76  0.160  0.005  0.558-  34 1.54  46 1.84
  77  0.780  0.314  0.591-  52 1.57  12 2.05
  78  0.154  0.364  0.703-  39 1.67  40 1.87  49 2.17
  79  0.492  0.931  0.805-  37 1.69  43 1.73
  80  0.060  0.463  0.864-  40 1.66   3 1.92
  81  0.297  0.916  0.371-  46 1.79  13 2.02  10 2.35
  82  0.972  0.041  0.512-  34 1.56
  83  0.824  0.935  0.255-  32 1.64  25 2.21   2 2.41
  84  0.407  0.114  0.593-  30 1.71   9 1.88
  85  0.645  0.530  0.270-  47 1.85  19 2.08
  86  0.208  0.637  0.123-  53 1.59  17 2.20
  87  0.345  0.734  0.766-  54 1.70  43 1.90  27 2.15
  88  0.530  0.310  0.572-  30 1.58   1 2.26  14 2.32
  89  0.688  0.105  0.271-  32 1.63  29 1.79
  90  0.864  0.254  0.016-  42 1.69  44 1.70  23 2.34
  91  0.644  0.009  0.904-  37 1.74  41 1.82
  92  0.951  0.515  0.676-  40 1.73   6 2.23
  93  0.131  0.159  0.432-  34 1.56   8 2.19  18 2.45
  94  0.466  0.332  0.870-  36 1.70  35 2.21  14 2.21
  95  0.414  0.679  0.031-  48 1.61  17 2.11
  96  0.833  0.642  0.386-  47 1.87   6 2.07   2 2.30
  97  0.798  0.429  0.418-  52 1.62  47 1.64   1 2.46
  98  0.125  0.396  0.174-  28 1.66
  99  0.796  0.681  0.832-  31 1.80  22 2.12  11 2.33
 100  0.671  0.291  0.345-  29 1.62  21 2.18   1 2.34
 101  0.209  0.197  0.827-  49 1.56   9 2.23  15 2.55
 102  0.637  0.097  0.728-  37 1.65  14 2.29  26 2.46
 103  0.815  0.436  0.910-  42 1.57  11 2.24
 104  0.467  0.162  0.820-  37 1.69  14 2.09
 105  0.293  0.382  0.017-  28 1.76  17 2.07  15 2.52
 106  0.494  0.244  0.099-  35 1.67  21 2.31  15 2.51
 107  0.088  0.170  0.645-  49 1.64  34 1.73
 108  0.506  0.672  0.271-  33 1.67  19 2.29  10 2.43
 109  0.732  0.263  0.823-  42 1.68  14 2.19  26 2.23
 110  0.928  0.045  0.941-  51 1.70  44 1.70
 111  0.461  0.511  0.404-  33 1.74  16 2.16   1 2.20
 112  0.467  0.198  0.402-  30 1.59  21 2.37
 113  0.079  0.788  0.066-  53 1.60  25 2.38   7 2.43
 114  0.573  0.459  0.017-  35 1.63  19 2.45
 115  0.730  0.813  0.588-  38 1.66  20 2.30
 116  0.360  0.548  0.848-  36 1.77  54 1.78   4 2.49
 117  0.852  0.701  0.056-  31 1.75  11 2.18  25 2.51
 118  0.353  0.858  0.948-  48 1.66  43 1.69   7 2.42
 119  0.193  0.797  0.516-  46 1.51  50 1.77
 120  0.235  0.056  0.029-  45 1.62  15 2.22   7 2.42
 121  0.215  0.471  0.534-  39 1.61  16 2.33  24 2.49
 122  0.731  0.587  0.594-  38 1.77  12 2.44   6 2.49
 123  0.513  0.895  0.044-  48 1.61  41 1.73
 124  0.069  0.172  0.066-  45 1.63  44 1.69
 125  0.629  0.708  0.988-  31 1.69   4 2.11  19 2.16
 126  0.566  0.736  0.700-  38 1.60  27 2.17   4 2.42
 127  0.249  0.227  0.189-  28 1.70   8 2.17
 128  0.337  0.414  0.708-  39 1.53  36 1.60
 129  0.343  0.852  0.162-  48 1.81  10 2.11  13 2.29
 130  0.979  0.734  0.539-  50 1.61   6 1.98  22 2.46
 131  0.169  0.593  0.730-  54 1.63  40 1.80
 132  0.898  0.136  0.151-  44 1.56  23 2.19  18 2.28
 133  0.839  0.947  0.743-  51 1.64  26 2.42  22 2.56
 134  0.545  0.487  0.789-  36 1.57   4 2.14
 135  0.674  0.971  0.120-  41 1.54  32 1.65
 

IMPORTANT INFORMATION: All symmetrisations will be switched off!
NOSYMM: (Re-)initialisation of all symmetry stuff for point group C_1.

 
 

Automatic generation of k-mesh.
 generate k-points for:    2    2    2
Space group operators:
 irot       det(A)        alpha          n_x          n_y          n_z        tau_x        tau_y        tau_z
    1     1.000000     0.000001     1.000000     0.000000     0.000000     0.000000     0.000000     0.000000
 
 Subroutine IBZKPT returns following result:
 ===========================================
 
 Found      8 irreducible k-points:
 
 Following reciprocal coordinates:
            Coordinates               Weight
  0.000000  0.000000  0.000000      1.000000
  0.500000  0.000000  0.000000      1.000000
  0.000000  0.500000  0.000000      1.000000
  0.500000  0.500000  0.000000      1.000000
  0.000000  0.000000  0.500000      1.000000
  0.500000  0.000000  0.500000      1.000000
  0.000000  0.500000  0.500000      1.000000
  0.500000  0.500000  0.500000      1.000000
 
 Following cartesian coordinates:
            Coordinates               Weight
  0.000000  0.000000  0.000000      1.000000
  0.039917  0.000000  0.000000      1.000000
  0.000000  0.039917  0.000000      1.000000
  0.039917  0.039917  0.000000      1.000000
  0.000000  0.000000  0.039917      1.000000
  0.039917  0.000000  0.039917      1.000000
  0.000000  0.039917  0.039917      1.000000
  0.039917  0.039917  0.039917      1.000000
 


--------------------------------------------------------------------------------------------------------




 Dimension of arrays:
   k-points           NKPTS =      8   k-points in BZ     NKDIM =      8   number of bands    NBANDS=    520
   number of dos      NEDOS =    301   number of ions     NIONS =    135
   non local maximal  LDIM  =      6   non local SUM 2l+1 LMDIM =     18
   total plane-waves  NPLWV = ******
   max r-space proj   IRMAX =   6830   max aug-charges    IRDMAX= 194386
   dimension x,y,z NGX =   100 NGY =  100 NGZ =  100
   dimension x,y,z NGXF=   200 NGYF=  200 NGZF=  200
   support grid    NGXF=   400 NGYF=  400 NGZF=  400
   ions per type =              27  27  81
   NGX,Y,Z   is equivalent  to a cutoff of  13.27, 13.27, 13.27 a.u.
   NGXF,Y,Z  is equivalent  to a cutoff of  26.54, 26.54, 26.54 a.u.

 SYSTEM =  unknown system                          
 POSCAR =  Ca Si  O                                

 Startparameter for this run:
   NWRITE =      2    write-flag & timer
   PREC   = a         normal or accurate (medium, high low for compatibility)
   ISTART =      0    job   : 0-new  1-cont  2-samecut
   ICHARG =      2    charge: 1-file 2-atom 10-const
   ISPIN  =      1    spin polarized calculation?
   LNONCOLLINEAR =      F non collinear calculations
   LSORBIT =      F    spin-orbit coupling
   INIWAV =      1    electr: 0-lowe 1-rand  2-diag
   LASPH  =      F    aspherical Exc in radial PAW
   METAGGA=      F    non-selfconsistent MetaGGA calc.

 Electronic Relaxation 1
   ENCUT  =  600.0 eV  44.10 Ry    6.64 a.u.  25.02 25.02 25.02*2*pi/ulx,y,z
   ENINI  =  600.0     initial cutoff
   ENAUG  =  605.4 eV  augmentation charge cutoff
   NELM   =     60;   NELMIN=  2; NELMDL= -5     # of ELM steps 
   EDIFF  = 0.1E-05   stopping-criterion for ELM
   LREAL  =      T    real-space projection
   NLSPLINE    = F    spline interpolate recip. space projectors
   LCOMPAT=      F    compatible to vasp.4.4
   GGA_COMPAT  = T    GGA compatible to vasp.4.4-vasp.4.6
   LMAXPAW     = -100 max onsite density
   LMAXMIX     =    2 max onsite mixed and CHGCAR
   VOSKOWN=      0    Vosko Wilk Nusair interpolation
   ROPT   =   -0.00025  -0.00025  -0.00025
 Ionic relaxation
   EDIFFG = -.1E-01   stopping-criterion for IOM
   NSW    =      1    number of steps for IOM
   NBLOCK =      1;   KBLOCK =      1    inner block; outer block 
   IBRION =     -1    ionic relax: 0-MD 1-quasi-New 2-CG
   NFREE  =      0    steps in history (QN), initial steepest desc. (CG)
   ISIF   =      2    stress and relaxation
   IWAVPR =     10    prediction:  0-non 1-charg 2-wave 3-comb
   ISYM   =      0    0-nonsym 1-usesym 2-fastsym
   LCORR  =      T    Harris-Foulkes like correction to forces

   POTIM  = 1.0000    time-step for ionic-motion
   TEIN   =    0.0    initial temperature
   TEBEG  =    0.0;   TEEND  =   0.0 temperature during run
   SMASS  =  -3.00    Nose mass-parameter (am)
   estimated Nose-frequenzy (Omega)   =  0.10E-29 period in steps =****** mass=  -0.359E-26a.u.
   SCALEE = 1.0000    scale energy and forces
   NPACO  =    256;   APACO  = 16.0  distance and # of slots for P.C.
   PSTRESS=    0.0 pullay stress

  Mass of Ions in am
   POMASS =  40.08 28.09 16.00
  Ionic Valenz
   ZVAL   =  10.00  4.00  6.00
  Atomic Wigner-Seitz radii
   RWIGS  =  -1.00 -1.00 -1.00
  virtual crystal weights 
   VCA    =   1.00  1.00  1.00
   NELECT =     864.0000    total number of electrons
   NUPDOWN=      -1.0000    fix difference up-down

 DOS related values:
   EMIN   =  10.00;   EMAX   =-10.00  energy-range for DOS
   EFERMI =   0.00
   ISMEAR =     0;   SIGMA  =   0.05  broadening in eV -4-tet -1-fermi 0-gaus

 Electronic relaxation 2 (details)
   IALGO  =     38    algorithm
   LDIAG  =      T    sub-space diagonalisation (order eigenvalues)
   LSUBROT=      F    optimize rotation matrix (better conditioning)
   TURBO    =      0    0=normal 1=particle mesh
   IRESTART =      0    0=no restart 2=restart with 2 vectors
   NREBOOT  =      0    no. of reboots
   NMIN     =      0    reboot dimension
   EREF     =   0.00    reference energy to select bands
   IMIX   =      4    mixing-type and parameters
     AMIX     =   0.40;   BMIX     =  1.00
     AMIX_MAG =   1.60;   BMIX_MAG =  1.00
     AMIN     =   0.10
     WC   =   100.;   INIMIX=   1;  MIXPRE=   1;  MAXMIX= -45

 Intra band minimization:
   WEIMIN = 0.0000     energy-eigenvalue tresh-hold
   EBREAK =  0.48E-09  absolut break condition
   DEPER  =   0.30     relativ break condition  

   TIME   =   0.40     timestep for ELM

  volume/ion in A,a.u.               =      14.56        98.24
  Fermi-wavevector in a.u.,A,eV,Ry     =   1.244795  2.352322 21.082433  1.549515
  Thomas-Fermi vector in A             =   2.379046
 
 Write flags
   LWAVE        =      F    write WAVECAR
   LDOWNSAMPLE  =      F    k-point downsampling of WAVECAR
   LCHARG       =      F    write CHGCAR
   LVTOT        =      F    write LOCPOT, total local potential
   LVHAR        =      F    write LOCPOT, Hartree potential only
   LELF         =      F    write electronic localiz. function (ELF)
   LORBIT       =      0    0 simple, 1 ext, 2 COOP (PROOUT), +10 PAW based schemes


 Dipole corrections
   LMONO  =      F    monopole corrections only (constant potential shift)
   LDIPOL =      F    correct potential (dipole corrections)
   IDIPOL =      0    1-x, 2-y, 3-z, 4-all directions 
   EPSILON=  1.0000000 bulk dielectric constant

 Exchange correlation treatment:
   GGA     =    --    GGA type
   LEXCH   =     8    internal setting for exchange type
   VOSKOWN=      0    Vosko Wilk Nusair interpolation
   LHFCALC =     F    Hartree Fock is set to
   LHFONE  =     F    Hartree Fock one center treatment
   AEXX    =    0.0000 exact exchange contribution

 Linear response parameters
   LEPSILON=     F    determine dielectric tensor
   LRPA    =     F    only Hartree local field effects (RPA)
   LNABLA  =     F    use nabla operator in PAW spheres
   LVEL    =     F    velocity operator in full k-point grid
   LINTERFAST=   F  fast interpolation
   KINTER  =     0    interpolate to denser k-point grid
   CSHIFT  =0.1000    complex shift for real part using Kramers Kronig
   OMEGAMAX=  -1.0    maximum frequency
   DEG_THRESHOLD= 0.2000000E-02 threshold for treating states as degnerate
   RTIME   =   -0.100 relaxation time in fs
  (WPLASMAI=    0.000 imaginary part of plasma frequency in eV, 0.658/RTIME)
   DFIELD  = 0.0000000 0.0000000 0.0000000 field for delta impulse in time
 
 Orbital magnetization related:
   ORBITALMAG=     F  switch on orbital magnetization
   LCHIMAG   =     F  perturbation theory with respect to B field
   DQ        =  0.001000  dq finite difference perturbation B field
   LLRAUG    =     F  two centre corrections for induced B field



--------------------------------------------------------------------------------------------------------


 Static calculation
 charge density and potential will be updated during run
 non-spin polarized calculation
 Variant of blocked Davidson
 Davidson routine will perform the subspace rotation
 perform sub-space diagonalisation
    after iterative eigenvector-optimisation
 modified Broyden-mixing scheme, WC =      100.0
 initial mixing is a Kerker type mixing with AMIX =  0.4000 and BMIX =      1.0000
 Hartree-type preconditioning will be used
 using additional bands           88
 real space projection scheme for non local part
 use partial core corrections
 calculate Harris-corrections to forces 
   (improved forces if not selfconsistent)
 use gradient corrections 
 use of overlap-Matrix (Vanderbilt PP)
 Gauss-broadening in eV      SIGMA  =   0.05


--------------------------------------------------------------------------------------------------------


  energy-cutoff  :      600.00
  volume of cell :     1965.37
      direct lattice vectors                 reciprocal lattice vectors
    12.526070000  0.000000000  0.000000000     0.079833499  0.000000000  0.000000000
     0.000000000 12.526070000  0.000000000     0.000000000  0.079833499  0.000000000
     0.000000000  0.000000000 12.526070000     0.000000000  0.000000000  0.079833499

  length of vectors
    12.526070000 12.526070000 12.526070000     0.079833499  0.079833499  0.079833499


 
 k-points in units of 2pi/SCALE and weight: read from INCAR                         
   0.00000000  0.00000000  0.00000000       0.125
   0.03991675  0.00000000  0.00000000       0.125
   0.00000000  0.03991675  0.00000000       0.125
   0.03991675  0.03991675  0.00000000       0.125
   0.00000000  0.00000000  0.03991675       0.125
   0.03991675  0.00000000  0.03991675       0.125
   0.00000000  0.03991675  0.03991675       0.125
   0.03991675  0.03991675  0.03991675       0.125
 
 k-points in reciprocal lattice and weights: read from INCAR                         
   0.00000000  0.00000000  0.00000000       0.125
   0.50000000  0.00000000  0.00000000       0.125
   0.00000000  0.50000000  0.00000000       0.125
   0.50000000  0.50000000  0.00000000       0.125
   0.00000000  0.00000000  0.50000000       0.125
   0.50000000  0.00000000  0.50000000       0.125
   0.00000000  0.50000000  0.50000000       0.125
   0.50000000  0.50000000  0.50000000       0.125
 
 position of ions in fractional coordinates (direct lattice) 
   0.60516932  0.42599969  0.45625129
   0.83564854  0.82364284  0.41130408
   0.04230746  0.36768982  0.98262297
   0.53518435  0.64042336  0.86442568
   0.02304330  0.57924182  0.21776962
   0.91573918  0.59046872  0.51850245
   0.16549976  0.90223633  0.93447130
   0.26760455  0.12418263  0.32788082
   0.29977705  0.11541009  0.69768894
   0.45513985  0.85945900  0.28707897
   0.91111996  0.58357672  0.94164585
   0.75987162  0.43018047  0.70498295
   0.19487486  0.84428418  0.26887836
   0.57405251  0.26703395  0.74703437
   0.34123105  0.18977651  0.98101492
   0.29562182  0.55727052  0.38947512
   0.33741156  0.53325550  0.06764897
   0.97744124  0.13314248  0.31443461
   0.60851395  0.61459380  0.13096157
   0.62047072  0.95420393  0.54508342
   0.51865442  0.31840595  0.26531638
   0.89760887  0.75314006  0.71698869
   0.81061524  0.28226938  0.19217768
   0.09082143  0.38394418  0.40632297
   0.92096626  0.87742842  0.11949584
   0.82864804  0.13993132  0.73958771
   0.41786118  0.74406787  0.61102562
   0.24892131  0.35573399  0.14789986
   0.68865559  0.17336487  0.39671819
   0.45146285  0.22365015  0.52537637
   0.75743725  0.73428485  0.95919275
   0.69994295  0.97705998  0.24972332
   0.50902332  0.64201877  0.40051136
   0.08242591  0.09632450  0.52817739
   0.55907201  0.32935240  0.01978718
   0.43011105  0.43804161  0.79303433
   0.54758225  0.05283894  0.81385982
   0.65849220  0.70536196  0.61721902
   0.25649237  0.38670156  0.62123454
   0.07340098  0.48553024  0.73386212
   0.64693011  0.91545997  0.01459663
   0.77653646  0.31887854  0.93633708
   0.36543247  0.87620363  0.81518022
   0.94128084  0.14360995  0.03368498
   0.13139199  0.06542818  0.10625093
   0.25155454  0.90240321  0.50616925
   0.78227689  0.51669684  0.32249137
   0.42076074  0.80631686  0.04955532
   0.10006171  0.21294885  0.76799486
   0.07521532  0.74911780  0.45525790
   0.91594519  0.94666153  0.84862626
   0.83840677  0.32405865  0.48110565
   0.12514098  0.67265503  0.03390108
   0.25810265  0.64087071  0.81268461
   0.81965214  0.22661679  0.41585016
   0.26154637  0.93771278  0.77713646
   0.17643382  0.69289213  0.90556612
   0.03195962  0.79821866  0.33832611
   0.01875601  0.89757470  0.81776849
   0.30120886  0.26936123  0.56020484
   0.14784034  0.03307888  0.24014199
   0.58996549  0.71249537  0.49035813
   0.95759995  0.33818254  0.46144293
   0.89729286  0.47824039  0.25885084
   0.40169605  0.70535231  0.42816108
   0.03336527  0.55642175  0.04349028
   0.35196747  0.40521330  0.22546954
   0.08471151  0.62886160  0.41185371
   0.03857160  0.98824851  0.06411982
   0.99017609  0.24152331  0.83282020
   0.77211255  0.85741107  0.97952869
   0.59509088  0.93706157  0.30984915
   0.68326884  0.25588462  0.02274282
   0.37662908  0.91260138  0.55106484
   0.63444328  0.07597648  0.46087272
   0.16002574  0.00549243  0.55756298
   0.77969223  0.31411847  0.59130439
   0.15407159  0.36403548  0.70304296
   0.49181059  0.93072215  0.80499097
   0.06031756  0.46325336  0.86399958
   0.29713883  0.91631301  0.37108130
   0.97174954  0.04100808  0.51162779
   0.82352467  0.93490338  0.25474872
   0.40706156  0.11378652  0.59278018
   0.64492052  0.53043218  0.26971631
   0.20752169  0.63705262  0.12318889
   0.34468130  0.73438060  0.76556544
   0.52976498  0.31034513  0.57237592
   0.68798913  0.10501057  0.27116584
   0.86431492  0.25369585  0.01563645
   0.64352196  0.00913836  0.90380231
   0.95145151  0.51532385  0.67590691
   0.13145925  0.15885917  0.43248111
   0.46569459  0.33243710  0.87036087
   0.41400907  0.67908229  0.03120451
   0.83258051  0.64209690  0.38584483
   0.79751858  0.42925928  0.41833479
   0.12538237  0.39586869  0.17444863
   0.79617983  0.68084747  0.83187228
   0.67071510  0.29076033  0.34474538
   0.20871459  0.19735013  0.82705001
   0.63726026  0.09672319  0.72781061
   0.81507880  0.43563561  0.91046207
   0.46736141  0.16155799  0.82047328
   0.29337714  0.38203657  0.01719001
   0.49371532  0.24399822  0.09872294
   0.08848423  0.16994675  0.64506796
   0.50575937  0.67247023  0.27108778
   0.73154116  0.26281704  0.82349983
   0.92818774  0.04530314  0.94076813
   0.46083541  0.51135954  0.40362215
   0.46744331  0.19781635  0.40174889
   0.07916711  0.78772330  0.06558934
   0.57337830  0.45897096  0.01747959
   0.73009864  0.81325516  0.58763014
   0.35971458  0.54803322  0.84760660
   0.85211047  0.70051735  0.05641093
   0.35311479  0.85750610  0.94797116
   0.19331394  0.79722995  0.51623530
   0.23477988  0.05620589  0.02899032
   0.21498649  0.47142127  0.53394922
   0.73149600  0.58700847  0.59354535
   0.51335575  0.89527888  0.04390815
   0.06872170  0.17241527  0.06577318
   0.62850372  0.70796734  0.98762830
   0.56622101  0.73624551  0.69995220
   0.24868578  0.22672335  0.18913087
   0.33745419  0.41444153  0.70787599
   0.34254258  0.85234332  0.16175537
   0.97864248  0.73408071  0.53921090
   0.16906566  0.59315173  0.73019477
   0.89810462  0.13634151  0.15067013
   0.83884551  0.94706113  0.74271229
   0.54501147  0.48734982  0.78877514
   0.67438039  0.97139394  0.12031969
 
 position of ions in cartesian coordinates  (Angst):
   7.58039331  5.33610193  5.71503561
  10.46739211 10.31700790  5.15202364
   0.52994619  4.60570840 12.30840412
   6.70375663  8.02198782 10.82785662
   0.28864201  7.25562362  2.72779750
  11.47061306  7.39625254  6.49479798
   2.07306154 11.30147539 11.70525291
   3.35203327  1.55552037  4.10705806
   3.75502836  1.44563487  8.73930055
   5.70111358 10.76564359  3.59597122
  11.41275237  7.30992279 11.79512185
   9.51820511  5.38847067  8.83066582
   2.44101615 10.57556277  3.36798920
   7.19062197  3.34488594  9.35740486
   4.27428402  2.37715391 12.28826162
   3.70297967  6.98040956  4.87859261
   4.22644078  6.67959573  0.84737571
  12.24349737  1.66775206  3.93862988
   7.62228838  7.69844492  1.64043382
   7.77205972 11.95242516  6.82775312
   6.49670154  3.98837520  3.32337161
  11.24351154  9.43388513  8.98105050
  10.15382328  3.53572601  2.40723113
   1.13763565  4.80931172  5.08963000
  11.53608789 10.99072986  1.49681329
  10.37970334  1.75278947  9.26412741
   5.23415840  9.32024627  7.65374965
   3.11800579  4.45594890  1.85260398
   8.62614814  2.17158051  4.96931987
   5.65505521  2.80145745  6.58090118
   9.48771201  9.19770345 12.01491552
   8.76753444 12.23872167  3.12805176
   6.37606168  8.04197204  5.01683333
   1.03247270  1.20656748  6.61598702
   7.00297517  4.12549118  0.24785557
   5.38760117  5.48693988  9.93360349
   6.85905365  0.66186423 10.19446505
   8.24831938  8.83541334  7.73132869
   3.21284139  4.84385082  7.78162733
   0.91942583  6.08178577  9.19240826
   8.10349182 11.46711566  0.18283847
   9.72695006  3.99429491 11.72862375
   4.57743265 10.97538799 10.21100450
  11.79054974  1.79886827  0.42194040
   1.64582527  0.81955800  1.33090653
   3.15098982 11.30356576  6.34031146
   9.79885514  6.47218078  4.03954942
   5.27047846 10.09998138  0.62073340
   1.25338003  2.66741214  9.61995733
   0.94215242  9.38350195  5.70259233
  11.47319352 11.85794865 10.62995195
  10.50194185  4.05918130  6.02636303
   1.56752469  8.42572393  0.42464729
   3.23301187  8.02759132 10.17974435
  10.26702005  2.83861778  5.20896818
   3.27614819 11.74585591  9.73446569
   2.21002240  8.67921529 11.34318459
   0.40032847  9.99854282  4.23789649
   0.23493912 11.24308351 10.24342540
   3.77296332  3.37403757  7.01716505
   1.85185842  0.41434837  3.00803542
   7.38994899  8.92476693  6.14226025
  11.99496400  4.23609818  5.78006650
  11.23955321  5.99047262  3.24238368
   5.03167283  8.83529238  5.36317564
   0.41793571  6.96977782  0.54476229
   4.40876911  5.07573012  2.82424724
   1.06110235  7.87716437  5.15890835
   0.48315058 12.37887007  0.80316938
  12.40301505  3.02533791 10.43196408
   9.67153588 10.73999103 12.26964499
   7.45415006 11.73769883  3.88119208
   8.55867334  3.20522864  0.28487818
   4.71768228 11.43130881  6.90267680
   7.94708097  0.95168665  5.77292395
   2.00449358  0.06879862  6.98407288
   9.76647951  3.93466993  7.40672016
   1.92991155  4.55993396  8.80636535
   6.16045387 11.65829085 10.08337319
   0.75554195  5.80274400 10.82251923
   3.72198181 11.47780085  4.64819032
  12.17220281  0.51367011  6.40868548
  10.31552770 11.71066521  3.19100032
   5.09888155  1.42529788  7.42520607
   8.07831955  6.64423064  3.37848536
   2.59943117  7.97976568  1.54307272
   4.31750206  9.19890278  9.58952627
   6.63587324  3.88740476  7.16962085
   8.61780004  1.31536979  3.39664229
  10.82646916  3.17781192  0.19586329
   8.06080111  0.11446768 11.32109102
  11.91794824  6.45498268  8.46645724
   1.64666777  1.98988112  5.41728861
   5.83332302  4.16413034 10.90220119
   5.18590659  8.50623230  0.39086991
  10.42896175  8.04295075  4.83311941
   9.98977355  5.37693174  5.24009083
   1.57054837  4.95867892  2.18515579
   9.97300430  8.52834307 10.42009040
   8.40142433  3.64208421  4.31830474
   2.61437357  2.47202151 10.35968632
   7.98236666  1.21156148  9.11660665
  10.20973410  5.45680217 11.40451167
   5.85420169  2.02368668 10.27730576
   3.67486259  4.78541688  0.21532328
   6.18431266  3.05633873  1.23661049
   1.10835967  2.12876489  8.08016641
   6.33517732  8.42340923  3.39566455
   9.16333575  3.29206458 10.31521646
  11.62654466  0.56747031 11.78412748
   5.77245664  6.40532539  5.05579927
   5.85522762  2.47786148  5.03233469
   0.99165270  9.86707720  0.82157664
   7.18217668  5.74910240  0.21895051
   9.14526663 10.18689112  7.36069631
   4.50581005  6.86470243 10.61717961
  10.67359536  8.77472938  0.70660726
   4.42314056 10.74118145 11.87435305
   2.42146391  9.98615816  6.46639945
   2.94086926  0.70403894  0.36313483
   2.69293578  5.90505589  6.68828535
   9.16277016  7.35290919  7.43479056
   6.43033005 11.21432591  0.54999657
   0.86081286  2.15968572  0.82387944
   7.87268161  8.86804846 12.37110117
   7.09252396  9.22226276  8.76765029
   3.11505543  2.83995260  2.36906647
   4.22697479  5.19132366  8.86690415
   4.29071234 10.67651207  2.02615906
  12.25854423  9.19514631  6.75419343
   2.11772832  7.42986010  9.14647084
  11.24972130  1.70782329  1.88730464
  10.50743764 11.86295406  9.30326610
   6.82685186  6.10457793  9.88025266
   8.44733599 12.16774844  1.50713292
 


--------------------------------------------------------------------------------------------------------


 k-point  1 :   0.0000 0.0000 0.0000  plane waves:   65267
 k-point  2 :   0.5000 0.0000 0.0000  plane waves:   65554
 k-point  3 :   0.0000 0.5000 0.0000  plane waves:   65554
 k-point  4 :   0.5000 0.5000 0.0000  plane waves:   65600
 k-point  5 :   0.0000 0.0000 0.5000  plane waves:   65554
 k-point  6 :   0.5000 0.0000 0.5000  plane waves:   65600
 k-point  7 :   0.0000 0.5000 0.5000  plane waves:   65600
 k-point  8 :   0.5000 0.5000 0.5000  plane waves:   65752

 maximum and minimum number of plane-waves per node :      5500     5389

 maximum number of plane-waves:     65752
 maximum index in each direction: 
   IXMAX=   25   IYMAX=   25   IZMAX=   25
   IXMIN=  -25   IYMIN=  -25   IZMIN=  -25


 real space projection operators:
  total allocation   :      46815.53 KBytes
  max/ min on nodes  :       4277.27       3697.00


 parallel 3D FFT for wavefunctions:
    minimum data exchange during FFTs selected (reduces bandwidth)
 parallel 3D FFT for charge:
    minimum data exchange during FFTs selected (reduces bandwidth)


 total amount of memory used by VASP MPI-rank0   190143. kBytes
=======================================================================

   base      :      30000. kBytes
   nonlr-proj:      20938. kBytes
   fftplans  :      28860. kBytes
   grid      :      16510. kBytes
   one-center:        186. kBytes
   wavefun   :      93649. kBytes
 
     INWAV:  cpu time    0.0000: real time    0.0003
 Broyden mixing: mesh for mixing (old mesh)
   NGX = 51   NGY = 51   NGZ = 51
  (NGX  =200   NGY  =200   NGZ  =200)
  gives a total of 132651 points

 initial charge density was supplied:
 charge density of overlapping atoms calculated
 number of electron     864.0000000 magnetization 
 keeping initial charge density in first step


--------------------------------------------------------------------------------------------------------


 Maximum index for non-local projection operator          836
 Maximum index for augmentation-charges         7545 (set IRDMAX)


--------------------------------------------------------------------------------------------------------


 First call to EWALD:  gamma=   0.142
 Maximum number of real-space cells 3x 3x 3
 Maximum number of reciprocal cells 3x 3x 3

    FEWALD:  cpu time    0.0067: real time    0.0067


--------------------------------------- Iteration      1(   1)  ---------------------------------------


    POTLOK:  cpu time    0.1341: real time    0.1434
    SETDIJ:  cpu time    0.3061: real time    0.3072
     EDDAV:  cpu time   43.7480: real time   43.8505
       DOS:  cpu time    0.0023: real time    0.0023
    --------------------------------------------
      LOOP:  cpu time   44.1905: real time   44.3033

 eigenvalue-minimisations  :  8320
 total energy-change (2. order) : 0.9418638E+04  (-0.4729412E+05)
 number of electron     864.0000000 magnetization 
 augmentation part      864.0000000 magnetization 

 Free energy of the ion-electron system (eV)
  ---------------------------------------------------
  alpha Z        PSCENC =      2431.37857233
  Ewald energy   TEWEN  =    -42891.81208416
  -Hartree energ DENC   =    -19431.37161451
  -exchange      EXHF   =         0.00000000
  -V(xc)+E(xc)   XCENC  =      3152.67553396
  PAW double counting   =     50594.51003143   -49994.65612350
  entropy T*S    EENTRO =        -0.03580697
  eigenvalues    EBANDS =       589.40906237
  atomic energy  EATOM  =     64968.54023382
  Solvation  Ediel_sol  =         0.00000000
  ---------------------------------------------------
  free energy    TOTEN  =      9418.63780477 eV

  energy without entropy =     9418.67361175  energy(sigma->0) =     9418.65570826


--------------------------------------------------------------------------------------------------------




--------------------------------------- Iteration      1(   2)  ---------------------------------------


     EDDAV:  cpu time   50.2550: real time   50.4707
       DOS:  cpu time    0.0010: real time    0.0010
    --------------------------------------------
      LOOP:  cpu time   50.2559: real time   50.4717

 eigenvalue-minimisations  :  9952
 total energy-change (2. order) :-0.9442240E+04  (-0.9163798E+04)
 number of electron     864.0000000 magnetization 
 augmentation part      864.0000000 magnetization 

 Free energy of the ion-electron system (eV)
  ---------------------------------------------------
  alpha Z        PSCENC =      2431.37857233
  Ewald energy   TEWEN  =    -42891.81208416
  -Hartree energ DENC   =    -19431.37161451
  -exchange      EXHF   =         0.00000000
  -V(xc)+E(xc)   XCENC  =      3152.67553396
  PAW double counting   =     50594.51003143   -49994.65612350
  entropy T*S    EENTRO =        -0.00000000
  eigenvalues    EBANDS =     -8852.86635993
  atomic energy  EATOM  =     64968.54023382
  Solvation  Ediel_sol  =         0.00000000
  ---------------------------------------------------
  free energy    TOTEN  =       -23.60181056 eV

  energy without entropy =      -23.60181056  energy(sigma->0) =      -23.60181056


--------------------------------------------------------------------------------------------------------




--------------------------------------- Iteration      1(   3)  ---------------------------------------


     EDDAV:  cpu time   51.7781: real time   51.9604
       DOS:  cpu time    0.0010: real time    0.0010
    --------------------------------------------
      LOOP:  cpu time   51.7791: real time   51.9613

 eigenvalue-minimisations  : 10232
 total energy-change (2. order) :-0.1015188E+04  (-0.1009045E+04)
 number of electron     864.0000000 magnetization 
 augmentation part      864.0000000 magnetization 

 Free energy of the ion-electron system (eV)
  ---------------------------------------------------
  alpha Z        PSCENC =      2431.37857233
  Ewald energy   TEWEN  =    -42891.81208416
  -Hartree energ DENC   =    -19431.37161451
  -exchange      EXHF   =         0.00000000
  -V(xc)+E(xc)   XCENC  =      3152.67553396
  PAW double counting   =     50594.51003143   -49994.65612350
  entropy T*S    EENTRO =        -0.00000000
  eigenvalues    EBANDS =     -9868.05476886
  atomic energy  EATOM  =     64968.54023382
  Solvation  Ediel_sol  =         0.00000000
  ---------------------------------------------------
  free energy    TOTEN  =     -1038.79021949 eV

  energy without entropy =    -1038.79021949  energy(sigma->0) =    -1038.79021949


--------------------------------------------------------------------------------------------------------




--------------------------------------- Iteration      1(   4)  ---------------------------------------


     EDDAV:  cpu time   55.7192: real time   55.8460
       DOS:  cpu time    0.0009: real time    0.0009
    --------------------------------------------
      LOOP:  cpu time   55.7201: real time   55.8468

 eigenvalue-minimisations  : 11200
 total energy-change (2. order) :-0.5019274E+02  (-0.5002369E+02)
 number of electron     864.0000000 magnetization 
 augmentation part      864.0000000 magnetization 

 Free energy of the ion-electron system (eV)
  ---------------------------------------------------
  alpha Z        PSCENC =      2431.37857233
  Ewald energy   TEWEN  =    -42891.81208416
  -Hartree energ DENC   =    -19431.37161451
  -exchange      EXHF   =         0.00000000
  -V(xc)+E(xc)   XCENC  =      3152.67553396
  PAW double counting   =     50594.51003143   -49994.65612350
  entropy T*S    EENTRO =        -0.00000000
  eigenvalues    EBANDS =     -9918.24750688
  atomic energy  EATOM  =     64968.54023382
  Solvation  Ediel_sol  =         0.00000000
  ---------------------------------------------------
  free energy    TOTEN  =     -1088.98295750 eV

  energy without entropy =    -1088.98295750  energy(sigma->0) =    -1088.98295750


--------------------------------------------------------------------------------------------------------




--------------------------------------- Iteration      1(   5)  ---------------------------------------


     EDDAV:  cpu time   70.8331: real time   71.2299
       DOS:  cpu time    0.0010: real time    0.0010
    CHARGE:  cpu time    1.7804: real time    1.7894
    MIXING:  cpu time    0.0095: real time    0.0098
    --------------------------------------------
      LOOP:  cpu time   72.6239: real time   73.0301

 eigenvalue-minimisations  : 15160
 total energy-change (2. order) :-0.5914212E+01  (-0.5911434E+01)
 number of electron     864.0000007 magnetization 
 augmentation part      134.2405327 magnetization 

 Broyden mixing:
  rms(total) = 0.85481E+01    rms(broyden)= 0.85475E+01
  rms(prec ) = 0.10066E+02
  weight for this iteration     100.00

 Free energy of the ion-electron system (eV)
  ---------------------------------------------------
  alpha Z        PSCENC =      2431.37857233
  Ewald energy   TEWEN  =    -42891.81208416
  -Hartree energ DENC   =    -19431.37161451
  -exchange      EXHF   =         0.00000000
  -V(xc)+E(xc)   XCENC  =      3152.67553396
  PAW double counting   =     50594.51003143   -49994.65612350
  entropy T*S    EENTRO =        -0.00000000
  eigenvalues    EBANDS =     -9924.16171892
  atomic energy  EATOM  =     64968.54023382
  Solvation  Ediel_sol  =         0.00000000
  ---------------------------------------------------
  free energy    TOTEN  =     -1094.89716955 eV

  energy without entropy =    -1094.89716955  energy(sigma->0) =    -1094.89716955


--------------------------------------------------------------------------------------------------------




--------------------------------------- Iteration      1(   6)  ---------------------------------------


    POTLOK:  cpu time    0.1308: real time    0.1397
    SETDIJ:  cpu time    0.3027: real time    0.3076
     EDDAV:  cpu time   59.9608: real time   61.3156
       DOS:  cpu time    0.0009: real time    0.0009
    CHARGE:  cpu time    1.7767: real time    1.7846
    MIXING:  cpu time    0.0085: real time    0.0086
    --------------------------------------------
      LOOP:  cpu time   62.1804: real time   63.5569

 eigenvalue-minimisations  : 10176
 total energy-change (2. order) : 0.1544175E+03  (-0.7388672E+02)
 number of electron     864.0000006 magnetization 
 augmentation part      120.0466471 magnetization 

 Broyden mixing:
  rms(total) = 0.35948E+01    rms(broyden)= 0.35938E+01
  rms(prec ) = 0.38063E+01
  weight for this iteration     100.00

 eigenvalues of (default mixing * dielectric matrix)
  average eigenvalue GAMMA=   0.9954
  0.9954

 Free energy of the ion-electron system (eV)
  ---------------------------------------------------
  alpha Z        PSCENC =      2431.37857233
  Ewald energy   TEWEN  =    -42891.81208416
  -Hartree energ DENC   =    -20926.30792661
  -exchange      EXHF   =         0.00000000
  -V(xc)+E(xc)   XCENC  =      3249.80930294
  PAW double counting   =     65242.38053871   -64785.74602951
  entropy T*S    EENTRO =        -0.00000000
  eigenvalues    EBANDS =     -8228.72224101
  atomic energy  EATOM  =     64968.54023382
  Solvation  Ediel_sol  =         0.00000000
  ---------------------------------------------------
  free energy    TOTEN  =      -940.47963349 eV

  energy without entropy =     -940.47963349  energy(sigma->0) =     -940.47963349


--------------------------------------------------------------------------------------------------------




--------------------------------------- Iteration      1(   7)  ---------------------------------------


    POTLOK:  cpu time    0.1303: real time    0.1371
    SETDIJ:  cpu time    0.2986: real time    0.3050
     EDDAV:  cpu time   55.7828: real time   56.0852
       DOS:  cpu time    0.0009: real time    0.0009
    CHARGE:  cpu time    1.7676: real time    1.7759
    MIXING:  cpu time    0.0083: real time    0.0083
    --------------------------------------------
      LOOP:  cpu time   57.9885: real time   58.3125

 eigenvalue-minimisations  : 11400
 total energy-change (2. order) :-0.2036259E+01  (-0.7292098E+01)
 number of electron     864.0000006 magnetization 
 augmentation part      119.0664762 magnetization 

 Broyden mixing:
  rms(total) = 0.18433E+01    rms(broyden)= 0.18433E+01
  rms(prec ) = 0.20113E+01
  weight for this iteration     100.00

 eigenvalues of (default mixing * dielectric matrix)
  average eigenvalue GAMMA=   1.2262
  1.2262  1.2262

 Free energy of the ion-electron system (eV)
  ---------------------------------------------------
  alpha Z        PSCENC =      2431.37857233
  Ewald energy   TEWEN  =    -42891.81208416
  -Hartree energ DENC   =    -21004.63598791
  -exchange      EXHF   =         0.00000000
  -V(xc)+E(xc)   XCENC  =      3252.73004431
  PAW double counting   =     77246.05184927   -76844.29777785
  entropy T*S    EENTRO =        -0.00000000
  eigenvalues    EBANDS =     -8100.47074228
  atomic energy  EATOM  =     64968.54023382
  Solvation  Ediel_sol  =         0.00000000
  ---------------------------------------------------
  free energy    TOTEN  =      -942.51589246 eV

  energy without entropy =     -942.51589246  energy(sigma->0) =     -942.51589246


--------------------------------------------------------------------------------------------------------




--------------------------------------- Iteration      1(   8)  ---------------------------------------


    POTLOK:  cpu time    0.1293: real time    0.1402
    SETDIJ:  cpu time    0.3055: real time    0.3057
     EDDAV:  cpu time   51.2792: real time   51.5704
       DOS:  cpu time    0.0011: real time    0.0011
    CHARGE:  cpu time    1.7580: real time    1.7715
    MIXING:  cpu time    0.0108: real time    0.0108
    --------------------------------------------
      LOOP:  cpu time   53.4838: real time   53.7997

 eigenvalue-minimisations  : 10160
 total energy-change (2. order) : 0.1373508E+01  (-0.1168793E+01)
 number of electron     864.0000006 magnetization 
 augmentation part      119.5416708 magnetization 

 Broyden mixing:
  rms(total) = 0.74868E+00    rms(broyden)= 0.74858E+00
  rms(prec ) = 0.87320E+00
  weight for this iteration     100.00

 eigenvalues of (default mixing * dielectric matrix)
  average eigenvalue GAMMA=   1.3515
  2.1605  0.9471  0.9471

 Free energy of the ion-electron system (eV)
  ---------------------------------------------------
  alpha Z        PSCENC =      2431.37857233
  Ewald energy   TEWEN  =    -42891.81208416
  -Hartree energ DENC   =    -21017.48446968
  -exchange      EXHF   =         0.00000000
  -V(xc)+E(xc)   XCENC  =      3251.68115819
  PAW double counting   =     85023.21184390   -84661.54702572
  entropy T*S    EENTRO =        -0.00000000
  eigenvalues    EBANDS =     -8045.11061290
  atomic energy  EATOM  =     64968.54023382
  Solvation  Ediel_sol  =         0.00000000
  ---------------------------------------------------
  free energy    TOTEN  =      -941.14238423 eV

  energy without entropy =     -941.14238423  energy(sigma->0) =     -941.14238423


--------------------------------------------------------------------------------------------------------




--------------------------------------- Iteration      1(   9)  ---------------------------------------


    POTLOK:  cpu time    0.1302: real time    0.1385
    SETDIJ:  cpu time    0.3053: real time    0.3058
     EDDAV:  cpu time   52.5995: real time   52.8661
       DOS:  cpu time    0.0010: real time    0.0010
    CHARGE:  cpu time    1.7771: real time    1.7905
    MIXING:  cpu time    0.0113: real time    0.0113
    --------------------------------------------
      LOOP:  cpu time   54.8244: real time   55.1131

 eigenvalue-minimisations  : 10592
 total energy-change (2. order) : 0.3303128E+00  (-0.2428676E+00)
 number of electron     864.0000006 magnetization 
 augmentation part      118.8899347 magnetization 

 Broyden mixing:
  rms(total) = 0.21408E+00    rms(broyden)= 0.21406E+00
  rms(prec ) = 0.26689E+00
  weight for this iteration     100.00

 eigenvalues of (default mixing * dielectric matrix)
  average eigenvalue GAMMA=   1.3660
  2.3644  1.2261  0.9367  0.9367

 Free energy of the ion-electron system (eV)
  ---------------------------------------------------
  alpha Z        PSCENC =      2431.37857233
  Ewald energy   TEWEN  =    -42891.81208416
  -Hartree energ DENC   =    -21121.66894758
  -exchange      EXHF   =         0.00000000
  -V(xc)+E(xc)   XCENC  =      3257.72476168
  PAW double counting   =     91049.59437470   -90713.84673053
  entropy T*S    EENTRO =        -0.00000000
  eigenvalues    EBANDS =     -7920.72225171
  atomic energy  EATOM  =     64968.54023382
  Solvation  Ediel_sol  =         0.00000000
  ---------------------------------------------------
  free energy    TOTEN  =      -940.81207144 eV

  energy without entropy =     -940.81207144  energy(sigma->0) =     -940.81207144


--------------------------------------------------------------------------------------------------------




--------------------------------------- Iteration      1(  10)  ---------------------------------------


    POTLOK:  cpu time    0.1331: real time    0.1388
    SETDIJ:  cpu time    0.3059: real time    0.3061
     EDDAV:  cpu time   57.2750: real time   57.5839
       DOS:  cpu time    0.0010: real time    0.0010
    CHARGE:  cpu time    1.7623: real time    1.7790
    MIXING:  cpu time    0.0099: real time    0.0099
    --------------------------------------------
      LOOP:  cpu time   59.4872: real time   59.8187

 eigenvalue-minimisations  : 11672
 total energy-change (2. order) :-0.1294492E+00  (-0.1343393E+00)
 number of electron     864.0000006 magnetization 
 augmentation part      118.7384219 magnetization 

 Broyden mixing:
  rms(total) = 0.15279E+00    rms(broyden)= 0.15276E+00
  rms(prec ) = 0.18000E+00
  weight for this iteration     100.00

 eigenvalues of (default mixing * dielectric matrix)
  average eigenvalue GAMMA=   1.2788
  2.4453  1.1281  1.1281  0.8462  0.8462

 Free energy of the ion-electron system (eV)
  ---------------------------------------------------
  alpha Z        PSCENC =      2431.37857233
  Ewald energy   TEWEN  =    -42891.81208416
  -Hartree energ DENC   =    -21144.58005688
  -exchange      EXHF   =         0.00000000
  -V(xc)+E(xc)   XCENC  =      3258.84536833
  PAW double counting   =     92039.55747568   -91706.55235058
  entropy T*S    EENTRO =        -0.00000000
  eigenvalues    EBANDS =     -7896.31867921
  atomic energy  EATOM  =     64968.54023382
  Solvation  Ediel_sol  =         0.00000000
  ---------------------------------------------------
  free energy    TOTEN  =      -940.94152067 eV

  energy without entropy =     -940.94152067  energy(sigma->0) =     -940.94152067


--------------------------------------------------------------------------------------------------------




--------------------------------------- Iteration      1(  11)  ---------------------------------------


    POTLOK:  cpu time    0.1309: real time    0.1377
    SETDIJ:  cpu time    0.3038: real time    0.3040
     EDDAV:  cpu time   54.6449: real time   54.9244
       DOS:  cpu time    0.0010: real time    0.0010
    CHARGE:  cpu time    1.7796: real time    1.7918
    MIXING:  cpu time    0.0112: real time    0.0112
    --------------------------------------------
      LOOP:  cpu time   56.8714: real time   57.1702

 eigenvalue-minimisations  : 11128
 total energy-change (2. order) :-0.6019309E-02  (-0.1916190E-01)
 number of electron     864.0000006 magnetization 
 augmentation part      118.7307136 magnetization 

 Broyden mixing:
  rms(total) = 0.77803E-01    rms(broyden)= 0.77797E-01
  rms(prec ) = 0.94038E-01
  weight for this iteration     100.00

 eigenvalues of (default mixing * dielectric matrix)
  average eigenvalue GAMMA=   1.3595
  2.4738  1.8446  0.9950  0.9950  0.9242  0.9242

 Free energy of the ion-electron system (eV)
  ---------------------------------------------------
  alpha Z        PSCENC =      2431.37857233
  Ewald energy   TEWEN  =    -42891.81208416
  -Hartree energ DENC   =    -21154.59227504
  -exchange      EXHF   =         0.00000000
  -V(xc)+E(xc)   XCENC  =      3259.35889768
  PAW double counting   =     92035.89151837   -91702.32846472
  entropy T*S    EENTRO =        -0.00000000
  eigenvalues    EBANDS =     -7887.38393826
  atomic energy  EATOM  =     64968.54023382
  Solvation  Ediel_sol  =         0.00000000
  ---------------------------------------------------
  free energy    TOTEN  =      -940.94753998 eV

  energy without entropy =     -940.94753998  energy(sigma->0) =     -940.94753998


--------------------------------------------------------------------------------------------------------




--------------------------------------- Iteration      1(  12)  ---------------------------------------


    POTLOK:  cpu time    0.1318: real time    0.1372
    SETDIJ:  cpu time    0.3035: real time    0.3036
     EDDAV:  cpu time   49.4884: real time   49.7285
       DOS:  cpu time    0.0010: real time    0.0009
    CHARGE:  cpu time    1.7688: real time    1.7734
    MIXING:  cpu time    0.0109: real time    0.0109
    --------------------------------------------
      LOOP:  cpu time   51.7043: real time   51.9546

 eigenvalue-minimisations  :  9792
 total energy-change (2. order) :-0.1589895E-01  (-0.5893580E-02)
 number of electron     864.0000006 magnetization 
 augmentation part      118.7266885 magnetization 

 Broyden mixing:
  rms(total) = 0.27662E-01    rms(broyden)= 0.27654E-01
  rms(prec ) = 0.38447E-01
  weight for this iteration     100.00

 eigenvalues of (default mixing * dielectric matrix)
  average eigenvalue GAMMA=   1.3908
  2.5410  2.5410  0.9040  1.0034  1.0034  0.8714  0.8714

 Free energy of the ion-electron system (eV)
  ---------------------------------------------------
  alpha Z        PSCENC =      2431.37857233
  Ewald energy   TEWEN  =    -42891.81208416
  -Hartree energ DENC   =    -21160.95961459
  -exchange      EXHF   =         0.00000000
  -V(xc)+E(xc)   XCENC  =      3259.55814888
  PAW double counting   =     91839.77528319   -91504.38114542
  entropy T*S    EENTRO =        -0.00000000
  eigenvalues    EBANDS =     -7883.06283298
  atomic energy  EATOM  =     64968.54023382
  Solvation  Ediel_sol  =         0.00000000
  ---------------------------------------------------
  free energy    TOTEN  =      -940.96343893 eV

  energy without entropy =     -940.96343893  energy(sigma->0) =     -940.96343893


--------------------------------------------------------------------------------------------------------




--------------------------------------- Iteration      1(  13)  ---------------------------------------


    POTLOK:  cpu time    0.1317: real time    0.1368
    SETDIJ:  cpu time    0.2999: real time    0.3078
     EDDAV:  cpu time   57.8620: real time   58.1789
       DOS:  cpu time    0.0010: real time    0.0010
    CHARGE:  cpu time    1.7611: real time    1.7728
    MIXING:  cpu time    0.0107: real time    0.0107
    --------------------------------------------
      LOOP:  cpu time   60.0665: real time   60.4080

 eigenvalue-minimisations  : 11984
 total energy-change (2. order) :-0.4364015E-02  (-0.1578398E-02)
 number of electron     864.0000006 magnetization 
 augmentation part      118.7413871 magnetization 

 Broyden mixing:
  rms(total) = 0.19749E-01    rms(broyden)= 0.19747E-01
  rms(prec ) = 0.25011E-01
  weight for this iteration     100.00

 eigenvalues of (default mixing * dielectric matrix)
  average eigenvalue GAMMA=   1.3644
  2.7943  2.4915  0.9147  0.9147  1.0158  1.0158  0.8843  0.8843

 Free energy of the ion-electron system (eV)
  ---------------------------------------------------
  alpha Z        PSCENC =      2431.37857233
  Ewald energy   TEWEN  =    -42891.81208416
  -Hartree energ DENC   =    -21164.04875531
  -exchange      EXHF   =         0.00000000
  -V(xc)+E(xc)   XCENC  =      3259.63114321
  PAW double counting   =     91688.20113913   -91351.69797710
  entropy T*S    EENTRO =        -0.00000000
  eigenvalues    EBANDS =     -7881.16007488
  atomic energy  EATOM  =     64968.54023382
  Solvation  Ediel_sol  =         0.00000000
  ---------------------------------------------------
  free energy    TOTEN  =      -940.96780295 eV

  energy without entropy =     -940.96780295  energy(sigma->0) =     -940.96780295


--------------------------------------------------------------------------------------------------------




--------------------------------------- Iteration      1(  14)  ---------------------------------------


    POTLOK:  cpu time    0.1306: real time    0.1370
    SETDIJ:  cpu time    0.3023: real time    0.3048
     EDDAV:  cpu time   56.1761: real time   56.4652
       DOS:  cpu time    0.0010: real time    0.0010
    CHARGE:  cpu time    1.7705: real time    1.7811
    MIXING:  cpu time    0.0086: real time    0.0086
    --------------------------------------------
      LOOP:  cpu time   58.3890: real time   58.6977

 eigenvalue-minimisations  : 11472
 total energy-change (2. order) :-0.4349551E-03  (-0.7431404E-03)
 number of electron     864.0000006 magnetization 
 augmentation part      118.7350659 magnetization 

 Broyden mixing:
  rms(total) = 0.10932E-01    rms(broyden)= 0.10930E-01
  rms(prec ) = 0.13425E-01
  weight for this iteration     100.00

 eigenvalues of (default mixing * dielectric matrix)
  average eigenvalue GAMMA=   1.3305
  2.8801  2.4726  1.0255  1.0384  1.0384  0.9310  0.9310  0.8289  0.8289

 Free energy of the ion-electron system (eV)
  ---------------------------------------------------
  alpha Z        PSCENC =      2431.37857233
  Ewald energy   TEWEN  =    -42891.81208416
  -Hartree energ DENC   =    -21166.03926976
  -exchange      EXHF   =         0.00000000
  -V(xc)+E(xc)   XCENC  =      3259.71961750
  PAW double counting   =     91675.30498907   -91338.66917553
  entropy T*S    EENTRO =        -0.00000000
  eigenvalues    EBANDS =     -7879.39112117
  atomic energy  EATOM  =     64968.54023382
  Solvation  Ediel_sol  =         0.00000000
  ---------------------------------------------------
  free energy    TOTEN  =      -940.96823790 eV

  energy without entropy =     -940.96823790  energy(sigma->0) =     -940.96823790


--------------------------------------------------------------------------------------------------------




--------------------------------------- Iteration      1(  15)  ---------------------------------------


    POTLOK:  cpu time    0.1309: real time    0.1433
    SETDIJ:  cpu time    0.3034: real time    0.3034
     EDDAV:  cpu time   51.5855: real time   51.8861
       DOS:  cpu time    0.0011: real time    0.0011
    CHARGE:  cpu time    1.7640: real time    1.7844
    MIXING:  cpu time    0.0118: real time    0.0118
    --------------------------------------------
      LOOP:  cpu time   53.7967: real time   54.1302

 eigenvalue-minimisations  : 10336
 total energy-change (2. order) :-0.1142469E-03  (-0.1257435E-03)
 number of electron     864.0000006 magnetization 
 augmentation part      118.7408305 magnetization 

 Broyden mixing:
  rms(total) = 0.66701E-02    rms(broyden)= 0.66694E-02
  rms(prec ) = 0.85272E-02
  weight for this iteration     100.00

 eigenvalues of (default mixing * dielectric matrix)
  average eigenvalue GAMMA=   1.4173
  3.1288  2.3190  2.3190  0.9113  0.9113  0.9930  0.9930  0.9002  0.8486  0.8486

 Free energy of the ion-electron system (eV)
  ---------------------------------------------------
  alpha Z        PSCENC =      2431.37857233
  Ewald energy   TEWEN  =    -42891.81208416
  -Hartree energ DENC   =    -21166.22727304
  -exchange      EXHF   =         0.00000000
  -V(xc)+E(xc)   XCENC  =      3259.71439494
  PAW double counting   =     91680.10032948   -91343.48400306
  entropy T*S    EENTRO =        -0.00000000
  eigenvalues    EBANDS =     -7879.17852246
  atomic energy  EATOM  =     64968.54023382
  Solvation  Ediel_sol  =         0.00000000
  ---------------------------------------------------
  free energy    TOTEN  =      -940.96835215 eV

  energy without entropy =     -940.96835215  energy(sigma->0) =     -940.96835215


--------------------------------------------------------------------------------------------------------




--------------------------------------- Iteration      1(  16)  ---------------------------------------


    POTLOK:  cpu time    0.1322: real time    0.1386
    SETDIJ:  cpu time    0.3036: real time    0.3036
     EDDAV:  cpu time   49.9313: real time   50.2796
       DOS:  cpu time    0.0009: real time    0.0009
    CHARGE:  cpu time    1.7709: real time    1.7752
    MIXING:  cpu time    0.0096: real time    0.0096
    --------------------------------------------
      LOOP:  cpu time   52.1485: real time   52.5075

 eigenvalue-minimisations  :  9928
 total energy-change (2. order) :-0.4191636E-04  (-0.6618160E-04)
 number of electron     864.0000006 magnetization 
 augmentation part      118.7347506 magnetization 

 Broyden mixing:
  rms(total) = 0.26617E-02    rms(broyden)= 0.26605E-02
  rms(prec ) = 0.34788E-02
  weight for this iteration     100.00

 eigenvalues of (default mixing * dielectric matrix)
  average eigenvalue GAMMA=   1.4106
  3.2523  2.4552  2.4552  0.9042  0.9042  0.9859  0.9349  0.9359  0.9359  0.8765
  0.8765

 Free energy of the ion-electron system (eV)
  ---------------------------------------------------
  alpha Z        PSCENC =      2431.37857233
  Ewald energy   TEWEN  =    -42891.81208416
  -Hartree energ DENC   =    -21167.47141461
  -exchange      EXHF   =         0.00000000
  -V(xc)+E(xc)   XCENC  =      3259.77201501
  PAW double counting   =     91706.02154659   -91369.53384892
  entropy T*S    EENTRO =        -0.00000000
  eigenvalues    EBANDS =     -7877.86341413
  atomic energy  EATOM  =     64968.54023382
  Solvation  Ediel_sol  =         0.00000000
  ---------------------------------------------------
  free energy    TOTEN  =      -940.96839406 eV

  energy without entropy =     -940.96839406  energy(sigma->0) =     -940.96839406


--------------------------------------------------------------------------------------------------------




--------------------------------------- Iteration      1(  17)  ---------------------------------------


    POTLOK:  cpu time    0.1397: real time    0.1404
    SETDIJ:  cpu time    0.3024: real time    0.3076
     EDDAV:  cpu time   57.3114: real time   57.6820
       DOS:  cpu time    0.0009: real time    0.0009
    CHARGE:  cpu time    1.7639: real time    1.7748
    MIXING:  cpu time    0.0092: real time    0.0092
    --------------------------------------------
      LOOP:  cpu time   59.5274: real time   59.9149

 eigenvalue-minimisations  : 11784
 total energy-change (2. order) :-0.1946132E-04  (-0.3005328E-04)
 number of electron     864.0000006 magnetization 
 augmentation part      118.7368543 magnetization 

 Broyden mixing:
  rms(total) = 0.25185E-02    rms(broyden)= 0.25178E-02
  rms(prec ) = 0.29427E-02
  weight for this iteration     100.00

 eigenvalues of (default mixing * dielectric matrix)
  average eigenvalue GAMMA=   1.3677
  3.4163  2.4255  2.4255  1.0385  0.9889  0.9905  0.9905  0.9088  0.9088  0.8625
  0.8625  0.5944

 Free energy of the ion-electron system (eV)
  ---------------------------------------------------
  alpha Z        PSCENC =      2431.37857233
  Ewald energy   TEWEN  =    -42891.81208416
  -Hartree energ DENC   =    -21167.32506247
  -exchange      EXHF   =         0.00000000
  -V(xc)+E(xc)   XCENC  =      3259.75961821
  PAW double counting   =     91705.80622040   -91369.32718003
  entropy T*S    EENTRO =        -0.00000000
  eigenvalues    EBANDS =     -7877.98873161
  atomic energy  EATOM  =     64968.54023382
  Solvation  Ediel_sol  =         0.00000000
  ---------------------------------------------------
  free energy    TOTEN  =      -940.96841353 eV

  energy without entropy =     -940.96841353  energy(sigma->0) =     -940.96841353


--------------------------------------------------------------------------------------------------------




--------------------------------------- Iteration      1(  18)  ---------------------------------------


    POTLOK:  cpu time    0.1321: real time    0.1393
    SETDIJ:  cpu time    0.3035: real time    0.3039
     EDDAV:  cpu time   49.9833: real time   50.2823
       DOS:  cpu time    0.0009: real time    0.0009
    CHARGE:  cpu time    1.7634: real time    1.7795
    MIXING:  cpu time    0.0096: real time    0.0096
    --------------------------------------------
      LOOP:  cpu time   52.1928: real time   52.5154

 eigenvalue-minimisations  :  9920
 total energy-change (2. order) : 0.2722329E-05  (-0.7574739E-05)
 number of electron     864.0000006 magnetization 
 augmentation part      118.7380097 magnetization 

 Broyden mixing:
  rms(total) = 0.12052E-02    rms(broyden)= 0.12038E-02
  rms(prec ) = 0.14407E-02
  weight for this iteration     100.00

 eigenvalues of (default mixing * dielectric matrix)
  average eigenvalue GAMMA=   1.3970
  3.6434  2.5542  2.3410  1.5034  0.9590  0.9590  1.0103  1.0103  0.8833  0.8403
  0.8403  0.8080  0.8080

 Free energy of the ion-electron system (eV)
  ---------------------------------------------------
  alpha Z        PSCENC =      2431.37857233
  Ewald energy   TEWEN  =    -42891.81208416
  -Hartree energ DENC   =    -21167.22589076
  -exchange      EXHF   =         0.00000000
  -V(xc)+E(xc)   XCENC  =      3259.75253255
  PAW double counting   =     91707.14986168   -91370.68094578
  entropy T*S    EENTRO =        -0.00000000
  eigenvalues    EBANDS =     -7878.07069047
  atomic energy  EATOM  =     64968.54023382
  Solvation  Ediel_sol  =         0.00000000
  ---------------------------------------------------
  free energy    TOTEN  =      -940.96841080 eV

  energy without entropy =     -940.96841080  energy(sigma->0) =     -940.96841080


--------------------------------------------------------------------------------------------------------




--------------------------------------- Iteration      1(  19)  ---------------------------------------


    POTLOK:  cpu time    0.1303: real time    0.1417
    SETDIJ:  cpu time    0.3045: real time    0.3045
     EDDAV:  cpu time   49.4932: real time   49.7674
       DOS:  cpu time    0.0010: real time    0.0010
    CHARGE:  cpu time    1.7616: real time    1.7703
    MIXING:  cpu time    0.0132: real time    0.0132
    --------------------------------------------
      LOOP:  cpu time   51.7038: real time   51.9980

 eigenvalue-minimisations  :  9808
 total energy-change (2. order) :-0.1391454E-06  (-0.1132369E-05)
 number of electron     864.0000006 magnetization 
 augmentation part      118.7377458 magnetization 

 Broyden mixing:
  rms(total) = 0.51695E-03    rms(broyden)= 0.51414E-03
  rms(prec ) = 0.62515E-03
  weight for this iteration     100.00

[...]
   0.889E+01 -.558E+02 -.954E+01   0.662E+01 0.743E+02 0.202E+02   -.143E+02 -.173E+02 -.991E+01   0.955E-03 0.121E-04 0.945E-04
   0.593E+02 0.205E+01 0.769E+02   -.668E+02 0.145E+02 -.911E+02   0.946E+01 -.137E+02 0.156E+02   0.130E-03 -.525E-04 -.753E-04
   0.174E+02 -.309E+02 0.301E+02   -.187E+02 0.349E+02 -.197E+02   0.355E+01 -.290E+01 -.124E+02   -.266E-03 0.149E-04 -.263E-03
   -.540E+02 -.183E+02 -.402E+02   0.738E+02 0.259E+02 0.360E+02   -.206E+02 -.918E+01 0.697E+01   0.394E-03 -.410E-03 0.276E-03
   -.281E+02 0.156E+02 -.358E+02   0.908E+01 -.128E+02 0.294E+02   0.219E+02 -.348E+01 0.806E+01   -.835E-03 0.427E-03 0.279E-03
   -.118E+02 -.807E+02 -.395E+01   0.254E+02 0.949E+02 -.140E+02   -.141E+02 -.112E+02 0.154E+02   0.543E-03 -.322E-04 -.660E-03
   0.421E+02 0.444E+01 -.965E+02   -.444E+02 -.241E+02 0.106E+03   0.132E+01 0.214E+02 -.754E+01   0.380E-03 -.613E-03 0.611E-03
   -.225E+02 -.846E+01 -.338E+02   0.176E+02 -.142E+02 0.303E+02   0.747E+01 0.237E+02 0.314E+01   0.480E-03 0.200E-03 0.258E-03
   0.921E+02 -.958E+02 0.142E+03   -.885E+02 0.108E+03 -.139E+03   -.618E+01 -.141E+02 -.612E+01   -.815E-03 0.326E-03 -.620E-03
   -.488E+01 -.612E+02 0.257E+01   0.533E+01 0.643E+02 0.153E+01   -.310E+01 -.850E+00 -.350E+01   -.110E-02 0.903E-03 -.443E-03
   0.573E+02 0.112E+02 -.896E+02   -.795E+02 -.634E+01 0.933E+02   0.223E+02 -.406E+01 -.315E+01   -.956E-03 0.106E-02 -.552E-03
   0.672E+02 0.461E+01 0.583E+02   -.692E+02 -.143E+02 -.754E+02   0.893E+00 0.110E+02 0.207E+02   -.370E-03 -.791E-04 -.339E-03
   0.292E+02 0.756E+01 0.732E+02   -.262E+02 0.128E+02 -.828E+02   -.543E+01 -.191E+02 0.918E+01   -.158E-03 0.415E-03 -.233E-03
   0.547E+01 0.725E+01 -.774E+02   0.201E+02 -.860E+01 0.956E+02   -.254E+02 0.118E+01 -.173E+02   0.103E-02 -.847E-04 0.112E-02
   -.848E+02 0.122E+03 0.113E+03   0.101E+03 -.116E+03 -.128E+03   -.168E+02 -.628E+01 0.146E+02   0.285E-03 -.219E-03 -.434E-03
   0.473E+02 -.723E+02 -.195E+02   -.400E+02 0.989E+02 0.122E+02   -.731E+01 -.260E+02 0.779E+01   -.179E-03 0.790E-03 -.204E-04
   0.708E+02 0.947E+02 -.850E+02   -.864E+02 -.754E+02 0.876E+02   0.150E+02 -.243E+02 -.125E+01   -.192E-03 0.140E-03 0.742E-04
   0.271E+02 0.570E+02 0.929E+02   -.207E+02 -.561E+02 -.115E+03   -.866E+01 -.325E+01 0.243E+02   0.492E-03 -.121E-03 -.122E-02
   -.107E+01 0.162E+03 -.495E+02   -.103E+02 -.183E+03 0.637E+02   0.120E+02 0.230E+02 -.158E+02   0.427E-03 0.181E-03 -.390E-03
   0.114E+03 0.197E+02 0.915E+01   -.116E+03 -.157E+02 -.187E+02   0.141E+01 -.412E+01 0.104E+02   0.297E-03 -.118E-03 0.349E-03
   -.222E+02 -.326E+02 0.632E+02   0.166E+02 0.358E+02 -.840E+02   0.709E+01 -.257E+01 0.205E+02   0.745E-03 0.403E-03 -.642E-03
   -.378E+02 0.303E+02 -.203E+02   0.287E+02 -.421E+02 0.594E+01   0.109E+02 0.135E+02 0.152E+02   -.269E-03 -.107E-03 -.661E-04
   0.813E+02 0.383E+01 0.109E+03   -.755E+02 -.518E+01 -.107E+03   -.861E+01 0.170E+01 -.476E+01   -.418E-03 -.364E-03 0.474E-03
   0.504E+02 0.724E+02 -.415E+02   -.592E+02 -.904E+02 0.385E+02   0.113E+02 0.188E+02 0.418E+01   0.960E-03 -.511E-04 -.347E-03
   0.639E+02 0.952E+02 0.100E+03   -.600E+02 -.107E+03 -.126E+03   -.443E+01 0.135E+02 0.240E+02   0.996E-03 -.373E-03 -.962E-04
   0.359E+02 -.886E+01 -.357E+02   -.441E+02 0.343E+02 0.444E+02   0.738E+01 -.259E+02 -.908E+01   -.625E-03 0.425E-03 0.468E-03
   -.683E+02 -.224E+02 -.373E+02   0.716E+02 0.476E+02 0.325E+02   -.340E+01 -.262E+02 0.610E+01   0.392E-03 0.378E-03 -.709E-04
   -.854E+02 -.111E+03 -.246E+02   0.981E+02 0.130E+03 0.221E+02   -.114E+02 -.197E+02 0.285E+01   0.303E-03 -.530E-04 -.111E-03
   0.611E+02 0.148E+02 0.989E+01   -.565E+02 -.143E+02 0.228E+01   -.600E+01 0.577E+00 -.119E+02   0.144E-03 0.363E-03 0.814E-03
   0.390E+02 0.248E+02 -.154E+03   -.251E+02 -.278E+02 0.173E+03   -.165E+02 0.276E+01 -.201E+02   0.557E-04 0.701E-04 0.795E-03
   -.681E+01 -.660E+02 -.176E+02   -.624E+01 0.749E+02 0.252E+02   0.121E+02 -.922E+01 -.101E+02   0.258E-03 -.431E-03 0.281E-04
   0.519E+02 0.787E+02 -.130E+03   -.506E+02 -.104E+03 0.144E+03   -.606E+01 0.202E+02 -.145E+02   -.125E-03 0.417E-03 -.857E-03
   -.144E+03 0.214E+02 0.107E+02   0.165E+03 -.244E+02 -.243E+02   -.212E+02 0.231E+01 0.135E+02   0.368E-03 -.441E-03 -.613E-03
   0.457E+01 -.796E+02 0.181E+02   -.148E+02 0.100E+03 -.318E+02   0.104E+02 -.207E+02 0.129E+02   -.325E-03 0.809E-03 -.387E-03
   0.539E+02 -.449E+01 -.319E+02   -.451E+02 -.941E+01 0.240E+02   -.102E+02 0.154E+02 0.989E+01   -.443E-04 0.272E-03 -.101E-03
   -.201E+02 -.130E+03 -.450E+02   0.158E+02 0.153E+03 0.492E+02   0.799E+01 -.237E+02 -.442E+01   0.997E-03 -.957E-03 -.155E-03
   -.713E+02 -.121E+03 0.128E+02   0.846E+02 0.146E+03 -.136E+02   -.148E+02 -.214E+02 -.869E+00   -.589E-03 -.462E-03 -.422E-03
   -.403E+02 -.527E+02 -.189E+02   0.188E+02 0.516E+02 0.243E+02   0.248E+02 0.260E+01 -.600E+01   -.112E-03 0.266E-03 0.295E-03
   -.586E+02 -.492E+02 -.663E+02   0.428E+02 0.608E+02 0.860E+02   0.163E+02 -.128E+02 -.185E+02   0.474E-03 0.254E-03 0.334E-03
   -.509E+02 0.215E+02 -.276E+02   0.499E+02 -.401E+02 0.324E+02   0.126E+01 0.197E+02 -.608E+01   0.977E-04 -.628E-03 -.519E-03
   -.233E+02 -.457E+02 0.485E+02   0.218E+02 0.478E+02 -.417E+02   0.581E+01 -.119E+01 -.482E+01   0.540E-03 -.407E-03 0.495E-03
   0.121E+02 -.644E+02 0.369E+02   -.247E+02 0.726E+02 -.287E+02   0.143E+02 -.987E+01 -.114E+02   -.141E-03 -.740E-03 -.417E-03
   -.618E+02 -.182E+03 -.139E+03   0.474E+02 0.184E+03 0.155E+03   0.142E+02 0.204E+01 -.143E+02   -.994E-03 0.481E-03 0.123E-03
   0.445E+02 -.897E+02 0.128E+03   -.516E+02 0.960E+02 -.148E+03   0.634E+01 -.763E+01 0.191E+02   -.366E-03 0.322E-05 0.491E-03
   0.787E+02 0.817E+02 -.681E+02   -.891E+02 -.895E+02 0.916E+02   0.902E+01 0.681E+01 -.199E+02   -.963E-03 -.843E-03 0.139E-03
   0.433E+02 0.148E+01 0.125E+03   -.623E+02 -.338E+01 -.150E+03   0.196E+02 0.229E+01 0.279E+02   -.119E-02 -.551E-03 0.679E-04
   -.124E+03 -.296E+02 0.105E+03   0.153E+03 0.374E+02 -.104E+03   -.263E+02 -.732E+01 -.320E+01   0.140E-02 0.111E-03 0.132E-03
   0.425E+02 -.718E+02 0.594E+01   -.421E+02 0.899E+02 -.130E+01   0.107E+01 -.174E+02 -.317E+01   0.412E-03 -.275E-03 -.369E-03
 -----------------------------------------------------------------------------------------------
   -.128E+02 0.272E+02 0.855E+01   0.369E-12 0.668E-12 0.351E-12   0.128E+02 -.272E+02 -.857E+01   -.838E-03 0.985E-03 -.222E-03
 
 
 POSITION                                       TOTAL-FORCE (eV/Angst)
 -----------------------------------------------------------------------------------
      7.58039      5.33610      5.71504         0.246151      0.094019      1.196612
     10.46739     10.31701      5.15202         0.861260     -0.540579      0.129306
      0.52995      4.60571     12.30840         0.850131     -1.892503      2.757865
      6.70376      8.02199     10.82786        -1.182315      0.109889     -0.833456
      0.28864      7.25562      2.72780         1.206442      0.700729      0.324648
     11.47061      7.39625      6.49480        -0.401923     -3.340832     -0.142132
      2.07306     11.30148     11.70525        -0.140266      0.694605      0.793809
      3.35203      1.55552      4.10706         1.288950     -0.281221      0.312373
      3.75503      1.44563      8.73930        -2.077564     -1.221782      1.464634
      5.70111     10.76564      3.59597        -1.452314     -1.210828      1.464477
     11.41275      7.30992     11.79512        -0.193654     -1.385810     -1.687308
      9.51821      5.38847      8.83067         0.596827      2.304675      1.818750
      2.44102     10.57556      3.36799        -0.876733      0.132640     -2.905929
      7.19062      3.34489      9.35740         0.378868     -0.496857     -1.372622
      4.27428      2.37715     12.28826        -0.204462      0.658086     -0.023293
      3.70298      6.98041      4.87859        -0.334663      0.170738     -0.158747
      4.22644      6.67960      0.84738         0.912133      0.586402      0.564687
     12.24350      1.66775      3.93863         0.948877     -1.795494      1.251677
      7.62229      7.69844      1.64043        -1.344000     -0.306130      0.440705
      7.77206     11.95243      6.82775        -1.983133     -2.749870      3.064261
      6.49670      3.98838      3.32337        -2.860677     -0.458858     -1.005551
     11.24351      9.43389      8.98105         0.368480      1.598783     -1.925787
     10.15382      3.53573      2.40723        -1.424287     -0.249479      0.110512
      1.13764      4.80931      5.08963         3.590224      0.459095     -0.946510
     11.53609     10.99073      1.49681         0.451240     -0.735896     -0.042948
     10.37970      1.75279      9.26413        -0.762826     -0.275109     -0.595743
      5.23416      9.32025      7.65375        -0.306559      0.731281     -3.007890
      3.11801      4.45595      1.85260         1.204679     -2.651557      1.699171
      8.62615      2.17158      4.96932         0.255684     -2.208576     -3.556986
      5.65506      2.80146      6.58090        -4.777897     -3.610181      1.221765
      9.48771      9.19770     12.01492         1.109820     -3.874006     -0.155267
      8.76753     12.23872      3.12805        -0.694613      1.323144     -1.000887
      6.37606      8.04197      5.01683        -0.925622      0.555730     -2.110821
      1.03247      1.20657      6.61599        -1.817048      0.730435      2.086568
      7.00298      4.12549      0.24786        -0.670831     -1.218084     -0.268603
      5.38760      5.48694      9.93360        -1.687664      0.125956      3.638642
      6.85905      0.66186     10.19447         2.038205      0.165379      0.119004
      8.24832      8.83541      7.73133         1.766753     -0.885988     -4.354695
      3.21284      4.84385      7.78163        -1.283453     -3.840378     -4.628810
      0.91943      6.08179      9.19241         0.275868     -0.275246      1.680731
      8.10349     11.46712      0.18284        -2.330515      3.196081     -4.176930
      9.72695      3.99429     11.72862        -1.642657     -3.407522     -0.487170
      4.57743     10.97539     10.21100         0.587593      0.407424      1.388426
     11.79055      1.79887      0.42194         1.925807     -1.439042     -0.660041
      1.64583      0.81956      1.33091         2.685984     -0.851556      1.838635
      3.15099     11.30357      6.34031         5.423437      7.672866     -1.655141
      9.79886      6.47218      4.03955         1.597027      3.642226     -0.507129
      5.27048     10.09998      0.62073        -5.018124      1.386669      2.543773
      1.25338      2.66741      9.61996        -1.322166      2.065885     -0.854746
      0.94215      9.38350      5.70259        -0.138941     -0.259936     -1.081274
     11.47319     11.85795     10.62995        -4.559990      4.721344      0.363000
     10.50194      4.05918      6.02636        -0.074712      3.442865      2.587980
      1.56752      8.42572      0.42465        -0.524947     -1.781181     -0.020539
      3.23301      8.02759     10.17974         0.729552     -1.156523      0.854766
     10.26702      2.83862      5.20897        -1.576283     -9.036826     -3.992326
      3.27615     11.74586      9.73447         0.623676      0.128069      0.113611
      2.21002      8.67922     11.34318         0.713026     -0.628226      0.739429
      0.40033      9.99854      4.23790         0.098856      1.463764      1.266411
      0.23494     11.24308     10.24343         4.389043     -3.701105     -0.112318
      3.77296      3.37404      7.01717         0.173406      2.735750      0.563355
      1.85186      0.41435      3.00804        -1.537873      0.547797     -2.224127
      7.38995      8.92477      6.14226        -0.498940     -2.041502     -0.190078
     11.99496      4.23610      5.78007         2.733656      0.196067      1.466394
     11.23955      5.99047      3.24238        -3.118070     -0.947554     -0.656755
      5.03167      8.83529      5.36318        -2.724653      0.151907      1.685693
      0.41794      6.96978      0.54476         2.387156      2.605468      0.407557
      4.40877      5.07573      2.82425        -1.457360      1.337172     -0.673930
      1.06110      7.87716      5.15891         1.837908     -3.176636     -0.631421
      0.48315     12.37887      0.80317         0.198021     -1.753961      0.764935
     12.40302      3.02534     10.43196         0.783797     -0.787149     -1.063539
      9.67154     10.73999     12.26964        -1.261279      3.805899     -0.502792
      7.45415     11.73770      3.88119         2.294992     -1.373458      1.034824
      8.55867      3.20523      0.28488        -1.726329      4.132917     -0.870960
      4.71768     11.43131      6.90268        -1.530614     -1.726592      1.607903
      7.94708      0.95169      5.77292         2.282849      5.239687     -0.772525
      2.00449      0.06880      6.98407         5.917672     -5.470208      0.152479
      9.76648      3.93467      7.40672        -0.524826     -0.638048      1.094799
      1.92991      4.55993      8.80637        -3.360655      1.475932      0.250324
      6.16045     11.65829     10.08337        -2.723943     -1.025248     -1.027876
      0.75554      5.80274     10.82252        -0.095496      2.562915     -4.666992
      3.72198     11.47780      4.64819        -1.234485      1.396281      2.780613
     12.17220      0.51367      6.40869        -2.579444      0.413422     -1.258146
     10.31553     11.71067      3.19100        -0.636389     -0.778815      1.965096
      5.09888      1.42530      7.42521         5.602022      1.938197     -3.489883
      8.07832      6.64423      3.37849         5.498534     -2.635886      3.103554
      2.59943      7.97977      1.54307         0.289719     -0.361470      1.009477
      4.31750      9.19890      9.58953        -0.736205      0.983912      1.702151
      6.63587      3.88740      7.16962         1.171245      1.257580      0.757966
      8.61780      1.31537      3.39664         1.944892      2.919144      1.364521
     10.82647      3.17781      0.19586         2.219661      1.075327     -1.962540
      8.06080      0.11447     11.32109        -0.821221     -1.555112      2.724920
     11.91795      6.45498      8.46646         2.917287     -0.693456      1.650709
      1.64667      1.98988      5.41729        -0.468357      2.943164     -2.542447
      5.83332      4.16413     10.90220        -1.017032      1.684278      1.497614
      5.18591      8.50623      0.39087         2.622560      1.085963     -0.385674
     10.42896      8.04295      4.83312        -2.580785     -1.835586     -3.405852
      9.98977      5.37693      5.24009        -2.644941      2.253576      0.611362
      1.57055      4.95868      2.18516         0.019332      0.838665      0.569999
      9.97300      8.52834     10.42009        -1.085305      1.302763      3.557932
      8.40142      3.64208      4.31830        -2.466985      1.221378     -0.323910
      2.61437      2.47202     10.35969         0.147769     -0.171377      0.849936
      7.98237      1.21156      9.11661        -0.230988     -0.825884     -1.102914
     10.20973      5.45680     11.40451        -0.000139      0.592831      0.442692
      5.85420      2.02369     10.27731        -0.559654     -5.014431      1.364513
      3.67486      4.78542      0.21532        -2.242975     -2.312800      1.863117
      6.18431      3.05634      1.23661         0.587346      2.189498     -1.580847
      1.10836      2.12876      8.08017        -0.377477     -0.090843      0.863511
      6.33518      8.42341      3.39566         1.467301      0.645857     -0.276954
      9.16334      3.29206     10.31522         1.753888      1.689861      0.887806
     11.62654      0.56747     11.78413        -2.838510      0.351030     -2.673933
      5.77246      6.40533      5.05580         2.496715      0.736597      1.208143
      5.85523      2.47786      5.03233        -0.569198      1.264772     -1.333968
      0.99165      9.86708      0.82158        -0.791204     -0.458591     -0.412381
      7.18218      5.74910      0.21895        -0.107413     -0.974802      1.233858
      9.14527     10.18689      7.36070         1.230565     -0.778986      0.400824
      4.50581      6.86470     10.61718        -1.353624      1.059009      0.277612
     10.67360      8.77473      0.70661        -2.461818     -0.276556     -1.513569
      4.42314     10.74118     11.87435        -0.943802     -0.264806     -2.554605
      2.42146      9.98616      6.46640        -4.699493     -5.325138     -0.523218
      2.94087      0.70404      0.36313         0.047258     -0.767703     -0.006463
      2.69294      5.90506      6.68829         0.103168     -0.050498     -0.803417
      9.16277      7.35291      7.43479        -1.412256      1.455225      1.967491
      6.43033     11.21433      0.55000         3.666292     -0.840037     -0.236792
      0.86081      2.15969      0.82388        -1.461939      3.606353     -1.614731
      7.87268      8.86805     12.37110         3.303796      1.564744     -0.555586
      7.09252      9.22226      8.76765         0.515798     -1.207606      1.184353
      3.11506      2.83995      2.36907         0.322225      1.123916     -1.309204
      4.22697      5.19132      8.86690         4.248565      0.943405      1.991636
      4.29071     10.67651      2.02616         1.679329     -1.674095     -3.249662
     12.25854      9.19515      6.75419        -0.168552      3.712045      2.005472
      2.11773      7.42986      9.14647        -0.768909     -1.270166     -0.751666
     11.24972      1.70782      1.88730        -1.406327     -0.983463      3.621591
     10.50744     11.86295      9.30327         0.519494      0.387717      2.352314
      6.82685      6.10458      9.88025         2.241103      0.459028     -2.724409
      8.44734     12.16775      1.50713         1.466388      0.699822      1.470092
 -----------------------------------------------------------------------------------
    total drift:                                0.000680     -0.033933     -0.026334


--------------------------------------------------------------------------------------------------------



  FREE ENERGIE OF THE ION-ELECTRON SYSTEM (eV)
  ---------------------------------------------------
  free  energy   TOTEN  =      -940.96841122 eV

  energy  without entropy=     -940.96841122  energy(sigma->0) =     -940.96841122
 


--------------------------------------------------------------------------------------------------------


    POTLOK:  cpu time    0.4358: real time    0.4363


--------------------------------------------------------------------------------------------------------


     LOOP+:  cpu time 1154.3332: real time 1161.3398
    4ORBIT:  cpu time    0.0000: real time    0.0000

 total amount of memory used by VASP MPI-rank0   190143. kBytes
=======================================================================

   base      :      30000. kBytes
   nonlr-proj:      20938. kBytes
   fftplans  :      28860. kBytes
   grid      :      16510. kBytes
   one-center:        186. kBytes
   wavefun   :      93649. kBytes
 
  
  
 General timing and accounting informations for this job:
 ========================================================
  
                  Total CPU time used (sec):     1180.940
                            User time (sec):     1176.967
                          System time (sec):        3.973
                         Elapsed time (sec):     1188.266
  
                   Maximum memory used (kb):      327744.
                   Average memory used (kb):           0.
  
                          Minor page faults:       216688
                          Major page faults:            0
                 Voluntary context switches:          422
