 vasp.5.4.4.18Apr17-6-g9f103f2a35 (build Oct 31 2019 15:01:46) complex          
  
 executed on             LinuxIFC date 2024.04.28  22:22:54
 running on   52 total cores
 distrk:  each k-point on   52 cores,    1 groups
 distr:  one band on NCORES_PER_BAND=  13 cores,    4 groups


--------------------------------------------------------------------------------------------------------


 INCAR:
 POTCAR:    PAW_PBE Ca_sv 06Sep2000               
 POTCAR:    PAW_PBE Si 05Jan2001                  
 POTCAR:    PAW_PBE O 08Apr2002                   
 POTCAR:    PAW_PBE Ca_sv 06Sep2000               
   SHA256 =  a47365830e737f14e0e6c5cf1ed81b94e081eecf0a33df105380881bc9da05d5 Ca
   COPYR  = (c) Copyright 06Sep2000 Georg Kresse                                
   COPYR  = This file is part of the software VASP. Any use, copying, and all ot
   COPYR  = If you do not have a valid VASP license, you may not use, copy or di
   VRHFIN =Ca: 3s3p4s                                                           
   LEXCH  = PE                                                                  
   EATOM  =  1006.0909 eV,   73.9456 Ry                                         
                                                                                
   TITEL  = PAW_PBE Ca_sv 06Sep2000                                             
   LULTRA =        F    use ultrasoft PP ?                                      
   IUNSCR =        1    unscreen: 0-lin 1-nonlin 2-no                           
   RPACOR =    2.000    partial core radius                                     
   POMASS =   40.078; ZVAL   =   10.000    mass and valenz                      
   RCORE  =    2.300    outmost cutoff radius                                   
   RWIGS  =    2.500; RWIGS  =    1.323    wigner-seitz radius (au A)           
   ENMAX  =  266.622; ENMIN  =  199.967 eV                                      
   RCLOC  =    1.808    cutoff for local pot                                    
   LCOR   =        T    correct aug charges                                     
   LPAW   =        T    paw PP                                                  
   EAUG   =  420.852                                                            
   RMAX   =    2.359    core radius for proj-oper                               
   RAUG   =    1.300    factor for augmentation sphere                          
   RDEP   =    2.392    radius for radial grids                                 
   RDEPT  =    1.987    core radius for aug-charge                              
                                                                                
   Atomic configuration                                                         
    7 entries                                                                   
     n  l   j            E        occ.                                          
     1  0  0.50     -3949.1705   2.0000                                         
     2  0  0.50      -414.3434   2.0000                                         
     2  1  1.50      -334.7047   6.0000                                         
     3  0  0.50       -47.0896   2.0000                                         
     4  0  0.50        -3.7663   2.0000                                         
     3  1  1.50       -28.0061   6.0000                                         
     3  2  1.50        -4.0817   0.0000                                         
   Description                                                                  
     l       E           TYP  RCUT    TYP  RCUT                                 
     0    -47.0896403     23  2.300                                             
     0     -3.7663320     23  2.300                                             
     1    -28.0060855     23  2.300                                             
     1      6.8029130     23  2.300                                             
     2     -4.0817478     23  2.300                                             
     2      0.4464412     23  2.300                                             
  local pseudopotential read in
  partial core-charges read in
  partial kinetic energy density read in
  atomic valenz-charges read in
  non local Contribution for L=           0  read in
    real space projection operators read in
  non local Contribution for L=           0  read in
    real space projection operators read in
  non local Contribution for L=           1  read in
    real space projection operators read in
  non local Contribution for L=           1  read in
    real space projection operators read in
  non local Contribution for L=           2  read in
    real space projection operators read in
  non local Contribution for L=           2  read in
    real space projection operators read in
    PAW grid and wavefunctions read in
 
   number of l-projection  operators is LMAX  =           6
   number of lm-projection operators is LMMAX =          18
 
 POTCAR:    PAW_PBE Si 05Jan2001                  
   SHA256 =  79d9987ad8750f624c4d6acb2a16d13abf6a777132adc04dc6c8399be72b42bb Si
   COPYR  = (c) Copyright 05Jan2001 Georg Kresse                                
   COPYR  = This file is part of the software VASP. Any use, copying, and all ot
   COPYR  = If you do not have a valid VASP license, you may not use, copy or di
   VRHFIN =Si: s2p2                                                             
   LEXCH  = PE                                                                  
   EATOM  =   103.0669 eV,    7.5752 Ry                                         
                                                                                
   TITEL  = PAW_PBE Si 05Jan2001                                                
   LULTRA =        F    use ultrasoft PP ?                                      
   IUNSCR =        1    unscreen: 0-lin 1-nonlin 2-no                           
   RPACOR =    1.500    partial core radius                                     
   POMASS =   28.085; ZVAL   =    4.000    mass and valenz                      
   RCORE  =    1.900    outmost cutoff radius                                   
   RWIGS  =    2.480; RWIGS  =    1.312    wigner-seitz radius (au A)           
   ENMAX  =  245.345; ENMIN  =  184.009 eV                                      
   ICORE  =        2    local potential                                         
   LCOR   =        T    correct aug charges                                     
   LPAW   =        T    paw PP                                                  
   EAUG   =  322.069                                                            
   DEXC   =    0.000                                                            
   RMAX   =    1.950    core radius for proj-oper                               
   RAUG   =    1.300    factor for augmentation sphere                          
   RDEP   =    1.993    radius for radial grids                                 
   RDEPT  =    1.837    core radius for aug-charge                              
                                                                                
   Atomic configuration                                                         
    6 entries                                                                   
     n  l   j            E        occ.                                          
     1  0  0.50     -1785.8828   2.0000                                         
     2  0  0.50      -139.4969   2.0000                                         
     2  1  1.50       -95.5546   6.0000                                         
     3  0  0.50       -10.8127   2.0000                                         
     3  1  0.50        -4.0811   2.0000                                         
     3  2  1.50        -4.0817   0.0000                                         
   Description                                                                  
     l       E           TYP  RCUT    TYP  RCUT                                 
     0    -10.8127223     23  1.900                                             
     0     -7.6451159     23  1.900                                             
     1     -4.0811372     23  1.900                                             
     1      2.4879257     23  1.900                                             
     2     -4.0817478      7  1.900                                             
  local pseudopotential read in
  partial core-charges read in
  partial kinetic energy density read in
  atomic valenz-charges read in
  non local Contribution for L=           0  read in
    real space projection operators read in
  non local Contribution for L=           0  read in
    real space projection operators read in
  non local Contribution for L=           1  read in
    real space projection operators read in
  non local Contribution for L=           1  read in
    real space projection operators read in
    PAW grid and wavefunctions read in
 
   number of l-projection  operators is LMAX  =           4
   number of lm-projection operators is LMMAX =           8
 
 POTCAR:    PAW_PBE O 08Apr2002                   
   SHA256 =  818f92134a0a090dccd8ba1447fa70422a3b330e708bb4f08108d8ae51209ddf O/
   COPYR  = (c) Copyright 08Apr2002 Georg Kresse                                
   COPYR  = This file is part of the software VASP. Any use, copying, and all ot
   COPYR  = If you do not have a valid VASP license, you may not use, copy or di
   VRHFIN =O: s2p4                                                              
   LEXCH  = PE                                                                  
   EATOM  =   432.3788 eV,   31.7789 Ry                                         
                                                                                
   TITEL  = PAW_PBE O 08Apr2002                                                 
   LULTRA =        F    use ultrasoft PP ?                                      
   IUNSCR =        1    unscreen: 0-lin 1-nonlin 2-no                           
   RPACOR =    1.200    partial core radius                                     
   POMASS =   16.000; ZVAL   =    6.000    mass and valenz                      
   RCORE  =    1.520    outmost cutoff radius                                   
   RWIGS  =    1.550; RWIGS  =    0.820    wigner-seitz radius (au A)           
   ENMAX  =  400.000; ENMIN  =  300.000 eV                                      
   ICORE  =        2    local potential                                         
   LCOR   =        T    correct aug charges                                     
   LPAW   =        T    paw PP                                                  
   EAUG   =  605.392                                                            
   DEXC   =    0.000                                                            
   RMAX   =    1.553    core radius for proj-oper                               
   RAUG   =    1.300    factor for augmentation sphere                          
   RDEP   =    1.550    radius for radial grids                                 
   RDEPT  =    1.329    core radius for aug-charge                              
                                                                                
   Atomic configuration                                                         
    4 entries                                                                   
     n  l   j            E        occ.                                          
     1  0  0.50      -514.6923   2.0000                                         
     2  0  0.50       -23.9615   2.0000                                         
     2  1  0.50        -9.0305   4.0000                                         
     3  2  1.50        -9.5241   0.0000                                         
   Description                                                                  
     l       E           TYP  RCUT    TYP  RCUT                                 
     0    -23.9615318     23  1.200                                             
     0     -9.5240782     23  1.200                                             
     1     -9.0304911     23  1.520                                             
     1      8.1634956     23  1.520                                             
     2     -9.5240782      7  1.500                                             
  local pseudopotential read in
  partial core-charges read in
  partial kinetic energy density read in
  kinetic energy density of atom read in
  atomic valenz-charges read in
  non local Contribution for L=           0  read in
    real space projection operators read in
  non local Contribution for L=           0  read in
    real space projection operators read in
  non local Contribution for L=           1  read in
    real space projection operators read in
  non local Contribution for L=           1  read in
    real space projection operators read in
    PAW grid and wavefunctions read in
 
   number of l-projection  operators is LMAX  =           4
   number of lm-projection operators is LMMAX =           8
 
 Optimization of the real space projectors (new method)

 maximal supplied QI-value         = 16.25
 optimisation between [QCUT,QGAM] = [ 12.51, 25.03] = [ 43.85,175.40] Ry 
 Optimized for a Real-space Cutoff    1.47 Angstroem

   l    n(q)    QCUT    max X(q) W(low)/X(q) W(high)/X(q)  e(spline) 
   0     11    12.514    11.817    0.25E-04    0.32E-05    0.87E-07
   0     11    12.514     8.461    0.39E-04    0.59E-05    0.18E-06
   1     11    12.514     3.957    0.97E-05    0.57E-05    0.28E-07
   1     11    12.514     4.314    0.42E-04    0.14E-04    0.23E-06
   2     10    12.514    14.565    0.79E-04    0.50E-03    0.16E-05
   2     10    12.514    14.552    0.75E-04    0.48E-03    0.15E-05
 Optimization of the real space projectors (new method)

 maximal supplied QI-value         = 19.84
 optimisation between [QCUT,QGAM] = [ 12.50, 25.00] = [ 43.76,175.03] Ry 
 Optimized for a Real-space Cutoff    1.16 Angstroem

   l    n(q)    QCUT    max X(q) W(low)/X(q) W(high)/X(q)  e(spline) 
   0      9    12.501   159.560    0.10E-03    0.83E-04    0.71E-07
   0      9    12.501   115.863    0.99E-04    0.81E-04    0.70E-07
   1      8    12.501    88.339    0.20E-03    0.25E-03    0.76E-07
   1      8    12.501    48.592    0.20E-03    0.24E-03    0.75E-07
 Optimization of the real space projectors (new method)

 maximal supplied QI-value         = 24.76
 optimisation between [QCUT,QGAM] = [ 12.38, 25.00] = [ 42.90,175.06] Ry 
 Optimized for a Real-space Cutoff    1.16 Angstroem

   l    n(q)    QCUT    max X(q) W(low)/X(q) W(high)/X(q)  e(spline) 
   0      9    12.378    20.381    0.16E-03    0.67E-05    0.31E-06
   0      9    12.378    15.268    0.17E-03    0.81E-05    0.33E-06
   1      8    12.378     5.964    0.20E-03    0.16E-03    0.30E-06
   1      8    12.378     5.382    0.18E-03    0.14E-03    0.26E-06
  PAW_PBE Ca_sv 06Sep2000               :
 energy of atom  1       EATOM=-1006.0909
 kinetic energy error for atom=    0.0012 (will be added to EATOM!!)
  PAW_PBE Si 05Jan2001                  :
 energy of atom  2       EATOM= -103.0669
 kinetic energy error for atom=    0.0003 (will be added to EATOM!!)
  PAW_PBE O 08Apr2002                   :
 energy of atom  3       EATOM= -432.3788
 kinetic energy error for atom=    0.0168 (will be added to EATOM!!)
 
 
 POSCAR: Ca Si  O                                
  positions in direct lattice
  No initial velocities read in
 exchange correlation table for  LEXCH =        8
   RHO(1)=    0.500       N(1)  =     2000
   RHO(2)=  100.500       N(2)  =     4000
 


--------------------------------------------------------------------------------------------------------


 ion  position               nearest neighbor table
   1  0.740  0.228  0.712- 122 2.24  65 2.31  52 3.09  29 3.10
   2  0.243  0.421  0.255-  85 2.17
   3  0.596  0.869  0.375-  67 2.00 115 2.45  30 2.99
   4  0.125  0.846  0.988-  94 2.03 128 2.15  78 2.28 124 2.47  36 2.74
   5  0.326  0.978  0.184- 104 2.09 133 2.37
   6  0.482  0.557  0.986-  95 2.37
   7  0.779  0.575  0.677-  70 2.20  63 2.22 107 2.36
   8  0.034  0.148  0.360- 125 1.86  84 2.16
   9  0.123  0.695  0.344-  87 2.04  32 2.99
  10  0.639  0.115  0.203-  71 2.09  88 2.13  57 2.28  66 2.35  17 3.16
  11  0.514  0.180  0.491-  99 2.21  76 2.57  38 2.89
  12  0.997  0.005  0.554- 127 2.05  82 2.52  64 2.55
  13  0.064  0.129  0.809- 126 1.93  82 2.11  36 2.82
  14  0.222  0.133  0.516- 131 2.34  84 2.39  72 2.54  43 2.91
  15  0.759  0.829  0.921- 103 2.44  69 2.49
  16  0.609  0.593  0.322- 112 2.10 135 2.20  86 2.36
  17  0.613  0.158  0.983-  83 1.87  54 3.06  10 3.16
  18  0.293  0.186  0.004- 111 1.87  60 2.04  36 2.90
  19  0.243  0.680  0.613- 123 2.09 129 2.17  44 2.96  53 3.09  24 3.10
  20  0.091  0.509  0.773-  81 2.23 123 2.37  77 2.48  34 2.93
  21  0.897  0.498  0.243- 118 2.19  80 2.28  93 2.40  46 3.03  39 3.10
  22  0.329  0.259  0.737-  61 2.15  72 2.43
  23  0.465  0.420  0.618-  73 2.17  61 2.34  47 2.72  41 3.13  45 3.13
  24  0.445  0.767  0.641-  90 2.30  97 2.34  49 2.97  19 3.10
  25  0.822  0.312  0.455- 110 2.15
  26  0.872  0.500  0.955- 130 2.28  77 2.43  80 2.47  39 3.14
  27  0.373  0.919  0.829-  75 2.15  78 2.23 113 2.53
  28  0.390  0.679  0.279- 109 1.56 112 1.59  56 1.77  96 1.95  35 2.88  42 3.09
  29  0.899  0.378  0.680-  65 1.52 110 1.58  63 1.63 120 1.80   1 3.10
  30  0.701  0.861  0.189-  57 1.47  67 1.55   3 2.99
  31  0.930  0.916  0.755- 103 1.70  82 1.73  91 1.73  64 1.94  52 2.58
  32  0.124  0.907  0.364-  87 1.46 101 1.60 133 1.63 127 1.70   9 2.99  42 3.14
  33  0.036  0.386  0.387-  85 1.47 125 1.66  93 1.70 116 1.84  43 3.11
  34  0.136  0.510  0.977-  77 1.68 106 1.76 134 1.91  98 2.09  37 2.67  20 2.93
  35  0.267  0.678  0.114-  98 1.61  94 1.66  56 1.72  96 2.04  28 2.88
  36  0.180  0.026  0.937-  78 1.63 126 1.66 111 1.77 124 1.80   4 2.74  13 2.82  18 2.90
  37  0.101  0.329  0.026-  60 1.50  62 1.54 106 1.80 134 2.10  34 2.67
  38  0.551  0.319  0.343- 114 1.55 108 1.64  88 1.72  89 1.77  11 2.89  40 3.03  45 3.11
  39  0.720  0.537  0.116- 130 1.53 135 1.62  80 1.73  74 2.26  21 3.10  26 3.14  40 3.14
  40  0.610  0.343  0.136- 119 1.48  74 1.65  89 1.74  83 1.82  38 3.03  39 3.14
  41  0.494  0.382  0.836-  61 1.61  95 1.64  58 1.93  59 1.97  47 3.11  23 3.13
  42  0.337  0.850  0.408- 115 1.65 121 1.67 109 1.69 101 2.12 133 2.40  28 3.09  32 3.14
  43  0.087  0.279  0.574- 116 1.62  84 1.72  72 1.80 120 1.91  14 2.91  33 3.11
  44  0.115  0.787  0.742- 128 1.61 123 1.87  91 2.00 117 2.34  19 2.96
  45  0.354  0.335  0.444-  92 1.47  99 1.70 114 1.76  79 1.78  38 3.11  23 3.13
  46  0.840  0.551  0.445- 107 1.59 118 1.73  86 1.91  93 1.98  21 3.03
  47  0.392  0.554  0.738- 132 1.54  73 1.55  97 1.74  95 1.94  23 2.72  41 3.11
  48  0.543  0.761  0.907- 100 1.52  69 1.72  55 1.82  68 2.10
  49  0.647  0.767  0.704-  70 1.58  90 1.61  55 1.70 102 2.38  24 2.97
  50  0.246  0.928  0.612- 131 1.61 117 1.66  75 1.70 121 1.97
  51  0.736  0.077  0.446-  66 1.54  76 1.61 105 1.70
  52  0.774  0.011  0.732-  64 1.47 122 1.64 102 1.76 103 2.18  31 2.58   1 3.09
  53  0.199  0.476  0.543-  81 1.53  79 1.61 129 1.80 116 2.16  19 3.09
  54  0.502  0.975  0.030- 113 1.61  68 1.70  71 1.72 104 2.05  17 3.06
  55  0.577  0.811  0.792-  49 1.70  48 1.82
  56  0.381  0.700  0.155-  35 1.72  28 1.77
  57  0.699  0.964  0.208-  30 1.47  10 2.28
  58  0.410  0.387  0.945-  41 1.93
  59  0.632  0.364  0.823-  41 1.97
  60  0.181  0.264  0.057-  37 1.50  18 2.04
  61  0.472  0.314  0.747-  41 1.61  22 2.15  23 2.34
  62  0.997  0.299  0.007-  37 1.54
  63  0.880  0.473  0.744-  29 1.63   7 2.22
  64  0.857  0.997  0.669-  52 1.47  31 1.94  12 2.55
  65  0.894  0.282  0.730-  29 1.52   1 2.31
  66  0.664  0.071  0.363-  51 1.54  10 2.35
  67  0.612  0.820  0.242-  30 1.55   3 2.00
  68  0.568  0.898  0.963-  54 1.70  48 2.10
  69  0.639  0.704  0.958-  48 1.72  15 2.49
  70  0.753  0.728  0.697-  49 1.58   7 2.20
  71  0.532  0.055  0.118-  54 1.72  10 2.09
  72  0.177  0.237  0.656-  43 1.80  22 2.43  14 2.54
  73  0.344  0.460  0.705-  47 1.55  23 2.17
  74  0.592  0.445  0.080-  40 1.65  39 2.26
  75  0.300  0.870  0.703-  50 1.70  27 2.15
  76  0.679  0.117  0.538-  51 1.61  11 2.57
  77  0.035  0.556  0.934-  34 1.68  26 2.43  20 2.48
  78  0.247  0.932  0.926-  36 1.63  27 2.23   4 2.28
  79  0.298  0.428  0.509-  53 1.61  45 1.78
  80  0.810  0.453  0.113-  39 1.73  21 2.28  26 2.47
  81  0.180  0.464  0.650-  53 1.53  20 2.23
  82  0.000  0.016  0.734-  31 1.73  13 2.11  12 2.52
  83  0.557  0.248  0.065-  40 1.82  17 1.87
  84  0.058  0.179  0.510-  43 1.72   8 2.16  14 2.39
  85  0.106  0.433  0.324-  33 1.47   2 2.17
  86  0.704  0.560  0.457-  46 1.91  16 2.36
  87  0.069  0.828  0.324-  32 1.46   9 2.04
  88  0.570  0.204  0.305-  38 1.72  10 2.13
  89  0.536  0.374  0.230-  40 1.74  38 1.77
  90  0.602  0.791  0.600-  49 1.61  24 2.30
  91  0.978  0.812  0.710-  31 1.73  44 2.00
  92  0.335  0.263  0.370-  45 1.47
  93  0.944  0.464  0.404-  33 1.70  46 1.98  21 2.40
  94  0.200  0.772  0.087-  35 1.66   4 2.03
  95  0.483  0.499  0.827-  41 1.64  47 1.94   6 2.37
  96  0.274  0.611  0.243-  28 1.95  35 2.04
  97  0.423  0.602  0.628-  47 1.74  24 2.34
  98  0.241  0.597  0.037-  35 1.61  34 2.09
  99  0.382  0.257  0.532-  45 1.70  11 2.21
 100  0.442  0.776  0.944-  48 1.52
 101  0.189  0.850  0.438-  32 1.60  42 2.12
 102  0.676  0.934  0.717-  52 1.76  49 2.38
 103  0.860  0.951  0.847-  31 1.70  52 2.18  15 2.44
 104  0.418  0.887  0.111-  54 2.05   5 2.09
 105  0.857  0.072  0.455-  51 1.70
 106  0.175  0.394  0.945-  34 1.76  37 1.80
 107  0.877  0.599  0.541-  46 1.59   7 2.36
 108  0.653  0.351  0.393-  38 1.64
 109  0.360  0.738  0.369-  28 1.56  42 1.69
 110  0.842  0.392  0.584-  29 1.58  25 2.15
 111  0.222  0.079  0.044-  36 1.77  18 1.87
 112  0.460  0.596  0.314-  28 1.59  16 2.10
 113  0.457  0.033  0.941-  54 1.61  27 2.53
 114  0.476  0.349  0.418-  38 1.55  45 1.76
 115  0.430  0.920  0.389-  42 1.65   3 2.45
 116  0.096  0.369  0.502-  43 1.62  33 1.84  53 2.16
 117  0.136  0.884  0.608-  50 1.66  44 2.34
 118  0.845  0.612  0.338-  46 1.73  21 2.19
 119  0.697  0.294  0.170-  40 1.48
 120  0.025  0.366  0.658-  29 1.80  43 1.91
 121  0.331  0.856  0.526-  42 1.67  50 1.97
 122  0.717  0.092  0.794-  52 1.64   1 2.24
 123  0.128  0.659  0.705-  44 1.87  19 2.09  20 2.37
 124  0.055  0.005  0.958-  36 1.80   4 2.47
 125  0.001  0.276  0.363-  33 1.66   8 1.86
 126  0.193  0.105  0.850-  36 1.66  13 1.93
 127  0.095  0.991  0.446-  32 1.70  12 2.05
 128  0.162  0.813  0.843-  44 1.61   4 2.15
 129  0.174  0.595  0.503-  53 1.80  19 2.17
 130  0.741  0.575  0.015-  39 1.53  26 2.28
 131  0.279  0.035  0.639-  50 1.61  14 2.34
 132  0.364  0.645  0.792-  47 1.54
 133  0.221  0.917  0.300-  32 1.63   5 2.37  42 2.40
 134  0.093  0.461  0.096-  34 1.91  37 2.10
 135  0.681  0.621  0.184-  39 1.62  16 2.20
 

IMPORTANT INFORMATION: All symmetrisations will be switched off!
NOSYMM: (Re-)initialisation of all symmetry stuff for point group C_1.

 
 

Automatic generation of k-mesh.
 generate k-points for:    2    2    2
Space group operators:
 irot       det(A)        alpha          n_x          n_y          n_z        tau_x        tau_y        tau_z
    1     1.000000     0.000000     1.000000     0.000000     0.000000     0.000000     0.000000     0.000000
 
 Subroutine IBZKPT returns following result:
 ===========================================
 
 Found      8 irreducible k-points:
 
 Following reciprocal coordinates:
            Coordinates               Weight
  0.000000  0.000000  0.000000      1.000000
  0.500000  0.000000  0.000000      1.000000
  0.000000  0.500000  0.000000      1.000000
  0.500000  0.500000  0.000000      1.000000
  0.000000  0.000000  0.500000      1.000000
  0.500000  0.000000  0.500000      1.000000
  0.000000  0.500000  0.500000      1.000000
  0.500000  0.500000  0.500000      1.000000
 
 Following cartesian coordinates:
            Coordinates               Weight
  0.000000  0.000000  0.000000      1.000000
  0.035682  0.000000  0.000000      1.000000
  0.000000  0.035682  0.000000      1.000000
  0.035682  0.035682  0.000000      1.000000
  0.000000  0.000000  0.035682      1.000000
  0.035682  0.000000  0.035682      1.000000
  0.000000  0.035682  0.035682      1.000000
  0.035682  0.035682  0.035682      1.000000
 


--------------------------------------------------------------------------------------------------------




 Dimension of arrays:
   k-points           NKPTS =      8   k-points in BZ     NKDIM =      8   number of bands    NBANDS=    520
   number of dos      NEDOS =    301   number of ions     NIONS =    135
   non local maximal  LDIM  =      6   non local SUM 2l+1 LMDIM =     18
   total plane-waves  NPLWV = ******
   max r-space proj   IRMAX =   6854   max aug-charges    IRDMAX= 195070
   dimension x,y,z NGX =   112 NGY =  112 NGZ =  112
   dimension x,y,z NGXF=   224 NGYF=  224 NGZF=  224
   support grid    NGXF=   448 NGYF=  448 NGZF=  448
   ions per type =              27  27  81
   NGX,Y,Z   is equivalent  to a cutoff of  13.29, 13.29, 13.29 a.u.
   NGXF,Y,Z  is equivalent  to a cutoff of  26.58, 26.58, 26.58 a.u.

 SYSTEM =  unknown system                          
 POSCAR =  Ca Si  O                                

 Startparameter for this run:
   NWRITE =      2    write-flag & timer
   PREC   = a         normal or accurate (medium, high low for compatibility)
   ISTART =      0    job   : 0-new  1-cont  2-samecut
   ICHARG =      2    charge: 1-file 2-atom 10-const
   ISPIN  =      1    spin polarized calculation?
   LNONCOLLINEAR =      F non collinear calculations
   LSORBIT =      F    spin-orbit coupling
   INIWAV =      1    electr: 0-lowe 1-rand  2-diag
   LASPH  =      F    aspherical Exc in radial PAW
   METAGGA=      F    non-selfconsistent MetaGGA calc.

 Electronic Relaxation 1
   ENCUT  =  600.0 eV  44.10 Ry    6.64 a.u.  27.99 27.99 27.99*2*pi/ulx,y,z
   ENINI  =  600.0     initial cutoff
   ENAUG  =  605.4 eV  augmentation charge cutoff
   NELM   =     60;   NELMIN=  2; NELMDL= -5     # of ELM steps 
   EDIFF  = 0.1E-05   stopping-criterion for ELM
   LREAL  =      T    real-space projection
   NLSPLINE    = F    spline interpolate recip. space projectors
   LCOMPAT=      F    compatible to vasp.4.4
   GGA_COMPAT  = T    GGA compatible to vasp.4.4-vasp.4.6
   LMAXPAW     = -100 max onsite density
   LMAXMIX     =    2 max onsite mixed and CHGCAR
   VOSKOWN=      0    Vosko Wilk Nusair interpolation
   ROPT   =   -0.00025  -0.00025  -0.00025
 Ionic relaxation
   EDIFFG = -.1E-01   stopping-criterion for IOM
   NSW    =      1    number of steps for IOM
   NBLOCK =      1;   KBLOCK =      1    inner block; outer block 
   IBRION =     -1    ionic relax: 0-MD 1-quasi-New 2-CG
   NFREE  =      0    steps in history (QN), initial steepest desc. (CG)
   ISIF   =      2    stress and relaxation
   IWAVPR =     10    prediction:  0-non 1-charg 2-wave 3-comb
   ISYM   =      0    0-nonsym 1-usesym 2-fastsym
   LCORR  =      T    Harris-Foulkes like correction to forces

   POTIM  = 1.0000    time-step for ionic-motion
   TEIN   =    0.0    initial temperature
   TEBEG  =    0.0;   TEEND  =   0.0 temperature during run
   SMASS  =  -3.00    Nose mass-parameter (am)
   estimated Nose-frequenzy (Omega)   =  0.10E-29 period in steps =****** mass=  -0.449E-26a.u.
   SCALEE = 1.0000    scale energy and forces
   NPACO  =    256;   APACO  = 16.0  distance and # of slots for P.C.
   PSTRESS=    0.0 pullay stress

  Mass of Ions in am
   POMASS =  40.08 28.09 16.00
  Ionic Valenz
   ZVAL   =  10.00  4.00  6.00
  Atomic Wigner-Seitz radii
   RWIGS  =  -1.00 -1.00 -1.00
  virtual crystal weights 
   VCA    =   1.00  1.00  1.00
   NELECT =     864.0000    total number of electrons
   NUPDOWN=      -1.0000    fix difference up-down

 DOS related values:
   EMIN   =  10.00;   EMAX   =-10.00  energy-range for DOS
   EFERMI =   0.00
   ISMEAR =     0;   SIGMA  =   0.05  broadening in eV -4-tet -1-fermi 0-gaus

 Electronic relaxation 2 (details)
   IALGO  =     38    algorithm
   LDIAG  =      T    sub-space diagonalisation (order eigenvalues)
   LSUBROT=      F    optimize rotation matrix (better conditioning)
   TURBO    =      0    0=normal 1=particle mesh
   IRESTART =      0    0=no restart 2=restart with 2 vectors
   NREBOOT  =      0    no. of reboots
   NMIN     =      0    reboot dimension
   EREF     =   0.00    reference energy to select bands
   IMIX   =      4    mixing-type and parameters
     AMIX     =   0.40;   BMIX     =  1.00
     AMIX_MAG =   1.60;   BMIX_MAG =  1.00
     AMIN     =   0.10
     WC   =   100.;   INIMIX=   1;  MIXPRE=   1;  MAXMIX= -45

 Intra band minimization:
   WEIMIN = 0.0000     energy-eigenvalue tresh-hold
   EBREAK =  0.48E-09  absolut break condition
   DEPER  =   0.30     relativ break condition  

   TIME   =   0.40     timestep for ELM

  volume/ion in A,a.u.               =      20.38       137.54
  Fermi-wavevector in a.u.,A,eV,Ry     =   1.112727  2.102749 16.846204  1.238161
  Thomas-Fermi vector in A             =   2.249304
 
 Write flags
   LWAVE        =      F    write WAVECAR
   LDOWNSAMPLE  =      F    k-point downsampling of WAVECAR
   LCHARG       =      F    write CHGCAR
   LVTOT        =      F    write LOCPOT, total local potential
   LVHAR        =      F    write LOCPOT, Hartree potential only
   LELF         =      F    write electronic localiz. function (ELF)
   LORBIT       =      0    0 simple, 1 ext, 2 COOP (PROOUT), +10 PAW based schemes


 Dipole corrections
   LMONO  =      F    monopole corrections only (constant potential shift)
   LDIPOL =      F    correct potential (dipole corrections)
   IDIPOL =      0    1-x, 2-y, 3-z, 4-all directions 
   EPSILON=  1.0000000 bulk dielectric constant

 Exchange correlation treatment:
   GGA     =    --    GGA type
   LEXCH   =     8    internal setting for exchange type
   VOSKOWN=      0    Vosko Wilk Nusair interpolation
   LHFCALC =     F    Hartree Fock is set to
   LHFONE  =     F    Hartree Fock one center treatment
   AEXX    =    0.0000 exact exchange contribution

 Linear response parameters
   LEPSILON=     F    determine dielectric tensor
   LRPA    =     F    only Hartree local field effects (RPA)
   LNABLA  =     F    use nabla operator in PAW spheres
   LVEL    =     F    velocity operator in full k-point grid
   LINTERFAST=   F  fast interpolation
   KINTER  =     0    interpolate to denser k-point grid
   CSHIFT  =0.1000    complex shift for real part using Kramers Kronig
   OMEGAMAX=  -1.0    maximum frequency
   DEG_THRESHOLD= 0.2000000E-02 threshold for treating states as degnerate
   RTIME   =   -0.100 relaxation time in fs
  (WPLASMAI=    0.000 imaginary part of plasma frequency in eV, 0.658/RTIME)
   DFIELD  = 0.0000000 0.0000000 0.0000000 field for delta impulse in time
 
 Orbital magnetization related:
   ORBITALMAG=     F  switch on orbital magnetization
   LCHIMAG   =     F  perturbation theory with respect to B field
   DQ        =  0.001000  dq finite difference perturbation B field
   LLRAUG    =     F  two centre corrections for induced B field



--------------------------------------------------------------------------------------------------------


 Static calculation
 charge density and potential will be updated during run
 non-spin polarized calculation
 Variant of blocked Davidson
 Davidson routine will perform the subspace rotation
 perform sub-space diagonalisation
    after iterative eigenvector-optimisation
 modified Broyden-mixing scheme, WC =      100.0
 initial mixing is a Kerker type mixing with AMIX =  0.4000 and BMIX =      1.0000
 Hartree-type preconditioning will be used
 using additional bands           88
 real space projection scheme for non local part
 use partial core corrections
 calculate Harris-corrections to forces 
   (improved forces if not selfconsistent)
 use gradient corrections 
 use of overlap-Matrix (Vanderbilt PP)
 Gauss-broadening in eV      SIGMA  =   0.05


--------------------------------------------------------------------------------------------------------


  energy-cutoff  :      600.00
  volume of cell :     2751.52
      direct lattice vectors                 reciprocal lattice vectors
    14.012776000  0.000000000  0.000000000     0.071363447  0.000000000  0.000000000
     0.000000000 14.012776000  0.000000000     0.000000000  0.071363447  0.000000000
     0.000000000  0.000000000 14.012776000     0.000000000  0.000000000  0.071363447

  length of vectors
    14.012776000 14.012776000 14.012776000     0.071363447  0.071363447  0.071363447


 
 k-points in units of 2pi/SCALE and weight: read from INCAR                         
   0.00000000  0.00000000  0.00000000       0.125
   0.03568172  0.00000000  0.00000000       0.125
   0.00000000  0.03568172  0.00000000       0.125
   0.03568172  0.03568172  0.00000000       0.125
   0.00000000  0.00000000  0.03568172       0.125
   0.03568172  0.00000000  0.03568172       0.125
   0.00000000  0.03568172  0.03568172       0.125
   0.03568172  0.03568172  0.03568172       0.125
 
 k-points in reciprocal lattice and weights: read from INCAR                         
   0.00000000  0.00000000  0.00000000       0.125
   0.50000000  0.00000000  0.00000000       0.125
   0.00000000  0.50000000  0.00000000       0.125
   0.50000000  0.50000000  0.00000000       0.125
   0.00000000  0.00000000  0.50000000       0.125
   0.50000000  0.00000000  0.50000000       0.125
   0.00000000  0.50000000  0.50000000       0.125
   0.50000000  0.50000000  0.50000000       0.125
 
 position of ions in fractional coordinates (direct lattice) 
   0.73996685  0.22751555  0.71155161
   0.24303769  0.42095528  0.25515505
   0.59587585  0.86854381  0.37457301
   0.12458337  0.84574815  0.98826608
   0.32649765  0.97835508  0.18370291
   0.48198247  0.55742988  0.98560471
   0.77928770  0.57460096  0.67650673
   0.03417013  0.14759399  0.36038281
   0.12310072  0.69455454  0.34436419
   0.63934440  0.11543511  0.20312036
   0.51368560  0.18021857  0.49064434
   0.99724367  0.00533700  0.55427031
   0.06373117  0.12918370  0.80906299
   0.22243745  0.13261137  0.51557003
   0.75939130  0.82906822  0.92054874
   0.60935864  0.59315962  0.32155937
   0.61285129  0.15812262  0.98330214
   0.29307434  0.18580376  0.00448376
   0.24319203  0.68045560  0.61253239
   0.09077099  0.50888572  0.77332086
   0.89705274  0.49829960  0.24330356
   0.32867363  0.25903046  0.73677588
   0.46501486  0.41980581  0.61805464
   0.44476496  0.76731597  0.64060542
   0.82215943  0.31155035  0.45523659
   0.87178450  0.50002131  0.95483513
   0.37341230  0.91851690  0.82903657
   0.39048240  0.67925568  0.27922699
   0.89913474  0.37805683  0.67989944
   0.70061869  0.86086159  0.18912917
   0.93019064  0.91648642  0.75461860
   0.12442307  0.90730770  0.36378186
   0.03565415  0.38640936  0.38662842
   0.13635036  0.50955468  0.97732894
   0.26731955  0.67811601  0.11436597
   0.18000705  0.02635898  0.93743520
   0.10134320  0.32867131  0.02615398
   0.55137699  0.31936976  0.34286920
   0.72019419  0.53667763  0.11556458
   0.60990922  0.34258994  0.13594264
   0.49365560  0.38234445  0.83613989
   0.33687566  0.84997048  0.40755795
   0.08730083  0.27890262  0.57393517
   0.11468012  0.78682034  0.74219981
   0.35422964  0.33534154  0.44356581
   0.83955124  0.55068316  0.44533411
   0.39220397  0.55355263  0.73803558
   0.54323223  0.76058994  0.90723738
   0.64685150  0.76733986  0.70350947
   0.24625721  0.92815979  0.61181157
   0.73555714  0.07676786  0.44575225
   0.77391082  0.01059489  0.73218992
   0.19925381  0.47604411  0.54327939
   0.50210362  0.97545316  0.02961298
   0.57655847  0.81113314  0.79228707
   0.38096079  0.70002443  0.15464197
   0.69922476  0.96426014  0.20767747
   0.41009106  0.38661176  0.94516753
   0.63243154  0.36416187  0.82337819
   0.18140722  0.26387142  0.05652338
   0.47182238  0.31364239  0.74700489
   0.99681231  0.29935423  0.00700835
   0.88001234  0.47312665  0.74422841
   0.85662780  0.99715417  0.66943738
   0.89428862  0.28197555  0.73040560
   0.66404841  0.07108924  0.36288782
   0.61199274  0.81960264  0.24161190
   0.56750191  0.89778640  0.96327757
   0.63904921  0.70377005  0.95826949
   0.75271774  0.72809220  0.69708805
   0.53247755  0.05528367  0.11797780
   0.17676548  0.23681758  0.65626070
   0.34350933  0.46005654  0.70539482
   0.59223524  0.44487964  0.08029868
   0.30048147  0.86975604  0.70288193
   0.67929843  0.11743944  0.53758073
   0.03472784  0.55624697  0.93419548
   0.24737285  0.93208901  0.92551248
   0.29837730  0.42821298  0.50927526
   0.81048186  0.45258598  0.11312537
   0.18037388  0.46401039  0.64981732
   0.00013184  0.01581082  0.73365486
   0.55675970  0.24807828  0.06470685
   0.05803260  0.17852909  0.50962500
   0.10550738  0.43327154  0.32447299
   0.70419892  0.55955337  0.45685426
   0.06894915  0.82848032  0.32405779
   0.56954288  0.20438094  0.30495340
   0.53551293  0.37380316  0.22987216
   0.60229861  0.79075475  0.59992586
   0.97805187  0.81175854  0.71039758
   0.33450775  0.26324904  0.37032157
   0.94360654  0.46376939  0.40438791
   0.20013997  0.77150861  0.08660951
   0.48312178  0.49886124  0.82691165
   0.27405963  0.61120752  0.24347899
   0.42316470  0.60205108  0.62813421
   0.24140759  0.59740292  0.03708442
   0.38197359  0.25694293  0.53224981
   0.44207059  0.77611441  0.94398078
   0.18891276  0.84955332  0.43843108
   0.67556704  0.93431776  0.71721400
   0.85970591  0.95075299  0.84704224
   0.41822692  0.88655915  0.11052044
   0.85669289  0.07170172  0.45473612
   0.17541637  0.39449686  0.94470117
   0.87676040  0.59919938  0.54102709
   0.65269705  0.35088023  0.39286748
   0.36049237  0.73779526  0.36905642
   0.84182863  0.39190105  0.58414299
   0.22243827  0.07926009  0.04387007
   0.45973861  0.59582950  0.31362493
   0.45701808  0.03284126  0.94062077
   0.47643476  0.34945605  0.41813797
   0.42956436  0.92005382  0.38942119
   0.09627559  0.36897539  0.50183563
   0.13635202  0.88407971  0.60816073
   0.84529466  0.61151271  0.33789207
   0.69700164  0.29387608  0.17031445
   0.02531980  0.36590268  0.65818718
   0.33123146  0.85618469  0.52610844
   0.71713931  0.09198482  0.79374460
   0.12805253  0.65924306  0.70508467
   0.05506157  0.00521557  0.95820139
   0.00075899  0.27571394  0.36302817
   0.19270263  0.10483392  0.84968615
   0.09500947  0.99146156  0.44585014
   0.16225269  0.81262600  0.84334096
   0.17444550  0.59515024  0.50273731
   0.74057962  0.57451545  0.01499047
   0.27887295  0.03513362  0.63860179
   0.36382552  0.64523165  0.79229765
   0.22109165  0.91670728  0.30033148
   0.09250315  0.46062911  0.09638196
   0.68101128  0.62087244  0.18439589
 
 position of ions in cartesian coordinates  (Angst):
  10.36898977  3.18812448  9.97081336
   3.40563276  5.89875205  3.57543057
   8.34987483 12.17070986  5.24880769
   1.74575889 11.85127931 13.84835119
   4.57513837 13.70947053  2.57418769
   6.75391236  7.81113999 13.81105796
  10.91998393  8.05175457  9.47973732
   0.47881834  2.06820152  5.04996361
   1.72498276  9.73263723  4.82549831
   8.95898992  1.61756631  2.84628007
   7.19816125  2.52536244  6.87528923
  13.97415222  0.07478622  7.76686567
   0.89305061  1.81022229 11.33721847
   3.11696618  1.85825349  7.22456733
  10.64118022 11.61754722 12.89944325
   8.53880607  8.31181283  4.50593942
   8.58774785  2.21573690 13.77879267
   4.10678508  2.60362649  0.06282996
   3.40779549  9.53507197  8.58327911
   1.27195357  7.13090155 10.83637192
  12.57019905  6.98256069  3.40935829
   4.60563002  3.62973587 10.32427539
   6.51614913  5.88264475  8.66066122
   6.23239170 10.75222681  8.97666022
  11.52073587  4.36568532  6.37912842
  12.21612089  7.00668658 13.37989084
   5.23254294 12.87097158 11.61710369
   5.47174242  9.51825776  3.91274527
  12.59937377  5.29762563  9.52727850
   9.81761280 12.06306059  2.65022469
  13.03455313 12.84251898 10.57430134
   1.74351257 12.71389950  5.09759373
   0.49961357  5.41466774  5.41773749
   1.91064700  7.14027564 13.69509155
   3.74588892  9.50228777  1.60258471
   2.52239853  0.36936244 13.13606951
   1.42009955  4.60559751  0.36648986
   7.72632223  4.47525695  4.80454927
  10.09191981  7.52034340  1.61938062
   8.54652122  4.80063612  1.90493376
   6.91748533  5.35770717 11.71664098
   4.72056313 11.91044599  5.71101820
   1.22332693  3.90819998  8.04242499
   1.60698680 11.02553720 10.40027970
   4.96374059  4.69906586  6.21558829
  11.76444352  7.71659974  6.24036707
   5.49586633  7.75680894 10.34192724
   7.61219158 10.65797649 12.71291415
   9.06418518 10.75256156  9.85812068
   3.45074719 13.00609526  8.57317852
  10.30719740  1.07573080  6.24622638
  10.84463893  0.14846381 10.26001332
   2.79209903  6.67069942  7.61285240
   7.03586553 13.66880666  0.41496007
   8.07918474 11.36622705 11.10214123
   5.33831818  9.80928556  2.16696335
   9.79807998 13.51196137  2.91013791
   5.74651420  5.41750393 13.24442094
   8.86212149  5.10291870 11.53781417
   2.54201879  3.69757111  0.79204941
   6.61154138  4.39500057 10.46761221
  13.96810756  4.19478373  0.09820650
  12.33141585  6.62981779 10.42870596
  12.00373341 13.97289808  9.38067602
  12.53146608  3.95126027 10.23501008
   9.30516166  0.99615755  5.08506576
   8.57571718 11.48490823  3.38565350
   7.95227716 12.58047978 13.49819278
   8.95485340  9.86177206 13.42801570
  10.54766513 10.20259288  9.76813869
   7.46148865  0.77467771  1.65319648
   2.47697505  3.31847172  9.19603419
   4.81351935  6.44666924  9.88453964
   8.29885974  6.23399876  1.12520748
   4.21057955 12.18769656  9.84932710
   9.51885675  1.64565263  7.53299841
   0.48663349  7.79456415 13.09067206
   3.46638034 13.06115452 12.96899905
   4.18109432  6.00045262  7.13636012
  11.35710070  6.34198600  1.58520050
   2.52753877  6.50207362  9.10574456
   0.00184744  0.22155351 10.28054125
   7.80174902  3.47626542  0.90672264
   0.81319784  2.50168808  7.14126097
   1.47845124  6.07133704  4.54676730
   9.86778172  7.84089601  6.40179647
   0.96616904 11.60930916  4.54094928
   7.98087683  2.86394432  4.27324362
   7.50402276  5.23801993  3.22114704
   8.43987545 11.08066921  8.40662668
  13.70522177 11.37499057  9.95464222
   4.68738215  3.68884980  5.18923314
  13.22254714  6.49869651  5.66659727
   2.80451659 10.81097734  1.21363964
   6.76987727  6.99043088 11.58732770
   3.84033614  8.56471409  3.41181659
   5.92971219  8.43640690  8.80190395
   3.38279050  8.37127327  0.51965566
   5.35251042  3.60048373  7.45829743
   6.19463616 10.87551737 13.22779126
   2.64719214 11.90460033  6.14363645
   9.46656959 13.09238554 10.05015907
  12.04686633 13.32268870 11.86941313
   5.86052014 12.42315483  1.54869816
  12.00464559  1.00474020  6.37211537
   2.45807024  5.52799619 13.23788584
  12.28584704  8.39644668  7.58129144
   9.14609756  4.91680609  5.50516406
   5.05149882 10.33855970  5.17150489
  11.79635608  5.49162168  8.18546493
   3.11697769  1.11065388  0.61474147
   6.44221416  8.34922529  4.39475584
   6.40409200  0.46019720 13.18070813
   6.67617361  4.89684942  5.85927367
   6.01938909 12.89250815  5.45687185
   1.34908828  5.17036954  7.03211033
   1.91067034 12.38841089  8.52202013
  11.84492475  8.56899067  4.73480589
   9.76692779  4.11801966  2.38657823
   0.35480069  5.12731228  9.22302954
   4.64147221 11.99752422  7.37223979
  10.04911249  1.28896272 11.12256527
   1.79437144  9.23782530  9.88019354
   0.77156550  0.07308457 13.42706141
   0.01063550  3.86351766  5.08703236
   2.70029878  1.46901423 11.90646172
   1.33134643 13.89312882  6.24759821
   2.27361055 11.38714609 11.81754800
   2.44446569  8.33970703  7.04474535
  10.37757634  8.05055625  0.21005810
   3.90778421  0.49231954  8.94858381
   5.09820553  9.04148664 11.10228946
   3.09810779 12.84561379  4.20847769
   1.29622587  6.45469259  1.35057883
   9.54285850  8.70014637  2.58389827
 


--------------------------------------------------------------------------------------------------------


 k-point  1 :   0.0000 0.0000 0.0000  plane waves:   91911
 k-point  2 :   0.5000 0.0000 0.0000  plane waves:   91744
 k-point  3 :   0.0000 0.5000 0.0000  plane waves:   91744
 k-point  4 :   0.5000 0.5000 0.0000  plane waves:   91656
 k-point  5 :   0.0000 0.0000 0.5000  plane waves:   91744
 k-point  6 :   0.5000 0.0000 0.5000  plane waves:   91656
 k-point  7 :   0.0000 0.5000 0.5000  plane waves:   91656
 k-point  8 :   0.5000 0.5000 0.5000  plane waves:   92096

 maximum and minimum number of plane-waves per node :      7114     6990

 maximum number of plane-waves:     92096
 maximum index in each direction: 
   IXMAX=   27   IYMAX=   27   IZMAX=   27
   IXMIN=  -28   IYMIN=  -28   IZMIN=  -28


 real space projection operators:
  total allocation   :      46996.25 KBytes
  max/ min on nodes  :       3813.03       3367.73


 parallel 3D FFT for wavefunctions:
    minimum data exchange during FFTs selected (reduces bandwidth)
 parallel 3D FFT for charge:
    minimum data exchange during FFTs selected (reduces bandwidth)


 total amount of memory used by VASP MPI-rank0   227662. kBytes
=======================================================================

   base      :      30000. kBytes
   nonlr-proj:      20257. kBytes
   fftplans  :      36399. kBytes
   grid      :      20695. kBytes
   one-center:        171. kBytes
   wavefun   :     120140. kBytes
 
     INWAV:  cpu time    0.0000: real time    0.0000
 Broyden mixing: mesh for mixing (old mesh)
   NGX = 55   NGY = 55   NGZ = 55
  (NGX  =224   NGY  =224   NGZ  =224)
  gives a total of 166375 points

 initial charge density was supplied:
 charge density of overlapping atoms calculated
 number of electron     864.0000000 magnetization 
 keeping initial charge density in first step


--------------------------------------------------------------------------------------------------------


 Maximum index for non-local projection operator          662
 Maximum index for augmentation-charges         4992 (set IRDMAX)


--------------------------------------------------------------------------------------------------------


 First call to EWALD:  gamma=   0.126
 Maximum number of real-space cells 3x 3x 3
 Maximum number of reciprocal cells 3x 3x 3

    FEWALD:  cpu time    0.0049: real time    0.0049


--------------------------------------- Iteration      1(   1)  ---------------------------------------


    POTLOK:  cpu time    0.2192: real time    0.2261
    SETDIJ:  cpu time    0.3937: real time    0.3937
     EDDAV:  cpu time   54.7212: real time   54.7210
       DOS:  cpu time    0.0024: real time    0.0024
    --------------------------------------------
      LOOP:  cpu time   55.3365: real time   55.3431

 eigenvalue-minimisations  :  8320
 total energy-change (2. order) : 0.9159923E+04  (-0.4521349E+05)
 number of electron     864.0000000 magnetization 
 augmentation part      864.0000000 magnetization 

 Free energy of the ion-electron system (eV)
  ---------------------------------------------------
  alpha Z        PSCENC =      1736.69897902
  Ewald energy   TEWEN  =    -29217.20543573
  -Hartree energ DENC   =    -30293.25929850
  -exchange      EXHF   =         0.00000000
  -V(xc)+E(xc)   XCENC  =      3111.77302129
  PAW double counting   =     50594.51003143   -49994.65612350
  entropy T*S    EENTRO =        -0.04392685
  eigenvalues    EBANDS =     -1746.43444317
  atomic energy  EATOM  =     64968.54023382
  Solvation  Ediel_sol  =         0.00000000
  ---------------------------------------------------
  free energy    TOTEN  =      9159.92303781 eV

  energy without entropy =     9159.96696466  energy(sigma->0) =     9159.94500124


--------------------------------------------------------------------------------------------------------




--------------------------------------- Iteration      1(   2)  ---------------------------------------


     EDDAV:  cpu time   67.0703: real time   67.0898
       DOS:  cpu time    0.0010: real time    0.0010
    --------------------------------------------
      LOOP:  cpu time   67.0713: real time   67.0908

 eigenvalue-minimisations  : 10488
 total energy-change (2. order) :-0.9125176E+04  (-0.8857610E+04)
 number of electron     864.0000000 magnetization 
 augmentation part      864.0000000 magnetization 

 Free energy of the ion-electron system (eV)
  ---------------------------------------------------
  alpha Z        PSCENC =      1736.69897902
  Ewald energy   TEWEN  =    -29217.20543573
  -Hartree energ DENC   =    -30293.25929850
  -exchange      EXHF   =         0.00000000
  -V(xc)+E(xc)   XCENC  =      3111.77302129
  PAW double counting   =     50594.51003143   -49994.65612350
  entropy T*S    EENTRO =        -0.00000000
  eigenvalues    EBANDS =    -10871.65486332
  atomic energy  EATOM  =     64968.54023382
  Solvation  Ediel_sol  =         0.00000000
  ---------------------------------------------------
  free energy    TOTEN  =        34.74654451 eV

  energy without entropy =       34.74654451  energy(sigma->0) =       34.74654451


--------------------------------------------------------------------------------------------------------




--------------------------------------- Iteration      1(   3)  ---------------------------------------


     EDDAV:  cpu time   66.5702: real time   66.5897
       DOS:  cpu time    0.0009: real time    0.0009
    --------------------------------------------
      LOOP:  cpu time   66.5712: real time   66.5906

 eigenvalue-minimisations  : 10312
 total energy-change (2. order) :-0.1053542E+04  (-0.1046480E+04)
 number of electron     864.0000000 magnetization 
 augmentation part      864.0000000 magnetization 

 Free energy of the ion-electron system (eV)
  ---------------------------------------------------
  alpha Z        PSCENC =      1736.69897902
  Ewald energy   TEWEN  =    -29217.20543573
  -Hartree energ DENC   =    -30293.25929850
  -exchange      EXHF   =         0.00000000
  -V(xc)+E(xc)   XCENC  =      3111.77302129
  PAW double counting   =     50594.51003143   -49994.65612350
  entropy T*S    EENTRO =        -0.00000000
  eigenvalues    EBANDS =    -11925.19660773
  atomic energy  EATOM  =     64968.54023382
  Solvation  Ediel_sol  =         0.00000000
  ---------------------------------------------------
  free energy    TOTEN  =     -1018.79519990 eV

  energy without entropy =    -1018.79519990  energy(sigma->0) =    -1018.79519990


--------------------------------------------------------------------------------------------------------




--------------------------------------- Iteration      1(   4)  ---------------------------------------


     EDDAV:  cpu time   68.9412: real time   68.9578
       DOS:  cpu time    0.0009: real time    0.0009
    --------------------------------------------
      LOOP:  cpu time   68.9421: real time   68.9587

 eigenvalue-minimisations  : 10768
 total energy-change (2. order) :-0.4693192E+02  (-0.4675410E+02)
 number of electron     864.0000000 magnetization 
 augmentation part      864.0000000 magnetization 

 Free energy of the ion-electron system (eV)
  ---------------------------------------------------
  alpha Z        PSCENC =      1736.69897902
  Ewald energy   TEWEN  =    -29217.20543573
  -Hartree energ DENC   =    -30293.25929850
  -exchange      EXHF   =         0.00000000
  -V(xc)+E(xc)   XCENC  =      3111.77302129
  PAW double counting   =     50594.51003143   -49994.65612350
  entropy T*S    EENTRO =        -0.00000000
  eigenvalues    EBANDS =    -11972.12852993
  atomic energy  EATOM  =     64968.54023382
  Solvation  Ediel_sol  =         0.00000000
  ---------------------------------------------------
  free energy    TOTEN  =     -1065.72712210 eV

  energy without entropy =    -1065.72712210  energy(sigma->0) =    -1065.72712210


--------------------------------------------------------------------------------------------------------




--------------------------------------- Iteration      1(   5)  ---------------------------------------


     EDDAV:  cpu time   93.5323: real time   93.5764
       DOS:  cpu time    0.0011: real time    0.0011
    CHARGE:  cpu time    2.8310: real time    2.8310
    MIXING:  cpu time    0.0123: real time    0.0124
    --------------------------------------------
      LOOP:  cpu time   96.3766: real time   96.4210

 eigenvalue-minimisations  : 15560
 total energy-change (2. order) :-0.6855295E+01  (-0.6851982E+01)
 number of electron     864.0000006 magnetization 
 augmentation part      133.9628845 magnetization 

 Broyden mixing:
  rms(total) = 0.86584E+01    rms(broyden)= 0.86574E+01
  rms(prec ) = 0.10102E+02
  weight for this iteration     100.00

 Free energy of the ion-electron system (eV)
  ---------------------------------------------------
  alpha Z        PSCENC =      1736.69897902
  Ewald energy   TEWEN  =    -29217.20543573
  -Hartree energ DENC   =    -30293.25929850
  -exchange      EXHF   =         0.00000000
  -V(xc)+E(xc)   XCENC  =      3111.77302129
  PAW double counting   =     50594.51003143   -49994.65612350
  entropy T*S    EENTRO =        -0.00000000
  eigenvalues    EBANDS =    -11978.98382515
  atomic energy  EATOM  =     64968.54023382
  Solvation  Ediel_sol  =         0.00000000
  ---------------------------------------------------
  free energy    TOTEN  =     -1072.58241732 eV

  energy without entropy =    -1072.58241732  energy(sigma->0) =    -1072.58241732


--------------------------------------------------------------------------------------------------------




--------------------------------------- Iteration      1(   6)  ---------------------------------------


    POTLOK:  cpu time    0.2353: real time    0.2543
    SETDIJ:  cpu time    0.4081: real time    0.4081
     EDDAV:  cpu time   67.7963: real time   67.7961
       DOS:  cpu time    0.0020: real time    0.0020
    CHARGE:  cpu time    2.8376: real time    2.8376
    MIXING:  cpu time    0.0132: real time    0.0132
    --------------------------------------------
      LOOP:  cpu time   71.2926: real time   71.3114

 eigenvalue-minimisations  : 10560
 total energy-change (2. order) : 0.1756416E+03  (-0.8659956E+02)
 number of electron     864.0000005 magnetization 
 augmentation part      118.0846640 magnetization 

 Broyden mixing:
  rms(total) = 0.39942E+01    rms(broyden)= 0.39923E+01
  rms(prec ) = 0.44033E+01
  weight for this iteration     100.00

 eigenvalues of (default mixing * dielectric matrix)
  average eigenvalue GAMMA=   0.8984
  0.8984

 Free energy of the ion-electron system (eV)
  ---------------------------------------------------
  alpha Z        PSCENC =      1736.69897902
  Ewald energy   TEWEN  =    -29217.20543573
  -Hartree energ DENC   =    -32028.06671214
  -exchange      EXHF   =         0.00000000
  -V(xc)+E(xc)   XCENC  =      3217.38629089
  PAW double counting   =     64012.44015874   -63557.21300529
  entropy T*S    EENTRO =        -0.00415887
  eigenvalues    EBANDS =    -10029.51720081
  atomic energy  EATOM  =     64968.54023382
  Solvation  Ediel_sol  =         0.00000000
  ---------------------------------------------------
  free energy    TOTEN  =      -896.94085036 eV

  energy without entropy =     -896.93669149  energy(sigma->0) =     -896.93877093


--------------------------------------------------------------------------------------------------------




--------------------------------------- Iteration      1(   7)  ---------------------------------------


    POTLOK:  cpu time    0.2310: real time    0.2493
    SETDIJ:  cpu time    0.3940: real time    0.3940
     EDDAV:  cpu time   69.3989: real time   69.4020
       DOS:  cpu time    0.0022: real time    0.0022
    CHARGE:  cpu time    2.8348: real time    2.8348
    MIXING:  cpu time    0.0128: real time    0.0128
    --------------------------------------------
      LOOP:  cpu time   72.8737: real time   72.8951

 eigenvalue-minimisations  : 10904
 total energy-change (2. order) :-0.2116089E+01  (-0.1074118E+02)
 number of electron     864.0000005 magnetization 
 augmentation part      118.1689743 magnetization 

 Broyden mixing:
  rms(total) = 0.26440E+01    rms(broyden)= 0.26434E+01
  rms(prec ) = 0.30840E+01
  weight for this iteration     100.00

 eigenvalues of (default mixing * dielectric matrix)
  average eigenvalue GAMMA=   0.8760
  0.8760  0.8760

 Free energy of the ion-electron system (eV)
  ---------------------------------------------------
  alpha Z        PSCENC =      1736.69897902
  Ewald energy   TEWEN  =    -29217.20543573
  -Hartree energ DENC   =    -32081.33921501
  -exchange      EXHF   =         0.00000000
  -V(xc)+E(xc)   XCENC  =      3215.77485224
  PAW double counting   =     73507.38752388   -73101.51821588
  entropy T*S    EENTRO =        -0.00365737
  eigenvalues    EBANDS =     -9927.39200463
  atomic energy  EATOM  =     64968.54023382
  Solvation  Ediel_sol  =         0.00000000
  ---------------------------------------------------
  free energy    TOTEN  =      -899.05693966 eV

  energy without entropy =     -899.05328229  energy(sigma->0) =     -899.05511098


--------------------------------------------------------------------------------------------------------




--------------------------------------- Iteration      1(   8)  ---------------------------------------


    POTLOK:  cpu time    0.2227: real time    0.2394
    SETDIJ:  cpu time    0.3863: real time    0.3863
     EDDAV:  cpu time   73.9360: real time   73.9369
       DOS:  cpu time    0.0024: real time    0.0024
    CHARGE:  cpu time    2.8248: real time    2.8248
    MIXING:  cpu time    0.0132: real time    0.0132
    --------------------------------------------
      LOOP:  cpu time   77.3854: real time   77.4030

 eigenvalue-minimisations  : 11816
 total energy-change (2. order) : 0.4814695E+01  (-0.3634565E+01)
 number of electron     864.0000005 magnetization 
 augmentation part      118.3802031 magnetization 

 Broyden mixing:
  rms(total) = 0.17403E+01    rms(broyden)= 0.17398E+01
  rms(prec ) = 0.20608E+01
  weight for this iteration     100.00

 eigenvalues of (default mixing * dielectric matrix)
  average eigenvalue GAMMA=   0.8910
  1.0718  1.0718  0.5295

 Free energy of the ion-electron system (eV)
  ---------------------------------------------------
  alpha Z        PSCENC =      1736.69897902
  Ewald energy   TEWEN  =    -29217.20543573
  -Hartree energ DENC   =    -32108.91867429
  -exchange      EXHF   =         0.00000000
  -V(xc)+E(xc)   XCENC  =      3215.41790601
  PAW double counting   =     77072.86902455   -76691.19134404
  entropy T*S    EENTRO =        -0.04315689
  eigenvalues    EBANDS =     -9870.40977703
  atomic energy  EATOM  =     64968.54023382
  Solvation  Ediel_sol  =         0.00000000
  ---------------------------------------------------
  free energy    TOTEN  =      -894.24224458 eV

  energy without entropy =     -894.19908770  energy(sigma->0) =     -894.22066614


--------------------------------------------------------------------------------------------------------




--------------------------------------- Iteration      1(   9)  ---------------------------------------


    POTLOK:  cpu time    0.2306: real time    0.2458
    SETDIJ:  cpu time    0.4152: real time    0.4174
     EDDAV:  cpu time   68.6145: real time   68.6152
       DOS:  cpu time    0.0023: real time    0.0023
    CHARGE:  cpu time    2.8319: real time    2.8319
    MIXING:  cpu time    0.0129: real time    0.0129
    --------------------------------------------
      LOOP:  cpu time   72.1074: real time   72.1256

 eigenvalue-minimisations  : 10728
 total energy-change (2. order) : 0.2003835E+01  (-0.2338630E+01)
 number of electron     864.0000005 magnetization 
 augmentation part      117.9210680 magnetization 

 Broyden mixing:
  rms(total) = 0.17342E+01    rms(broyden)= 0.17338E+01
  rms(prec ) = 0.22038E+01
  weight for this iteration     100.00

 eigenvalues of (default mixing * dielectric matrix)
  average eigenvalue GAMMA=   0.9291
  1.6768  1.0690  0.4854  0.4854

 Free energy of the ion-electron system (eV)
  ---------------------------------------------------
  alpha Z        PSCENC =      1736.69897902
  Ewald energy   TEWEN  =    -29217.20543573
  -Hartree energ DENC   =    -32194.31639944
  -exchange      EXHF   =         0.00000000
  -V(xc)+E(xc)   XCENC  =      3217.93177381
  PAW double counting   =     81186.80548324   -80827.02035526
  entropy T*S    EENTRO =        -0.01331679
  eigenvalues    EBANDS =     -9763.65937216
  atomic energy  EATOM  =     64968.54023382
  Solvation  Ediel_sol  =         0.00000000
  ---------------------------------------------------
  free energy    TOTEN  =      -892.23840948 eV

  energy without entropy =     -892.22509269  energy(sigma->0) =     -892.23175108


--------------------------------------------------------------------------------------------------------




--------------------------------------- Iteration      1(  10)  ---------------------------------------


    POTLOK:  cpu time    0.2307: real time    0.2530
    SETDIJ:  cpu time    0.3860: real time    0.3860
     EDDAV:  cpu time   68.5081: real time   68.5142
       DOS:  cpu time    0.0023: real time    0.0023
    CHARGE:  cpu time    2.8368: real time    2.8368
    MIXING:  cpu time    0.0130: real time    0.0129
    --------------------------------------------
      LOOP:  cpu time   71.9767: real time   72.0052

 eigenvalue-minimisations  : 10752
 total energy-change (2. order) : 0.9760264E+00  (-0.1023953E+01)
 number of electron     864.0000005 magnetization 
 augmentation part      117.9957117 magnetization 

 Broyden mixing:
  rms(total) = 0.96736E+00    rms(broyden)= 0.96653E+00
  rms(prec ) = 0.12889E+01
  weight for this iteration     100.00

 eigenvalues of (default mixing * dielectric matrix)
  average eigenvalue GAMMA=   0.8799
  1.9219  1.0293  0.5157  0.5157  0.4167

 Free energy of the ion-electron system (eV)
  ---------------------------------------------------
  alpha Z        PSCENC =      1736.69897902
  Ewald energy   TEWEN  =    -29217.20543573
  -Hartree energ DENC   =    -32251.62434183
  -exchange      EXHF   =         0.00000000
  -V(xc)+E(xc)   XCENC  =      3219.40365451
  PAW double counting   =     84690.63050192   -84349.80219002
  entropy T*S    EENTRO =        -0.02572002
  eigenvalues    EBANDS =     -9687.87806477
  atomic energy  EATOM  =     64968.54023382
  Solvation  Ediel_sol  =         0.00000000
  ---------------------------------------------------
  free energy    TOTEN  =      -891.26238310 eV

  energy without entropy =     -891.23666308  energy(sigma->0) =     -891.24952309


--------------------------------------------------------------------------------------------------------




--------------------------------------- Iteration      1(  11)  ---------------------------------------


    POTLOK:  cpu time    0.2250: real time    0.2427
    SETDIJ:  cpu time    0.3862: real time    0.3862
     EDDAV:  cpu time   69.9121: real time   69.9116
       DOS:  cpu time    0.0023: real time    0.0023
    CHARGE:  cpu time    2.8454: real time    2.8454
    MIXING:  cpu time    0.0133: real time    0.0133
    --------------------------------------------
      LOOP:  cpu time   73.3844: real time   73.4015

 eigenvalue-minimisations  : 11016
 total energy-change (2. order) : 0.1304150E+00  (-0.4129375E+00)
 number of electron     864.0000005 magnetization 
 augmentation part      118.2449249 magnetization 

 Broyden mixing:
  rms(total) = 0.79873E+00    rms(broyden)= 0.79831E+00
  rms(prec ) = 0.11339E+01
  weight for this iteration     100.00

 eigenvalues of (default mixing * dielectric matrix)
  average eigenvalue GAMMA=   0.8466
  2.1785  0.8699  0.8699  0.4102  0.4102  0.3410

 Free energy of the ion-electron system (eV)
  ---------------------------------------------------
  alpha Z        PSCENC =      1736.69897902
  Ewald energy   TEWEN  =    -29217.20543573
  -Hartree energ DENC   =    -32280.50127064
  -exchange      EXHF   =         0.00000000
  -V(xc)+E(xc)   XCENC  =      3220.59755201
  PAW double counting   =     85691.12090026   -85354.77856335
  entropy T*S    EENTRO =        -0.00073059
  eigenvalues    EBANDS =     -9655.60363288
  atomic energy  EATOM  =     64968.54023382
  Solvation  Ediel_sol  =         0.00000000
  ---------------------------------------------------
  free energy    TOTEN  =      -891.13196808 eV

  energy without entropy =     -891.13123749  energy(sigma->0) =     -891.13160279


--------------------------------------------------------------------------------------------------------




--------------------------------------- Iteration      1(  12)  ---------------------------------------


    POTLOK:  cpu time    0.2214: real time    0.2378
    SETDIJ:  cpu time    0.4024: real time    0.4025
     EDDAV:  cpu time   73.3151: real time   73.3167
       DOS:  cpu time    0.0025: real time    0.0025
    CHARGE:  cpu time    2.8499: real time    2.8499
    MIXING:  cpu time    0.0140: real time    0.0140
    --------------------------------------------
      LOOP:  cpu time   76.8053: real time   76.8235

 eigenvalue-minimisations  : 11640
 total energy-change (2. order) : 0.6129378E+00  (-0.1419254E+00)
 number of electron     864.0000005 magnetization 
 augmentation part      117.6775079 magnetization 

 Broyden mixing:
  rms(total) = 0.10502E+01    rms(broyden)= 0.10498E+01
  rms(prec ) = 0.13925E+01
  weight for this iteration     100.00

 eigenvalues of (default mixing * dielectric matrix)
  average eigenvalue GAMMA=   0.7396
  2.1894  0.8631  0.8631  0.3912  0.3912  0.3551  0.1240

 Free energy of the ion-electron system (eV)
  ---------------------------------------------------
  alpha Z        PSCENC =      1736.69897902
  Ewald energy   TEWEN  =    -29217.20543573
  -Hartree energ DENC   =    -32332.51488348
  -exchange      EXHF   =         0.00000000
  -V(xc)+E(xc)   XCENC  =      3222.63712013
  PAW double counting   =     86867.22900229   -86535.77966108
  entropy T*S    EENTRO =        -0.03734339
  eigenvalues    EBANDS =     -9600.08704190
  atomic energy  EATOM  =     64968.54023382
  Solvation  Ediel_sol  =         0.00000000
  ---------------------------------------------------
  free energy    TOTEN  =      -890.51903032 eV

  energy without entropy =     -890.48168692  energy(sigma->0) =     -890.50035862


--------------------------------------------------------------------------------------------------------




--------------------------------------- Iteration      1(  13)  ---------------------------------------


    POTLOK:  cpu time    0.2308: real time    0.2531
    SETDIJ:  cpu time    0.4061: real time    0.4116
     EDDAV:  cpu time   67.5905: real time   67.5919
       DOS:  cpu time    0.0023: real time    0.0023
    CHARGE:  cpu time    2.8287: real time    2.8287
    MIXING:  cpu time    0.0131: real time    0.0131
    --------------------------------------------
      LOOP:  cpu time   71.0715: real time   71.1008

 eigenvalue-minimisations  : 10536
 total energy-change (2. order) : 0.2250361E+00  (-0.4577054E-01)
 number of electron     864.0000005 magnetization 
 augmentation part      117.6722218 magnetization 

 Broyden mixing:
  rms(total) = 0.66409E+00    rms(broyden)= 0.66356E+00
  rms(prec ) = 0.85439E+00
  weight for this iteration     100.00

 eigenvalues of (default mixing * dielectric matrix)
  average eigenvalue GAMMA=   0.6709
  2.1993  0.8695  0.8695  0.4169  0.4169  0.2440  0.2440  0.1068

 Free energy of the ion-electron system (eV)
  ---------------------------------------------------
  alpha Z        PSCENC =      1736.69897902
  Ewald energy   TEWEN  =    -29217.20543573
  -Hartree energ DENC   =    -32334.32869623
  -exchange      EXHF   =         0.00000000
  -V(xc)+E(xc)   XCENC  =      3222.69998236
  PAW double counting   =     86933.53118071   -86602.23778167
  entropy T*S    EENTRO =        -0.04964700
  eigenvalues    EBANDS =     -9597.94280951
  atomic energy  EATOM  =     64968.54023382
  Solvation  Ediel_sol  =         0.00000000
  ---------------------------------------------------
  free energy    TOTEN  =      -890.29399423 eV

  energy without entropy =     -890.24434723  energy(sigma->0) =     -890.26917073


--------------------------------------------------------------------------------------------------------




--------------------------------------- Iteration      1(  14)  ---------------------------------------


    POTLOK:  cpu time    0.1825: real time    0.2008
    SETDIJ:  cpu time    0.3833: real time    0.3833
     EDDAV:  cpu time   75.3709: real time   75.3723
       DOS:  cpu time    0.0024: real time    0.0024
    CHARGE:  cpu time    2.7926: real time    2.7926
    MIXING:  cpu time    0.0129: real time    0.0129
    --------------------------------------------
      LOOP:  cpu time   78.7446: real time   78.7643

 eigenvalue-minimisations  : 12096
 total energy-change (2. order) : 0.3883262E+00  (-0.3294519E-01)
 number of electron     864.0000005 magnetization 
 augmentation part      117.6875927 magnetization 

 Broyden mixing:
  rms(total) = 0.45357E+00    rms(broyden)= 0.45349E+00
  rms(prec ) = 0.59349E+00
  weight for this iteration     100.00

 eigenvalues of (default mixing * dielectric matrix)
  average eigenvalue GAMMA=   0.6908
  2.2572  0.8697  0.8697  0.5143  0.5143  0.4801  0.2938  0.2938  0.1241

 Free energy of the ion-electron system (eV)
  ---------------------------------------------------
  alpha Z        PSCENC =      1736.69897902
  Ewald energy   TEWEN  =    -29217.20543573
  -Hartree energ DENC   =    -32337.51529058
  -exchange      EXHF   =         0.00000000
  -V(xc)+E(xc)   XCENC  =      3222.82386200
  PAW double counting   =     87013.39376474   -86682.07118953
  entropy T*S    EENTRO =        -0.07376830
  eigenvalues    EBANDS =     -9594.49682350
  atomic energy  EATOM  =     64968.54023382
  Solvation  Ediel_sol  =         0.00000000
  ---------------------------------------------------
  free energy    TOTEN  =      -889.90566805 eV

  energy without entropy =     -889.83189976  energy(sigma->0) =     -889.86878391


--------------------------------------------------------------------------------------------------------




--------------------------------------- Iteration      1(  15)  ---------------------------------------


    POTLOK:  cpu time    0.2129: real time    0.2301
    SETDIJ:  cpu time    0.3877: real time    0.3877
     EDDAV:  cpu time   71.6654: real time   71.6649
       DOS:  cpu time    0.0023: real time    0.0023
    CHARGE:  cpu time    2.8173: real time    2.8173
    MIXING:  cpu time    0.0141: real time    0.0140
    --------------------------------------------
      LOOP:  cpu time   75.0996: real time   75.1163

 eigenvalue-minimisations  : 11384
 total energy-change (2. order) : 0.1262544E+00  (-0.9928603E-01)
 number of electron     864.0000005 magnetization 
 augmentation part      117.6968010 magnetization 

 Broyden mixing:
  rms(total) = 0.56002E+00    rms(broyden)= 0.55982E+00
  rms(prec ) = 0.75005E+00
  weight for this iteration     100.00

 eigenvalues of (default mixing * dielectric matrix)
  average eigenvalue GAMMA=   0.6795
  2.2784  0.9883  0.7524  0.7524  0.5724  0.5724  0.2959  0.2959  0.1631  0.1234

 Free energy of the ion-electron system (eV)
  ---------------------------------------------------
  alpha Z        PSCENC =      1736.69897902
  Ewald energy   TEWEN  =    -29217.20543573
  -Hartree energ DENC   =    -32346.92227662
  -exchange      EXHF   =         0.00000000
  -V(xc)+E(xc)   XCENC  =      3223.15374122
  PAW double counting   =     87189.45784064   -86858.07500080
  entropy T*S    EENTRO =        -0.04286008
  eigenvalues    EBANDS =     -9585.38463509
  atomic energy  EATOM  =     64968.54023382
  Solvation  Ediel_sol  =         0.00000000
  ---------------------------------------------------
  free energy    TOTEN  =      -889.77941363 eV

  energy without entropy =     -889.73655355  energy(sigma->0) =     -889.75798359


--------------------------------------------------------------------------------------------------------




--------------------------------------- Iteration      1(  16)  ---------------------------------------


    POTLOK:  cpu time    0.2393: real time    0.2789
    SETDIJ:  cpu time    0.4236: real time    0.4237
     EDDAV:  cpu time   70.4593: real time   70.4606
       DOS:  cpu time    0.0024: real time    0.0024
    CHARGE:  cpu time    2.8305: real time    2.8305
    MIXING:  cpu time    0.0139: real time    0.0139
    --------------------------------------------
      LOOP:  cpu time   73.9690: real time   74.0100

 eigenvalue-minimisations  : 11080
 total energy-change (2. order) : 0.1331493E-01  (-0.5217237E-01)
 number of electron     864.0000005 magnetization 
 augmentation part      117.6585341 magnetization 

 Broyden mixing:
  rms(total) = 0.82228E+00    rms(broyden)= 0.82199E+00
  rms(prec ) = 0.11113E+01
  weight for this iteration     100.00

 eigenvalues of (default mixing * dielectric matrix)
  average eigenvalue GAMMA=   0.6355
  2.2935  0.8729  0.8729  0.6856  0.6856  0.4214  0.4214  0.2467  0.2467  0.1220
  0.1220

 Free energy of the ion-electron system (eV)
  ---------------------------------------------------
  alpha Z        PSCENC =      1736.69897902
  Ewald energy   TEWEN  =    -29217.20543573
  -Hartree energ DENC   =    -32353.97768524
  -exchange      EXHF   =         0.00000000
  -V(xc)+E(xc)   XCENC  =      3223.33224797
  PAW double counting   =     87232.37349004   -86900.70005966
  entropy T*S    EENTRO =        -0.05751388
  eigenvalues    EBANDS =     -9578.77035503
  atomic energy  EATOM  =     64968.54023382
  Solvation  Ediel_sol  =         0.00000000
  ---------------------------------------------------
  free energy    TOTEN  =      -889.76609870 eV

  energy without entropy =     -889.70858482  energy(sigma->0) =     -889.73734176


--------------------------------------------------------------------------------------------------------




--------------------------------------- Iteration      1(  17)  ---------------------------------------


    POTLOK:  cpu time    0.2275: real time    0.2511
    SETDIJ:  cpu time    0.3989: real time    0.3989
     EDDAV:  cpu time   72.4304: real time   72.4299
       DOS:  cpu time    0.0027: real time    0.0027
    CHARGE:  cpu time    2.8346: real time    2.8346
    MIXING:  cpu time    0.0149: real time    0.0149
    --------------------------------------------
      LOOP:  cpu time   75.9090: real time   75.9321

 eigenvalue-minimisations  : 11520
 total energy-change (2. order) : 0.9326611E-01  (-0.2141224E+00)
 number of electron     864.0000005 magnetization 
 augmentation part      117.6831124 magnetization 

 Broyden mixing:
  rms(total) = 0.39075E+00    rms(broyden)= 0.39024E+00
  rms(prec ) = 0.53847E+00
  weight for this iteration     100.00

 eigenvalues of (default mixing * dielectric matrix)
  average eigenvalue GAMMA=   0.6523
  2.2687  1.1786  0.9289  0.9289  0.5738  0.5738  0.3587  0.3587  0.1950  0.1950
  0.1336  0.1336

 Free energy of the ion-electron system (eV)
  ---------------------------------------------------
  alpha Z        PSCENC =      1736.69897902
  Ewald energy   TEWEN  =    -29217.20543573
  -Hartree energ DENC   =    -32357.48580278
  -exchange      EXHF   =         0.00000000
  -V(xc)+E(xc)   XCENC  =      3223.47563763
  PAW double counting   =     87300.26469134   -86968.63367034
  entropy T*S    EENTRO =        -0.05724445
  eigenvalues    EBANDS =     -9575.27022111
  atomic energy  EATOM  =     64968.54023382
  Solvation  Ediel_sol  =         0.00000000
  ---------------------------------------------------
  free energy    TOTEN  =      -889.67283259 eV

  energy without entropy =     -889.61558815  energy(sigma->0) =     -889.64421037


--------------------------------------------------------------------------------------------------------




--------------------------------------- Iteration      1(  18)  ---------------------------------------


    POTLOK:  cpu time    0.2327: real time    0.2528
    SETDIJ:  cpu time    0.3876: real time    0.3876
     EDDAV:  cpu time   69.9761: real time   69.9787
       DOS:  cpu time    0.0026: real time    0.0026
    CHARGE:  cpu time    2.7971: real time    2.7971
    MIXING:  cpu time    0.0155: real time    0.0155
    --------------------------------------------
      LOOP:  cpu time   73.4116: real time   73.4343

 eigenvalue-minimisations  : 11024
 total energy-change (2. order) : 0.1413725E+00  (-0.2196990E-01)
 number of electron     864.0000005 magnetization 
 augmentation part      117.6980795 magnetization 

 Broyden mixing:
  rms(total) = 0.37790E+00    rms(broyden)= 0.37777E+00
  rms(prec ) = 0.51962E+00
  weight for this iteration     100.00

 eigenvalues of (default mixing * dielectric matrix)
  average eigenvalue GAMMA=   0.6615
  2.2086  1.6615  0.9514  0.9514  0.5457  0.5457  0.4195  0.4195  0.2329  0.2329
  0.1672  0.1314  0.1314

 Free energy of the ion-electron system (eV)
  ---------------------------------------------------
  alpha Z        PSCENC =      1736.69897902
  Ewald energy   TEWEN  =    -29217.20543573
  -Hartree energ DENC   =    -32366.09217031
  -exchange      EXHF   =         0.00000000
  -V(xc)+E(xc)   XCENC  =      3223.66018043
  PAW double counting   =     87267.54633034   -86935.25492302
  entropy T*S    EENTRO =        -0.07321095
  eigenvalues    EBANDS =     -9567.35144365
  atomic energy  EATOM  =     64968.54023382
  Solvation  Ediel_sol  =         0.00000000
  ---------------------------------------------------
  free energy    TOTEN  =      -889.53146006 eV

  energy without entropy =     -889.45824910  energy(sigma->0) =     -889.49485458


--------------------------------------------------------------------------------------------------------




--------------------------------------- Iteration      1(  19)  ---------------------------------------


    POTLOK:  cpu time    0.2528: real time    0.2720
    SETDIJ:  cpu time    0.4344: real time    0.4367
     EDDAV:  cpu time   70.6694: real time   70.6691
       DOS:  cpu time    0.0024: real time    0.0024
    CHARGE:  cpu time    2.8336: real time    2.8336
    MIXING:  cpu time    0.0139: real time    0.0138
    --------------------------------------------
      LOOP:  cpu time   74.2063: real time   74.2275

 eigenvalue-minimisations  : 11112
 total energy-change (2. order) :-0.3053584E+00  (-0.2002952E+00)
 number of electron     864.0000005 magnetization 
 augmentation part      117.6169298 magnetization 

 Broyden mixing:
  rms(total) = 0.10013E+01    rms(broyden)= 0.10008E+01
  rms(prec ) = 0.13173E+01
  weight for this iteration     100.00

 eigenvalues of (default mixing * dielectric matrix)
  average eigenvalue GAMMA=   0.6320
  2.3164  1.3600  0.9051  0.9051  0.6603  0.6603  0.4216  0.4216  0.3742  0.2212
  0.1807  0.1268  0.1470  0.1470

 Free energy of the ion-electron system (eV)
  ---------------------------------------------------
  alpha Z        PSCENC =      1736.69897902
  Ewald energy   TEWEN  =    -29217.20543573
  -Hartree energ DENC   =    -32374.06230226
  -exchange      EXHF   =         0.00000000
  -V(xc)+E(xc)   XCENC  =      3223.83648970
  PAW double counting   =     87244.53308314   -86911.76535403
  entropy T*S    EENTRO =        -0.01783411
  eigenvalues    EBANDS =     -9560.39467801
  atomic energy  EATOM  =     64968.54023382
[...]
   0.419E+02 0.859E+02 0.204E+02   -.378E+02 -.103E+03 -.282E+02   -.698E+01 0.195E+02 0.108E+02   0.392E-03 0.107E-03 0.131E-02
   0.120E+03 -.787E+02 0.510E+02   -.137E+03 0.952E+02 -.562E+02   0.160E+02 -.172E+02 0.758E+01   -.154E-03 0.154E-02 -.817E-03
   -.142E+03 -.445E+02 0.214E+03   0.139E+03 0.530E+02 -.242E+03   0.164E+01 -.972E+01 0.277E+02   -.657E-04 -.363E-03 0.137E-02
   0.164E+03 0.150E+03 0.692E+01   -.169E+03 -.173E+03 -.230E+02   0.553E+01 0.241E+02 0.183E+02   -.226E-03 -.446E-04 0.153E-03
   0.945E+02 0.171E+03 0.297E+03   -.965E+02 -.201E+03 -.325E+03   -.275E+01 0.278E+02 0.217E+02   0.221E-03 0.114E-02 0.180E-02
   0.449E+02 -.978E+02 0.481E+02   -.497E+02 0.112E+03 -.440E+02   0.418E+01 -.157E+02 -.424E+01   -.573E-04 -.599E-03 0.113E-02
   0.174E+03 -.104E+02 -.109E+03   -.184E+03 0.291E+02 0.106E+03   0.123E+02 -.212E+02 0.557E+01   -.206E-02 -.101E-02 -.501E-03
   -.179E+03 -.699E+02 -.436E+02   0.185E+03 0.895E+02 0.492E+02   -.609E+01 -.176E+02 -.809E+01   0.813E-02 -.718E-02 -.184E-02
   0.106E+03 0.887E+02 0.221E+02   -.111E+03 -.989E+02 -.180E+02   0.412E+01 0.110E+02 -.408E+01   -.376E-03 -.621E-03 0.177E-03
   -.202E+03 -.229E+02 0.162E+03   0.207E+03 0.283E+02 -.181E+03   -.413E+01 -.597E+01 0.193E+02   0.112E-02 -.190E-02 0.176E-02
   0.510E+02 0.648E+02 0.423E+02   -.479E+02 -.777E+02 -.572E+02   -.408E+01 0.101E+02 0.130E+02   -.844E-04 -.725E-03 -.131E-02
   -.339E+02 0.145E+03 -.784E+02   0.349E+02 -.158E+03 0.926E+02   -.157E+01 0.132E+02 -.119E+02   0.141E-02 0.133E-02 0.301E-02
   0.676E+02 0.670E+02 -.930E+02   -.102E+03 -.604E+02 0.110E+03   0.321E+02 -.815E+01 -.180E+02   -.410E-03 -.303E-02 -.342E-02
   0.824E+02 0.667E+02 0.124E+02   -.758E+02 -.775E+02 0.105E+02   -.286E+01 0.711E+01 -.205E+02   -.348E-03 -.517E-03 0.855E-03
   0.433E+02 -.398E+02 0.710E+02   -.652E+02 0.335E+02 -.732E+02   0.252E+02 0.646E+01 0.228E+01   0.202E-03 0.128E-02 0.277E-03
   0.186E+02 -.185E+02 -.293E+03   -.245E+02 0.312E+02 0.317E+03   0.562E+01 -.152E+02 -.255E+02   -.782E-03 0.118E-02 -.269E-03
   -.630E+02 0.707E+02 -.414E+02   0.620E+02 -.875E+02 0.441E+02   0.277E+01 0.198E+02 -.442E+01   0.255E-03 -.385E-03 0.284E-03
   0.292E+02 0.125E+03 0.163E+03   -.675E+01 -.127E+03 -.161E+03   -.246E+02 0.277E+01 -.298E+01   -.365E-03 0.541E-03 0.280E-03
   -.407E+02 0.271E+02 0.300E+02   0.628E+02 -.411E+02 -.437E+02   -.233E+02 0.174E+02 0.124E+02   -.390E-04 -.886E-04 -.124E-02
   -.592E+02 -.232E+03 -.168E+01   0.733E+02 0.248E+03 0.243E+02   -.140E+02 -.170E+02 -.222E+02   -.120E-03 -.119E-02 0.154E-02
   -.142E+03 -.597E+02 -.391E+02   0.163E+03 0.697E+02 0.479E+02   -.201E+02 -.106E+02 -.786E+01   0.389E-03 -.236E-03 0.247E-02
   -.620E+02 0.339E+02 -.153E+02   0.586E+02 -.431E+02 0.367E+02   0.234E+01 0.125E+02 -.196E+02   0.114E-03 -.108E-02 0.145E-02
   0.154E+03 -.422E+02 0.755E+01   -.167E+03 0.520E+02 -.279E+02   0.114E+02 -.107E+02 0.181E+02   -.229E-02 -.767E-03 0.345E-02
   0.170E+03 0.397E+02 -.271E+03   -.173E+03 -.385E+02 0.290E+03   0.120E+01 -.529E+01 -.189E+02   -.184E-02 0.134E-02 -.620E-03
   -.258E+02 0.882E+02 -.214E+02   0.367E+02 -.113E+03 0.306E+02   -.113E+02 0.263E+02 -.948E+01   0.771E-04 -.575E-03 0.746E-03
   -.416E+02 -.158E+03 0.990E+02   0.318E+02 0.171E+03 -.120E+03   0.894E+01 -.119E+02 0.208E+02   0.956E-03 0.301E-02 -.364E-02
   -.569E+02 -.132E+03 0.325E+02   0.578E+02 0.144E+03 -.161E+02   -.490E+01 -.985E+01 -.128E+02   -.703E-04 0.477E-03 0.273E-02
   -.125E+03 -.160E+03 0.303E+02   0.144E+03 0.179E+03 -.321E+02   -.186E+02 -.197E+02 0.657E+00   0.655E-03 -.353E-03 0.195E-02
   0.170E+02 -.547E+02 0.962E+02   -.147E+02 0.713E+02 -.971E+02   -.882E+00 -.149E+02 -.267E+01   -.332E-03 0.144E-03 0.112E-02
   0.185E+03 0.639E+02 0.810E+01   -.210E+03 -.729E+02 -.174E+02   0.251E+02 0.846E+01 0.113E+02   -.226E-03 -.292E-05 0.804E-03
   -.196E+02 -.316E+03 0.936E+02   0.156E+02 0.336E+03 -.109E+03   0.478E+01 -.213E+02 0.165E+02   0.551E-03 0.199E-03 0.861E-04
   -.326E+03 0.851E+02 0.370E+02   0.360E+03 -.101E+03 -.237E+02   -.288E+02 0.127E+02 -.116E+02   0.144E-02 -.448E-03 -.232E-02
   0.562E+02 -.129E+01 -.115E+03   -.432E+02 0.110E+02 0.122E+03   -.135E+02 -.112E+02 -.831E+01   -.120E-02 -.123E-04 0.860E-03
   -.144E+03 -.619E+02 0.249E+02   0.149E+03 0.597E+02 -.855E+01   -.520E+01 0.204E+01 -.143E+02   0.623E-03 -.578E-03 0.148E-02
   0.573E+02 -.466E+02 -.180E+03   -.747E+02 0.575E+02 0.198E+03   0.193E+02 -.946E+01 -.191E+02   -.120E-02 0.476E-02 -.524E-03
   0.221E+03 -.197E+02 -.923E+02   -.224E+03 0.339E+01 0.885E+02   0.205E+01 0.204E+02 0.540E+01   0.393E-03 -.869E-03 0.196E-03
   0.334E+03 -.226E+02 -.256E+03   -.358E+03 0.227E+02 0.262E+03   0.273E+02 -.104E+00 -.704E+01   -.185E-02 0.778E-03 0.450E-03
   0.134E+03 0.323E+02 0.289E+03   -.142E+03 -.460E+02 -.295E+03   0.695E+01 0.194E+02 0.590E+01   -.677E-03 -.129E-03 0.318E-03
   -.898E+02 -.836E+02 -.137E+02   0.996E+02 0.957E+02 -.459E+01   -.604E+01 -.119E+02 0.199E+02   -.119E-03 0.151E-02 -.107E-02
   0.102E+03 0.443E+01 0.211E+03   -.101E+03 0.412E+01 -.196E+03   -.418E+00 -.669E+01 -.176E+02   -.107E-02 0.591E-03 0.380E-03
   0.109E+03 0.104E+03 -.761E+02   -.900E+02 -.971E+02 0.977E+02   -.212E+02 -.856E+01 -.246E+02   -.216E-03 -.109E-02 -.616E-03
   0.140E+03 -.522E+02 0.169E+03   -.148E+03 0.689E+02 -.176E+03   0.918E+01 -.207E+02 0.639E+01   0.258E-03 -.543E-03 0.106E-02
   -.761E+02 -.129E+03 0.105E+03   0.756E+02 0.144E+03 -.134E+03   0.238E+01 -.139E+02 0.252E+02   -.985E-03 -.365E-02 -.361E-02
   -.163E+03 -.974E+02 -.556E+02   0.173E+03 0.120E+03 0.704E+02   -.111E+02 -.215E+02 -.175E+02   0.343E-03 0.764E-03 0.716E-03
   0.359E+02 -.754E+02 -.187E+03   -.455E+02 0.105E+03 0.208E+03   0.845E+01 -.282E+02 -.198E+02   0.109E-02 -.193E-02 -.642E-03
   0.533E+02 -.127E+03 0.205E+03   -.373E+02 0.125E+03 -.219E+03   -.135E+02 0.519E+01 0.107E+02   -.155E-02 0.142E-04 0.871E-04
   0.111E+03 -.370E+02 -.122E+03   -.119E+03 0.403E+02 0.140E+03   0.961E+01 -.404E+01 -.208E+02   -.290E-03 -.415E-03 -.950E-03
   -.105E+03 -.187E+03 0.212E+02   0.977E+02 0.213E+03 -.114E+02   0.769E+01 -.282E+02 -.944E+01   -.241E-03 0.599E-04 0.250E-03
 -----------------------------------------------------------------------------------------------
   -.319E+02 0.644E+02 0.124E+03   0.284E-13 0.341E-12 -.483E-12   0.319E+02 -.644E+02 -.124E+03   0.285E-01 -.531E-02 0.102E-01
 
 
 POSITION                                       TOTAL-FORCE (eV/Angst)
 -----------------------------------------------------------------------------------
     10.36899      3.18812      9.97081        -0.080107      0.633728      1.167947
      3.40563      5.89875      3.57543        -0.282648      1.255808     -1.200863
      8.34987     12.17071      5.24881        -1.165540      1.665243      1.206357
      1.74576     11.85128     13.84835        -0.638673      0.843406     -0.655128
      4.57514     13.70947      2.57419        -0.458950     -0.493372     -0.415622
      6.75391      7.81114     13.81106         0.330021     -1.133999      0.079561
     10.91998      8.05175      9.47974         1.071244     -0.412869     -2.014151
      0.47882      2.06820      5.04996        -0.045182     -4.936428     -0.586236
      1.72498      9.73264      4.82550         1.080532     -0.592173      0.978462
      8.95899      1.61757      2.84628         0.718850      0.931336      1.115012
      7.19816      2.52536      6.87529         1.357100     -0.722259     -1.274507
     13.97415      0.07479      7.76687        -1.418121     -0.067608      2.044843
      0.89305      1.81022     11.33722        -3.801216      1.269792     -0.519781
      3.11697      1.85825      7.22457         0.886782     -0.330640      1.445210
     10.64118     11.61755     12.89944        -1.784769      0.283473      0.216828
      8.53881      8.31181      4.50594         1.940547     -0.815312      0.265818
      8.58775      2.21574     13.77879         0.254811     -1.731759     -2.556437
      4.10679      2.60363      0.06283         3.333709      2.555244     -1.518877
      3.40780      9.53507      8.58328         0.754033      0.143313     -0.448787
      1.27195      7.13090     10.83637        -0.584187     -0.106070     -1.886448
     12.57020      6.98256      3.40936        -0.003282      0.225676     -0.674656
      4.60563      3.62974     10.32428        -1.622121      0.352407     -0.647430
      6.51615      5.88264      8.66066        -0.002801      0.298886     -0.695032
      6.23239     10.75223      8.97666        -0.192336      0.047151      0.030568
     11.52074      4.36569      6.37913        -1.227989      0.655459     -0.520183
     12.21612      7.00669     13.37989        -0.641484     -0.918178      0.690725
      5.23254     12.87097     11.61710        -0.254458     -0.087729      2.247966
      5.47174      9.51826      3.91275        -2.467028     -5.246224     -5.163127
     12.59937      5.29763      9.52728         4.032885      2.159402      0.052559
      9.81761     12.06306      2.65022         1.555298     -4.687075     -3.157421
     13.03455     12.84252     10.57430         2.484743      4.030730     -0.688219
      1.74351     12.71390      5.09759         5.295701      3.770829      3.789541
      0.49961      5.41467      5.41774        -4.592222     -2.329571      5.416202
      1.91065      7.14028     13.69509        -0.931120     -1.195228      6.405238
      3.74589      9.50229      1.60258        -0.131431      1.298642      1.893732
      2.52240      0.36936     13.13607        -1.263626      0.171907      2.911553
      1.42010      4.60560      0.36649        -1.993694      4.450767     -0.157509
      7.72632      4.47526      4.80455         6.024198     -1.279272     -7.368855
     10.09192      7.52034      1.61938        -1.501161     -1.796466      0.058384
      8.54652      4.80064      1.90493        -7.218046      1.288542     -2.251206
      6.91749      5.35771     11.71664         2.886143      0.200168      4.253922
      4.72056     11.91045      5.71102        -2.346034      1.776203      1.181372
      1.22333      3.90820      8.04242        -0.492445      0.157496      6.449389
      1.60699     11.02554     10.40028        -1.337165     -1.546429     -0.860543
      4.96374      4.69907      6.21559         3.519433      1.761659      6.642009
     11.76444      7.71660      6.24037        -2.796620      4.234999     -0.992639
      5.49587      7.75681     10.34193         2.155145      2.146243      0.521883
      7.61219     10.65798     12.71291         4.787246      2.877313      1.529911
      9.06419     10.75256      9.85812         0.926081      5.403107     -1.703382
      3.45075     13.00610      8.57318         2.328311     -3.787381      1.858370
     10.30720      1.07573      6.24623         3.107825      0.779395      2.364643
     10.84464      0.14846     10.26001       -11.089793     -2.474519      6.095346
      2.79210      6.67070      7.61285        -2.481764      3.927255     -1.112834
      7.03587     13.66881      0.41496        -1.404962     -2.882254      2.051322
      8.07918     11.36623     11.10214        -0.655202     -3.196165      0.550129
      5.33832      9.80929      2.16696         0.590128      0.615678      0.526013
      9.79808     13.51196      2.91014         1.244949      6.311723      0.595177
      5.74651      5.41750     13.24442         2.460277     -1.128426     -3.074112
      8.86212      5.10292     11.53781        -2.880663     -0.285196      0.248312
      2.54202      3.69757      0.79205         2.105269     -1.409213      2.923740
      6.61154      4.39500     10.46761        -1.214412     -0.918321     -1.487149
     13.96811      4.19478      0.09821        -0.878132      0.150763     -0.810435
     12.33142      6.62982     10.42871         0.613984      0.838460      1.380330
     12.00373     13.97290      9.38068         4.382917     -2.105947     -5.069749
     12.53147      3.95126     10.23501        -2.792720     -4.628751      2.018250
      9.30516      0.99616      5.08507        -0.283245     -1.863559     -0.961106
      8.57572     11.48491      3.38565        -1.979777     -2.974206      1.238448
      7.95228     12.58048     13.49819         1.844649      0.024381      0.888612
      8.95485      9.86177     13.42802        -2.659707      1.816140     -2.633522
     10.54767     10.20259      9.76814        -0.507165     -0.790209      2.026446
      7.46149      0.77468      1.65320        -0.611016     -2.024797     -2.975379
      2.47698      3.31847      9.19603        -1.530532      0.540810     -3.317047
      4.81352      6.44667      9.88454        -0.368314     -3.089032     -0.010185
      8.29886      6.23400      1.12521         2.095415      1.764024     -0.217217
      4.21058     12.18770      9.84933         0.216487     -1.172015     -1.154440
      9.51886      1.64565      7.53300         0.026508      1.087478      0.966044
      0.48663      7.79456     13.09067         2.473220     -0.607263     -0.707338
      3.46638     13.06115     12.96900        -0.165411      1.201305      0.353185
      4.18109      6.00045      7.13636         2.163048     -2.159113     -3.256645
     11.35710      6.34199      1.58520        -0.249163      1.587639      1.900542
      2.52754      6.50207      9.10574        -0.572106      0.289517      1.378782
      0.00185      0.22155     10.28054         1.030671     -2.806916      0.105162
      7.80175      3.47627      0.90672        -0.297060      3.544226      2.649791
      0.81320      2.50169      7.14126         1.057818      1.455754      2.053646
      1.47845      6.07134      4.54677         4.881215      2.599040     -4.165309
      9.86778      7.84090      6.40180         2.689443     -1.245771     -0.158860
      0.96617     11.60931      4.54095        -6.915687     -4.271501     -3.967419
      7.98088      2.86394      4.27324        -2.808831      2.144476      3.090577
      7.50402      5.23802      3.22115        -0.218585     -0.721797      2.455482
      8.43988     11.08067      8.40663        -1.580258     -1.173462      0.467681
     13.70522     11.37499      9.95464         0.665972      1.655693      2.232376
      4.68738      3.68885      5.18923        -4.782252     -3.063989     -6.481406
     13.22255      6.49870      5.66660        -0.638481     -1.980096     -0.196091
      2.80452     10.81098      1.21364         1.806847     -2.453258      2.687384
      6.76988      6.99043     11.58733        -0.274883      1.987956     -2.431735
      3.84034      8.56471      3.41182        -1.321085      0.763929      0.054605
      5.92971      8.43641      8.80190         0.703714     -0.616773      0.237168
      3.38279      8.37127      0.51966        -1.070554     -2.781539     -1.847910
      5.35251      3.60048      7.45830        -0.487440      0.440958      2.240663
      6.19464     10.87552     13.22779        -2.606283     -1.560107     -0.662479
      2.64719     11.90460      6.14364         3.705819     -3.727055      2.377936
      9.46657     13.09239     10.05016         3.338310      0.204501      0.107008
     12.04687     13.32269     11.86941        -0.338852     -2.521038     -1.712915
      5.86052     12.42315      1.54870         1.779892      2.931582     -1.683776
     12.00465      1.00474      6.37212        -2.169754      0.537803     -0.692581
      2.45807      5.52800     13.23789        -1.219534      3.424991     -1.256600
     12.28585      8.39645      7.58129        -0.004897     -0.701055      0.423137
      9.14610      4.91681      5.50516         0.738693     -0.522137      0.945900
      5.05150     10.33856      5.17150        -1.104321      3.240968      1.813236
     11.79636      5.49162      8.18546        -1.923193     -0.895590     -2.297274
      3.11698      1.11065      0.61474        -1.601324     -4.087548      0.100753
      6.44221      8.34923      4.39476        -0.366878      1.026952     -0.317704
      6.40409      0.46020     13.18071        -0.872320      1.350111     -0.410258
      6.67617      4.89685      5.85927        -4.054129      2.402663      3.499615
      6.01939     12.89251      5.45687        -0.437772     -0.836885     -1.126576
      1.34909      5.17037      7.03211         1.342145      1.691013     -3.553223
      1.91067     12.38841      8.52202         0.104992     -0.544328      1.959101
     11.84492      8.56899      4.73481         0.807014     -2.100542      1.199520
      9.76693      4.11802      2.38658         5.410693     -3.091770      1.650917
      0.35480      5.12731      9.22303        -0.449949     -1.561630     -1.375358
      4.64147     11.99752      7.37224         0.365471     -0.136408      2.017999
     10.04911      1.28896     11.12257         1.859300      1.474548     -1.015400
      1.79437      9.23783      9.88019        -1.091546      4.087725      1.606848
      0.77157      0.07308     13.42706         3.761963     -0.053143     -1.172127
      0.01064      3.86352      5.08703        -1.688150      5.647218     -0.158213
      2.70030      1.46901     11.90646         3.760535      0.133674      1.588839
      1.33135     13.89313      6.24760        -0.027836      1.861028     -3.344608
      2.27361     11.38715     11.81755        -2.315110     -1.359160     -2.955674
      2.44447      8.33971      7.04475         0.885561     -3.965334     -0.449744
     10.37758      8.05056      0.21006         1.889164      1.195548     -4.278662
      3.90778      0.49232      8.94858        -0.850591      1.309748     -2.681276
      5.09821      9.04149     11.10229        -1.110119      1.552022      1.006333
      3.09811     12.84561      4.20848         2.553209      2.962728     -3.091294
      1.29623      6.45469      1.35058         1.544364     -0.686434     -2.652363
      9.54286      8.70015      2.58390         0.495920     -2.060060      0.350675
 -----------------------------------------------------------------------------------
    total drift:                               -0.003550      0.005723     -0.006444


--------------------------------------------------------------------------------------------------------



  FREE ENERGIE OF THE ION-ELECTRON SYSTEM (eV)
  ---------------------------------------------------
  free  energy   TOTEN  =      -889.46434065 eV

  energy  without entropy=     -889.37753447  energy(sigma->0) =     -889.42093756
 


--------------------------------------------------------------------------------------------------------


    POTLOK:  cpu time    0.5609: real time    0.5609


--------------------------------------------------------------------------------------------------------


     LOOP+:  cpu time 2791.8675: real time 2792.7310
    4ORBIT:  cpu time    0.0000: real time    0.0000

 total amount of memory used by VASP MPI-rank0   227662. kBytes
=======================================================================

   base      :      30000. kBytes
   nonlr-proj:      20257. kBytes
   fftplans  :      36399. kBytes
   grid      :      20695. kBytes
   one-center:        171. kBytes
   wavefun   :     120140. kBytes
 
  
  
 General timing and accounting informations for this job:
 ========================================================
  
                  Total CPU time used (sec):     2827.031
                            User time (sec):     2811.926
                          System time (sec):       15.105
                         Elapsed time (sec):     2828.174
  
                   Maximum memory used (kb):      385108.
                   Average memory used (kb):           0.
  
                          Minor page faults:       159103
                          Major page faults:            0
                 Voluntary context switches:         3668
