135
Time=99999.99999996 pbc="T T T" Lattice="11.12194768 0.00000000 0.00000000 0.00000000 11.12194768 0.00000000 0.00000000 0.00000000 11.12194768" energy=-853.15467215 virial="337.58018392 1.02243245 26.64559164 1.02243245 279.34795097 15.60533946 26.64559164 15.60533946 313.73456925" stress="0.28765727 0.00074318 0.01936791 0.00074318 0.24532994 0.01134307 0.01936791 0.01134307 0.27032458" Properties=species:S:1:pos:R:3
Ca 9.54200721 6.11688892 8.42882004
Ca 7.53602746 1.63526481 7.25801277
Ca 5.10059938 10.60721503 9.19651397
Ca 9.89309591 1.07962708 4.60813159
Ca 7.23682843 7.21534254 9.60386758
Ca 1.73140678 1.96232025 2.07326174
Ca 2.23527896 7.46863052 0.89775634
Ca 3.69493979 6.45768054 8.65720428
Ca 10.46690750 4.08611000 2.04674920
Ca 0.84447698 1.49277881 10.62382399
Ca 4.26669642 1.80796140 2.60157975
Ca 6.56562504 4.27668537 1.55816015
Ca 5.22071188 6.65904086 0.97750801
Ca 2.72032590 10.99802946 1.24757343
Ca 2.57583386 0.11940207 8.24475083
Ca 3.65790116 4.80455399 4.86588955
Ca 5.61583652 1.64579053 0.00270214
Ca 1.66689216 7.94280119 8.24952982
Ca 0.85168572 9.92978852 5.26774331
Ca 8.81141629 2.56174212 9.92520718
Ca 0.20157759 9.84852232 9.94867582
Ca 0.08099000 3.72012975 7.64224097
Ca 10.72000273 7.61258096 2.72941896
Ca 7.96469393 9.76324563 4.48982042
Ca 5.85584153 3.70562276 5.78453900
Ca 3.42282258 9.02723010 3.58503836
Ca 5.51556953 7.10155911 4.09003999
Si 8.12976852 6.97489903 3.74345318
Si 2.35948053 4.95099239 7.36098085
Si 4.30205474 9.12344800 6.11625712
Si 6.33762015 6.14237675 7.12938525
Si 4.05260828 1.26021345 6.18174993
Si 8.83142194 9.84493229 7.47606482
Si 8.32434258 6.24033481 0.88494830
Si 8.54534932 4.20807579 6.68700962
Si 11.11826188 0.53124434 7.50777601
Si 3.47402110 9.34341332 10.48429087
Si 10.68161794 6.39502564 10.62759971
Si 3.15094602 3.75109886 10.92910497
Si 10.05055576 7.86731537 6.19540835
Si 6.74870685 4.31961491 9.15317534
Si 9.04292707 0.76559798 1.27409848
Si 8.15782825 3.94288405 3.93669420
Si 1.59692917 2.66839222 5.19494128
Si 8.93836515 9.36455725 0.36413317
Si 10.72655871 5.01716123 4.62345357
Si 0.04648939 10.77965347 2.13278863
Si 5.34883884 0.13051044 4.54471632
Si 3.31076909 5.40092354 2.19034535
Si 1.61793672 7.07658534 5.09664351
Si 7.84827397 10.69938868 9.86226128
Si 7.66198627 1.22372944 3.18169163
Si 5.80215809 9.48634610 1.14470801
Si 3.79471210 3.02401924 8.74612246
O 0.84726426 5.75622636 5.43880011
O 8.70906553 9.12945123 10.01132083
O 2.34651071 3.49616085 8.61730498
O 6.30616289 3.41124134 10.60504983
O 10.73871780 1.55337295 8.95471365
O 7.31575117 1.01397715 9.15854995
O 10.62201856 5.03890922 9.84240276
O 3.23765253 6.58272951 5.85942576
O 5.29895934 9.42713792 4.92172301
O 1.30220458 1.69933551 6.74618685
O 0.88933532 10.45079436 0.65597073
O 9.11688845 2.28131320 0.80414496
O 5.63047717 1.14494299 5.79305758
O 9.69953292 1.01187726 6.80834318
O 4.60533342 0.03496727 2.08885045
O 4.97101449 5.32115203 3.03563833
O 3.87257068 1.56972998 9.28131548
O 3.25574808 2.58930506 5.25946501
O 3.89869033 2.42031587 7.10179752
O 7.03995532 6.10762450 0.02117828
O 3.82656452 0.26320176 4.36774915
O 5.58745087 5.52821922 5.81049808
O 9.01057269 0.23135415 2.81656369
O 7.51951989 9.64495957 1.21830801
O 1.50903034 7.51908417 3.60825440
O 3.43700333 5.49415176 0.32582005
O 0.12666304 7.69067649 10.00223169
O 1.10708175 5.44636907 7.93739828
O 8.90256266 11.09360272 11.10167985
O 7.84988382 10.58138678 6.40752191
O 6.61306954 3.78737381 7.68808275
O 3.50600026 1.43805419 0.48986686
O 1.72577890 3.34678742 11.02230462
O 8.49430814 5.09156842 1.95515077
O 7.70859407 5.53708860 6.63661227
O 6.57492394 10.98960856 3.55150408
O 8.02028413 7.39350163 2.13716979
O 7.29492440 5.52437439 3.65447035
O 6.37898810 7.66360196 7.93286652
O 0.77049220 7.92761458 6.15577679
O 2.43305007 8.25642583 10.27064651
O 0.69683783 4.57212409 3.46926961
O 3.03571521 10.81975411 10.21890305
O 10.74343817 1.07989547 1.57548137
O 9.07366278 3.17115230 7.89964174
O 8.10801012 5.09122776 9.43847431
O 0.00519399 6.45551114 0.90191847
O 10.10589114 9.67958590 5.86718339
O 8.18015907 1.39669956 5.00147932
O 9.32152727 6.83353765 10.95259183
O 5.30904141 8.30978816 2.38516146
O 8.74901901 8.29258850 7.46501534
O 1.97472671 4.09932682 6.07935298
O 6.45409391 2.94103012 3.50435495
O 2.59558072 8.99164317 5.68325279
O 3.61176310 9.07928728 1.01160997
O 4.56677372 3.88234132 1.15585358
O 3.16172634 3.87881412 2.81639501
O 4.20655935 10.66971795 7.00631173
O 8.80313698 2.90092961 2.94445615
O 6.33670163 10.84841001 10.94154327
O 9.68145270 10.47076687 8.65124380
O 5.73457848 5.71828333 8.83129071
O 10.36130850 3.66642234 5.49618256
O 10.36136967 8.92681727 0.91865089
O 1.08457245 10.22960902 7.31818136
O 7.95837537 3.47677109 5.46783976
O 4.45403128 4.46926854 9.55361754
O 9.42744585 5.34183686 3.73911098
O 7.20381556 9.75113629 8.76343740
O 9.55185493 7.43594381 4.40055170
O 5.44894386 8.61173367 10.65833033
O 3.80169468 8.39967182 7.62901351
O 0.51945997 2.23562017 3.77170824
O 7.21708000 1.39406898 1.69440086
O 9.94969562 6.09604729 6.56663056
O 7.27399825 8.13186731 4.55338990
O 1.48905147 11.02237653 2.95940482
O 11.06772817 9.53673863 3.38498454
O 4.12186020 5.15943885 7.26457326
O 3.51515220 7.14453156 2.29306161
135
Time=199999.99999918 pbc="T T T" Lattice="11.12194768 0.00000000 0.00000000 0.00000000 11.12194768 0.00000000 0.00000000 0.00000000 11.12194768" energy=-848.46681536 virial="337.41651191 30.82970405 -24.47450251 30.82970405 303.93918762 11.94484510 -24.47450251 11.94484510 350.61890734" stress="0.28753831 0.02240922 -0.01778981 0.02240922 0.26320460 0.00868236 -0.01778981 0.00868236 0.29713475" Properties=species:S:1:pos:R:3
Ca 3.58851716 7.75887732 9.64436817
Ca 4.80652980 1.87827505 0.18698143
Ca 10.47067237 9.43020832 2.23503420
Ca 7.63854339 10.24928877 5.34066347
Ca 10.05079437 3.75040480 4.71949585
Ca 7.11645114 5.60472126 6.46716431
Ca 5.77429775 8.36514390 4.33931639
Ca 1.38103517 7.60155345 10.81775603
Ca 5.19064932 4.64430193 10.31365706
Ca 4.32380865 4.64396773 3.84478983
Ca 9.24007539 3.80037139 2.25448924
Ca 6.39695918 3.36807947 2.66506872
Ca 3.17987458 10.85060119 3.80451172
Ca 3.64426575 6.20392817 6.09504535
Ca 9.79253248 9.51767560 10.69472546
Ca 5.96692492 9.90479105 10.62297312
Ca 7.47050767 9.83664279 8.12968330
Ca 9.48060181 1.34762838 8.49346624
Ca 7.04955404 9.48414667 2.20317791
Ca 5.78113617 1.18946089 4.08143914
Ca 0.63533437 2.28560548 9.62424634
Ca 7.04218865 6.28508444 3.29348999
Ca 7.83698008 4.33002045 10.50364568
Ca 1.77312590 2.13961652 7.11080757
Ca 10.87309598 7.65271721 8.16863173
Ca 9.94256432 6.16163263 2.60018388
Ca 4.07417529 3.77946124 7.10600827
Si 4.20131456 8.05362338 2.24921064
Si 9.83181641 7.95138397 4.80925848
Si 2.59040159 9.46457853 6.51112202
Si 2.85696734 2.55315927 4.23887029
Si 1.76089758 4.88971976 4.66442465
Si 6.20814247 2.09860238 9.11261196
Si 1.30929921 5.20684330 1.99854388
Si 3.89591532 5.66054377 1.20982870
Si 3.40755559 1.13257971 9.02008266
Si 9.59040299 4.69330831 8.05090124
Si 0.74206650 5.09362574 7.36071876
Si 0.37167719 0.75597612 3.64901667
Si 1.18933277 10.43738181 8.81102953
Si 2.63956017 10.23954752 0.27517065
Si 6.33544935 6.89390764 0.59708583
Si 10.84063977 11.09835203 6.42667476
Si 10.42002368 1.71573975 1.02032795
Si 1.56794687 8.09835010 4.45072575
Si 9.09096997 0.55018026 3.52177381
Si 7.47533890 1.32064694 0.62342481
Si 5.68091255 7.40419031 7.86885485
Si 2.25804263 1.49491960 1.54412840
Si 7.50710738 2.75979370 6.95981972
Si 4.65454256 10.66742280 7.02396911
Si 2.23964614 4.85905081 9.96116793
Si 8.26300477 7.17984118 9.52408456
Si 10.19298677 5.40242222 10.67580363
O 5.91882840 8.23118436 6.33269883
O 7.55207283 0.30609039 3.62714969
O 9.68373755 6.53401651 4.72214342
O 0.05727751 4.43551360 2.70525822
O 4.49309785 2.34603658 9.02605969
O 10.28705630 6.01409130 7.18226316
O 10.92744460 9.88265338 9.22500083
O 1.15891810 10.67426462 7.26496954
O 1.11243279 6.53099306 2.50170384
O 7.98422286 3.64453530 3.52764394
O 10.08371260 1.66662777 3.99379281
O 8.63961722 8.87738489 9.32764786
O 8.15904234 3.01251417 8.54976888
O 10.84990645 1.50534334 7.19838841
O 6.34260415 2.62720028 5.43983349
O 1.96049877 0.85822879 10.93082138
O 0.04111901 8.28228535 3.91111561
O 4.52239481 0.20483404 10.23077520
O 3.28795874 4.14579822 5.18448010
O 0.04125369 3.61735066 7.45261776
O 10.07363984 4.12312788 9.52462621
O 3.07472517 2.89370356 1.00411931
O 1.93934750 8.55068170 7.94713479
O 0.67951388 0.84609017 5.22131831
O 6.23827181 3.17041230 8.03547961
O 4.89929423 9.69901829 2.86843050
O 9.94012237 7.08993411 10.11835891
O 3.04634914 8.54508784 3.27434510
O 8.50967223 5.66303205 9.18160863
O 3.34390789 1.53504150 5.26390322
O 7.20696946 5.79528412 1.60545204
O 9.83977529 10.28006570 3.73922877
O 6.52234068 7.88923449 9.13578206
O 8.31664424 2.87261110 0.53205679
O 0.87767509 5.71779066 8.96942404
O 10.23985974 1.48449515 10.71131940
O 8.12139026 8.69034880 4.14698288
O 6.32840965 3.06114027 10.57584028
O 2.41007217 4.57249642 3.05991073
O 0.77377732 5.58041162 5.84128413
O 10.74057982 7.82678334 1.31675458
O 4.27774843 6.34774836 2.71657323
O 4.63811832 6.60044414 0.11053545
O 4.27868677 2.56536692 3.37247819
O 9.14087302 1.15609123 1.88794557
O 2.09104047 3.36843654 9.98894383
O 5.41380535 6.20099767 4.86449529
O 0.70352513 2.24245104 1.39270843
O 7.34518285 1.09023625 7.39144270
O 4.02404400 8.12073403 7.80851270
O 5.56265472 11.01992965 5.65297019
O 6.87214816 0.78859654 9.77564200
O 2.30715267 4.94791285 7.12432990
O 5.39973064 5.80881285 7.47294503
O 4.20528926 9.58041558 5.78782145
O 8.63650111 4.41948238 6.87302420
O 4.85086235 4.38878651 1.13180794
O 3.20489452 0.02307784 1.57962364
O 9.10149566 5.33688371 0.57062698
O 1.19078511 9.78756123 0.48439173
O 2.55968168 5.83675638 0.11019813
O 7.01452063 6.29567695 10.38635985
O 9.05053361 11.09316444 6.46711205
O 1.56397099 9.75257454 5.06498829
O 3.45097611 5.64080768 9.18707023
O 2.72762732 9.91040138 9.60716451
O 3.60266128 0.61306581 7.56690198
O 1.16574167 3.00693899 4.73833389
O 9.56198910 8.82367384 6.05112807
O 5.73433215 7.71192272 2.13756701
O 2.05725944 6.32978632 4.52099317
O 0.38262817 5.25455430 0.34612149
O 3.52809434 8.83957115 0.90518061
O 2.14989417 7.94296978 5.92299011
O 7.45380939 8.61527930 0.32814114
O 1.87691907 1.00627015 8.78472070
O 11.09420106 0.24654854 2.13628861
O 8.25477393 10.69455207 0.36609579
O 5.29870935 10.05255207 8.18444100
O 6.31066398 1.31782536 1.68538327
O 1.95899741 1.32661664 3.32132326
135
Time=299999.99999840 pbc="T T T" Lattice="11.12194768 0.00000000 0.00000000 0.00000000 11.12194768 0.00000000 0.00000000 0.00000000 11.12194768" energy=-866.66429298 virial="240.00116901 -30.30832846 31.84526885 -30.30832846 277.35136489 7.67122459 31.84526885 7.67122459 308.62233361" stress="0.21672990 -0.02203025 0.02314741 -0.02203025 0.24387868 0.00557599 0.02314741 0.00557599 0.26660865" Properties=species:S:1:pos:R:3
Ca 8.80018478 2.90526853 1.04405440
Ca 11.03140036 1.32963070 3.76498625
Ca 0.23367911 10.09147539 1.69246574
Ca 9.08543646 7.41072951 4.63460630
Ca 10.45490255 8.04300050 6.72683374
Ca 8.16210617 10.85692467 6.06061469
Ca 4.75040702 8.63647955 2.34136029
Ca 0.26793535 1.61918119 0.23906976
Ca 6.17829810 0.26138917 0.53707637
Ca 1.05686939 7.05688611 2.95312702
Ca 9.42922933 2.25644579 7.45577204
Ca 3.31445898 1.23694402 8.91257436
Ca 2.31813837 5.22515005 4.51891859
Ca 6.18945382 3.38180048 10.43514352
Ca 2.70059554 6.39453340 10.06259595
Ca 8.23178142 8.48027051 9.28335631
Ca 8.75799309 8.65375812 1.77015364
Ca 6.18218134 5.75063009 4.46304300
Ca 2.33070801 8.62246944 0.51190773
Ca 6.59859154 9.44384617 4.00864022
Ca 7.75287553 5.14520597 7.27569636
Ca 1.68134518 7.82524523 7.16664684
Ca 4.12665986 0.19640354 5.75484754
Ca 3.11930858 4.89400718 6.92937938
Ca 0.61892903 10.77226622 9.02303573
Ca 3.94817953 5.73185023 2.19240791
Ca 10.57415217 5.33549944 8.89869220
Si 2.88071484 10.69129684 3.06954209
Si 1.36677557 3.52700069 1.99013129
Si 10.48042980 6.69407217 0.80730493
Si 0.88403672 9.82969268 4.80403989
Si 6.42494544 0.50341343 8.52432218
Si 10.71566490 4.58590292 5.89146505
Si 3.59985167 7.90505385 5.06437611
Si 7.46344892 6.35626735 1.79289274
Si 8.57364625 0.09681150 10.11818325
Si 3.01109783 3.48530792 0.19682474
Si 0.27875163 11.10966245 6.66342466
Si 1.95345135 2.45083667 6.24309225
Si 4.18067621 3.07097343 4.35660331
Si 3.15199501 0.37402349 0.51026176
Si 10.11968080 4.39609294 2.98823138
Si 5.27399992 3.51924176 2.17644561
Si 8.10177796 5.34592102 9.88384044
Si 5.71849460 6.67565291 10.77622313
Si 8.15584356 3.67324551 4.97652311
Si 10.64488415 8.30297163 9.93161070
Si 3.92782274 9.47278388 9.36314408
Si 8.54984686 0.31845176 3.14485797
Si 5.15782563 5.97969690 7.97616460
Si 6.25959801 8.66835652 6.79646999
Si 1.55106248 4.07210368 9.05176548
Si 5.76229682 2.69850076 7.15851206
Si 6.53808907 1.75084511 3.96706534
O 4.33515834 10.40554135 3.42201020
O 9.36301379 5.38013107 10.94711761
O 0.28146294 1.78477459 6.24284236
O 9.87778942 0.73616084 2.11065504
O 0.85810644 6.71360378 0.18156472
O 10.43963415 6.14660765 6.65992197
O 8.25313048 5.18640817 5.33341418
O 10.23579111 0.46587792 9.93508338
O 3.34136639 9.86924344 7.95827766
O 1.96361918 7.03870724 5.48143393
O 10.76319065 5.04724836 1.62762473
O 7.97155143 8.09790419 6.62423931
O 1.40878841 9.47436143 3.10750186
O 1.04308177 9.85186082 6.56739558
O 7.16646166 1.49473778 2.50247930
O 3.31122483 7.63088104 3.34515887
O 4.76563245 2.65122365 5.79638588
O 1.33540166 5.58623514 8.55358203
O 5.14120449 0.25786241 9.78286779
O 7.24178688 7.78982780 4.60564825
O 3.43838351 6.65881959 8.29982314
O 2.49746815 9.16444058 5.09573717
O 7.92014502 10.48034121 1.88244880
O 2.51892830 1.17866246 6.85327999
O 4.39626374 7.10236428 0.51294607
O 6.50444118 7.78014537 1.49348772
O 10.75658997 7.80360328 1.94425127
O 4.11147812 4.37267632 0.95862125
O 6.36761374 0.40609714 4.94185296
O 2.07984404 4.94474827 2.58058092
O 4.28949511 6.39227722 5.41987411
O 5.73488487 5.42323442 6.53671433
O 8.44878399 6.38830375 8.67348677
O 2.06321475 0.30414641 10.52173076
O 0.22026070 3.16481646 9.19808917
O 5.20541259 1.94483060 1.24825566
O 2.87362154 4.37257471 9.89651639
O 5.89252094 5.26965197 2.05875178
O 10.27717013 9.15485049 8.70513319
O 9.42086792 7.85539983 11.00477773
O 1.95652680 0.33060602 1.81756483
O 7.36272168 10.47763780 9.36683570
O 9.88939208 3.46072072 4.60745683
O 6.52831917 3.27931800 4.22699465
O 4.96984690 3.13426820 8.47388960
O 7.07983193 5.96525271 0.18251367
O 8.67870106 1.31787506 4.84019367
O 8.79122057 10.08944561 0.07971981
O 0.74787575 9.22825005 10.71474999
O 8.46710382 6.42092243 3.08381358
O 4.74137160 1.81315802 3.56395038
O 8.84040198 9.75413469 3.90628465
O 6.10029212 9.99234200 7.83418913
O 3.98878770 10.39650614 1.21766421
O 10.97927283 10.99031497 4.91375091
O 4.89087106 9.27501045 5.34783764
O 3.63828106 1.84297309 11.09652419
O 4.07447546 4.07386910 3.11450170
O 5.42346236 5.52866932 9.69929314
O 10.06314394 0.32775030 7.47000804
O 5.32796763 1.00256821 7.25727939
O 2.77479432 8.59177112 9.95064489
O 7.76758630 1.34661806 10.70575340
O 2.55517432 2.63840562 4.75662751
O 2.29810140 2.25913639 1.63090051
O 5.97640014 8.03163690 9.78749055
O 10.71551885 5.42412680 4.34501868
O 2.10423936 0.30458850 4.45661890
O 9.93994924 4.13668813 7.24304447
O 8.37947945 3.83621872 9.38286045
O 10.96150803 8.44432712 4.67563654
O 2.62306447 3.24287152 8.22954618
O 1.14350100 4.11935890 6.16437259
O 8.52708721 4.11855922 3.19091925
O 6.71788291 3.49028080 1.25635471
O 0.00329470 3.00212252 2.31285442
O 5.73120823 7.49250797 7.91380303
O 7.25700431 1.87558643 8.31428707
O 1.17606589 3.75601567 0.31814503
O 7.37502151 2.89391880 6.22534950
O 0.41518344 7.59179516 8.91992729
135
Time=400000.00000008 pbc="T T T" Lattice="11.12194768 0.00000000 0.00000000 0.00000000 11.12194768 0.00000000 0.00000000 0.00000000 11.12194768" energy=-858.06292588 virial="247.78174011 -20.88276149 5.27808107 -20.88276149 322.45726763 -16.66672412 5.27808107 -16.66672412 248.28071897" stress="0.22238537 -0.01517908 0.00383649 -0.01517908 0.27666486 -0.01211456 0.00383649 -0.01211456 0.22274807" Properties=species:S:1:pos:R:3
Ca 4.23724064 5.17177862 11.04408921
Ca 3.26524669 8.09849922 7.99055884
Ca 8.81659452 9.83217191 5.31625146
Ca 0.96480499 2.96183259 3.78306542
Ca 4.75154342 10.49801435 10.82936566
Ca 9.93612619 9.78752763 2.77663510
Ca 4.47135783 3.34418056 2.23433843
Ca 10.41096993 2.92724447 10.10290352
Ca 10.52916672 5.27055408 9.14847442
Ca 7.45474623 1.23775981 5.84203227
Ca 2.02772371 10.16697027 2.87728486
Ca 0.11376948 6.51710705 3.40828979
Ca 7.18920895 1.53895470 2.45178876
Ca 2.09568235 1.22509463 5.57059302
Ca 9.24796919 0.98854359 0.03470986
Ca 4.71824227 3.20094206 8.40561427
Ca 6.77375962 4.13767394 10.05374828
Ca 10.70612551 1.25139283 1.72965182
Ca 1.51697054 5.19041825 6.28610491
Ca 3.08871927 5.73263513 8.83828971
Ca 3.70734204 3.76215942 5.35896889
Ca 3.33622226 1.53179936 11.03833865
Ca 2.52541045 8.32985337 0.84390578
Ca 6.01360751 6.96148507 5.40528951
Ca 9.04551875 9.83094103 8.96643235
Ca 1.97639869 10.84064860 9.07190054
Ca 6.88918358 10.00867155 7.37459476
Si 7.29348961 4.72386524 7.40053483
Si 7.64844497 8.09207010 3.61850987
Si 6.80108797 3.52397742 4.84709660
Si 5.76984578 6.48978603 2.30905000
Si 4.63880782 0.49858205 7.38290774
Si 9.62083095 4.12635810 4.31477753
Si 8.12734644 6.46338683 10.70687865
Si 0.91779123 9.10512191 5.70827317
Si 2.97049283 5.88745358 2.80751075
Si 4.41732140 1.08807778 3.64549209
Si 10.54401290 8.38645667 0.10723085
Si 10.18696241 3.68012726 1.57211499
Si 10.05358888 1.08090185 7.54101519
Si 9.96349342 1.22256995 4.72468940
Si 5.74586102 7.69804758 9.07039553
Si 5.56302266 8.83692347 1.82050818
Si 1.28846637 4.74762794 0.47949408
Si 1.11096942 3.15206804 7.78428422
Si 10.66391744 8.40428021 7.71503663
Si 1.18734276 7.56299774 9.38221743
Si 7.64121898 9.28710080 0.18397239
Si 6.90223369 1.19835785 9.20698251
Si 7.95746813 4.33570101 1.38877940
Si 3.65943203 7.41969513 5.22248541
Si 4.98561495 10.07184299 4.54446066
Si 9.49659022 5.89354937 6.45064480
Si 1.58356427 11.07470437 0.68590015
O 3.16690411 2.20427190 3.70495575
O 9.28964332 8.19807761 3.78283795
O 7.40968051 0.09280045 10.28837886
O 8.62090372 0.00955711 2.10518032
O 5.47201024 4.95037480 5.18072380
O 6.84926530 9.13507450 5.14141801
O 0.24673834 7.88832179 1.30032435
O 0.71278162 9.42241705 7.61871664
O 3.47488033 11.06324135 4.26703782
O 7.02141216 6.42564587 3.52562369
O 0.20540128 10.33266897 1.18303259
O 9.30892338 9.65633720 11.00335687
O 4.35664275 6.73962557 3.95102854
O 7.24051612 7.86254660 10.60221987
O 1.87202022 5.28743917 4.17698139
O 1.13364954 6.88822994 8.01737912
O 6.33014274 9.92917346 0.96552602
O 7.66034696 2.67127759 9.05238215
O 0.49964875 0.87592860 3.68551642
O 5.12929739 7.47060881 1.09691242
O 5.64890428 4.75912296 7.42882823
O 7.47794144 3.55257329 6.42853690
O 6.22368635 3.52357295 3.40538592
O 4.09113500 3.28689565 10.47584190
O 5.99798482 8.36185271 3.41530489
O 4.51419365 5.40085401 2.28294626
O 10.68555862 0.15381872 8.66384590
O 4.90498306 1.31105962 1.99810061
O 10.84138841 4.89845324 6.73040484
O 5.93084285 9.23049663 9.19239342
O 8.59033388 4.96437810 8.41400399
O 4.90745272 10.61558868 6.26256472
O 4.04654559 10.52129119 8.70992374
O 8.73574805 5.22566443 2.53742961
O 1.88681807 6.31468229 10.68624567
O 9.84959410 2.67410503 5.64338751
O 4.46994597 8.68919044 5.19412260
O 9.70561492 5.64911262 4.88809463
O 2.72695080 10.34463335 0.17397956
O 3.98868386 1.82581662 7.05345655
O 7.80341045 8.64184780 1.95545087
O 4.66255511 7.04733707 10.12232941
O 5.87918509 2.12981724 4.99683761
O 8.02095067 6.66165032 6.23556435
O 5.27306423 1.12107978 10.27435681
O 1.45255899 2.95459605 6.00494863
O 8.87114256 3.04605485 0.60725435
O 2.03186953 1.76142757 8.25729738
O 9.38477248 9.37548067 7.07984252
O 2.30360165 0.80342260 2.11860098
O 9.63189890 7.37849529 10.42122837
O 0.16651688 7.70044969 6.11613131
O 9.69331326 7.06142683 8.06110935
O 6.64898263 5.71228287 1.06530227
O 6.60494784 3.24144472 1.04506123
O 11.11368757 8.63183790 9.63333515
O 10.57864027 2.57320208 7.66879041
O 4.24578021 9.40392522 2.43010383
O 1.03987654 0.97308371 10.57934702
O 8.02284049 3.99516150 4.10612410
O 2.21353769 7.19564589 2.55706210
O 10.01453183 0.34412887 5.99083637
O 2.87150354 4.06903429 7.79015836
O 5.93558970 7.68556384 7.54054373
O 6.78240247 6.29645688 9.29622557
O 1.01776165 4.05898273 9.40154581
O 9.63026071 2.64828833 2.82330232
O 6.20498978 10.98175526 3.76234196
O 8.34774466 0.55675617 7.57322442
O 2.29100655 8.56589664 9.83397496
O 6.21954154 1.12160554 7.75576293
O 0.27299725 9.25175384 4.19189099
O 1.76128711 10.69379029 6.49535024
O 10.88252662 4.60146673 0.29099631
O 2.31113077 8.34414902 5.09265197
O 2.44889518 4.95262747 1.53377466
O 0.57681268 2.62642698 0.77258164
O 11.03421054 4.40125930 2.99389822
O 8.82879286 0.44332037 4.06733997
O 8.43341260 4.89805206 10.97134651
O 3.62954888 6.41149396 6.51769017
135
Time=500000.00000301 pbc="T T T" Lattice="11.12194768 0.00000000 0.00000000 0.00000000 11.12194768 0.00000000 0.00000000 0.00000000 11.12194768" energy=-849.71159221 virial="342.20855721 55.86132468 15.88586422 55.86132468 298.67755724 -14.93070118 15.88586422 -14.93070118 273.52814233" stress="0.29102151 0.04060399 0.01154698 0.04060399 0.25938008 -0.01085270 0.01154698 -0.01085270 0.24109969" Properties=species:S:1:pos:R:3
Ca 6.07423515 7.35102489 6.28165338
Ca 2.60549361 6.56196333 1.52245864
Ca 0.59972118 9.24579303 0.09590424
Ca 6.26481107 3.55588215 5.88203738
Ca 8.74468117 1.19553553 4.89698515
Ca 5.73527992 0.46406632 9.98291904
Ca 10.14424122 8.08192634 2.51917409
Ca 2.49370795 0.34829196 2.63537222
Ca 1.56081530 1.15456145 5.81562512
Ca 4.67787847 3.40654820 1.78713128
Ca 10.48103556 4.48284722 4.48503935
Ca 3.45068832 2.20596768 7.62196839
Ca 1.60542051 6.24293191 10.20712856
Ca 7.48657464 5.47933705 8.98949312
Ca 5.42342362 10.90213151 4.37655820
Ca 2.25835775 8.04269619 8.05697861
Ca 6.85915827 2.24634712 3.80866298
Ca 5.39192123 3.04759514 9.71816756
Ca 9.02965611 10.12696643 9.84650229
Ca 10.37366307 0.66522429 8.03625558
Ca 4.34925458 7.33150393 9.57631104
Ca 0.10251823 4.15392492 8.21448073
Ca 8.75722597 3.60931689 10.56315238
Ca 2.80215590 4.40103443 5.92663485
Ca 10.50337720 4.85788719 1.75210338
Ca 4.04075772 10.29645689 7.50282648
Ca 10.69986977 0.20952606 1.17861130
Si 1.99629763 2.14213197 10.72033458
Si 8.18016479 5.92122737 5.88716030
Si 3.77723727 5.07210155 8.10221953
Si 0.12843531 3.22472193 10.59284396
Si 7.08563744 0.16573703 6.60090072
Si 11.10463418 9.27223064 6.49187617
Si 7.97667308 8.04417961 11.07735817
Si 9.99047311 6.60818944 10.55450222
Si 3.27058680 9.85573351 10.69319840
Si 1.71176578 0.29424075 9.13687099
Si 2.46469006 8.25525566 5.18155254
Si 9.35106361 3.46652680 6.84308076
Si 5.08351313 5.27078113 4.36429055
Si 0.22562868 6.48636995 5.52878560
Si 8.78413261 2.71410649 1.78026139
Si 3.67089408 8.95483512 2.62460529
Si 6.63028688 9.63996264 8.07420798
Si 7.52514854 1.93545994 8.18126677
Si 5.82442470 8.55789399 0.81644114
Si 6.34657027 5.10027546 1.09979628
Si 7.03686255 0.69222495 1.40476197
Si 7.25717279 7.01215871 3.57473329
Si 7.38932772 9.51171470 3.95197153
Si 3.62126084 2.07090161 4.56558669
Si 10.99425543 10.43183283 3.59977958
Si 1.57492336 3.41935201 2.23121217
Si 9.33983017 7.82147461 7.31245606
O 6.14887942 8.57118750 3.88970982
O 3.80342667 8.31166805 5.92408583
O 2.18688961 5.81145684 8.36049971
O 10.58214359 6.77746686 4.05625610
O 2.72474294 7.90421862 10.43171630
O 7.35995794 3.52258300 8.23382071
O 7.88842470 10.48117440 8.03582073
O 1.55854742 1.89940790 1.52408228
O 7.61994299 2.07424468 9.73018118
O 1.77687941 9.42110529 6.35639707
O 8.33866383 3.17963702 5.38624713
O 6.66629908 4.27252493 10.57627933
O 10.65395132 2.76311971 6.15848718
O 10.17523557 1.86233120 0.23638951
O 1.68490899 6.93291909 5.79122963
O 8.84868073 6.51629190 0.25719482
O 0.86232211 1.71319035 9.13103289
O 5.82451547 6.55011814 4.51576568
O 2.66200256 3.99465503 1.03206006
O 9.58048125 8.93111568 0.51024779
O 2.51664255 8.32493152 3.43316556
O 7.15004567 2.59833380 1.55562000
O 8.34690996 4.52602611 1.14206780
O 4.81078039 7.95592413 1.81098012
O 8.37839825 1.36198199 6.87387903
O 6.93301594 10.93859188 3.08356029
O 4.37027003 6.29519387 7.21785371
O 8.52787326 1.19555819 2.21234151
O 3.93729883 4.83610100 9.71863562
O 10.86077382 0.89013394 3.80773616
O 7.31296989 8.79681505 1.14906527
O 0.19608250 6.75275253 0.69296962
O 10.81227093 7.49193930 6.65721401
O 9.96411395 3.18045139 2.76368177
O 8.06363331 9.95896849 5.32165993
O 2.44243632 9.77562246 9.28493834
O 4.87551916 9.74861977 11.03890896
O 3.85263706 0.98570360 5.78824267
O 1.69731592 3.34133538 7.05134325
O 7.13508044 6.41026194 1.96589945
O 1.00803803 4.82930026 3.05286541
O 6.24692057 4.46316438 3.49972475
O 6.88781148 5.70905038 6.69852123
O 1.70928962 3.63554193 9.94351117
O 0.19760860 9.00606938 4.65457979
O 0.14912561 5.20134317 6.31222598
O 8.24061402 7.59810422 5.66398051
O 9.37177210 5.01055420 6.62319519
O 4.82458650 5.45570174 1.48056557
O 6.09117568 1.14595509 7.77110663
O 10.58251498 10.93281945 5.99579844
O 8.10906169 8.33879793 3.15439885
O 3.61722482 5.48225101 4.17747642
O 3.64789178 2.65618699 0.07568753
O 10.45823507 9.00692811 8.28668864
O 3.01393053 9.33542519 1.14168389
O 9.69511933 10.16395530 3.13373434
O 9.28552202 6.66799047 9.03651939
O 9.52276421 3.13853055 8.37347764
O 7.51438210 0.33579511 11.06215945
O 1.00214991 9.97215821 2.27793618
O 6.31036471 7.40688488 10.65596107
O 1.88485467 0.15252423 10.87751862
O 10.91496564 10.78908055 9.93785694
O 5.19649999 10.05813726 8.81287720
O 2.26205964 2.80286832 3.47583818
O 5.21542104 3.84831449 7.34994998
O 6.50386516 1.18859407 5.62312600
O 4.54563444 1.36422625 3.21953192
O 4.64882753 3.35337915 4.93678746
O 1.97790946 0.29559690 7.66174758
O 3.88784963 10.30168688 3.42185032
O 7.11012737 8.06028095 7.69812206
O 10.49488562 4.57192394 10.30290614
O 3.48983568 0.75386204 9.17964167
O 8.37305860 5.68921999 4.06980066
O 0.62187278 3.50230276 0.99837358
O 5.39903477 0.94566253 0.96855137
O 5.81834609 10.14827177 6.54485364
O 0.07513395 7.54672890 9.65615827
O 7.49257257 8.94195607 9.76550755
135
Time=600000.00000594 pbc="T T T" Lattice="11.12194768 0.00000000 0.00000000 0.00000000 11.12194768 0.00000000 0.00000000 0.00000000 11.12194768" energy=-848.88970118 virial="278.75385438 2.09437280 -25.56093119 2.09437280 314.38289214 38.66208314 -25.56093119 38.66208314 301.63009333" stress="0.24489811 0.00152234 -0.01857950 0.00152234 0.27079583 0.02810235 -0.01857950 0.02810235 0.26152619" Properties=species:S:1:pos:R:3
Ca 6.18192210 1.84207713 5.85146252
Ca 8.29321443 1.36914811 3.14829191
Ca 0.66047881 1.65627815 2.86896420
Ca 0.21734787 10.70510804 5.66783104
Ca 0.96440854 3.88080202 1.90987415
Ca 8.98861622 9.39884042 2.55284942
Ca 0.36456218 7.87231747 9.00833877
Ca 10.21797150 10.12065851 9.02152004
Ca 6.32365363 9.92079259 8.76828032
Ca 8.05528028 7.38356981 3.45505899
Ca 2.39160629 3.05745641 10.68580415
Ca 4.45365308 10.69586438 6.11242079
Ca 4.10953127 6.97445557 2.20986563
Ca 1.76272709 1.57606806 6.39178331
Ca 3.49792020 4.54407159 8.51315996
Ca 6.03389708 11.06290292 2.47621550
Ca 8.05193370 5.02610662 6.19014213
Ca 6.56337394 7.85994088 0.59666154
Ca 11.04191562 1.79786521 8.80896169
Ca 6.63327182 3.46982758 0.58194231
Ca 1.49798452 7.96447735 5.81527186
Ca 3.67786995 3.93362453 6.00140040
Ca 4.28267310 3.94373199 1.97268127
Ca 9.05143511 4.79200411 8.89574195
Ca 3.41590807 9.79949956 10.78196936
Ca 5.92409793 7.40477283 6.90255896
Ca 3.81643368 1.88585648 3.84124070
Si 1.86227247 5.26642620 4.78974370
Si 3.26923314 7.47760144 9.53049804
Si 5.34705893 1.23192397 10.84972762
Si 10.31649402 6.45999590 4.14421509
Si 9.28588396 1.33266372 6.52642820
Si 3.43733389 10.15020878 3.25467203
Si 9.34644170 4.07099089 2.71798751
Si 7.83485946 10.22525099 5.58853587
Si 0.88202578 9.67599536 2.62138222
Si 8.12630730 0.12188446 0.20912045
Si 6.74143975 3.61404981 3.86128676
Si 9.47538816 7.44465220 0.31668744
Si 7.37860582 1.32056282 8.96567207
Si 5.64613227 8.86929862 4.31019820
Si 2.64544645 1.19205751 0.95805052
Si 5.42287589 5.35210478 10.39576449
Si 0.43542790 4.91155342 7.49842434
Si 7.55630981 7.09291899 8.78949132
Si 10.54253939 3.07641277 5.22812341
Si 0.98950822 6.78386384 2.07407157
Si 5.57476410 5.33103189 5.01378397
Si 4.16126837 2.05590334 7.76142670
Si 10.96560840 0.36119140 0.26212557
Si 9.28412165 3.79623318 0.26515762
Si 0.84947344 5.46137352 10.66786267
Si 9.53063716 7.51635136 6.74424592
Si 2.37725679 9.46532012 8.54380719
O 4.34532831 7.97616453 0.09692566
O 9.27764614 9.73451782 5.85177447
O 10.94747206 1.14867946 6.73626712
O 8.98126862 4.82095674 1.36796369
O 8.82299394 7.97405238 8.03051166
O 6.19510456 1.91233569 3.46707252
O 1.88125136 10.16492239 4.03359343
O 10.61258189 3.70090549 6.76208950
O 5.22934215 5.59664882 6.44312972
O 4.21182036 8.75002359 5.00767056
O 4.79840686 10.65214150 4.07642821
O 2.50705197 2.29778350 8.33790950
O 10.26654144 5.80607578 6.69240682
O 10.54101504 4.44580157 10.96454396
O 6.19215842 7.73734640 8.85866417
O 6.38561878 4.03584507 5.34899217
O 8.72522588 8.76389753 10.65661016
O 1.48300525 4.85226883 6.26607621
O 3.55506433 5.98088368 4.61285477
O 6.12645567 2.14291886 9.39525439
O 4.42841452 6.50519944 9.29724431
O 2.89276331 9.00838285 2.35340428
O 2.18763343 9.67485964 6.88492677
O 2.31724164 6.73956971 2.57418805
O 10.00698763 0.43882981 10.10661976
O 7.05160049 1.53432508 0.70387013
O 4.05289764 9.28021252 8.84680387
O 7.49383378 9.85153957 3.92537725
O 5.53236954 8.61543393 2.58100375
O 8.84320966 11.03882304 7.45764318
O 4.95155707 3.35853517 7.69068584
O 1.70160502 11.11588730 8.51635761
O 10.09589150 2.77955017 2.16123792
O 4.55532592 4.14777188 10.26314115
O 10.15178314 4.48562694 4.01664405
O 2.44461214 7.57661612 8.10704589
O 5.44641154 5.34430927 0.92876123
O 1.32131866 0.03838330 1.54243075