<?xml version="1.0" encoding="ISO-8859-1"?>
<modeling>
 <generator>
  <i name="program" type="string">vasp </i>
  <i name="version" type="string">5.4.4.18Apr17-6-g9f103f2a35  </i>
  <i name="subversion" type="string">(build Mar 16 2023 09:39:13) complex            parallel </i>
  <i name="platform" type="string">LinuxIFC </i>
  <i name="date" type="string">2024 04 30 </i>
  <i name="time" type="string">10:39:41 </i>
 </generator>
 <incar>
  <i type="int" name="ISTART">     0</i>
  <i type="string" name="PREC">a</i>
  <i type="logical" name="ADDGRID"> T  </i>
  <i type="int" name="IBRION">    -1</i>
  <i name="EDIFF">      0.00000100</i>
  <i name="EDIFFG">     -0.01000000</i>
  <i type="int" name="NSW">     1</i>
  <i type="int" name="ISIF">     2</i>
  <i type="int" name="ISYM">     0</i>
  <i name="ENCUT">    600.00000000</i>
  <i name="POTIM">      1.00000000</i>
  <i type="string" name="LREAL">  A</i>
  <i type="int" name="ISMEAR">     0</i>
  <i name="SIGMA">      0.05000000</i>
  <i name="KSPACING">      0.30000000</i>
  <i type="logical" name="KGAMMA"> T  </i>
  <i type="logical" name="LWAVE"> F  </i>
  <i type="logical" name="LCHARG"> F  </i>
  <i type="logical" name="LSCALAPACK"> F  </i>
  <v type="int" name="KPOINT_BSE">    -1     0     0     0</v>
 </incar>
 <structure name="primitive_cell" >
  <crystal>
   <varray name="basis" >
    <v>      13.31093562       0.00000000       0.00000000 </v>
    <v>       0.00000000      13.31093562       0.00000000 </v>
    <v>       0.00000000       0.00000000      13.31093562 </v>
   </varray>
   <i name="volume">   2358.44497833 </i>
   <varray name="rec_basis" >
    <v>       0.07512620       0.00000000       0.00000000 </v>
    <v>       0.00000000       0.07512620       0.00000000 </v>
    <v>       0.00000000       0.00000000       0.07512620 </v>
   </varray>
  </crystal>
  <varray name="positions" >
   <v>       0.16184247      -0.02304846       0.07842714 </v>
   <v>       0.15945235      -0.16183237       0.15806826 </v>
   <v>       0.04909863      -0.07998480      -0.02106969 </v>
   <v>       0.11643358       0.12783761       0.01508479 </v>
   <v>       0.29890225       0.02548571       0.17811365 </v>
   <v>       0.13542360      -0.01216777       0.30315754 </v>
   <v>       0.24604785       0.00323822       0.29620355 </v>
   <v>      -0.05150060      -0.13574520       0.10898243 </v>
   <v>       0.19703451       0.21788680       0.04505913 </v>
   <v>       0.31526445       0.16374381       0.02794641 </v>
   <v>       0.38799491       0.09295140       0.10912684 </v>
   <v>       0.24965902      -0.20588359       0.23705877 </v>
   <v>      -0.07720019      -0.05156426      -0.04774591 </v>
   <v>       0.29476607      -0.10891135       0.30327475 </v>
   <v>       0.02445691      -0.20580308       0.23394671 </v>
   <v>       0.20252243       0.24742545       0.16424279 </v>
   <v>      -0.11713173       0.04988240       0.02250182 </v>
   <v>       0.07767886      -0.20245142      -0.14350104 </v>
   <v>       0.36090312      -0.23049243       0.18745694 </v>
   <v>       0.25980362      -0.27380017      -0.07256535 </v>
   <v>      -0.00194747       0.18736204      -0.09567863 </v>
   <v>       0.48716097       0.01684877       0.09786810 </v>
   <v>       0.25510346       0.08875019       0.38310190 </v>
   <v>       0.19237485      -0.29839964       0.28675015 </v>
   <v>       0.35587837      -0.15882098      -0.17494248 </v>
   <v>       0.17445614       0.30554101      -0.04370041 </v>
   <v>       0.31625445      -0.00070455      -0.23904874 </v>
   <v>       0.43282534      -0.21629983      -0.04547305 </v>
   <v>       0.40563799       0.11746703      -0.14819815 </v>
   <v>      -0.15629744      -0.15025237      -0.05348475 </v>
   <v>      -0.10397833      -0.01521042      -0.17519780 </v>
   <v>      -0.16336849      -0.19831728       0.08664858 </v>
   <v>      -0.19040409       0.07955082       0.16607831 </v>
   <v>      -0.09147153       0.22595718       0.21670169 </v>
   <v>       0.03302524       0.27605111       0.29470763 </v>
   <v>       0.37572368      -0.32042874      -0.06728393 </v>
   <v>       0.23228275      -0.21839079      -0.25796930 </v>
   <v>       0.49725280       0.19363678       0.15059149 </v>
   <v>      -0.44572629      -0.13683593       0.04810262 </v>
   <v>       0.31046601       0.31309353       0.26231331 </v>
   <v>      -0.11081967      -0.18560208       0.35134662 </v>
   <v>       0.06367264      -0.43491813       0.11213587 </v>
   <v>       0.12034751       0.03874036       0.49687598 </v>
   <v>       0.36328485      -0.40443566       0.02032601 </v>
   <v>       0.46681909      -0.28645369       0.25585042 </v>
   <v>      -0.24492218      -0.15814153       0.18483673 </v>
   <v>       0.33620149       0.34236867      -0.10007689 </v>
   <v>      -0.16389839      -0.33007746       0.04688600 </v>
   <v>       0.18724102      -0.46802550       0.01511827 </v>
   <v>      -0.01870153      -0.25266510      -0.26653851 </v>
   <v>      -0.07727471      -0.05222893       0.46585145 </v>
   <v>      -0.09548108       0.18222922      -0.23902726 </v>
   <v>       0.08470382       0.31969307      -0.21483807 </v>
   <v>       0.41998424      -0.27227606       0.36602210 </v>
   <v>      -0.44806559      -0.24127793       0.19112930 </v>
   <v>      -0.44030479       0.14020248      -0.08925845 </v>
   <v>      -0.00435910       0.15040605       0.47552710 </v>
   <v>       0.39136676       0.25722574      -0.22416213 </v>
   <v>       0.46724880       0.23259171       0.34009606 </v>
   <v>      -0.04700880      -0.39500307       0.29728096 </v>
   <v>      -0.18843257       0.10343748       0.38301145 </v>
   <v>      -0.15569580       0.07306655      -0.27339261 </v>
   <v>      -0.10019815       0.07199045       0.47484375 </v>
   <v>      -0.37331725       0.06962121      -0.02254273 </v>
   <v>       0.33865778       0.42859002       0.11459141 </v>
   <v>      -0.30325773       0.12056353       0.05150360 </v>
   <v>       0.41297407      -0.36588757      -0.16332341 </v>
   <v>       0.34206016      -0.00975977      -0.37839044 </v>
   <v>       0.49182566      -0.09610445       0.43646578 </v>
   <v>      -0.15529261       0.33509506       0.19730161 </v>
   <v>       0.22965987      -0.20859820      -0.37395511 </v>
   <v>       0.44600387      -0.40767809       0.20312131 </v>
   <v>      -0.44204194       0.22003914       0.26079540 </v>
   <v>       0.40202472       0.16851785       0.47630667 </v>
   <v>      -0.26895478      -0.12144412      -0.16420652 </v>
   <v>       0.01650574      -0.48522216       0.22856998 </v>
   <v>       0.08795122       0.42714610       0.30542980 </v>
   <v>       0.20309096      -0.40403516       0.41486618 </v>
   <v>      -0.34755206      -0.05390949      -0.05726762 </v>
   <v>      -0.13772007      -0.16626927       0.46643961 </v>
   <v>       0.10970556      -0.17006620      -0.40832339 </v>
   <v>       0.25148797       0.06053522      -0.42032690 </v>
   <v>      -0.06885724       0.42423182       0.19370337 </v>
   <v>       0.13703044       0.27302348      -0.49773744 </v>
   <v>      -0.20740014       0.35084144       0.07585406 </v>
   <v>       0.31869421      -0.12864656      -0.41459601 </v>
   <v>       0.42404762      -0.48623554       0.09520352 </v>
   <v>       0.02754009      -0.26645402      -0.37711847 </v>
   <v>       0.07311828       0.43450910      -0.18244780 </v>
   <v>       0.20903081      -0.48148186      -0.20368628 </v>
   <v>       0.29155484       0.37970243       0.41483526 </v>
   <v>      -0.36472880      -0.27398441       0.00010126 </v>
   <v>      -0.10632852      -0.40583754      -0.20385042 </v>
   <v>      -0.27109036       0.07834840      -0.24055940 </v>
   <v>      -0.01834005       0.48659527      -0.10451743 </v>
   <v>       0.31377557      -0.39856834      -0.29967159 </v>
   <v>      -0.06844189      -0.25631645      -0.47459287 </v>
   <v>      -0.33326386       0.13190980       0.27439869 </v>
   <v>       0.44144361       0.01001553      -0.44368332 </v>
   <v>      -0.11352349       0.49539372       0.01973292 </v>
   <v>      -0.28260970      -0.35193845      -0.04056950 </v>
   <v>      -0.19000221       0.35790317       0.31044554 </v>
   <v>       0.23640238       0.34357380      -0.48508687 </v>
   <v>       0.31076292       0.27373784      -0.39222260 </v>
   <v>      -0.25427365      -0.34680901      -0.15874580 </v>
   <v>      -0.14470624       0.08166944      -0.40474013 </v>
   <v>       0.40858988       0.30789611      -0.33360144 </v>
   <v>      -0.36671351       0.32050625       0.02928910 </v>
   <v>       0.27193964      -0.31205531      -0.42365992 </v>
   <v>      -0.31053439       0.13701370       0.39305702 </v>
   <v>      -0.00425143       0.29315387      -0.39105068 </v>
   <v>      -0.10769143      -0.42357622       0.44026115 </v>
   <v>      -0.36404456       0.31397451       0.25071339 </v>
   <v>      -0.45127087       0.44473168       0.09168308 </v>
   <v>       0.03573674      -0.38210980      -0.44293418 </v>
   <v>       0.02571006      -0.49050916      -0.29942466 </v>
   <v>      -0.41720335       0.14270431      -0.34188450 </v>
   <v>      -0.22219401      -0.16182570      -0.45150515 </v>
   <v>      -0.36107800       0.06811492       0.47785164 </v>
   <v>      -0.43857974      -0.24171591      -0.48297334 </v>
   <v>      -0.35034527      -0.43115009       0.14903723 </v>
   <v>      -0.34072621      -0.20277687      -0.29068016 </v>
   <v>      -0.45851954      -0.39982942       0.45335889 </v>
   <v>      -0.30220103      -0.48227270      -0.00911547 </v>
   <v>      -0.48078160       0.26827581      -0.39244562 </v>
   <v>       0.38446406       0.43112400      -0.34415571 </v>
   <v>      -0.40669896      -0.37841511      -0.27624082 </v>
   <v>      -0.30639096       0.35813017       0.35306356 </v>
   <v>      -0.33814448       0.26978116       0.42492957 </v>
   <v>       0.18937507       0.45853937      -0.43353079 </v>
   <v>      -0.03878914       0.45014342      -0.46307574 </v>
   <v>       0.05735354      -0.49829437      -0.41740487 </v>
   <v>      -0.31767328      -0.22320282      -0.40561639 </v>
   <v>      -0.29958240      -0.36287765      -0.40063504 </v>
   <v>      -0.33948573       0.46342465       0.40309019 </v>
  </varray>
 </structure>
 <varray name="primitive_index" >
  <v type="int" >        1 </v>
  <v type="int" >       57 </v>
  <v type="int" >      102 </v>
  <v type="int" >       63 </v>
  <v type="int" >      131 </v>
  <v type="int" >      101 </v>
  <v type="int" >       49 </v>
  <v type="int" >      111 </v>
  <v type="int" >       31 </v>
  <v type="int" >       75 </v>
  <v type="int" >       40 </v>
  <v type="int" >       41 </v>
  <v type="int" >       43 </v>
  <v type="int" >       70 </v>
  <v type="int" >        8 </v>
  <v type="int" >       85 </v>
  <v type="int" >       62 </v>
  <v type="int" >        9 </v>
  <v type="int" >       83 </v>
  <v type="int" >       80 </v>
  <v type="int" >       23 </v>
  <v type="int" >       94 </v>
  <v type="int" >       66 </v>
  <v type="int" >       73 </v>
  <v type="int" >       17 </v>
  <v type="int" >      135 </v>
  <v type="int" >       86 </v>
  <v type="int" >       90 </v>
  <v type="int" >       18 </v>
  <v type="int" >      100 </v>
  <v type="int" >       91 </v>
  <v type="int" >       53 </v>
  <v type="int" >        3 </v>
  <v type="int" >      115 </v>
  <v type="int" >        6 </v>
  <v type="int" >       33 </v>
  <v type="int" >       82 </v>
  <v type="int" >      117 </v>
  <v type="int" >       27 </v>
  <v type="int" >       14 </v>
  <v type="int" >       71 </v>
  <v type="int" >       87 </v>
  <v type="int" >        4 </v>
  <v type="int" >       74 </v>
  <v type="int" >       52 </v>
  <v type="int" >      134 </v>
  <v type="int" >       19 </v>
  <v type="int" >       78 </v>
  <v type="int" >       20 </v>
  <v type="int" >       64 </v>
  <v type="int" >       96 </v>
  <v type="int" >       97 </v>
  <v type="int" >       58 </v>
  <v type="int" >      133 </v>
  <v type="int" >       59 </v>
  <v type="int" >       61 </v>
  <v type="int" >      103 </v>
  <v type="int" >      119 </v>
  <v type="int" >      121 </v>
  <v type="int" >       93 </v>
  <v type="int" >       76 </v>
  <v type="int" >       42 </v>
  <v type="int" >       45 </v>
  <v type="int" >       50 </v>
  <v type="int" >      114 </v>
  <v type="int" >      123 </v>
  <v type="int" >      126 </v>
  <v type="int" >       39 </v>
  <v type="int" >       10 </v>
  <v type="int" >       36 </v>
  <v type="int" >       54 </v>
  <v type="int" >      118 </v>
  <v type="int" >       48 </v>
  <v type="int" >        5 </v>
  <v type="int" >       13 </v>
  <v type="int" >       44 </v>
  <v type="int" >      130 </v>
  <v type="int" >       11 </v>
  <v type="int" >       89 </v>
  <v type="int" >       30 </v>
  <v type="int" >       55 </v>
  <v type="int" >      108 </v>
  <v type="int" >      105 </v>
  <v type="int" >       98 </v>
  <v type="int" >      109 </v>
  <v type="int" >      106 </v>
  <v type="int" >       32 </v>
  <v type="int" >       38 </v>
  <v type="int" >       29 </v>
  <v type="int" >      124 </v>
  <v type="int" >       72 </v>
  <v type="int" >      107 </v>
  <v type="int" >       25 </v>
  <v type="int" >       95 </v>
  <v type="int" >       92 </v>
  <v type="int" >       16 </v>
  <v type="int" >      116 </v>
  <v type="int" >      128 </v>
  <v type="int" >       67 </v>
  <v type="int" >       12 </v>
  <v type="int" >       35 </v>
  <v type="int" >       81 </v>
  <v type="int" >       28 </v>
  <v type="int" >      120 </v>
  <v type="int" >      104 </v>
  <v type="int" >       84 </v>
  <v type="int" >       37 </v>
  <v type="int" >       15 </v>
  <v type="int" >      122 </v>
  <v type="int" >       51 </v>
  <v type="int" >       22 </v>
  <v type="int" >        7 </v>
  <v type="int" >       88 </v>
  <v type="int" >       69 </v>
  <v type="int" >       60 </v>
  <v type="int" >       77 </v>
  <v type="int" >       24 </v>
  <v type="int" >      113 </v>
  <v type="int" >      132 </v>
  <v type="int" >       99 </v>
  <v type="int" >       21 </v>
  <v type="int" >      112 </v>
  <v type="int" >        2 </v>
  <v type="int" >      129 </v>
  <v type="int" >       65 </v>
  <v type="int" >       56 </v>
  <v type="int" >       26 </v>
  <v type="int" >       46 </v>
  <v type="int" >       68 </v>
  <v type="int" >      127 </v>
  <v type="int" >       79 </v>
  <v type="int" >       34 </v>
  <v type="int" >       47 </v>
  <v type="int" >      110 </v>
  <v type="int" >      125 </v>
 </varray>
 <kpoints>
  <generation param="Gamma">
   <v type="int" name="divisions">       2        2        2 </v>
   <v name="usershift">      0.00000000       0.00000000       0.00000000 </v>
   <v name="genvec1">      0.50000000       0.00000000       0.00000000 </v>
   <v name="genvec2">      0.00000000       0.50000000       0.00000000 </v>
   <v name="genvec3">      0.00000000       0.00000000       0.50000000 </v>
   <v name="shift">      0.00000000       0.00000000       0.00000000 </v>
  </generation>
  <varray name="kpointlist" >
   <v>       0.00000000       0.00000000       0.00000000 </v>
   <v>       0.50000000       0.00000000       0.00000000 </v>
   <v>       0.00000000       0.50000000       0.00000000 </v>
   <v>       0.50000000       0.50000000       0.00000000 </v>
   <v>       0.00000000       0.00000000       0.50000000 </v>
   <v>       0.50000000       0.00000000       0.50000000 </v>
   <v>       0.00000000       0.50000000       0.50000000 </v>
   <v>       0.50000000       0.50000000       0.50000000 </v>
  </varray>
  <varray name="weights" >
   <v>       0.12500000 </v>
   <v>       0.12500000 </v>
   <v>       0.12500000 </v>
   <v>       0.12500000 </v>
   <v>       0.12500000 </v>
   <v>       0.12500000 </v>
   <v>       0.12500000 </v>
   <v>       0.12500000 </v>
  </varray>
 </kpoints>
 <parameters>
  <separator name="general" >
   <i type="string" name="SYSTEM">unknown system</i>
   <i type="logical" name="LCOMPAT"> F  </i>
  </separator>
  <separator name="electronic" >
   <i type="string" name="PREC">a</i>
   <i name="ENMAX">    600.00000000</i>
   <i name="ENAUG">    605.39200000</i>
   <i name="EDIFF">      0.00000100</i>
   <i type="int" name="IALGO">    38</i>
   <i type="int" name="IWAVPR">    10</i>
   <i type="int" name="NBANDS">   520</i>
   <i name="NELECT">    864.00000000</i>
   <i type="int" name="TURBO">     0</i>
   <i type="int" name="IRESTART">     0</i>
   <i type="int" name="NREBOOT">     0</i>
   <i type="int" name="NMIN">     0</i>
   <i name="EREF">      0.00000000</i>
   <separator name="electronic smearing" >
    <i type="int" name="ISMEAR">     0</i>
    <i name="SIGMA">      0.05000000</i>
    <i name="KSPACING">      0.30000000</i>
    <i type="logical" name="KGAMMA"> T  </i>
   </separator>
   <separator name="electronic projectors" >
    <i type="logical" name="LREAL"> T  </i>
    <v name="ROPT">     -0.00025000     -0.00025000     -0.00025000</v>
    <i type="int" name="LMAXPAW">  -100</i>
    <i type="int" name="LMAXMIX">     2</i>
    <i type="logical" name="NLSPLINE"> F  </i>
   </separator>
   <separator name="electronic startup" >
    <i type="int" name="ISTART">     0</i>
    <i type="int" name="ICHARG">     2</i>
    <i type="int" name="INIWAV">     1</i>
   </separator>
   <separator name="electronic spin" >
    <i type="int" name="ISPIN">     1</i>
    <i type="logical" name="LNONCOLLINEAR"> F  </i>
    <v name="MAGMOM">      1.00000000      1.00000000      1.00000000      1.00000000      1.00000000      1.00000000      1.00000000      1.00000000      1.00000000      1.00000000      1.00000000      1.00000000      1.00000000      1.00000000      1.00000000      1.00000000      1.00000000      1.00000000      1.00000000      1.00000000
      1.00000000      1.00000000      1.00000000      1.00000000      1.00000000      1.00000000      1.00000000      1.00000000      1.00000000      1.00000000      1.00000000      1.00000000      1.00000000      1.00000000      1.00000000      1.00000000      1.00000000      1.00000000      1.00000000      1.00000000
      1.00000000      1.00000000      1.00000000      1.00000000      1.00000000      1.00000000      1.00000000      1.00000000      1.00000000      1.00000000      1.00000000      1.00000000      1.00000000      1.00000000      1.00000000      1.00000000      1.00000000      1.00000000      1.00000000      1.00000000
      1.00000000      1.00000000      1.00000000      1.00000000      1.00000000      1.00000000      1.00000000      1.00000000      1.00000000      1.00000000      1.00000000      1.00000000      1.00000000      1.00000000      1.00000000      1.00000000      1.00000000      1.00000000      1.00000000      1.00000000
      1.00000000      1.00000000      1.00000000      1.00000000      1.00000000      1.00000000      1.00000000      1.00000000      1.00000000      1.00000000      1.00000000      1.00000000      1.00000000      1.00000000      1.00000000      1.00000000      1.00000000      1.00000000      1.00000000      1.00000000
      1.00000000      1.00000000      1.00000000      1.00000000      1.00000000      1.00000000      1.00000000      1.00000000      1.00000000      1.00000000      1.00000000      1.00000000      1.00000000      1.00000000      1.00000000      1.00000000      1.00000000      1.00000000      1.00000000      1.00000000
      1.00000000      1.00000000      1.00000000      1.00000000      1.00000000      1.00000000      1.00000000      1.00000000      1.00000000      1.00000000      1.00000000      1.00000000      1.00000000      1.00000000      1.00000000</v>
    <i name="NUPDOWN">     -1.00000000</i>
    <i type="logical" name="LSORBIT"> F  </i>
    <v name="SAXIS">      0.00000000      0.00000000      1.00000000</v>
    <i type="logical" name="LSPIRAL"> F  </i>
    <v name="QSPIRAL">      0.00000000      0.00000000      0.00000000</v>
    <i type="logical" name="LZEROZ"> F  </i>
   </separator>
   <separator name="electronic exchange-correlation" >
    <i type="logical" name="LASPH"> F  </i>
    <i type="logical" name="LMETAGGA"> F  </i>
   </separator>
   <separator name="electronic convergence" >
    <i type="int" name="NELM">    60</i>
    <i type="int" name="NELMDL">    -5</i>
    <i type="int" name="NELMIN">     2</i>
    <i name="ENINI">    600.00000000</i>
    <separator name="electronic convergence detail" >
     <i type="logical" name="LDIAG"> T  </i>
     <i type="logical" name="LSUBROT"> F  </i>
     <i name="WEIMIN">      0.00000000</i>
     <i name="EBREAK">      0.00000000</i>
     <i name="DEPER">      0.30000000</i>
     <i type="int" name="NRMM">     4</i>
     <i name="TIME">      0.40000000</i>
    </separator>
   </separator>
   <separator name="electronic mixer" >
    <i name="AMIX">      0.40000000</i>
    <i name="BMIX">      1.00000000</i>
    <i name="AMIN">      0.10000000</i>
    <i name="AMIX_MAG">      1.60000000</i>
    <i name="BMIX_MAG">      1.00000000</i>
    <separator name="electronic mixer details" >
     <i type="int" name="IMIX">     4</i>
     <i type="logical" name="MIXFIRST"> F  </i>
     <i type="int" name="MAXMIX">   -45</i>
     <i name="WC">    100.00000000</i>
     <i type="int" name="INIMIX">     1</i>
     <i type="int" name="MIXPRE">     1</i>
     <i type="int" name="MREMOVE">     5</i>
    </separator>
   </separator>
   <separator name="electronic dipolcorrection" >
    <i type="logical" name="LDIPOL"> F  </i>
    <i type="logical" name="LMONO"> F  </i>
    <i type="int" name="IDIPOL">     0</i>
    <i name="EPSILON">      1.00000000</i>
    <v name="DIPOL">   -100.00000000   -100.00000000   -100.00000000</v>
    <i name="EFIELD">      0.00000000</i>
   </separator>
  </separator>
  <separator name="grids" >
   <i type="int" name="NGX">   108</i>
   <i type="int" name="NGY">   108</i>
   <i type="int" name="NGZ">   108</i>
   <i type="int" name="NGXF">   216</i>
   <i type="int" name="NGYF">   216</i>
   <i type="int" name="NGZF">   216</i>
   <i type="logical" name="ADDGRID"> T  </i>
  </separator>
  <separator name="ionic" >
   <i type="int" name="NSW">     1</i>
   <i type="int" name="IBRION">    -1</i>
   <i type="int" name="MDALGO">     0</i>
   <i type="int" name="ISIF">     2</i>
   <i name="PSTRESS">      0.00000000</i>
   <i name="EDIFFG">     -0.01000000</i>
   <i type="int" name="NFREE">     0</i>
   <i name="POTIM">      1.00000000</i>
   <i name="SMASS">     -3.00000000</i>
   <i name="SCALEE">      1.00000000</i>
  </separator>
  <separator name="ionic md" >
   <i name="TEBEG">      0.00010000</i>
   <i name="TEEND">      0.00010000</i>
   <i type="int" name="NBLOCK">     1</i>
   <i type="int" name="KBLOCK">     1</i>
   <i type="int" name="NPACO">   256</i>
   <i name="APACO">     16.00000000</i>
  </separator>
  <separator name="symmetry" >
   <i type="int" name="ISYM">     0</i>
   <i name="SYMPREC">      0.00001000</i>
  </separator>
  <separator name="dos" >
   <i type="int" name="LORBIT">     0</i>
   <v name="RWIGS">     -1.00000000     -1.00000000     -1.00000000</v>
   <i type="int" name="NEDOS">   301</i>
   <i name="EMIN">     10.00000000</i>
   <i name="EMAX">    -10.00000000</i>
   <i name="EFERMI">      0.00000000</i>
  </separator>
  <separator name="writing" >
   <i type="int" name="NWRITE">     2</i>
   <i type="logical" name="LWAVE"> F  </i>
   <i type="logical" name="LDOWNSAMPLE"> F  </i>
   <i type="logical" name="LCHARG"> F  </i>
   <i type="logical" name="LPARD"> F  </i>
   <i type="logical" name="LVTOT"> F  </i>
   <i type="logical" name="LVHAR"> F  </i>
   <i type="logical" name="LELF"> F  </i>
   <i type="logical" name="LOPTICS"> F  </i>
   <v name="STM">      0.00000000      0.00000000      0.00000000      0.00000000      0.00000000      0.00000000      0.00000000</v>
  </separator>
  <separator name="performance" >
   <i type="int" name="NPAR">     4</i>
   <i type="int" name="NSIM">     4</i>
   <i type="int" name="NBLK">    -1</i>
   <i type="logical" name="LPLANE"> T  </i>
   <i type="logical" name="LSCALAPACK"> F  </i>
   <i type="logical" name="LSCAAWARE"> F  </i>
   <i type="logical" name="LSCALU"> F  </i>
   <i type="logical" name="LASYNC"> F  </i>
   <i type="logical" name="LORBITALREAL"> F  </i>
  </separator>
  <separator name="miscellaneous" >
   <i type="int" name="IDIOT">     3</i>
   <i type="int" name="ISPECIAL">     0</i>
   <i type="logical" name="LMUSIC"> F  </i>
   <v name="POMASS">     40.07800000     28.08500000     16.00000000</v>
   <v name="DARWINR">      0.00000000      0.00000000      0.00000000</v>
   <v name="DARWINV">      1.00000000      1.00000000      1.00000000</v>
   <i type="logical" name="LCORR"> T  </i>
  </separator>
  <i type="logical" name="GGA_COMPAT"> T  </i>
  <i type="logical" name="LBERRY"> F  </i>
  <i type="int" name="ICORELEVEL">     0</i>
  <i type="logical" name="LDAU"> F  </i>
  <i type="int" name="I_CONSTRAINED_M">     0</i>
  <separator name="electronic exchange-correlation" >
   <i type="string" name="GGA">--</i>
   <i type="int" name="VOSKOWN">     0</i>
   <i type="logical" name="LHFCALC"> F  </i>
   <i type="string" name="PRECFOCK"></i>
   <i type="logical" name="LSYMGRAD"> F  </i>
   <i type="logical" name="LHFONE"> F  </i>
   <i type="logical" name="LRHFCALC"> F  </i>
   <i type="logical" name="LTHOMAS"> F  </i>
   <i type="logical" name="LMODELHF"> F  </i>
   <i name="ENCUT4O">     -1.00000000</i>
   <i type="int" name="EXXOEP">     0</i>
   <i type="int" name="FOURORBIT">     0</i>
   <i name="AEXX">      0.00000000</i>
   <i name="HFALPHA">      0.00000000</i>
   <i name="MCALPHA">      0.00000000</i>
   <i name="ALDAX">      1.00000000</i>
   <i name="AGGAX">      1.00000000</i>
   <i name="ALDAC">      1.00000000</i>
   <i name="AGGAC">      1.00000000</i>
   <i type="int" name="NKREDX">     1</i>
   <i type="int" name="NKREDY">     1</i>
   <i type="int" name="NKREDZ">     1</i>
   <i type="logical" name="SHIFTRED"> F  </i>
   <i type="logical" name="ODDONLY"> F  </i>
   <i type="logical" name="EVENONLY"> F  </i>
   <i type="int" name="LMAXFOCK">     0</i>
   <i type="int" name="NMAXFOCKAE">     0</i>
   <i type="logical" name="LFOCKAEDFT"> F  </i>
   <i name="HFSCREEN">      0.00000000</i>
   <i name="HFSCREENC">      0.00000000</i>
   <i type="int" name="NBANDSGWLOW">     0</i>
  </separator>
  <separator name="vdW DFT" >
   <i type="logical" name="LUSE_VDW"> F  </i>
   <i name="Zab_VDW">     -0.84910000</i>
   <i name="PARAM1">      0.12340000</i>
   <i name="PARAM2">      1.00000000</i>
   <i name="PARAM3">      0.00000000</i>
  </separator>
  <separator name="model GW" >
   <i type="int" name="MODEL_GW">     0</i>
   <i name="MODEL_EPS0">     10.48197768</i>
   <i name="MODEL_ALPHA">      1.00000000</i>
  </separator>
  <separator name="linear response parameters" >
   <i type="logical" name="LEPSILON"> F  </i>
   <i type="logical" name="LRPA"> F  </i>
   <i type="logical" name="LNABLA"> F  </i>
   <i type="logical" name="LVEL"> F  </i>
   <i type="int" name="KINTER">     0</i>
   <i name="CSHIFT">      0.10000000</i>
   <i name="OMEGAMAX">     -1.00000000</i>
   <i name="DEG_THRESHOLD">      0.00200000</i>
   <i name="RTIME">     -0.10000000</i>
   <i name="WPLASMAI">      0.00000000</i>
   <v name="DFIELD">      0.00000000      0.00000000      0.00000000</v>
   <v name="WPLASMA">      0.00000000      0.00000000      0.00000000      0.00000000      0.00000000      0.00000000      0.00000000      0.00000000      0.00000000</v>
  </separator>
  <separator name="orbital magnetization" >
   <i type="logical" name="NUCIND"> F  </i>
   <v name="MAGPOS">      0.00000000      0.00000000      0.00000000</v>
   <i type="logical" name="LNICSALL"> T  </i>
   <i type="logical" name="ORBITALMAG"> F  </i>
   <i type="logical" name="LMAGBLOCH"> F  </i>
   <i type="logical" name="LCHIMAG"> F  </i>
   <i type="logical" name="LGAUGE"> T  </i>
   <i type="int" name="MAGATOM">     0</i>
   <v name="MAGDIPOL">      0.00000000      0.00000000      0.00000000</v>
   <v name="AVECCONST">      0.00000000      0.00000000      0.00000000</v>
  </separator>
  <separator name="response functions" >
   <i type="logical" name="LADDER"> F  </i>
   <i type="logical" name="LRPAFORCE"> F  </i>
   <i type="logical" name="LFXC"> F  </i>
   <i type="logical" name="LHARTREE"> T  </i>
   <i type="int" name="IBSE">     0</i>
   <v type="int" name="KPOINT">    -1     0     0     0</v>
   <i type="logical" name="LTCTE"> F  </i>
   <i type="logical" name="LTETE"> F  </i>
   <i type="logical" name="LTRIPLET"> F  </i>
   <i type="logical" name="LFXCEPS"> F  </i>
   <i type="logical" name="LFXHEG"> F  </i>
   <i type="int" name="NATURALO">     2</i>
   <i type="logical" name="L2ORDER"> F  </i>
   <i type="logical" name="LMP2LT"> F  </i>
   <i type="logical" name="LUSEW"> F  </i>
   <i name="ENCUTGW">     -2.00000000</i>
   <i name="ENCUTGWSOFT">     -2.00000000</i>
   <i name="ENCUTLF">     -1.00000000</i>
   <i type="int" name="LMAXMP2">    -1</i>
   <i name="SCISSOR">      0.00000000</i>
   <i type="int" name="NOMEGA">     0</i>
   <i type="int" name="NOMEGAR">     0</i>
   <i type="int" name="NBANDSGW">    -1</i>
   <i type="int" name="NBANDSO">    -1</i>
   <i type="int" name="NBANDSV">    -1</i>
   <i type="int" name="NELM">     1</i>
   <i type="int" name="NELMHF">     1</i>
   <i type="int" name="DIM">     3</i>
   <i type="int" name="ANTIRES">     0</i>
   <i name="OMEGAMAX">    -30.00000000</i>
   <i name="OMEGAMIN">    -30.00000000</i>
   <i name="OMEGATL">   -200.00000000</i>
   <i type="int" name="OMEGAGRID">   140</i>
   <i name="CSHIFT">     -0.10000000</i>
   <i type="logical" name="SELFENERGY"> F  </i>
   <i type="logical" name="LSPECTRAL"> F  </i>
   <i type="logical" name="LSPECTRALGW"> F  </i>
   <i type="logical" name="LSINGLES"> F  </i>
   <i type="logical" name="LFERMIGW"> F  </i>
   <i type="logical" name="ODDONLYGW"> F  </i>
   <i type="logical" name="EVENONLYGW"> F  </i>
   <i type="int" name="NKREDLFX">     1</i>
   <i type="int" name="NKREDLFY">     1</i>
   <i type="int" name="NKREDLFZ">     1</i>
   <i type="int" name="MAXMEM">  2800</i>
   <i type="int" name="TELESCOPE">     0</i>
   <i type="int" name="TAUPAR">     1</i>
   <i type="int" name="OMEGAPAR">    -1</i>
   <i name="LAMBDA">      1.00000000</i>
  </separator>
  <separator name="External order field" >
   <i name="OFIELD_KAPPA">      0.00000000</i>
   <v name="OFIELD_K">      0.00000000      0.00000000      0.00000000</v>
   <i name="OFIELD_Q6_NEAR">      0.00000000</i>
   <i name="OFIELD_Q6_FAR">      0.00000000</i>
   <i name="OFIELD_A">      0.00000000</i>
  </separator>
 </parameters>
 <atominfo>
  <atoms>     135 </atoms>
  <types>       3 </types>
  <array name="atoms" >
   <dimension dim="1">ion</dimension>
   <field type="string">element</field>
   <field type="int">atomtype</field>
   <set>
    <rc><c>Ca</c><c>   1</c></rc>
    <rc><c>Ca</c><c>   1</c></rc>
    <rc><c>Ca</c><c>   1</c></rc>
    <rc><c>Ca</c><c>   1</c></rc>
    <rc><c>Ca</c><c>   1</c></rc>
    <rc><c>Ca</c><c>   1</c></rc>
    <rc><c>Ca</c><c>   1</c></rc>
    <rc><c>Ca</c><c>   1</c></rc>
    <rc><c>Ca</c><c>   1</c></rc>
    <rc><c>Ca</c><c>   1</c></rc>
    <rc><c>Ca</c><c>   1</c></rc>
    <rc><c>Ca</c><c>   1</c></rc>
    <rc><c>Ca</c><c>   1</c></rc>
    <rc><c>Ca</c><c>   1</c></rc>
    <rc><c>Ca</c><c>   1</c></rc>
    <rc><c>Ca</c><c>   1</c></rc>
    <rc><c>Ca</c><c>   1</c></rc>
    <rc><c>Ca</c><c>   1</c></rc>
    <rc><c>Ca</c><c>   1</c></rc>
    <rc><c>Ca</c><c>   1</c></rc>
    <rc><c>Ca</c><c>   1</c></rc>
    <rc><c>Ca</c><c>   1</c></rc>
    <rc><c>Ca</c><c>   1</c></rc>
    <rc><c>Ca</c><c>   1</c></rc>
    <rc><c>Ca</c><c>   1</c></rc>
    <rc><c>Ca</c><c>   1</c></rc>
    <rc><c>Ca</c><c>   1</c></rc>
    <rc><c>Si</c><c>   2</c></rc>
    <rc><c>Si</c><c>   2</c></rc>
    <rc><c>Si</c><c>   2</c></rc>
    <rc><c>Si</c><c>   2</c></rc>
    <rc><c>Si</c><c>   2</c></rc>
    <rc><c>Si</c><c>   2</c></rc>
    <rc><c>Si</c><c>   2</c></rc>
    <rc><c>Si</c><c>   2</c></rc>
    <rc><c>Si</c><c>   2</c></rc>
    <rc><c>Si</c><c>   2</c></rc>
    <rc><c>Si</c><c>   2</c></rc>
    <rc><c>Si</c><c>   2</c></rc>
    <rc><c>Si</c><c>   2</c></rc>
    <rc><c>Si</c><c>   2</c></rc>
    <rc><c>Si</c><c>   2</c></rc>
    <rc><c>Si</c><c>   2</c></rc>
    <rc><c>Si</c><c>   2</c></rc>
    <rc><c>Si</c><c>   2</c></rc>
    <rc><c>Si</c><c>   2</c></rc>
    <rc><c>Si</c><c>   2</c></rc>
    <rc><c>Si</c><c>   2</c></rc>
    <rc><c>Si</c><c>   2</c></rc>
    <rc><c>Si</c><c>   2</c></rc>
    <rc><c>Si</c><c>   2</c></rc>
    <rc><c>Si</c><c>   2</c></rc>
    <rc><c>Si</c><c>   2</c></rc>
    <rc><c>Si</c><c>   2</c></rc>
    <rc><c>O </c><c>   3</c></rc>
    <rc><c>O </c><c>   3</c></rc>
    <rc><c>O </c><c>   3</c></rc>
    <rc><c>O </c><c>   3</c></rc>
    <rc><c>O </c><c>   3</c></rc>
    <rc><c>O </c><c>   3</c></rc>
    <rc><c>O </c><c>   3</c></rc>
    <rc><c>O </c><c>   3</c></rc>
    <rc><c>O </c><c>   3</c></rc>
    <rc><c>O </c><c>   3</c></rc>
    <rc><c>O </c><c>   3</c></rc>
    <rc><c>O </c><c>   3</c></rc>
    <rc><c>O </c><c>   3</c></rc>
    <rc><c>O </c><c>   3</c></rc>
    <rc><c>O </c><c>   3</c></rc>
    <rc><c>O </c><c>   3</c></rc>
    <rc><c>O </c><c>   3</c></rc>
    <rc><c>O </c><c>   3</c></rc>
    <rc><c>O </c><c>   3</c></rc>
    <rc><c>O </c><c>   3</c></rc>
    <rc><c>O </c><c>   3</c></rc>
    <rc><c>O </c><c>   3</c></rc>
    <rc><c>O </c><c>   3</c></rc>
    <rc><c>O </c><c>   3</c></rc>
    <rc><c>O </c><c>   3</c></rc>
    <rc><c>O </c><c>   3</c></rc>
    <rc><c>O </c><c>   3</c></rc>
    <rc><c>O </c><c>   3</c></rc>
    <rc><c>O </c><c>   3</c></rc>
    <rc><c>O </c><c>   3</c></rc>
    <rc><c>O </c><c>   3</c></rc>
    <rc><c>O </c><c>   3</c></rc>
    <rc><c>O </c><c>   3</c></rc>
    <rc><c>O </c><c>   3</c></rc>
    <rc><c>O </c><c>   3</c></rc>
    <rc><c>O </c><c>   3</c></rc>
    <rc><c>O </c><c>   3</c></rc>
    <rc><c>O </c><c>   3</c></rc>
    <rc><c>O </c><c>   3</c></rc>
    <rc><c>O </c><c>   3</c></rc>
    <rc><c>O </c><c>   3</c></rc>
    <rc><c>O </c><c>   3</c></rc>
    <rc><c>O </c><c>   3</c></rc>
    <rc><c>O </c><c>   3</c></rc>
    <rc><c>O </c><c>   3</c></rc>
    <rc><c>O </c><c>   3</c></rc>
    <rc><c>O </c><c>   3</c></rc>
    <rc><c>O </c><c>   3</c></rc>
    <rc><c>O </c><c>   3</c></rc>
    <rc><c>O </c><c>   3</c></rc>
    <rc><c>O </c><c>   3</c></rc>
    <rc><c>O </c><c>   3</c></rc>
    <rc><c>O </c><c>   3</c></rc>
    <rc><c>O </c><c>   3</c></rc>
    <rc><c>O </c><c>   3</c></rc>
    <rc><c>O </c><c>   3</c></rc>
    <rc><c>O </c><c>   3</c></rc>
    <rc><c>O </c><c>   3</c></rc>
    <rc><c>O </c><c>   3</c></rc>
    <rc><c>O </c><c>   3</c></rc>
    <rc><c>O </c><c>   3</c></rc>
    <rc><c>O </c><c>   3</c></rc>
    <rc><c>O </c><c>   3</c></rc>
    <rc><c>O </c><c>   3</c></rc>
    <rc><c>O </c><c>   3</c></rc>
    <rc><c>O </c><c>   3</c></rc>
    <rc><c>O </c><c>   3</c></rc>
    <rc><c>O </c><c>   3</c></rc>
    <rc><c>O </c><c>   3</c></rc>
    <rc><c>O </c><c>   3</c></rc>
    <rc><c>O </c><c>   3</c></rc>
    <rc><c>O </c><c>   3</c></rc>
    <rc><c>O </c><c>   3</c></rc>
    <rc><c>O </c><c>   3</c></rc>
    <rc><c>O </c><c>   3</c></rc>
    <rc><c>O </c><c>   3</c></rc>
    <rc><c>O </c><c>   3</c></rc>
    <rc><c>O </c><c>   3</c></rc>
    <rc><c>O </c><c>   3</c></rc>
    <rc><c>O </c><c>   3</c></rc>
    <rc><c>O </c><c>   3</c></rc>
   </set>
  </array>
  <array name="atomtypes" >
   <dimension dim="1">type</dimension>
   <field type="int">atomspertype</field>
   <field type="string">element</field>
   <field>mass</field>
   <field>valence</field>
   <field type="string">pseudopotential</field>
   <set>
    <rc><c>  27</c><c>Ca</c><c>     40.07800000</c><c>     10.00000000</c><c>  PAW_PBE Ca_sv 06Sep2000               </c></rc>
    <rc><c>  27</c><c>Si</c><c>     28.08500000</c><c>      4.00000000</c><c>  PAW_PBE Si 05Jan2001                  </c></rc>
    <rc><c>  81</c><c>O </c><c>     16.00000000</c><c>      6.00000000</c><c>  PAW_PBE O 08Apr2002                   </c></rc>
   </set>
  </array>
 </atominfo>
 <structure name="initialpos" >
  <crystal>
   <varray name="basis" >
    <v>      13.31093562       0.00000000       0.00000000 </v>
    <v>       0.00000000      13.31093562       0.00000000 </v>
    <v>       0.00000000       0.00000000      13.31093562 </v>
   </varray>
   <i name="volume">   2358.44497833 </i>
   <varray name="rec_basis" >
    <v>       0.07512620       0.00000000       0.00000000 </v>
    <v>       0.00000000       0.07512620       0.00000000 </v>
    <v>       0.00000000       0.00000000       0.07512620 </v>
   </varray>
  </crystal>
  <varray name="positions" >
   <v>       0.16184247       0.97695154       0.07842714 </v>
   <v>       0.54148046       0.60017058       0.45335889 </v>
   <v>       0.80959591       0.07955082       0.16607831 </v>
   <v>       0.12034751       0.03874036       0.49687598 </v>
   <v>       0.40202472       0.16851785       0.47630667 </v>
   <v>       0.03302524       0.27605111       0.29470763 </v>
   <v>       0.89230857       0.57642378       0.44026115 </v>
   <v>       0.02445691       0.79419692       0.23394671 </v>
   <v>       0.07767886       0.79754858       0.85649896 </v>
   <v>       0.49182566       0.90389555       0.43646578 </v>
   <v>       0.20309096       0.59596484       0.41486618 </v>
   <v>       0.88647651       0.49539372       0.01973292 </v>
   <v>       0.73104522       0.87855588       0.83579348 </v>
   <v>       0.31046601       0.31309353       0.26231331 </v>
   <v>       0.63328649       0.32050625       0.02928910 </v>
   <v>       0.31377557       0.60143166       0.70032841 </v>
   <v>       0.35587837       0.84117902       0.82505752 </v>
   <v>       0.40563799       0.11746703       0.85180185 </v>
   <v>       0.33620149       0.34236867       0.89992311 </v>
   <v>       0.18724102       0.53197450       0.01511827 </v>
   <v>       0.64965473       0.56884991       0.14903723 </v>
   <v>       0.99574857       0.29315387       0.60894932 </v>
   <v>       0.99805253       0.18736204       0.90432137 </v>
   <v>       0.58279665       0.14270431       0.65811550 </v>
   <v>       0.89367148       0.59416246       0.79614958 </v>
   <v>       0.59330104       0.62158489       0.72375918 </v>
   <v>       0.55427371       0.86316407       0.04810262 </v>
   <v>       0.23640238       0.34357380       0.51491313 </v>
   <v>       0.07311828       0.43450910       0.81755220 </v>
   <v>       0.86227993       0.83373073       0.46643961 </v>
   <v>       0.19703451       0.21788680       0.04505913 </v>
   <v>       0.42404762       0.51376446       0.09520352 </v>
   <v>       0.37572368       0.67957126       0.93271607 </v>
   <v>       0.05735354       0.50170563       0.58259513 </v>
   <v>       0.71739030       0.64806155       0.95943050 </v>
   <v>       0.84470739       0.33509506       0.19730161 </v>
   <v>       0.40858988       0.30789611       0.66639856 </v>
   <v>       0.02754009       0.73354598       0.62288153 </v>
   <v>       0.34206016       0.99024023       0.62160956 </v>
   <v>       0.38799491       0.09295140       0.10912684 </v>
   <v>       0.24965902       0.79411641       0.23705877 </v>
   <v>       0.84430420       0.07306655       0.72660739 </v>
   <v>       0.92279981       0.94843574       0.95225409 </v>
   <v>       0.01650574       0.51477784       0.22856998 </v>
   <v>       0.89980185       0.07199045       0.47484375 </v>
   <v>       0.69360904       0.35813017       0.35306356 </v>
   <v>       0.68232672       0.77679718       0.59438361 </v>
   <v>       0.55795806       0.22003914       0.26079540 </v>
   <v>       0.24604785       0.00323822       0.29620355 </v>
   <v>       0.62668275       0.06962121       0.97745727 </v>
   <v>       0.68946561       0.13701370       0.39305702 </v>
   <v>       0.46681909       0.71354631       0.25585042 </v>
   <v>       0.83663151       0.80168272       0.08664858 </v>
   <v>       0.22965987       0.79140180       0.62604489 </v>
   <v>       0.10970556       0.82993380       0.59167661 </v>
   <v>       0.38446406       0.43112400       0.65584429 </v>
   <v>       0.15945235       0.83816763       0.15806826 </v>
   <v>       0.08470382       0.31969307       0.78516193 </v>
   <v>       0.55193441       0.75872207       0.19112930 </v>
   <v>       0.03573674       0.61789020       0.55706582 </v>
   <v>       0.55969521       0.14020248       0.91074155 </v>
   <v>       0.88286827       0.04988240       0.02250182 </v>
   <v>       0.11643358       0.12783761       0.01508479 </v>
   <v>       0.98129847       0.74733490       0.73346149 </v>
   <v>       0.51921840       0.26827581       0.60755438 </v>
   <v>       0.25510346       0.08875019       0.38310190 </v>
   <v>       0.44144361       0.01001553       0.55631668 </v>
   <v>       0.66185552       0.26978116       0.42492957 </v>
   <v>       0.54872913       0.44473168       0.09168308 </v>
   <v>       0.29476607       0.89108865       0.30327475 </v>
   <v>       0.88918033       0.81439792       0.35134662 </v>
   <v>       0.29155484       0.37970243       0.41483526 </v>
   <v>       0.19237485       0.70160036       0.28675015 </v>
   <v>       0.36328485       0.59556434       0.02032601 </v>
   <v>       0.31526445       0.16374381       0.02794641 </v>
   <v>       0.81156743       0.10343748       0.38301145 </v>
   <v>       0.02571006       0.50949084       0.70057534 </v>
   <v>       0.83610161       0.66992254       0.04688600 </v>
   <v>       0.96121086       0.45014342       0.53692426 </v>
   <v>       0.25980362       0.72619983       0.92743465 </v>
   <v>       0.80999779       0.35790317       0.31044554 </v>
   <v>       0.23228275       0.78160921       0.74203070 </v>
   <v>       0.36090312       0.76950757       0.18745694 </v>
   <v>       0.85529376       0.08166944       0.59525987 </v>
   <v>       0.20252243       0.24742545       0.16424279 </v>
   <v>       0.31625445       0.99929545       0.76095126 </v>
   <v>       0.06367264       0.56508187       0.11213587 </v>
   <v>       0.63595544       0.31397451       0.25071339 </v>
   <v>       0.65244794       0.94609051       0.94273238 </v>
   <v>       0.43282534       0.78370017       0.95452695 </v>
   <v>       0.89602167       0.98478958       0.82480220 </v>
   <v>       0.98165995       0.48659527       0.89548257 </v>
   <v>       0.95299120       0.60499693       0.29728096 </v>
   <v>       0.48716097       0.01684877       0.09786810 </v>
   <v>       0.72890964       0.07834840       0.75944060 </v>
   <v>       0.92272529       0.94777107       0.46585145 </v>
   <v>       0.90451892       0.18222922       0.76097274 </v>
   <v>       0.13703044       0.27302348       0.50226256 </v>
   <v>       0.56142026       0.75828409       0.51702666 </v>
   <v>       0.84370256       0.84974763       0.94651525 </v>
   <v>       0.13542360       0.98783223       0.30315754 </v>
   <v>       0.04909863       0.92001520       0.97893031 </v>
   <v>       0.99564090       0.15040605       0.47552710 </v>
   <v>       0.74572635       0.65319099       0.84125420 </v>
   <v>       0.93114276       0.42423182       0.19370337 </v>
   <v>       0.31869421       0.87135344       0.58540399 </v>
   <v>       0.63527120       0.72601559       0.00010126 </v>
   <v>       0.25148797       0.06053522       0.57967310 </v>
   <v>       0.79259986       0.35084144       0.07585406 </v>
   <v>       0.70041760       0.63712235       0.59936496 </v>
   <v>       0.94849940       0.86425480       0.10898243 </v>
   <v>       0.65927379       0.79722313       0.70931984 </v>
   <v>       0.77780599       0.83817430       0.54849485 </v>
   <v>       0.33865778       0.42859002       0.11459141 </v>
   <v>       0.90852847       0.22595718       0.21670169 </v>
   <v>       0.93155811       0.74368355       0.52540713 </v>
   <v>       0.49725280       0.19363678       0.15059149 </v>
   <v>       0.44600387       0.59232191       0.20312131 </v>
   <v>       0.39136676       0.25722574       0.77583787 </v>
   <v>       0.31076292       0.27373784       0.60777740 </v>
   <v>       0.46724880       0.23259171       0.34009606 </v>
   <v>       0.27193964       0.68794469       0.57634008 </v>
   <v>       0.69674227       0.12056353       0.05150360 </v>
   <v>       0.20903081       0.51851814       0.79631372 </v>
   <v>       0.66051427       0.46342465       0.40309019 </v>
   <v>       0.41297407       0.63411243       0.83667659 </v>
   <v>       0.18937507       0.45853937       0.56646921 </v>
   <v>       0.66673614       0.13190980       0.27439869 </v>
   <v>       0.69779897       0.51772730       0.99088453 </v>
   <v>       0.08795122       0.42714610       0.30542980 </v>
   <v>       0.29890225       0.02548571       0.17811365 </v>
   <v>       0.63892200       0.06811492       0.47785164 </v>
   <v>       0.41998424       0.72772394       0.36602210 </v>
   <v>       0.75507782       0.84185847       0.18483673 </v>
   <v>       0.17445614       0.30554101       0.95629959 </v>
  </varray>
  <varray name="velocities" >
   <v>       0.00000000       0.00000000       0.00000000 </v>
   <v>       0.00000000       0.00000000       0.00000000 </v>
   <v>       0.00000000       0.00000000       0.00000000 </v>
   <v>       0.00000000       0.00000000       0.00000000 </v>
   <v>       0.00000000       0.00000000       0.00000000 </v>
   <v>       0.00000000       0.00000000       0.00000000 </v>
   <v>       0.00000000       0.00000000       0.00000000 </v>
   <v>       0.00000000       0.00000000       0.00000000 </v>
   <v>       0.00000000       0.00000000       0.00000000 </v>
   <v>       0.00000000       0.00000000       0.00000000 </v>
   <v>       0.00000000       0.00000000       0.00000000 </v>
   <v>       0.00000000       0.00000000       0.00000000 </v>
   <v>       0.00000000       0.00000000       0.00000000 </v>
   <v>       0.00000000       0.00000000       0.00000000 </v>
   <v>       0.00000000       0.00000000       0.00000000 </v>
   <v>       0.00000000       0.00000000       0.00000000 </v>
   <v>       0.00000000       0.00000000       0.00000000 </v>
   <v>       0.00000000       0.00000000       0.00000000 </v>
   <v>       0.00000000       0.00000000       0.00000000 </v>
   <v>       0.00000000       0.00000000       0.00000000 </v>
   <v>       0.00000000       0.00000000       0.00000000 </v>
   <v>       0.00000000       0.00000000       0.00000000 </v>
   <v>       0.00000000       0.00000000       0.00000000 </v>
   <v>       0.00000000       0.00000000       0.00000000 </v>
   <v>       0.00000000       0.00000000       0.00000000 </v>
   <v>       0.00000000       0.00000000       0.00000000 </v>
   <v>       0.00000000       0.00000000       0.00000000 </v>
   <v>       0.00000000       0.00000000       0.00000000 </v>
   <v>       0.00000000       0.00000000       0.00000000 </v>
   <v>       0.00000000       0.00000000       0.00000000 </v>
   <v>       0.00000000       0.00000000       0.00000000 </v>
   <v>       0.00000000       0.00000000       0.00000000 </v>
   <v>       0.00000000       0.00000000       0.00000000 </v>
   <v>       0.00000000       0.00000000       0.00000000 </v>
   <v>       0.00000000       0.00000000       0.00000000 </v>
   <v>       0.00000000       0.00000000       0.00000000 </v>
   <v>       0.00000000       0.00000000       0.00000000 </v>
   <v>       0.00000000       0.00000000       0.00000000 </v>
   <v>       0.00000000       0.00000000       0.00000000 </v>
   <v>       0.00000000       0.00000000       0.00000000 </v>
   <v>       0.00000000       0.00000000       0.00000000 </v>
   <v>       0.00000000       0.00000000       0.00000000 </v>
   <v>       0.00000000       0.00000000       0.00000000 </v>
   <v>       0.00000000       0.00000000       0.00000000 </v>
   <v>       0.00000000       0.00000000       0.00000000 </v>
   <v>       0.00000000       0.00000000       0.00000000 </v>
   <v>       0.00000000       0.00000000       0.00000000 </v>
   <v>       0.00000000       0.00000000       0.00000000 </v>
   <v>       0.00000000       0.00000000       0.00000000 </v>
   <v>       0.00000000       0.00000000       0.00000000 </v>
   <v>       0.00000000       0.00000000       0.00000000 </v>
   <v>       0.00000000       0.00000000       0.00000000 </v>
   <v>       0.00000000       0.00000000       0.00000000 </v>
   <v>       0.00000000       0.00000000       0.00000000 </v>
   <v>       0.00000000       0.00000000       0.00000000 </v>
   <v>       0.00000000       0.00000000       0.00000000 </v>
   <v>       0.00000000       0.00000000       0.00000000 </v>
   <v>       0.00000000       0.00000000       0.00000000 </v>
   <v>       0.00000000       0.00000000       0.00000000 </v>
   <v>       0.00000000       0.00000000       0.00000000 </v>
   <v>       0.00000000       0.00000000       0.00000000 </v>
   <v>       0.00000000       0.00000000       0.00000000 </v>
   <v>       0.00000000       0.00000000       0.00000000 </v>
   <v>       0.00000000       0.00000000       0.00000000 </v>
   <v>       0.00000000       0.00000000       0.00000000 </v>
   <v>       0.00000000       0.00000000       0.00000000 </v>
   <v>       0.00000000       0.00000000       0.00000000 </v>
   <v>       0.00000000       0.00000000       0.00000000 </v>
   <v>       0.00000000       0.00000000       0.00000000 </v>
   <v>       0.00000000       0.00000000       0.00000000 </v>
   <v>       0.00000000       0.00000000       0.00000000 </v>
   <v>       0.00000000       0.00000000       0.00000000 </v>
   <v>       0.00000000       0.00000000       0.00000000 </v>
   <v>       0.00000000       0.00000000       0.00000000 </v>
   <v>       0.00000000       0.00000000       0.00000000 </v>
   <v>       0.00000000       0.00000000       0.00000000 </v>
   <v>       0.00000000       0.00000000       0.00000000 </v>
   <v>       0.00000000       0.00000000       0.00000000 </v>
   <v>       0.00000000       0.00000000       0.00000000 </v>
   <v>       0.00000000       0.00000000       0.00000000 </v>
   <v>       0.00000000       0.00000000       0.00000000 </v>
   <v>       0.00000000       0.00000000       0.00000000 </v>
   <v>       0.00000000       0.00000000       0.00000000 </v>
   <v>       0.00000000       0.00000000       0.00000000 </v>
   <v>       0.00000000       0.00000000       0.00000000 </v>
   <v>       0.00000000       0.00000000       0.00000000 </v>
   <v>       0.00000000       0.00000000       0.00000000 </v>
   <v>       0.00000000       0.00000000       0.00000000 </v>
   <v>       0.00000000       0.00000000       0.00000000 </v>
   <v>       0.00000000       0.00000000       0.00000000 </v>
   <v>       0.00000000       0.00000000       0.00000000 </v>
   <v>       0.00000000       0.00000000       0.00000000 </v>
   <v>       0.00000000       0.00000000       0.00000000 </v>
   <v>       0.00000000       0.00000000       0.00000000 </v>
   <v>       0.00000000       0.00000000       0.00000000 </v>
   <v>       0.00000000       0.00000000       0.00000000 </v>
   <v>       0.00000000       0.00000000       0.00000000 </v>
   <v>       0.00000000       0.00000000       0.00000000 </v>
   <v>       0.00000000       0.00000000       0.00000000 </v>
   <v>       0.00000000       0.00000000       0.00000000 </v>
   <v>       0.00000000       0.00000000       0.00000000 </v>
   <v>       0.00000000       0.00000000       0.00000000 </v>
   <v>       0.00000000       0.00000000       0.00000000 </v>
   <v>       0.00000000       0.00000000       0.00000000 </v>
   <v>       0.00000000       0.00000000       0.00000000 </v>
   <v>       0.00000000       0.00000000       0.00000000 </v>
   <v>       0.00000000       0.00000000       0.00000000 </v>
   <v>       0.00000000       0.00000000       0.00000000 </v>
   <v>       0.00000000       0.00000000       0.00000000 </v>
   <v>       0.00000000       0.00000000       0.00000000 </v>
   <v>       0.00000000       0.00000000       0.00000000 </v>
   <v>       0.00000000       0.00000000       0.00000000 </v>
   <v>       0.00000000       0.00000000       0.00000000 </v>
   <v>       0.00000000       0.00000000       0.00000000 </v>
   <v>       0.00000000       0.00000000       0.00000000 </v>
   <v>       0.00000000       0.00000000       0.00000000 </v>
   <v>       0.00000000       0.00000000       0.00000000 </v>
   <v>       0.00000000       0.00000000       0.00000000 </v>
   <v>       0.00000000       0.00000000       0.00000000 </v>
   <v>       0.00000000       0.00000000       0.00000000 </v>
   <v>       0.00000000       0.00000000       0.00000000 </v>
   <v>       0.00000000       0.00000000       0.00000000 </v>
   <v>       0.00000000       0.00000000       0.00000000 </v>
   <v>       0.00000000       0.00000000       0.00000000 </v>
   <v>       0.00000000       0.00000000       0.00000000 </v>
   <v>       0.00000000       0.00000000       0.00000000 </v>
   <v>       0.00000000       0.00000000       0.00000000 </v>
   <v>       0.00000000       0.00000000       0.00000000 </v>
   <v>       0.00000000       0.00000000       0.00000000 </v>
   <v>       0.00000000       0.00000000       0.00000000 </v>
   <v>       0.00000000       0.00000000       0.00000000 </v>
   <v>       0.00000000       0.00000000       0.00000000 </v>
   <v>       0.00000000       0.00000000       0.00000000 </v>
   <v>       0.00000000       0.00000000       0.00000000 </v>
   <v>       0.00000000       0.00000000       0.00000000 </v>
  </varray>
 </structure>
 <calculation>
  <scstep>
   <time name="dav">   54.01   54.44</time>
   <time name="total">   54.51   54.95</time>
   <energy>
    <i name="alphaZ">   2026.14881195 </i>
    <i name="ewald"> -36392.20714546 </i>
    <i name="hartreedc"> -24332.76275981 </i>
    <i name="XCdc">   3128.64224605 </i>
    <i name="pawpsdc">  50594.51003143 </i>
    <i name="pawaedc"> -49994.65612350 </i>
    <i name="eentropy">     -0.03395243 </i>
    <i name="bandstr">   -743.25716107 </i>
    <i name="atom">  64968.54023382 </i>
    <i name="e_fr_energy">   9254.92418099 </i>
    <i name="e_wo_entrp">   9254.95813342 </i>
    <i name="e_0_energy">   9254.94115720 </i>
   </energy>
  </scstep>
  <scstep>
   <time name="dav">   63.66   64.00</time>
   <time name="total">   63.67   64.00</time>
   <energy>
    <i name="e_fr_energy">    -19.60637689 </i>
    <i name="e_wo_entrp">    -19.60637689 </i>
    <i name="e_0_energy">    -19.60637689 </i>
   </energy>
  </scstep>
  <scstep>
   <time name="dav">   63.98   64.41</time>
   <time name="total">   63.98   64.41</time>
   <energy>
    <i name="e_fr_energy">  -1047.84898390 </i>
    <i name="e_wo_entrp">  -1047.84898390 </i>
    <i name="e_0_energy">  -1047.84898390 </i>
   </energy>
  </scstep>
  <scstep>
   <time name="dav">   66.21   66.63</time>
   <time name="total">   66.21   66.63</time>
   <energy>
    <i name="e_fr_energy">  -1093.75950735 </i>
    <i name="e_wo_entrp">  -1093.75950735 </i>
    <i name="e_0_energy">  -1093.75950735 </i>
   </energy>
  </scstep>
  <scstep>
   <time name="dav">   88.61   90.41</time>
   <time name="total">   91.07   92.88</time>
   <energy>
    <i name="e_fr_energy">  -1100.33405575 </i>
    <i name="e_wo_entrp">  -1100.33405575 </i>
    <i name="e_0_energy">  -1100.33405575 </i>
   </energy>
  </scstep>
  <scstep>
   <time name="dav">   64.34   64.68</time>
   <time name="total">   67.29   67.66</time>
   <energy>
    <i name="e_fr_energy">   -938.08226211 </i>
    <i name="e_wo_entrp">   -938.08226211 </i>
    <i name="e_0_energy">   -938.08226211 </i>
   </energy>
  </scstep>
  <scstep>
   <time name="dav">   67.88   68.28</time>
   <time name="total">   70.90   71.33</time>
   <energy>
    <i name="e_fr_energy">   -938.96723120 </i>
    <i name="e_wo_entrp">   -938.96723120 </i>
    <i name="e_0_energy">   -938.96723120 </i>
   </energy>
  </scstep>
  <scstep>
   <time name="dav">   64.75   65.07</time>
   <time name="total">   67.74   68.08</time>
   <energy>
    <i name="e_fr_energy">   -936.72069219 </i>
    <i name="e_wo_entrp">   -936.72069219 </i>
    <i name="e_0_energy">   -936.72069219 </i>
   </energy>
  </scstep>
  <scstep>
   <time name="dav">   68.56   68.97</time>
   <time name="total">   71.52   72.00</time>
   <energy>
    <i name="e_fr_energy">   -936.02473064 </i>
    <i name="e_wo_entrp">   -936.02473064 </i>
    <i name="e_0_energy">   -936.02473064 </i>
   </energy>
  </scstep>
  <scstep>
   <time name="dav">   72.66   73.11</time>
   <time name="total">   75.66   76.12</time>
   <energy>
    <i name="e_fr_energy">   -936.11502192 </i>
    <i name="e_wo_entrp">   -936.11502192 </i>
    <i name="e_0_energy">   -936.11502192 </i>
   </energy>
  </scstep>
  <scstep>
   <time name="dav">   69.35   69.77</time>
   <time name="total">   72.29   72.74</time>
   <energy>
    <i name="e_fr_energy">   -936.13981291 </i>
    <i name="e_wo_entrp">   -936.13981291 </i>
    <i name="e_0_energy">   -936.13981291 </i>
   </energy>
  </scstep>
  <scstep>
   <time name="dav">   60.39   60.68</time>
   <time name="total">   63.49   63.83</time>
   <energy>
    <i name="e_fr_energy">   -936.17203152 </i>
    <i name="e_wo_entrp">   -936.17203151 </i>
    <i name="e_0_energy">   -936.17203152 </i>
   </energy>
  </scstep>
  <scstep>
   <time name="dav">   69.83   70.53</time>
   <time name="total">   72.83   73.57</time>
   <energy>
    <i name="e_fr_energy">   -936.18706257 </i>
    <i name="e_wo_entrp">   -936.18706246 </i>
    <i name="e_0_energy">   -936.18706252 </i>
   </energy>
  </scstep>
  <scstep>
   <time name="dav">   69.62   70.14</time>
   <time name="total">   72.62   73.17</time>
   <energy>
    <i name="e_fr_energy">   -936.19047912 </i>
    <i name="e_wo_entrp">   -936.19047899 </i>
    <i name="e_0_energy">   -936.19047905 </i>
   </energy>
  </scstep>
  <scstep>
   <time name="dav">   63.31   63.61</time>
   <time name="total">   66.36   66.66</time>
   <energy>
    <i name="e_fr_energy">   -936.19209169 </i>
    <i name="e_wo_entrp">   -936.19209148 </i>
    <i name="e_0_energy">   -936.19209159 </i>
   </energy>
  </scstep>
  <scstep>
   <time name="dav">   59.73   60.09</time>
   <time name="total">   62.67   63.05</time>
   <energy>
    <i name="e_fr_energy">   -936.19337071 </i>
    <i name="e_wo_entrp">   -936.19337045 </i>
    <i name="e_0_energy">   -936.19337058 </i>
   </energy>
  </scstep>
  <scstep>
   <time name="dav">   72.09   72.60</time>
   <time name="total">   75.04   75.59</time>
   <energy>
    <i name="e_fr_energy">   -936.19360120 </i>
    <i name="e_wo_entrp">   -936.19360084 </i>
    <i name="e_0_energy">   -936.19360102 </i>
   </energy>
  </scstep>
  <scstep>
   <time name="dav">   71.90   72.93</time>
   <time name="total">   74.89   75.94</time>
   <energy>
    <i name="e_fr_energy">   -936.19364043 </i>
    <i name="e_wo_entrp">   -936.19364008 </i>
    <i name="e_0_energy">   -936.19364026 </i>
   </energy>
  </scstep>
  <scstep>
   <time name="dav">   57.88   58.26</time>
   <time name="total">   60.87   61.29</time>
   <energy>
    <i name="e_fr_energy">   -936.19365922 </i>
    <i name="e_wo_entrp">   -936.19365885 </i>
    <i name="e_0_energy">   -936.19365903 </i>
   </energy>
  </scstep>
  <scstep>
   <time name="dav">   64.73   65.21</time>
   <time name="total">   67.70   68.21</time>
   <energy>
    <i name="e_fr_energy">   -936.19366634 </i>
    <i name="e_wo_entrp">   -936.19366598 </i>
    <i name="e_0_energy">   -936.19366616 </i>
   </energy>
  </scstep>
  <scstep>
   <time name="dav">   62.94   63.27</time>
   <time name="total">   65.89   66.24</time>
   <energy>
    <i name="e_fr_energy">   -936.19366799 </i>
    <i name="e_wo_entrp">   -936.19366764 </i>
    <i name="e_0_energy">   -936.19366782 </i>
   </energy>
  </scstep>
  <scstep>
   <time name="dav">   43.34   43.53</time>
   <time name="total">   43.84   44.04</time>
   <energy>
    <i name="alphaZ">   2026.14881195 </i>
    <i name="ewald"> -36392.20714546 </i>
    <i name="hartreedc"> -26286.10079263 </i>
    <i name="XCdc">   3238.72391023 </i>
    <i name="pawpsdc">  87895.54630901 </i>
    <i name="pawaedc"> -87565.53832121 </i>
    <i name="eentropy">     -0.00000036 </i>
    <i name="bandstr">  -8821.30667378 </i>
    <i name="atom">  64968.54023382 </i>
    <i name="e_fr_energy">   -936.19366842 </i>
    <i name="e_wo_entrp">   -936.19366806 </i>
    <i name="e_0_energy">   -936.19366824 </i>
   </energy>
  </scstep>
  <structure>
   <crystal>
    <varray name="basis" >
     <v>      13.31093562       0.00000000       0.00000000 </v>
     <v>       0.00000000      13.31093562       0.00000000 </v>
     <v>       0.00000000       0.00000000      13.31093562 </v>
    </varray>
    <i name="volume">   2358.44497833 </i>
    <varray name="rec_basis" >
     <v>       0.07512620       0.00000000       0.00000000 </v>
     <v>       0.00000000       0.07512620       0.00000000 </v>
     <v>       0.00000000       0.00000000       0.07512620 </v>
    </varray>
   </crystal>
   <varray name="positions" >
    <v>       0.16184247       0.97695154       0.07842714 </v>
    <v>       0.54148046       0.60017058       0.45335889 </v>
    <v>       0.80959591       0.07955082       0.16607831 </v>
    <v>       0.12034751       0.03874036       0.49687598 </v>
    <v>       0.40202472       0.16851785       0.47630667 </v>
    <v>       0.03302524       0.27605111       0.29470763 </v>
    <v>       0.89230857       0.57642378       0.44026115 </v>
    <v>       0.02445691       0.79419692       0.23394671 </v>
    <v>       0.07767886       0.79754858       0.85649896 </v>
    <v>       0.49182566       0.90389555       0.43646578 </v>
    <v>       0.20309096       0.59596484       0.41486618 </v>
    <v>       0.88647651       0.49539372       0.01973292 </v>
    <v>       0.73104522       0.87855588       0.83579348 </v>
    <v>       0.31046601       0.31309353       0.26231331 </v>
    <v>       0.63328649       0.32050625       0.02928910 </v>
    <v>       0.31377557       0.60143166       0.70032841 </v>
    <v>       0.35587837       0.84117902       0.82505752 </v>
    <v>       0.40563799       0.11746703       0.85180185 </v>
    <v>       0.33620149       0.34236867       0.89992311 </v>
    <v>       0.18724102       0.53197450       0.01511827 </v>
    <v>       0.64965473       0.56884991       0.14903723 </v>
    <v>       0.99574857       0.29315387       0.60894932 </v>
    <v>       0.99805253       0.18736204       0.90432137 </v>
    <v>       0.58279665       0.14270431       0.65811550 </v>
    <v>       0.89367148       0.59416246       0.79614958 </v>
    <v>       0.59330104       0.62158489       0.72375918 </v>
    <v>       0.55427371       0.86316407       0.04810262 </v>
    <v>       0.23640238       0.34357380       0.51491313 </v>
    <v>       0.07311828       0.43450910       0.81755220 </v>
    <v>       0.86227993       0.83373073       0.46643961 </v>
    <v>       0.19703451       0.21788680       0.04505913 </v>
    <v>       0.42404762       0.51376446       0.09520352 </v>
    <v>       0.37572368       0.67957126       0.93271607 </v>
    <v>       0.05735354       0.50170563       0.58259513 </v>
    <v>       0.71739030       0.64806155       0.95943050 </v>
    <v>       0.84470739       0.33509506       0.19730161 </v>
    <v>       0.40858988       0.30789611       0.66639856 </v>
    <v>       0.02754009       0.73354598       0.62288153 </v>
    <v>       0.34206016       0.99024023       0.62160956 </v>
    <v>       0.38799491       0.09295140       0.10912684 </v>
    <v>       0.24965902       0.79411641       0.23705877 </v>
    <v>       0.84430420       0.07306655       0.72660739 </v>
    <v>       0.92279981       0.94843574       0.95225409 </v>
    <v>       0.01650574       0.51477784       0.22856998 </v>
    <v>       0.89980185       0.07199045       0.47484375 </v>
    <v>       0.69360904       0.35813017       0.35306356 </v>
    <v>       0.68232672       0.77679718       0.59438361 </v>
    <v>       0.55795806       0.22003914       0.26079540 </v>
    <v>       0.24604785       0.00323822       0.29620355 </v>
    <v>       0.62668275       0.06962121       0.97745727 </v>
    <v>       0.68946561       0.13701370       0.39305702 </v>
    <v>       0.46681909       0.71354631       0.25585042 </v>
    <v>       0.83663151       0.80168272       0.08664858 </v>
    <v>       0.22965987       0.79140180       0.62604489 </v>
    <v>       0.10970556       0.82993380       0.59167661 </v>
    <v>       0.38446406       0.43112400       0.65584429 </v>
    <v>       0.15945235       0.83816763       0.15806826 </v>
    <v>       0.08470382       0.31969307       0.78516193 </v>
    <v>       0.55193441       0.75872207       0.19112930 </v>
    <v>       0.03573674       0.61789020       0.55706582 </v>
    <v>       0.55969521       0.14020248       0.91074155 </v>
    <v>       0.88286827       0.04988240       0.02250182 </v>
    <v>       0.11643358       0.12783761       0.01508479 </v>
    <v>       0.98129847       0.74733490       0.73346149 </v>
    <v>       0.51921840       0.26827581       0.60755438 </v>
    <v>       0.25510346       0.08875019       0.38310190 </v>
    <v>       0.44144361       0.01001553       0.55631668 </v>
    <v>       0.66185552       0.26978116       0.42492957 </v>
    <v>       0.54872913       0.44473168       0.09168308 </v>
    <v>       0.29476607       0.89108865       0.30327475 </v>
    <v>       0.88918033       0.81439792       0.35134662 </v>
    <v>       0.29155484       0.37970243       0.41483526 </v>
    <v>       0.19237485       0.70160036       0.28675015 </v>
    <v>       0.36328485       0.59556434       0.02032601 </v>
    <v>       0.31526445       0.16374381       0.02794641 </v>
    <v>       0.81156743       0.10343748       0.38301145 </v>
    <v>       0.02571006       0.50949084       0.70057534 </v>
    <v>       0.83610161       0.66992254       0.04688600 </v>
    <v>       0.96121086       0.45014342       0.53692426 </v>
    <v>       0.25980362       0.72619983       0.92743465 </v>
    <v>       0.80999779       0.35790317       0.31044554 </v>
    <v>       0.23228275       0.78160921       0.74203070 </v>
    <v>       0.36090312       0.76950757       0.18745694 </v>
    <v>       0.85529376       0.08166944       0.59525987 </v>
    <v>       0.20252243       0.24742545       0.16424279 </v>
    <v>       0.31625445       0.99929545       0.76095126 </v>
    <v>       0.06367264       0.56508187       0.11213587 </v>
    <v>       0.63595544       0.31397451       0.25071339 </v>
    <v>       0.65244794       0.94609051       0.94273238 </v>
    <v>       0.43282534       0.78370017       0.95452695 </v>
    <v>       0.89602167       0.98478958       0.82480220 </v>
    <v>       0.98165995       0.48659527       0.89548257 </v>
    <v>       0.95299120       0.60499693       0.29728096 </v>
    <v>       0.48716097       0.01684877       0.09786810 </v>
    <v>       0.72890964       0.07834840       0.75944060 </v>
    <v>       0.92272529       0.94777107       0.46585145 </v>
    <v>       0.90451892       0.18222922       0.76097274 </v>
    <v>       0.13703044       0.27302348       0.50226256 </v>
    <v>       0.56142026       0.75828409       0.51702666 </v>
    <v>       0.84370256       0.84974763       0.94651525 </v>
    <v>       0.13542360       0.98783223       0.30315754 </v>
    <v>       0.04909863       0.92001520       0.97893031 </v>
    <v>       0.99564090       0.15040605       0.47552710 </v>
    <v>       0.74572635       0.65319099       0.84125420 </v>
    <v>       0.93114276       0.42423182       0.19370337 </v>
    <v>       0.31869421       0.87135344       0.58540399 </v>
    <v>       0.63527120       0.72601559       0.00010126 </v>
    <v>       0.25148797       0.06053522       0.57967310 </v>
    <v>       0.79259986       0.35084144       0.07585406 </v>
    <v>       0.70041760       0.63712235       0.59936496 </v>
    <v>       0.94849940       0.86425480       0.10898243 </v>
    <v>       0.65927379       0.79722313       0.70931984 </v>
    <v>       0.77780599       0.83817430       0.54849485 </v>
    <v>       0.33865778       0.42859002       0.11459141 </v>
    <v>       0.90852847       0.22595718       0.21670169 </v>
    <v>       0.93155811       0.74368355       0.52540713 </v>
    <v>       0.49725280       0.19363678       0.15059149 </v>
    <v>       0.44600387       0.59232191       0.20312131 </v>
    <v>       0.39136676       0.25722574       0.77583787 </v>
    <v>       0.31076292       0.27373784       0.60777740 </v>
    <v>       0.46724880       0.23259171       0.34009606 </v>
    <v>       0.27193964       0.68794469       0.57634008 </v>
    <v>       0.69674227       0.12056353       0.05150360 </v>
    <v>       0.20903081       0.51851814       0.79631372 </v>
    <v>       0.66051427       0.46342465       0.40309019 </v>
    <v>       0.41297407       0.63411243       0.83667659 </v>
    <v>       0.18937507       0.45853937       0.56646921 </v>
    <v>       0.66673614       0.13190980       0.27439869 </v>
    <v>       0.69779897       0.51772730       0.99088453 </v>
    <v>       0.08795122       0.42714610       0.30542980 </v>
    <v>       0.29890225       0.02548571       0.17811365 </v>
    <v>       0.63892200       0.06811492       0.47785164 </v>
    <v>       0.41998424       0.72772394       0.36602210 </v>
    <v>       0.75507782       0.84185847       0.18483673 </v>
    <v>       0.17445614       0.30554101       0.95629959 </v>
   </varray>
  </structure>
  <varray name="forces" >
   <v>      -0.99781866      -0.20891840       0.40586557 </v>
   <v>       0.75043891       0.47897747      -0.00105892 </v>
   <v>       0.65709993      -0.69535537       0.20772519 </v>
   <v>       0.67520471       0.01147348      -1.74479839 </v>
   <v>      -1.27243952      -0.33583627       0.14396932 </v>
   <v>       1.96098563      -0.75698242       1.35420164 </v>
   <v>      -0.63377849       0.75222665       0.55047457 </v>
   <v>      -0.75887293      -0.33265237       1.33244019 </v>
   <v>       2.07911764       0.57325710       1.31592102 </v>
   <v>      -0.14517789      -1.49911434       0.25479875 </v>
   <v>       0.47219446       0.28040138      -0.38273123 </v>
   <v>      -0.80167449      -0.15883832       2.65811419 </v>
   <v>       0.95228576      -0.23397547      -2.26768952 </v>
   <v>       0.72218959       0.65431855       0.01218917 </v>
   <v>       0.57323050      -0.54544971       0.72310347 </v>
   <v>      -0.29372850      -2.70086085       1.54887436 </v>
   <v>      -0.29012440       0.79316749      -0.06553535 </v>
   <v>      -0.97912170      -1.31247266       0.34460854 </v>
   <v>      -1.74156970       1.59841342       0.31554775 </v>
   <v>       0.77290411       0.60536098       0.03698622 </v>
   <v>      -1.01774414       0.77412800      -0.07277351 </v>
   <v>       0.48895124      -1.92559401      -0.04902185 </v>
   <v>      -0.09315618      -0.44889694      -0.21552521 </v>
   <v>       2.74689919      -2.59880002      -0.29418372 </v>
   <v>       0.32584997       0.75583377      -1.55616136 </v>
   <v>       0.94513086       1.00148081       0.91523956 </v>
   <v>      -0.71506496      -1.73584734       1.74014949 </v>
   <v>      -1.71758486      -0.44781124       1.88686482 </v>
   <v>       1.89325644       3.24760651      -3.13944916 </v>
   <v>       5.65304725       0.76346637      -3.01449790 </v>
   <v>      -2.42575006      -0.07466008       0.50360205 </v>
   <v>       1.76999175      -0.02084612       3.75078757 </v>
   <v>      -3.48659501       3.59305155       4.49481899 </v>
   <v>       3.08876505      -1.17011689       1.74540843 </v>
   <v>       0.06318082      -1.60785538       1.69924802 </v>
   <v>       2.00582205      -1.96023139      -3.45583900 </v>
   <v>       1.92370290       4.06298710      -1.99637811 </v>
   <v>      -3.07420741       1.30642136      -5.15719963 </v>
   <v>      -4.56872333       0.37621826       1.49713891 </v>
   <v>       2.29641044      -0.58077711       2.51761866 </v>
   <v>       1.23800231       0.99426731      -2.58238835 </v>
   <v>       1.57303122       3.16861377       1.10489168 </v>
   <v>       0.73222803       2.63897172       2.43803108 </v>
   <v>       0.88382222      -0.24144841       0.66278713 </v>
   <v>      -1.62098368      -0.51363833       0.96218466 </v>
   <v>      -0.71957367       1.94994621       0.02669502 </v>
   <v>      -2.51538736      -4.75980829      -1.82148237 </v>
   <v>      -0.85985482      -1.62321652      -1.78996623 </v>
   <v>       2.94625684       1.04851597       0.96726231 </v>
   <v>       0.25466816      -4.01989055      -1.23035132 </v>
   <v>       1.61336281       0.49695554       2.94756954 </v>
   <v>      -6.39554762       0.23433252      -4.17452492 </v>
   <v>      -0.04335245       2.73140672       2.38697442 </v>
   <v>       1.12251375       1.04110716      -3.57244252 </v>
   <v>       0.32989370      -2.42679556       0.67657875 </v>
   <v>       2.06426221       0.30770339       1.31339098 </v>
   <v>       2.41794795      -0.79297668       0.58269065 </v>
   <v>      -1.39405438       0.67204267      -0.04451859 </v>
   <v>       2.57595451       0.02425200       0.64463839 </v>
   <v>       2.76539804       2.14238109       0.01118451 </v>
   <v>      -1.41272085       0.83382845      -1.26394219 </v>
   <v>       1.70445991      -1.73239293      -2.31886654 </v>
   <v>       0.90337468       1.15037482       0.15989975 </v>
   <v>       0.18445045      -1.61365853      -0.06523234 </v>
   <v>      -3.39240154       1.18429406       1.09129185 </v>
   <v>       3.24104681       1.02489981      -0.26815402 </v>
   <v>       1.85957160       1.25712025       0.80418290 </v>
   <v>       1.20818517      -4.59373140       1.65581689 </v>
   <v>      -3.86652377       2.25871086      -0.44691098 </v>
   <v>       0.82976390       0.01321401       2.08892343 </v>
   <v>      -1.54329576      -1.37661815       0.35828455 </v>
   <v>       0.83217413      -0.04554194      -0.03469899 </v>
   <v>      -0.72349576      -1.40629414       2.18246111 </v>
   <v>       1.23045031      -2.50794639       1.10150743 </v>
   <v>       2.42946596      -0.97769926      -0.70662991 </v>
   <v>       1.02146881       0.13721078       1.79276244 </v>
   <v>       0.19689918      -1.71007996       3.76244928 </v>
   <v>      -1.70551844       0.64286760      -0.96535255 </v>
   <v>      -0.64208921      -1.85117111      -1.55216313 </v>
   <v>      -0.96567146      -0.63856406      -0.27405716 </v>
   <v>      -1.57504431       0.88325267       1.58812189 </v>
   <v>      -1.38814352      -0.46120082       1.84580321 </v>
   <v>       0.32672549      -1.19386603       0.18773457 </v>
   <v>      -0.11097014      -0.64602877       1.15136988 </v>
   <v>      -0.86462789      -0.17909409      -0.88736703 </v>
   <v>       2.95986163      -0.16883668      -1.91038622 </v>
   <v>      -1.66447958      -1.82074696       2.78215041 </v>
   <v>      -0.64972686       1.58076848      -1.86490774 </v>
   <v>      -2.78414409       4.78124774       2.16588481 </v>
   <v>       1.75431724       1.16819624       0.37658619 </v>
   <v>       0.20294770       0.10290594      -1.18971918 </v>
   <v>       2.36794377      -1.07422846      -1.94159945 </v>
   <v>       2.05313760      -2.03024809      -1.94959497 </v>
   <v>      -1.93441959       0.74285162      -2.11547515 </v>
   <v>      -1.29368041      -0.84407859      -0.80728285 </v>
   <v>       0.17421779       2.13316866       1.14866887 </v>
   <v>       0.18629686      -1.31348954      -0.63989511 </v>
   <v>       0.44439788       0.91820902       0.51601742 </v>
   <v>       2.90861314       1.39079462       1.46157077 </v>
   <v>       0.85735568      -1.06025909       2.23507835 </v>
   <v>      -7.01810966      -0.87700184      -0.86311464 </v>
   <v>      -2.02511693       0.03551860      -4.52609353 </v>
   <v>      -1.64543035      -0.90597531      -0.54614687 </v>
   <v>       0.19151515      -0.42102616      -0.30016579 </v>
   <v>       0.63043922       1.39822759      -1.50393262 </v>
   <v>      -0.43312361      -0.00141420       0.93714813 </v>
   <v>       1.35486361      -1.66940032      -0.66132776 </v>
   <v>       1.42726057      -0.29122603       1.27210333 </v>
   <v>       0.73685469      -0.32147778       3.17331278 </v>
   <v>      -0.48585331       1.85036390      -0.39645825 </v>
   <v>      -3.25097389      -2.52905183      -0.11068824 </v>
   <v>      -1.01875313       0.43361108       0.15748749 </v>
   <v>      -3.75568182       0.45676594       1.13019431 </v>
   <v>       0.00854025       0.06791778      -0.76641670 </v>
   <v>      -2.46023088       0.95831362      -1.92758040 </v>
   <v>       1.03830197       0.87066271       1.97596072 </v>
   <v>      -1.12813448       0.38325328       0.49356766 </v>
   <v>       1.11853601      -1.64954681      -0.47447925 </v>
   <v>       0.99827358      -0.42927586       1.29554930 </v>
   <v>      -2.68208520      -0.68780008      -4.04481366 </v>
   <v>       0.37032020      -0.33127787      -0.33684705 </v>
   <v>      -1.54993120      -0.02784013      -1.78078563 </v>
   <v>       0.63896899       1.88432700       1.57470576 </v>
   <v>      -3.36704088      -2.70142754       2.94434736 </v>
   <v>      -0.07643640       1.00412444      -0.91189542 </v>
   <v>       3.00057627      -2.45854798      -6.09998128 </v>
   <v>      -3.14022294       1.20447336      -0.23838899 </v>
   <v>      -3.45028642       0.68653026      -0.93171916 </v>
   <v>       1.68720148       3.26403277      -0.66967702 </v>
   <v>      -0.71233163       3.86092090      -1.70787667 </v>
   <v>       1.92965766       2.90728559      -1.46980021 </v>
   <v>      -1.27600337       0.42169372      -0.19463662 </v>
   <v>       2.22280567      -1.38810067       1.34336874 </v>
   <v>       1.98127961      -1.32561405      -4.59371440 </v>
   <v>       2.00806393       0.02022197       1.45240574 </v>
  </varray>
  <varray name="stress" >
   <v>     -40.88448912       9.86839104       0.56045609 </v>
   <v>       9.86839107     -52.39932673      -1.79071460 </v>
   <v>       0.56045612      -1.79071460     -28.26444827 </v>
  </varray>
  <energy>
   <i name="e_fr_energy">   -936.19366842 </i>
   <i name="e_wo_entrp">   -936.19366824 </i>
   <i name="e_0_energy">     -0.00000036 </i>
  </energy>
  <time name="totalsc"> 1552.77 1564.46</time>
  <eigenvalues>
   <array>
    <dimension dim="1">band</dimension>
    <dimension dim="2">kpoint</dimension>
    <dimension dim="3">spin</dimension>
    <field>eigene</field>
    <field>occ</field>
    <set>
     <set comment="spin 1">
      <set comment="kpoint 1">
       <r>  -39.9579    1.0000 </r>
       <r>  -39.6878    1.0000 </r>
       <r>  -39.6542    1.0000 </r>
       <r>  -39.6046    1.0000 </r>
       <r>  -39.1988    1.0000 </r>
       <r>  -39.1911    1.0000 </r>
       <r>  -39.1386    1.0000 </r>
       <r>  -39.1088    1.0000 </r>
       <r>  -38.9866    1.0000 </r>
       <r>  -38.9429    1.0000 </r>
       <r>  -38.8448    1.0000 </r>
[...]
       <r>     1.6818    26.2935   855.4846 </r>
       <r>     1.8536     9.1999   857.0652 </r>
       <r>     2.0254    17.1138   860.0055 </r>
       <r>     2.1972    11.3948   861.9632 </r>
       <r>     2.3690     0.2186   862.0008 </r>
       <r>     2.5409    10.8166   863.8591 </r>
       <r>     2.7127     0.8218   864.0003 </r>
       <r>     2.8845     1.4524   864.2499 </r>
       <r>     3.0563     5.0913   865.1246 </r>
       <r>     3.2281     7.9766   866.4950 </r>
       <r>     3.3999    12.5192   868.6459 </r>
       <r>     3.5717     7.6854   869.9663 </r>
       <r>     3.7435    12.2605   872.0727 </r>
       <r>     3.9153    16.6078   874.9261 </r>
       <r>     4.0871    16.9491   877.8380 </r>
       <r>     4.2589    15.9346   880.5757 </r>
       <r>     4.4307    22.9911   884.5257 </r>
       <r>     4.6025    32.9629   890.1890 </r>
       <r>     4.7743    32.5759   895.7857 </r>
       <r>     4.9461    29.7127   900.8906 </r>
       <r>     5.1180    40.0404   907.7698 </r>
       <r>     5.2898    48.7457   916.1447 </r>
       <r>     5.4616    48.3078   924.4443 </r>
       <r>     5.6334    60.6343   934.8617 </r>
       <r>     5.8052    65.0230   946.0330 </r>
       <r>     5.9770    80.4585   959.8564 </r>
       <r>     6.1488    82.6295   974.0527 </r>
       <r>     6.3206    82.0719   988.1532 </r>
       <r>     6.4924   104.4501  1006.0984 </r>
       <r>     6.6642    96.2355  1022.6323 </r>
       <r>     6.8360    85.0760  1037.2490 </r>
       <r>     7.0078    16.0102  1039.9996 </r>
       <r>     7.1796     0.0021  1040.0000 </r>
       <r>     7.3514     0.0000  1040.0000 </r>
       <r>     7.5232     0.0000  1040.0000 </r>
       <r>     7.6951     0.0000  1040.0000 </r>
       <r>     7.8669     0.0000  1040.0000 </r>
       <r>     8.0387     0.0000  1040.0000 </r>
       <r>     8.2105     0.0000  1040.0000 </r>
       <r>     8.3823     0.0000  1040.0000 </r>
       <r>     8.5541     0.0000  1040.0000 </r>
       <r>     8.7259     0.0000  1040.0000 </r>
       <r>     8.8977     0.0000  1040.0000 </r>
       <r>     9.0695     0.0000  1040.0000 </r>
       <r>     9.2413     0.0000  1040.0000 </r>
      </set>
     </set>
    </array>
   </total>
  </dos>
 </calculation>
 <structure name="finalpos" >
  <crystal>
   <varray name="basis" >
    <v>      13.31093562       0.00000000       0.00000000 </v>
    <v>       0.00000000      13.31093562       0.00000000 </v>
    <v>       0.00000000       0.00000000      13.31093562 </v>
   </varray>
   <i name="volume">   2358.44497833 </i>
   <varray name="rec_basis" >
    <v>       0.07512620       0.00000000       0.00000000 </v>
    <v>       0.00000000       0.07512620       0.00000000 </v>
    <v>       0.00000000       0.00000000       0.07512620 </v>
   </varray>
  </crystal>
  <varray name="positions" >
   <v>       0.16184247       0.97695154       0.07842714 </v>
   <v>       0.54148046       0.60017058       0.45335889 </v>
   <v>       0.80959591       0.07955082       0.16607831 </v>
   <v>       0.12034751       0.03874036       0.49687598 </v>
   <v>       0.40202472       0.16851785       0.47630667 </v>
   <v>       0.03302524       0.27605111       0.29470763 </v>
   <v>       0.89230857       0.57642378       0.44026115 </v>
   <v>       0.02445691       0.79419692       0.23394671 </v>
   <v>       0.07767886       0.79754858       0.85649896 </v>
   <v>       0.49182566       0.90389555       0.43646578 </v>
   <v>       0.20309096       0.59596484       0.41486618 </v>
   <v>       0.88647651       0.49539372       0.01973292 </v>
   <v>       0.73104522       0.87855588       0.83579348 </v>
   <v>       0.31046601       0.31309353       0.26231331 </v>
   <v>       0.63328649       0.32050625       0.02928910 </v>
   <v>       0.31377557       0.60143166       0.70032841 </v>
   <v>       0.35587837       0.84117902       0.82505752 </v>
   <v>       0.40563799       0.11746703       0.85180185 </v>
   <v>       0.33620149       0.34236867       0.89992311 </v>
   <v>       0.18724102       0.53197450       0.01511827 </v>
   <v>       0.64965473       0.56884991       0.14903723 </v>
   <v>       0.99574857       0.29315387       0.60894932 </v>
   <v>       0.99805253       0.18736204       0.90432137 </v>
   <v>       0.58279665       0.14270431       0.65811550 </v>
   <v>       0.89367148       0.59416246       0.79614958 </v>
   <v>       0.59330104       0.62158489       0.72375918 </v>
   <v>       0.55427371       0.86316407       0.04810262 </v>
   <v>       0.23640238       0.34357380       0.51491313 </v>
   <v>       0.07311828       0.43450910       0.81755220 </v>
   <v>       0.86227993       0.83373073       0.46643961 </v>
   <v>       0.19703451       0.21788680       0.04505913 </v>
   <v>       0.42404762       0.51376446       0.09520352 </v>
   <v>       0.37572368       0.67957126       0.93271607 </v>
   <v>       0.05735354       0.50170563       0.58259513 </v>
   <v>       0.71739030       0.64806155       0.95943050 </v>
   <v>       0.84470739       0.33509506       0.19730161 </v>
   <v>       0.40858988       0.30789611       0.66639856 </v>
   <v>       0.02754009       0.73354598       0.62288153 </v>
   <v>       0.34206016       0.99024023       0.62160956 </v>
   <v>       0.38799491       0.09295140       0.10912684 </v>
   <v>       0.24965902       0.79411641       0.23705877 </v>
   <v>       0.84430420       0.07306655       0.72660739 </v>
   <v>       0.92279981       0.94843574       0.95225409 </v>
   <v>       0.01650574       0.51477784       0.22856998 </v>
   <v>       0.89980185       0.07199045       0.47484375 </v>
   <v>       0.69360904       0.35813017       0.35306356 </v>
   <v>       0.68232672       0.77679718       0.59438361 </v>
   <v>       0.55795806       0.22003914       0.26079540 </v>
   <v>       0.24604785       0.00323822       0.29620355 </v>
   <v>       0.62668275       0.06962121       0.97745727 </v>
   <v>       0.68946561       0.13701370       0.39305702 </v>
   <v>       0.46681909       0.71354631       0.25585042 </v>
   <v>       0.83663151       0.80168272       0.08664858 </v>
   <v>       0.22965987       0.79140180       0.62604489 </v>
   <v>       0.10970556       0.82993380       0.59167661 </v>
   <v>       0.38446406       0.43112400       0.65584429 </v>
   <v>       0.15945235       0.83816763       0.15806826 </v>
   <v>       0.08470382       0.31969307       0.78516193 </v>
   <v>       0.55193441       0.75872207       0.19112930 </v>
   <v>       0.03573674       0.61789020       0.55706582 </v>
   <v>       0.55969521       0.14020248       0.91074155 </v>
   <v>       0.88286827       0.04988240       0.02250182 </v>
   <v>       0.11643358       0.12783761       0.01508479 </v>
   <v>       0.98129847       0.74733490       0.73346149 </v>
   <v>       0.51921840       0.26827581       0.60755438 </v>
   <v>       0.25510346       0.08875019       0.38310190 </v>
   <v>       0.44144361       0.01001553       0.55631668 </v>
   <v>       0.66185552       0.26978116       0.42492957 </v>
   <v>       0.54872913       0.44473168       0.09168308 </v>
   <v>       0.29476607       0.89108865       0.30327475 </v>
   <v>       0.88918033       0.81439792       0.35134662 </v>
   <v>       0.29155484       0.37970243       0.41483526 </v>
   <v>       0.19237485       0.70160036       0.28675015 </v>
   <v>       0.36328485       0.59556434       0.02032601 </v>
   <v>       0.31526445       0.16374381       0.02794641 </v>
   <v>       0.81156743       0.10343748       0.38301145 </v>
   <v>       0.02571006       0.50949084       0.70057534 </v>
   <v>       0.83610161       0.66992254       0.04688600 </v>
   <v>       0.96121086       0.45014342       0.53692426 </v>
   <v>       0.25980362       0.72619983       0.92743465 </v>
   <v>       0.80999779       0.35790317       0.31044554 </v>
   <v>       0.23228275       0.78160921       0.74203070 </v>
   <v>       0.36090312       0.76950757       0.18745694 </v>
   <v>       0.85529376       0.08166944       0.59525987 </v>
   <v>       0.20252243       0.24742545       0.16424279 </v>
   <v>       0.31625445       0.99929545       0.76095126 </v>
   <v>       0.06367264       0.56508187       0.11213587 </v>
   <v>       0.63595544       0.31397451       0.25071339 </v>
   <v>       0.65244794       0.94609051       0.94273238 </v>
   <v>       0.43282534       0.78370017       0.95452695 </v>
   <v>       0.89602167       0.98478958       0.82480220 </v>
   <v>       0.98165995       0.48659527       0.89548257 </v>
   <v>       0.95299120       0.60499693       0.29728096 </v>
   <v>       0.48716097       0.01684877       0.09786810 </v>
   <v>       0.72890964       0.07834840       0.75944060 </v>
   <v>       0.92272529       0.94777107       0.46585145 </v>
   <v>       0.90451892       0.18222922       0.76097274 </v>
   <v>       0.13703044       0.27302348       0.50226256 </v>
   <v>       0.56142026       0.75828409       0.51702666 </v>
   <v>       0.84370256       0.84974763       0.94651525 </v>
   <v>       0.13542360       0.98783223       0.30315754 </v>
   <v>       0.04909863       0.92001520       0.97893031 </v>
   <v>       0.99564090       0.15040605       0.47552710 </v>
   <v>       0.74572635       0.65319099       0.84125420 </v>
   <v>       0.93114276       0.42423182       0.19370337 </v>
   <v>       0.31869421       0.87135344       0.58540399 </v>
   <v>       0.63527120       0.72601559       0.00010126 </v>
   <v>       0.25148797       0.06053522       0.57967310 </v>
   <v>       0.79259986       0.35084144       0.07585406 </v>
   <v>       0.70041760       0.63712235       0.59936496 </v>
   <v>       0.94849940       0.86425480       0.10898243 </v>
   <v>       0.65927379       0.79722313       0.70931984 </v>
   <v>       0.77780599       0.83817430       0.54849485 </v>
   <v>       0.33865778       0.42859002       0.11459141 </v>
   <v>       0.90852847       0.22595718       0.21670169 </v>
   <v>       0.93155811       0.74368355       0.52540713 </v>
   <v>       0.49725280       0.19363678       0.15059149 </v>
   <v>       0.44600387       0.59232191       0.20312131 </v>
   <v>       0.39136676       0.25722574       0.77583787 </v>
   <v>       0.31076292       0.27373784       0.60777740 </v>
   <v>       0.46724880       0.23259171       0.34009606 </v>
   <v>       0.27193964       0.68794469       0.57634008 </v>
   <v>       0.69674227       0.12056353       0.05150360 </v>
   <v>       0.20903081       0.51851814       0.79631372 </v>
   <v>       0.66051427       0.46342465       0.40309019 </v>
   <v>       0.41297407       0.63411243       0.83667659 </v>
   <v>       0.18937507       0.45853937       0.56646921 </v>
   <v>       0.66673614       0.13190980       0.27439869 </v>
   <v>       0.69779897       0.51772730       0.99088453 </v>
   <v>       0.08795122       0.42714610       0.30542980 </v>
   <v>       0.29890225       0.02548571       0.17811365 </v>
   <v>       0.63892200       0.06811492       0.47785164 </v>
   <v>       0.41998424       0.72772394       0.36602210 </v>
   <v>       0.75507782       0.84185847       0.18483673 </v>
   <v>       0.17445614       0.30554101       0.95629959 </v>
  </varray>
  <varray name="velocities" >
   <v>       0.00000000       0.00000000       0.00000000 </v>
   <v>       0.00000000       0.00000000       0.00000000 </v>
   <v>       0.00000000       0.00000000       0.00000000 </v>
   <v>       0.00000000       0.00000000       0.00000000 </v>
   <v>       0.00000000       0.00000000       0.00000000 </v>
   <v>       0.00000000       0.00000000       0.00000000 </v>
   <v>       0.00000000       0.00000000       0.00000000 </v>
   <v>       0.00000000       0.00000000       0.00000000 </v>
   <v>       0.00000000       0.00000000       0.00000000 </v>
   <v>       0.00000000       0.00000000       0.00000000 </v>
   <v>       0.00000000       0.00000000       0.00000000 </v>
   <v>       0.00000000       0.00000000       0.00000000 </v>
   <v>       0.00000000       0.00000000       0.00000000 </v>
   <v>       0.00000000       0.00000000       0.00000000 </v>
   <v>       0.00000000       0.00000000       0.00000000 </v>
   <v>       0.00000000       0.00000000       0.00000000 </v>
   <v>       0.00000000       0.00000000       0.00000000 </v>
   <v>       0.00000000       0.00000000       0.00000000 </v>
   <v>       0.00000000       0.00000000       0.00000000 </v>
   <v>       0.00000000       0.00000000       0.00000000 </v>
   <v>       0.00000000       0.00000000       0.00000000 </v>
   <v>       0.00000000       0.00000000       0.00000000 </v>
   <v>       0.00000000       0.00000000       0.00000000 </v>
   <v>       0.00000000       0.00000000       0.00000000 </v>
   <v>       0.00000000       0.00000000       0.00000000 </v>
   <v>       0.00000000       0.00000000       0.00000000 </v>
   <v>       0.00000000       0.00000000       0.00000000 </v>
   <v>       0.00000000       0.00000000       0.00000000 </v>
   <v>       0.00000000       0.00000000       0.00000000 </v>
   <v>       0.00000000       0.00000000       0.00000000 </v>
   <v>       0.00000000       0.00000000       0.00000000 </v>
   <v>       0.00000000       0.00000000       0.00000000 </v>
   <v>       0.00000000       0.00000000       0.00000000 </v>
   <v>       0.00000000       0.00000000       0.00000000 </v>
   <v>       0.00000000       0.00000000       0.00000000 </v>
   <v>       0.00000000       0.00000000       0.00000000 </v>
   <v>       0.00000000       0.00000000       0.00000000 </v>
   <v>       0.00000000       0.00000000       0.00000000 </v>
   <v>       0.00000000       0.00000000       0.00000000 </v>
   <v>       0.00000000       0.00000000       0.00000000 </v>
   <v>       0.00000000       0.00000000       0.00000000 </v>
   <v>       0.00000000       0.00000000       0.00000000 </v>
   <v>       0.00000000       0.00000000       0.00000000 </v>
   <v>       0.00000000       0.00000000       0.00000000 </v>
   <v>       0.00000000       0.00000000       0.00000000 </v>
   <v>       0.00000000       0.00000000       0.00000000 </v>
   <v>       0.00000000       0.00000000       0.00000000 </v>
   <v>       0.00000000       0.00000000       0.00000000 </v>
   <v>       0.00000000       0.00000000       0.00000000 </v>
   <v>       0.00000000       0.00000000       0.00000000 </v>
   <v>       0.00000000       0.00000000       0.00000000 </v>
   <v>       0.00000000       0.00000000       0.00000000 </v>
   <v>       0.00000000       0.00000000       0.00000000 </v>
   <v>       0.00000000       0.00000000       0.00000000 </v>
   <v>       0.00000000       0.00000000       0.00000000 </v>
   <v>       0.00000000       0.00000000       0.00000000 </v>
   <v>       0.00000000       0.00000000       0.00000000 </v>
   <v>       0.00000000       0.00000000       0.00000000 </v>
   <v>       0.00000000       0.00000000       0.00000000 </v>
   <v>       0.00000000       0.00000000       0.00000000 </v>
   <v>       0.00000000       0.00000000       0.00000000 </v>
   <v>       0.00000000       0.00000000       0.00000000 </v>
   <v>       0.00000000       0.00000000       0.00000000 </v>
   <v>       0.00000000       0.00000000       0.00000000 </v>
   <v>       0.00000000       0.00000000       0.00000000 </v>
   <v>       0.00000000       0.00000000       0.00000000 </v>
   <v>       0.00000000       0.00000000       0.00000000 </v>
   <v>       0.00000000       0.00000000       0.00000000 </v>
   <v>       0.00000000       0.00000000       0.00000000 </v>
   <v>       0.00000000       0.00000000       0.00000000 </v>
   <v>       0.00000000       0.00000000       0.00000000 </v>
   <v>       0.00000000       0.00000000       0.00000000 </v>
   <v>       0.00000000       0.00000000       0.00000000 </v>
   <v>       0.00000000       0.00000000       0.00000000 </v>
   <v>       0.00000000       0.00000000       0.00000000 </v>
   <v>       0.00000000       0.00000000       0.00000000 </v>
   <v>       0.00000000       0.00000000       0.00000000 </v>
   <v>       0.00000000       0.00000000       0.00000000 </v>
   <v>       0.00000000       0.00000000       0.00000000 </v>
   <v>       0.00000000       0.00000000       0.00000000 </v>
   <v>       0.00000000       0.00000000       0.00000000 </v>
   <v>       0.00000000       0.00000000       0.00000000 </v>
   <v>       0.00000000       0.00000000       0.00000000 </v>
   <v>       0.00000000       0.00000000       0.00000000 </v>
   <v>       0.00000000       0.00000000       0.00000000 </v>
   <v>       0.00000000       0.00000000       0.00000000 </v>
   <v>       0.00000000       0.00000000       0.00000000 </v>
   <v>       0.00000000       0.00000000       0.00000000 </v>
   <v>       0.00000000       0.00000000       0.00000000 </v>
   <v>       0.00000000       0.00000000       0.00000000 </v>
   <v>       0.00000000       0.00000000       0.00000000 </v>
   <v>       0.00000000       0.00000000       0.00000000 </v>
   <v>       0.00000000       0.00000000       0.00000000 </v>
   <v>       0.00000000       0.00000000       0.00000000 </v>
   <v>       0.00000000       0.00000000       0.00000000 </v>
   <v>       0.00000000       0.00000000       0.00000000 </v>
   <v>       0.00000000       0.00000000       0.00000000 </v>
   <v>       0.00000000       0.00000000       0.00000000 </v>
   <v>       0.00000000       0.00000000       0.00000000 </v>
   <v>       0.00000000       0.00000000       0.00000000 </v>
   <v>       0.00000000       0.00000000       0.00000000 </v>
   <v>       0.00000000       0.00000000       0.00000000 </v>
   <v>       0.00000000       0.00000000       0.00000000 </v>
   <v>       0.00000000       0.00000000       0.00000000 </v>
   <v>       0.00000000       0.00000000       0.00000000 </v>
   <v>       0.00000000       0.00000000       0.00000000 </v>
   <v>       0.00000000       0.00000000       0.00000000 </v>
   <v>       0.00000000       0.00000000       0.00000000 </v>
   <v>       0.00000000       0.00000000       0.00000000 </v>
   <v>       0.00000000       0.00000000       0.00000000 </v>
   <v>       0.00000000       0.00000000       0.00000000 </v>
   <v>       0.00000000       0.00000000       0.00000000 </v>
   <v>       0.00000000       0.00000000       0.00000000 </v>
   <v>       0.00000000       0.00000000       0.00000000 </v>
   <v>       0.00000000       0.00000000       0.00000000 </v>
   <v>       0.00000000       0.00000000       0.00000000 </v>
   <v>       0.00000000       0.00000000       0.00000000 </v>
   <v>       0.00000000       0.00000000       0.00000000 </v>
   <v>       0.00000000       0.00000000       0.00000000 </v>
   <v>       0.00000000       0.00000000       0.00000000 </v>
   <v>       0.00000000       0.00000000       0.00000000 </v>
   <v>       0.00000000       0.00000000       0.00000000 </v>
   <v>       0.00000000       0.00000000       0.00000000 </v>
   <v>       0.00000000       0.00000000       0.00000000 </v>
   <v>       0.00000000       0.00000000       0.00000000 </v>
   <v>       0.00000000       0.00000000       0.00000000 </v>
   <v>       0.00000000       0.00000000       0.00000000 </v>
   <v>       0.00000000       0.00000000       0.00000000 </v>
   <v>       0.00000000       0.00000000       0.00000000 </v>
   <v>       0.00000000       0.00000000       0.00000000 </v>
   <v>       0.00000000       0.00000000       0.00000000 </v>
   <v>       0.00000000       0.00000000       0.00000000 </v>
   <v>       0.00000000       0.00000000       0.00000000 </v>
   <v>       0.00000000       0.00000000       0.00000000 </v>
   <v>       0.00000000       0.00000000       0.00000000 </v>
  </varray>
 </structure>
</modeling>
