<?xml version="1.0" encoding="ISO-8859-1"?>
<modeling>
 <generator>
  <i name="program" type="string">vasp </i>
  <i name="version" type="string">5.4.4.18Apr17-6-g9f103f2a35  </i>
  <i name="subversion" type="string">(build Mar 16 2023 09:39:13) complex            parallel </i>
  <i name="platform" type="string">LinuxIFC </i>
  <i name="date" type="string">2024 04 29 </i>
  <i name="time" type="string">21:58:59 </i>
 </generator>
 <incar>
  <i type="int" name="ISTART">     0</i>
  <i type="string" name="PREC">a</i>
  <i type="logical" name="ADDGRID"> T  </i>
  <i type="int" name="IBRION">    -1</i>
  <i name="EDIFF">      0.00000100</i>
  <i name="EDIFFG">     -0.01000000</i>
  <i type="int" name="NSW">     1</i>
  <i type="int" name="ISIF">     2</i>
  <i type="int" name="ISYM">     0</i>
  <i name="ENCUT">    600.00000000</i>
  <i name="POTIM">      1.00000000</i>
  <i type="string" name="LREAL">  A</i>
  <i type="int" name="ISMEAR">     0</i>
  <i name="SIGMA">      0.05000000</i>
  <i name="KSPACING">      0.30000000</i>
  <i type="logical" name="KGAMMA"> T  </i>
  <i type="logical" name="LWAVE"> F  </i>
  <i type="logical" name="LCHARG"> F  </i>
  <i type="logical" name="LSCALAPACK"> F  </i>
  <v type="int" name="KPOINT_BSE">    -1     0     0     0</v>
 </incar>
 <structure name="primitive_cell" >
  <crystal>
   <varray name="basis" >
    <v>      11.12194768       0.00000000       0.00000000 </v>
    <v>       0.00000000      11.12194768       0.00000000 </v>
    <v>       0.00000000       0.00000000      11.12194768 </v>
   </varray>
   <i name="volume">   1375.75957216 </i>
   <varray name="rec_basis" >
    <v>       0.08991231       0.00000000       0.00000000 </v>
    <v>       0.00000000       0.08991231       0.00000000 </v>
    <v>       0.00000000       0.00000000       0.08991231 </v>
   </varray>
  </crystal>
  <varray name="positions" >
   <v>       0.31163133      -0.01388047      -0.41413318 </v>
   <v>       0.45718032       0.06662876      -0.31301211 </v>
   <v>       0.38512669      -0.21624380      -0.39173527 </v>
   <v>       0.26439382       0.19110431      -0.35462897 </v>
   <v>       0.15799320      -0.17301623      -0.41926803 </v>
   <v>       0.09308733       0.04004422      -0.37916080 </v>
   <v>       0.33645238       0.16614554       0.44509079 </v>
   <v>       0.29099603       0.01549120      -0.18378409 </v>
   <v>       0.44550424      -0.06531982       0.38609564 </v>
   <v>       0.12949472       0.01321782       0.40154330 </v>
   <v>       0.12912024       0.18786432      -0.35794068 </v>
   <v>       0.04282976      -0.07625297      -0.47566431 </v>
   <v>       0.30401756      -0.18421335      -0.18831610 </v>
   <v>       0.19572628       0.16708531       0.39600449 </v>
   <v>       0.26630599      -0.28742674      -0.33644614 </v>
   <v>       0.42944644       0.25510303      -0.42922336 </v>
   <v>       0.23711518      -0.19624383       0.36433584 </v>
   <v>       0.39797031      -0.08826900      -0.12343191 </v>
   <v>      -0.38335339       0.01080078      -0.32195566 </v>
   <v>       0.11386040      -0.13792573      -0.19275568 </v>
   <v>      -0.46803612      -0.08212217      -0.18509501 </v>
   <v>       0.09289574       0.22392948       0.49523668 </v>
   <v>      -0.42580335       0.07699302       0.39052775 </v>
   <v>      -0.46817743      -0.23066684      -0.27045507 </v>
   <v>      -0.48821515      -0.21912227       0.38994571 </v>
   <v>       0.39638448       0.22922720      -0.17946768 </v>
   <v>       0.18870906       0.10000534      -0.09457982 </v>
   <v>       0.27197208      -0.38750615      -0.47757055 </v>
   <v>      -0.30812459       0.04820517      -0.44807859 </v>
   <v>       0.01940549      -0.17287125       0.38183297 </v>
   <v>       0.21703018      -0.04129389       0.20667323 </v>
   <v>       0.20865782       0.16065804       0.24417270 </v>
   <v>      -0.37773587      -0.24975981      -0.48994999 </v>
   <v>       0.04277314       0.06950642      -0.13338856 </v>
   <v>       0.24871921      -0.10974555      -0.02931805 </v>
   <v>       0.15671233      -0.35911110      -0.27932850 </v>
   <v>       0.01939598       0.24342531      -0.29179128 </v>
   <v>       0.42773203      -0.31804155       0.33414271 </v>
   <v>      -0.46150148       0.29290672       0.42647590 </v>
   <v>      -0.09360342       0.00924077       0.48896542 </v>
   <v>      -0.08793705      -0.14154200      -0.39053785 </v>
   <v>       0.42452086       0.10214737       0.19195521 </v>
   <v>       0.18055317       0.24469555      -0.10024216 </v>
   <v>      -0.09708762       0.10153270      -0.34279347 </v>
   <v>       0.29707068       0.07078520       0.16374472 </v>
   <v>       0.36077364      -0.41790795      -0.26665470 </v>
   <v>      -0.28445421      -0.11692248      -0.27029419 </v>
   <v>       0.27970591       0.40951677       0.45522925 </v>
   <v>       0.42441186       0.40651427      -0.32314166 </v>
   <v>       0.42839406      -0.02037450       0.01762179 </v>
   <v>      -0.30021890       0.09497046      -0.21885163 </v>
   <v>       0.47903094      -0.22853584      -0.05480010 </v>
   <v>      -0.00508820      -0.02205303       0.26476307 </v>
   <v>       0.32173523      -0.25816113       0.19516761 </v>
   <v>      -0.37389941      -0.18208998       0.29334935 </v>
   <v>       0.44736501      -0.13090145       0.16044114 </v>
   <v>      -0.03981688      -0.31364479      -0.40782463 </v>
   <v>       0.21353496       0.42686176      -0.28516768 </v>
   <v>       0.07307380      -0.37742216       0.40533749 </v>
   <v>       0.20665850       0.09737399       0.03157555 </v>
   <v>       0.35381395      -0.36828738      -0.08491829 </v>
   <v>       0.46102330      -0.46820306       0.49763750 </v>
   <v>       0.36850050       0.34745171       0.25762451 </v>
   <v>      -0.40575320       0.17160860      -0.05481218 </v>
   <v>      -0.37944481       0.32797364      -0.23468571 </v>
   <v>      -0.21696998      -0.12752710       0.47465087 </v>
   <v>       0.17763702      -0.47933743       0.44297497 </v>
   <v>      -0.37717831       0.02118260       0.18818191 </v>
   <v>      -0.30165418       0.31390855      -0.40660157 </v>
   <v>      -0.34110315      -0.03097202      -0.04105769 </v>
   <v>       0.07349343       0.32732755       0.27976469 </v>
   <v>      -0.11981509      -0.06925310      -0.13391261 </v>
   <v>      -0.07487878      -0.27649683      -0.18613496 </v>
   <v>       0.10028293      -0.37099586      -0.09964372 </v>
   <v>      -0.09004861       0.13844688       0.29077774 </v>
   <v>      -0.22778184      -0.00369876       0.33877320 </v>
   <v>      -0.28609374       0.22326565       0.34500062 </v>
   <v>      -0.15915259       0.21246307      -0.48020722 </v>
   <v>       0.38517904       0.41589840      -0.11847215 </v>
   <v>      -0.05242824       0.36000478      -0.34024429 </v>
   <v>       0.18059232      -0.14016746       0.08781804 </v>
   <v>       0.37416476       0.25709621       0.04355978 </v>
   <v>      -0.41772422      -0.47155906      -0.34262479 </v>
   <v>      -0.30781276      -0.27073976      -0.13431079 </v>
   <v>       0.07939678       0.47175806      -0.42849852 </v>
   <v>       0.04069467      -0.07498937       0.05021907 </v>
   <v>      -0.07226064      -0.30486814       0.33912431 </v>
   <v>       0.40012108      -0.39020593       0.20612636 </v>
   <v>      -0.37488894       0.32519276       0.29702282 </v>
   <v>      -0.49347054       0.15174231       0.07089196 </v>
   <v>      -0.18173469       0.13097743       0.39510272 </v>
   <v>       0.09644852      -0.27884519       0.15312737 </v>
   <v>      -0.27669833       0.23383988      -0.14331514 </v>
   <v>      -0.06028506       0.04652393      -0.00835609 </v>
   <v>       0.49670246       0.47333915      -0.22429678 </v>
   <v>      -0.02029130       0.29315886      -0.08798354 </v>
   <v>      -0.42803314      -0.42097921      -0.12969096 </v>
   <v>       0.28581163      -0.47563870       0.26738909 </v>
   <v>      -0.28044655      -0.07481849       0.20386816 </v>
   <v>      -0.17817536      -0.19498489      -0.20508655 </v>
   <v>       0.07623482       0.26813069       0.15339941 </v>
   <v>      -0.28736726      -0.42186994      -0.41945463 </v>
   <v>      -0.21556820      -0.33839912      -0.32811761 </v>
   <v>      -0.06354802       0.39025639       0.39977621 </v>
   <v>      -0.42416252       0.26763916       0.14692058 </v>
   <v>      -0.37949815      -0.31972827      -0.01507370 </v>
   <v>       0.01622411       0.16772897       0.06395201 </v>
   <v>       0.20335551       0.32818129       0.11293451 </v>
   <v>       0.27516881       0.40163012       0.01228573 </v>
   <v>      -0.32200993      -0.36742532       0.26784448 </v>
   <v>      -0.16843579       0.30546947      -0.23980387 </v>
   <v>      -0.03684153       0.44979802      -0.22989590 </v>
   <v>      -0.15470520       0.15871702      -0.05737950 </v>
   <v>      -0.32152946      -0.48828540       0.46302377 </v>
   <v>      -0.17049521      -0.20635878       0.25867905 </v>
   <v>       0.17874000       0.47603814      -0.06931937 </v>
   <v>      -0.16938426      -0.36170705       0.42677782 </v>
   <v>      -0.47895017       0.47420085       0.27607235 </v>
   <v>      -0.47758168      -0.37845284       0.11067163 </v>
   <v>      -0.29246167      -0.20625596       0.06002752 </v>
   <v>       0.09196601      -0.47895097       0.16436798 </v>
   <v>      -0.08137582      -0.26328779       0.06089260 </v>
   <v>       0.33745301      -0.46132306       0.07834749 </v>
   <v>      -0.15601073       0.46035225      -0.41967307 </v>
   <v>      -0.08849240      -0.43078722       0.25105469 </v>
   <v>      -0.21948631       0.18304143       0.15271907 </v>
   <v>      -0.25983585       0.39910394       0.24473292 </v>
   <v>      -0.42509040       0.43560210       0.03831221 </v>
   <v>      -0.04956750      -0.44082845      -0.00431798 </v>
   <v>      -0.22886366      -0.47223668      -0.16799547 </v>
   <v>      -0.23016895       0.36985250      -0.04659263 </v>
   <v>      -0.18685641      -0.01321863       0.08392969 </v>
   <v>      -0.02636291       0.36339525       0.08157519 </v>
   <v>      -0.26427433      -0.45042609       0.07649504 </v>
   <v>      -0.13986410       0.46686660       0.10440047 </v>
  </varray>
 </structure>
 <varray name="primitive_index" >
  <v type="int" >        1 </v>
  <v type="int" >       59 </v>
  <v type="int" >       92 </v>
  <v type="int" >      134 </v>
  <v type="int" >       80 </v>
  <v type="int" >      103 </v>
  <v type="int" >      101 </v>
  <v type="int" >       84 </v>
  <v type="int" >      112 </v>
  <v type="int" >      121 </v>
  <v type="int" >       44 </v>
  <v type="int" >       28 </v>
  <v type="int" >      124 </v>
  <v type="int" >       45 </v>
  <v type="int" >       30 </v>
  <v type="int" >       13 </v>
  <v type="int" >       24 </v>
  <v type="int" >       33 </v>
  <v type="int" >       54 </v>
  <v type="int" >       25 </v>
  <v type="int" >       86 </v>
  <v type="int" >       76 </v>
  <v type="int" >        3 </v>
  <v type="int" >       22 </v>
  <v type="int" >       39 </v>
  <v type="int" >       11 </v>
  <v type="int" >       36 </v>
  <v type="int" >       81 </v>
  <v type="int" >       94 </v>
  <v type="int" >       64 </v>
  <v type="int" >       70 </v>
  <v type="int" >      130 </v>
  <v type="int" >       55 </v>
  <v type="int" >       93 </v>
  <v type="int" >       88 </v>
  <v type="int" >      129 </v>
  <v type="int" >       71 </v>
  <v type="int" >      123 </v>
  <v type="int" >      106 </v>
  <v type="int" >       62 </v>
  <v type="int" >      113 </v>
  <v type="int" >      100 </v>
  <v type="int" >       67 </v>
  <v type="int" >       20 </v>
  <v type="int" >       43 </v>
  <v type="int" >       91 </v>
  <v type="int" >       79 </v>
  <v type="int" >       90 </v>
  <v type="int" >      131 </v>
  <v type="int" >      128 </v>
  <v type="int" >       63 </v>
  <v type="int" >       77 </v>
  <v type="int" >       17 </v>
  <v type="int" >      105 </v>
  <v type="int" >       65 </v>
  <v type="int" >       26 </v>
  <v type="int" >        2 </v>
  <v type="int" >        6 </v>
  <v type="int" >      133 </v>
  <v type="int" >       56 </v>
  <v type="int" >       19 </v>
  <v type="int" >       18 </v>
  <v type="int" >       12 </v>
  <v type="int" >      107 </v>
  <v type="int" >       99 </v>
  <v type="int" >        5 </v>
  <v type="int" >       52 </v>
  <v type="int" >       58 </v>
  <v type="int" >       21 </v>
  <v type="int" >        7 </v>
  <v type="int" >       73 </v>
  <v type="int" >      116 </v>
  <v type="int" >      122 </v>
  <v type="int" >        9 </v>
  <v type="int" >      135 </v>
  <v type="int" >      118 </v>
  <v type="int" >      127 </v>
  <v type="int" >      117 </v>
  <v type="int" >       87 </v>
  <v type="int" >       29 </v>
  <v type="int" >       49 </v>
  <v type="int" >      110 </v>
  <v type="int" >       95 </v>
  <v type="int" >       78 </v>
  <v type="int" >       69 </v>
  <v type="int" >      109 </v>
  <v type="int" >       47 </v>
  <v type="int" >       48 </v>
  <v type="int" >       46 </v>
  <v type="int" >       35 </v>
  <v type="int" >       34 </v>
  <v type="int" >       75 </v>
  <v type="int" >       38 </v>
  <v type="int" >       32 </v>
  <v type="int" >       42 </v>
  <v type="int" >       27 </v>
  <v type="int" >       72 </v>
  <v type="int" >      119 </v>
  <v type="int" >       51 </v>
  <v type="int" >       31 </v>
  <v type="int" >       41 </v>
  <v type="int" >       50 </v>
  <v type="int" >      126 </v>
  <v type="int" >       15 </v>
  <v type="int" >       96 </v>
  <v type="int" >       37 </v>
  <v type="int" >       82 </v>
  <v type="int" >      111 </v>
  <v type="int" >       53 </v>
  <v type="int" >       10 </v>
  <v type="int" >       74 </v>
  <v type="int" >       83 </v>
  <v type="int" >      108 </v>
  <v type="int" >      132 </v>
  <v type="int" >      102 </v>
  <v type="int" >       98 </v>
  <v type="int" >       97 </v>
  <v type="int" >       66 </v>
  <v type="int" >       60 </v>
  <v type="int" >       61 </v>
  <v type="int" >       23 </v>
  <v type="int" >       14 </v>
  <v type="int" >       89 </v>
  <v type="int" >       68 </v>
  <v type="int" >      104 </v>
  <v type="int" >       16 </v>
  <v type="int" >      114 </v>
  <v type="int" >        4 </v>
  <v type="int" >      115 </v>
  <v type="int" >        8 </v>
  <v type="int" >      120 </v>
  <v type="int" >       85 </v>
  <v type="int" >       57 </v>
  <v type="int" >      125 </v>
  <v type="int" >       40 </v>
 </varray>
 <kpoints>
  <generation param="Gamma">
   <v type="int" name="divisions">       2        2        2 </v>
   <v name="usershift">      0.00000000       0.00000000       0.00000000 </v>
   <v name="genvec1">      0.50000000       0.00000000       0.00000000 </v>
   <v name="genvec2">      0.00000000       0.50000000       0.00000000 </v>
   <v name="genvec3">      0.00000000       0.00000000       0.50000000 </v>
   <v name="shift">      0.00000000       0.00000000       0.00000000 </v>
  </generation>
  <varray name="kpointlist" >
   <v>       0.00000000       0.00000000       0.00000000 </v>
   <v>       0.50000000       0.00000000       0.00000000 </v>
   <v>       0.00000000       0.50000000       0.00000000 </v>
   <v>       0.50000000       0.50000000       0.00000000 </v>
   <v>       0.00000000       0.00000000       0.50000000 </v>
   <v>       0.50000000       0.00000000       0.50000000 </v>
   <v>       0.00000000       0.50000000       0.50000000 </v>
   <v>       0.50000000       0.50000000       0.50000000 </v>
  </varray>
  <varray name="weights" >
   <v>       0.12500000 </v>
   <v>       0.12500000 </v>
   <v>       0.12500000 </v>
   <v>       0.12500000 </v>
   <v>       0.12500000 </v>
   <v>       0.12500000 </v>
   <v>       0.12500000 </v>
   <v>       0.12500000 </v>
  </varray>
 </kpoints>
 <parameters>
  <separator name="general" >
   <i type="string" name="SYSTEM">unknown system</i>
   <i type="logical" name="LCOMPAT"> F  </i>
  </separator>
  <separator name="electronic" >
   <i type="string" name="PREC">a</i>
   <i name="ENMAX">    600.00000000</i>
   <i name="ENAUG">    605.39200000</i>
   <i name="EDIFF">      0.00000100</i>
   <i type="int" name="IALGO">    38</i>
   <i type="int" name="IWAVPR">    10</i>
   <i type="int" name="NBANDS">   520</i>
   <i name="NELECT">    864.00000000</i>
   <i type="int" name="TURBO">     0</i>
   <i type="int" name="IRESTART">     0</i>
   <i type="int" name="NREBOOT">     0</i>
   <i type="int" name="NMIN">     0</i>
   <i name="EREF">      0.00000000</i>
   <separator name="electronic smearing" >
    <i type="int" name="ISMEAR">     0</i>
    <i name="SIGMA">      0.05000000</i>
    <i name="KSPACING">      0.30000000</i>
    <i type="logical" name="KGAMMA"> T  </i>
   </separator>
   <separator name="electronic projectors" >
    <i type="logical" name="LREAL"> T  </i>
    <v name="ROPT">     -0.00025000     -0.00025000     -0.00025000</v>
    <i type="int" name="LMAXPAW">  -100</i>
    <i type="int" name="LMAXMIX">     2</i>
    <i type="logical" name="NLSPLINE"> F  </i>
   </separator>
   <separator name="electronic startup" >
    <i type="int" name="ISTART">     0</i>
    <i type="int" name="ICHARG">     2</i>
    <i type="int" name="INIWAV">     1</i>
   </separator>
   <separator name="electronic spin" >
    <i type="int" name="ISPIN">     1</i>
    <i type="logical" name="LNONCOLLINEAR"> F  </i>
    <v name="MAGMOM">      1.00000000      1.00000000      1.00000000      1.00000000      1.00000000      1.00000000      1.00000000      1.00000000      1.00000000      1.00000000      1.00000000      1.00000000      1.00000000      1.00000000      1.00000000      1.00000000      1.00000000      1.00000000      1.00000000      1.00000000
      1.00000000      1.00000000      1.00000000      1.00000000      1.00000000      1.00000000      1.00000000      1.00000000      1.00000000      1.00000000      1.00000000      1.00000000      1.00000000      1.00000000      1.00000000      1.00000000      1.00000000      1.00000000      1.00000000      1.00000000
      1.00000000      1.00000000      1.00000000      1.00000000      1.00000000      1.00000000      1.00000000      1.00000000      1.00000000      1.00000000      1.00000000      1.00000000      1.00000000      1.00000000      1.00000000      1.00000000      1.00000000      1.00000000      1.00000000      1.00000000
      1.00000000      1.00000000      1.00000000      1.00000000      1.00000000      1.00000000      1.00000000      1.00000000      1.00000000      1.00000000      1.00000000      1.00000000      1.00000000      1.00000000      1.00000000      1.00000000      1.00000000      1.00000000      1.00000000      1.00000000
      1.00000000      1.00000000      1.00000000      1.00000000      1.00000000      1.00000000      1.00000000      1.00000000      1.00000000      1.00000000      1.00000000      1.00000000      1.00000000      1.00000000      1.00000000      1.00000000      1.00000000      1.00000000      1.00000000      1.00000000
      1.00000000      1.00000000      1.00000000      1.00000000      1.00000000      1.00000000      1.00000000      1.00000000      1.00000000      1.00000000      1.00000000      1.00000000      1.00000000      1.00000000      1.00000000      1.00000000      1.00000000      1.00000000      1.00000000      1.00000000
      1.00000000      1.00000000      1.00000000      1.00000000      1.00000000      1.00000000      1.00000000      1.00000000      1.00000000      1.00000000      1.00000000      1.00000000      1.00000000      1.00000000      1.00000000</v>
    <i name="NUPDOWN">     -1.00000000</i>
    <i type="logical" name="LSORBIT"> F  </i>
    <v name="SAXIS">      0.00000000      0.00000000      1.00000000</v>
    <i type="logical" name="LSPIRAL"> F  </i>
    <v name="QSPIRAL">      0.00000000      0.00000000      0.00000000</v>
    <i type="logical" name="LZEROZ"> F  </i>
   </separator>
   <separator name="electronic exchange-correlation" >
    <i type="logical" name="LASPH"> F  </i>
    <i type="logical" name="LMETAGGA"> F  </i>
   </separator>
   <separator name="electronic convergence" >
    <i type="int" name="NELM">    60</i>
    <i type="int" name="NELMDL">    -5</i>
    <i type="int" name="NELMIN">     2</i>
    <i name="ENINI">    600.00000000</i>
    <separator name="electronic convergence detail" >
     <i type="logical" name="LDIAG"> T  </i>
     <i type="logical" name="LSUBROT"> F  </i>
     <i name="WEIMIN">      0.00000000</i>
     <i name="EBREAK">      0.00000000</i>
     <i name="DEPER">      0.30000000</i>
     <i type="int" name="NRMM">     4</i>
     <i name="TIME">      0.40000000</i>
    </separator>
   </separator>
   <separator name="electronic mixer" >
    <i name="AMIX">      0.40000000</i>
    <i name="BMIX">      1.00000000</i>
    <i name="AMIN">      0.10000000</i>
    <i name="AMIX_MAG">      1.60000000</i>
    <i name="BMIX_MAG">      1.00000000</i>
    <separator name="electronic mixer details" >
     <i type="int" name="IMIX">     4</i>
     <i type="logical" name="MIXFIRST"> F  </i>
     <i type="int" name="MAXMIX">   -45</i>
     <i name="WC">    100.00000000</i>
     <i type="int" name="INIMIX">     1</i>
     <i type="int" name="MIXPRE">     1</i>
     <i type="int" name="MREMOVE">     5</i>
    </separator>
   </separator>
   <separator name="electronic dipolcorrection" >
    <i type="logical" name="LDIPOL"> F  </i>
    <i type="logical" name="LMONO"> F  </i>
    <i type="int" name="IDIPOL">     0</i>
    <i name="EPSILON">      1.00000000</i>
    <v name="DIPOL">   -100.00000000   -100.00000000   -100.00000000</v>
    <i name="EFIELD">      0.00000000</i>
   </separator>
  </separator>
  <separator name="grids" >
   <i type="int" name="NGX">    90</i>
   <i type="int" name="NGY">    90</i>
   <i type="int" name="NGZ">    90</i>
   <i type="int" name="NGXF">   180</i>
   <i type="int" name="NGYF">   180</i>
   <i type="int" name="NGZF">   180</i>
   <i type="logical" name="ADDGRID"> T  </i>
  </separator>
  <separator name="ionic" >
   <i type="int" name="NSW">     1</i>
   <i type="int" name="IBRION">    -1</i>
   <i type="int" name="MDALGO">     0</i>
   <i type="int" name="ISIF">     2</i>
   <i name="PSTRESS">      0.00000000</i>
   <i name="EDIFFG">     -0.01000000</i>
   <i type="int" name="NFREE">     0</i>
   <i name="POTIM">      1.00000000</i>
   <i name="SMASS">     -3.00000000</i>
   <i name="SCALEE">      1.00000000</i>
  </separator>
  <separator name="ionic md" >
   <i name="TEBEG">      0.00010000</i>
   <i name="TEEND">      0.00010000</i>
   <i type="int" name="NBLOCK">     1</i>
   <i type="int" name="KBLOCK">     1</i>
   <i type="int" name="NPACO">   256</i>
   <i name="APACO">     16.00000000</i>
  </separator>
  <separator name="symmetry" >
   <i type="int" name="ISYM">     0</i>
   <i name="SYMPREC">      0.00001000</i>
  </separator>
  <separator name="dos" >
   <i type="int" name="LORBIT">     0</i>
   <v name="RWIGS">     -1.00000000     -1.00000000     -1.00000000</v>
   <i type="int" name="NEDOS">   301</i>
   <i name="EMIN">     10.00000000</i>
   <i name="EMAX">    -10.00000000</i>
   <i name="EFERMI">      0.00000000</i>
  </separator>
  <separator name="writing" >
   <i type="int" name="NWRITE">     2</i>
   <i type="logical" name="LWAVE"> F  </i>
   <i type="logical" name="LDOWNSAMPLE"> F  </i>
   <i type="logical" name="LCHARG"> F  </i>
   <i type="logical" name="LPARD"> F  </i>
   <i type="logical" name="LVTOT"> F  </i>
   <i type="logical" name="LVHAR"> F  </i>
   <i type="logical" name="LELF"> F  </i>
   <i type="logical" name="LOPTICS"> F  </i>
   <v name="STM">      0.00000000      0.00000000      0.00000000      0.00000000      0.00000000      0.00000000      0.00000000</v>
  </separator>
  <separator name="performance" >
   <i type="int" name="NPAR">     4</i>
   <i type="int" name="NSIM">     4</i>
   <i type="int" name="NBLK">    -1</i>
   <i type="logical" name="LPLANE"> T  </i>
   <i type="logical" name="LSCALAPACK"> F  </i>
   <i type="logical" name="LSCAAWARE"> F  </i>
   <i type="logical" name="LSCALU"> F  </i>
   <i type="logical" name="LASYNC"> F  </i>
   <i type="logical" name="LORBITALREAL"> F  </i>
  </separator>
  <separator name="miscellaneous" >
   <i type="int" name="IDIOT">     3</i>
   <i type="int" name="ISPECIAL">     0</i>
   <i type="logical" name="LMUSIC"> F  </i>
   <v name="POMASS">     40.07800000     28.08500000     16.00000000</v>
   <v name="DARWINR">      0.00000000      0.00000000      0.00000000</v>
   <v name="DARWINV">      1.00000000      1.00000000      1.00000000</v>
   <i type="logical" name="LCORR"> T  </i>
  </separator>
  <i type="logical" name="GGA_COMPAT"> T  </i>
  <i type="logical" name="LBERRY"> F  </i>
  <i type="int" name="ICORELEVEL">     0</i>
  <i type="logical" name="LDAU"> F  </i>
  <i type="int" name="I_CONSTRAINED_M">     0</i>
  <separator name="electronic exchange-correlation" >
   <i type="string" name="GGA">--</i>
   <i type="int" name="VOSKOWN">     0</i>
   <i type="logical" name="LHFCALC"> F  </i>
   <i type="string" name="PRECFOCK"></i>
   <i type="logical" name="LSYMGRAD"> F  </i>
   <i type="logical" name="LHFONE"> F  </i>
   <i type="logical" name="LRHFCALC"> F  </i>
   <i type="logical" name="LTHOMAS"> F  </i>
   <i type="logical" name="LMODELHF"> F  </i>
   <i name="ENCUT4O">     -1.00000000</i>
   <i type="int" name="EXXOEP">     0</i>
   <i type="int" name="FOURORBIT">     0</i>
   <i name="AEXX">      0.00000000</i>
   <i name="HFALPHA">      0.00000000</i>
   <i name="MCALPHA">      0.00000000</i>
   <i name="ALDAX">      1.00000000</i>
   <i name="AGGAX">      1.00000000</i>
   <i name="ALDAC">      1.00000000</i>
   <i name="AGGAC">      1.00000000</i>
   <i type="int" name="NKREDX">     1</i>
   <i type="int" name="NKREDY">     1</i>
   <i type="int" name="NKREDZ">     1</i>
   <i type="logical" name="SHIFTRED"> F  </i>
   <i type="logical" name="ODDONLY"> F  </i>
   <i type="logical" name="EVENONLY"> F  </i>
   <i type="int" name="LMAXFOCK">     0</i>
   <i type="int" name="NMAXFOCKAE">     0</i>
   <i type="logical" name="LFOCKAEDFT"> F  </i>
   <i name="HFSCREEN">      0.00000000</i>
   <i name="HFSCREENC">      0.00000000</i>
   <i type="int" name="NBANDSGWLOW">     0</i>
  </separator>
  <separator name="vdW DFT" >
   <i type="logical" name="LUSE_VDW"> F  </i>
   <i name="Zab_VDW">     -0.84910000</i>
   <i name="PARAM1">      0.12340000</i>
   <i name="PARAM2">      1.00000000</i>
   <i name="PARAM3">      0.00000000</i>
  </separator>
  <separator name="model GW" >
   <i type="int" name="MODEL_GW">     0</i>
   <i name="MODEL_EPS0">      6.11448699</i>
   <i name="MODEL_ALPHA">      1.00000000</i>
  </separator>
  <separator name="linear response parameters" >
   <i type="logical" name="LEPSILON"> F  </i>
   <i type="logical" name="LRPA"> F  </i>
   <i type="logical" name="LNABLA"> F  </i>
   <i type="logical" name="LVEL"> F  </i>
   <i type="int" name="KINTER">     0</i>
   <i name="CSHIFT">      0.10000000</i>
   <i name="OMEGAMAX">     -1.00000000</i>
   <i name="DEG_THRESHOLD">      0.00200000</i>
   <i name="RTIME">     -0.10000000</i>
   <i name="WPLASMAI">      0.00000000</i>
   <v name="DFIELD">      0.00000000      0.00000000      0.00000000</v>
   <v name="WPLASMA">      0.00000000      0.00000000      0.00000000      0.00000000      0.00000000      0.00000000      0.00000000      0.00000000      0.00000000</v>
  </separator>
  <separator name="orbital magnetization" >
   <i type="logical" name="NUCIND"> F  </i>
   <v name="MAGPOS">      0.00000000      0.00000000      0.00000000</v>
   <i type="logical" name="LNICSALL"> T  </i>
   <i type="logical" name="ORBITALMAG"> F  </i>
   <i type="logical" name="LMAGBLOCH"> F  </i>
   <i type="logical" name="LCHIMAG"> F  </i>
   <i type="logical" name="LGAUGE"> T  </i>
   <i type="int" name="MAGATOM">     0</i>
   <v name="MAGDIPOL">      0.00000000      0.00000000      0.00000000</v>
   <v name="AVECCONST">      0.00000000      0.00000000      0.00000000</v>
  </separator>
  <separator name="response functions" >
   <i type="logical" name="LADDER"> F  </i>
   <i type="logical" name="LRPAFORCE"> F  </i>
   <i type="logical" name="LFXC"> F  </i>
   <i type="logical" name="LHARTREE"> T  </i>
   <i type="int" name="IBSE">     0</i>
   <v type="int" name="KPOINT">    -1     0     0     0</v>
   <i type="logical" name="LTCTE"> F  </i>
   <i type="logical" name="LTETE"> F  </i>
   <i type="logical" name="LTRIPLET"> F  </i>
   <i type="logical" name="LFXCEPS"> F  </i>
   <i type="logical" name="LFXHEG"> F  </i>
   <i type="int" name="NATURALO">     2</i>
   <i type="logical" name="L2ORDER"> F  </i>
   <i type="logical" name="LMP2LT"> F  </i>
   <i type="logical" name="LUSEW"> F  </i>
   <i name="ENCUTGW">     -2.00000000</i>
   <i name="ENCUTGWSOFT">     -2.00000000</i>
   <i name="ENCUTLF">     -1.00000000</i>
   <i type="int" name="LMAXMP2">    -1</i>
   <i name="SCISSOR">      0.00000000</i>
   <i type="int" name="NOMEGA">     0</i>
   <i type="int" name="NOMEGAR">     0</i>
   <i type="int" name="NBANDSGW">    -1</i>
   <i type="int" name="NBANDSO">    -1</i>
   <i type="int" name="NBANDSV">    -1</i>
   <i type="int" name="NELM">     1</i>
   <i type="int" name="NELMHF">     1</i>
   <i type="int" name="DIM">     3</i>
   <i type="int" name="ANTIRES">     0</i>
   <i name="OMEGAMAX">    -30.00000000</i>
   <i name="OMEGAMIN">    -30.00000000</i>
   <i name="OMEGATL">   -200.00000000</i>
   <i type="int" name="OMEGAGRID">   140</i>
   <i name="CSHIFT">     -0.10000000</i>
   <i type="logical" name="SELFENERGY"> F  </i>
   <i type="logical" name="LSPECTRAL"> F  </i>
   <i type="logical" name="LSPECTRALGW"> F  </i>
   <i type="logical" name="LSINGLES"> F  </i>
   <i type="logical" name="LFERMIGW"> F  </i>
   <i type="logical" name="ODDONLYGW"> F  </i>
   <i type="logical" name="EVENONLYGW"> F  </i>
   <i type="int" name="NKREDLFX">     1</i>
   <i type="int" name="NKREDLFY">     1</i>
   <i type="int" name="NKREDLFZ">     1</i>
   <i type="int" name="MAXMEM">  2800</i>
   <i type="int" name="TELESCOPE">     0</i>
   <i type="int" name="TAUPAR">     1</i>
   <i type="int" name="OMEGAPAR">    -1</i>
   <i name="LAMBDA">      1.00000000</i>
  </separator>
  <separator name="External order field" >
   <i name="OFIELD_KAPPA">      0.00000000</i>
   <v name="OFIELD_K">      0.00000000      0.00000000      0.00000000</v>
   <i name="OFIELD_Q6_NEAR">      0.00000000</i>
   <i name="OFIELD_Q6_FAR">      0.00000000</i>
   <i name="OFIELD_A">      0.00000000</i>
  </separator>
 </parameters>
 <atominfo>
  <atoms>     135 </atoms>
  <types>       3 </types>
  <array name="atoms" >
   <dimension dim="1">ion</dimension>
   <field type="string">element</field>
   <field type="int">atomtype</field>
   <set>
    <rc><c>Ca</c><c>   1</c></rc>
    <rc><c>Ca</c><c>   1</c></rc>
    <rc><c>Ca</c><c>   1</c></rc>
    <rc><c>Ca</c><c>   1</c></rc>
    <rc><c>Ca</c><c>   1</c></rc>
    <rc><c>Ca</c><c>   1</c></rc>
    <rc><c>Ca</c><c>   1</c></rc>
    <rc><c>Ca</c><c>   1</c></rc>
    <rc><c>Ca</c><c>   1</c></rc>
    <rc><c>Ca</c><c>   1</c></rc>
    <rc><c>Ca</c><c>   1</c></rc>
    <rc><c>Ca</c><c>   1</c></rc>
    <rc><c>Ca</c><c>   1</c></rc>
    <rc><c>Ca</c><c>   1</c></rc>
    <rc><c>Ca</c><c>   1</c></rc>
    <rc><c>Ca</c><c>   1</c></rc>
    <rc><c>Ca</c><c>   1</c></rc>
    <rc><c>Ca</c><c>   1</c></rc>
    <rc><c>Ca</c><c>   1</c></rc>
    <rc><c>Ca</c><c>   1</c></rc>
    <rc><c>Ca</c><c>   1</c></rc>
    <rc><c>Ca</c><c>   1</c></rc>
    <rc><c>Ca</c><c>   1</c></rc>
    <rc><c>Ca</c><c>   1</c></rc>
    <rc><c>Ca</c><c>   1</c></rc>
    <rc><c>Ca</c><c>   1</c></rc>
    <rc><c>Ca</c><c>   1</c></rc>
    <rc><c>Si</c><c>   2</c></rc>
    <rc><c>Si</c><c>   2</c></rc>
    <rc><c>Si</c><c>   2</c></rc>
    <rc><c>Si</c><c>   2</c></rc>
    <rc><c>Si</c><c>   2</c></rc>
    <rc><c>Si</c><c>   2</c></rc>
    <rc><c>Si</c><c>   2</c></rc>
    <rc><c>Si</c><c>   2</c></rc>
    <rc><c>Si</c><c>   2</c></rc>
    <rc><c>Si</c><c>   2</c></rc>
    <rc><c>Si</c><c>   2</c></rc>
    <rc><c>Si</c><c>   2</c></rc>
    <rc><c>Si</c><c>   2</c></rc>
    <rc><c>Si</c><c>   2</c></rc>
    <rc><c>Si</c><c>   2</c></rc>
    <rc><c>Si</c><c>   2</c></rc>
    <rc><c>Si</c><c>   2</c></rc>
    <rc><c>Si</c><c>   2</c></rc>
    <rc><c>Si</c><c>   2</c></rc>
    <rc><c>Si</c><c>   2</c></rc>
    <rc><c>Si</c><c>   2</c></rc>
    <rc><c>Si</c><c>   2</c></rc>
    <rc><c>Si</c><c>   2</c></rc>
    <rc><c>Si</c><c>   2</c></rc>
    <rc><c>Si</c><c>   2</c></rc>
    <rc><c>Si</c><c>   2</c></rc>
    <rc><c>Si</c><c>   2</c></rc>
    <rc><c>O </c><c>   3</c></rc>
    <rc><c>O </c><c>   3</c></rc>
    <rc><c>O </c><c>   3</c></rc>
    <rc><c>O </c><c>   3</c></rc>
    <rc><c>O </c><c>   3</c></rc>
    <rc><c>O </c><c>   3</c></rc>
    <rc><c>O </c><c>   3</c></rc>
    <rc><c>O </c><c>   3</c></rc>
    <rc><c>O </c><c>   3</c></rc>
    <rc><c>O </c><c>   3</c></rc>
    <rc><c>O </c><c>   3</c></rc>
    <rc><c>O </c><c>   3</c></rc>
    <rc><c>O </c><c>   3</c></rc>
    <rc><c>O </c><c>   3</c></rc>
    <rc><c>O </c><c>   3</c></rc>
    <rc><c>O </c><c>   3</c></rc>
    <rc><c>O </c><c>   3</c></rc>
    <rc><c>O </c><c>   3</c></rc>
    <rc><c>O </c><c>   3</c></rc>
    <rc><c>O </c><c>   3</c></rc>
    <rc><c>O </c><c>   3</c></rc>
    <rc><c>O </c><c>   3</c></rc>
    <rc><c>O </c><c>   3</c></rc>
    <rc><c>O </c><c>   3</c></rc>
    <rc><c>O </c><c>   3</c></rc>
    <rc><c>O </c><c>   3</c></rc>
    <rc><c>O </c><c>   3</c></rc>
    <rc><c>O </c><c>   3</c></rc>
    <rc><c>O </c><c>   3</c></rc>
    <rc><c>O </c><c>   3</c></rc>
    <rc><c>O </c><c>   3</c></rc>
    <rc><c>O </c><c>   3</c></rc>
    <rc><c>O </c><c>   3</c></rc>
    <rc><c>O </c><c>   3</c></rc>
    <rc><c>O </c><c>   3</c></rc>
    <rc><c>O </c><c>   3</c></rc>
    <rc><c>O </c><c>   3</c></rc>
    <rc><c>O </c><c>   3</c></rc>
    <rc><c>O </c><c>   3</c></rc>
    <rc><c>O </c><c>   3</c></rc>
    <rc><c>O </c><c>   3</c></rc>
    <rc><c>O </c><c>   3</c></rc>
    <rc><c>O </c><c>   3</c></rc>
    <rc><c>O </c><c>   3</c></rc>
    <rc><c>O </c><c>   3</c></rc>
    <rc><c>O </c><c>   3</c></rc>
    <rc><c>O </c><c>   3</c></rc>
    <rc><c>O </c><c>   3</c></rc>
    <rc><c>O </c><c>   3</c></rc>
    <rc><c>O </c><c>   3</c></rc>
    <rc><c>O </c><c>   3</c></rc>
    <rc><c>O </c><c>   3</c></rc>
    <rc><c>O </c><c>   3</c></rc>
    <rc><c>O </c><c>   3</c></rc>
    <rc><c>O </c><c>   3</c></rc>
    <rc><c>O </c><c>   3</c></rc>
    <rc><c>O </c><c>   3</c></rc>
    <rc><c>O </c><c>   3</c></rc>
    <rc><c>O </c><c>   3</c></rc>
    <rc><c>O </c><c>   3</c></rc>
    <rc><c>O </c><c>   3</c></rc>
    <rc><c>O </c><c>   3</c></rc>
    <rc><c>O </c><c>   3</c></rc>
    <rc><c>O </c><c>   3</c></rc>
    <rc><c>O </c><c>   3</c></rc>
    <rc><c>O </c><c>   3</c></rc>
    <rc><c>O </c><c>   3</c></rc>
    <rc><c>O </c><c>   3</c></rc>
    <rc><c>O </c><c>   3</c></rc>
    <rc><c>O </c><c>   3</c></rc>
    <rc><c>O </c><c>   3</c></rc>
    <rc><c>O </c><c>   3</c></rc>
    <rc><c>O </c><c>   3</c></rc>
    <rc><c>O </c><c>   3</c></rc>
    <rc><c>O </c><c>   3</c></rc>
    <rc><c>O </c><c>   3</c></rc>
    <rc><c>O </c><c>   3</c></rc>
    <rc><c>O </c><c>   3</c></rc>
    <rc><c>O </c><c>   3</c></rc>
    <rc><c>O </c><c>   3</c></rc>
    <rc><c>O </c><c>   3</c></rc>
   </set>
  </array>
  <array name="atomtypes" >
   <dimension dim="1">type</dimension>
   <field type="int">atomspertype</field>
   <field type="string">element</field>
   <field>mass</field>
   <field>valence</field>
   <field type="string">pseudopotential</field>
   <set>
    <rc><c>  27</c><c>Ca</c><c>     40.07800000</c><c>     10.00000000</c><c>  PAW_PBE Ca_sv 06Sep2000               </c></rc>
    <rc><c>  27</c><c>Si</c><c>     28.08500000</c><c>      4.00000000</c><c>  PAW_PBE Si 05Jan2001                  </c></rc>
    <rc><c>  81</c><c>O </c><c>     16.00000000</c><c>      6.00000000</c><c>  PAW_PBE O 08Apr2002                   </c></rc>
   </set>
  </array>
 </atominfo>
 <structure name="initialpos" >
  <crystal>
   <varray name="basis" >
    <v>      11.12194768       0.00000000       0.00000000 </v>
    <v>       0.00000000      11.12194768       0.00000000 </v>
    <v>       0.00000000       0.00000000      11.12194768 </v>
   </varray>
   <i name="volume">   1375.75957216 </i>
   <varray name="rec_basis" >
    <v>       0.08991231       0.00000000       0.00000000 </v>
    <v>       0.00000000       0.08991231       0.00000000 </v>
    <v>       0.00000000       0.00000000       0.08991231 </v>
   </varray>
  </crystal>
  <varray name="positions" >
   <v>       0.31163133       0.98611953       0.58586682 </v>
   <v>       0.96018312       0.68635521       0.59217537 </v>
   <v>       0.57419665       0.07699302       0.39052775 </v>
   <v>       0.57490960       0.43560210       0.03831221 </v>
   <v>       0.78303002       0.87247290       0.47465087 </v>
   <v>       0.21353496       0.42686176       0.71483232 </v>
   <v>       0.65889685       0.96902798       0.95894231 </v>
   <v>       0.77113634       0.52776332       0.83200453 </v>
   <v>       0.10028293       0.62900414       0.90035628 </v>
   <v>       0.67799007       0.63257468       0.26784448 </v>
   <v>       0.39638448       0.22922720       0.82053232 </v>
   <v>       0.36850050       0.34745171       0.25762451 </v>
   <v>       0.42944644       0.25510303       0.57077664 </v>
   <v>       0.91862418       0.73671221       0.06089260 </v>
   <v>       0.93645198       0.39025639       0.39977621 </v>
   <v>       0.78051369       0.18304143       0.15271907 </v>
   <v>       0.99491180       0.97794697       0.26476307 </v>
   <v>       0.46102330       0.53179694       0.49763750 </v>
   <v>       0.35381395       0.63171262       0.91508171 </v>
   <v>       0.90291238       0.10153270       0.65720653 </v>
   <v>       0.69834582       0.31390855       0.59339843 </v>
   <v>       0.53182257       0.76933316       0.72954493 </v>
   <v>       0.09196601       0.52104903       0.16436798 </v>
   <v>       0.23711518       0.80375617       0.36433584 </v>
   <v>       0.11386040       0.86207427       0.80724432 </v>
   <v>       0.44736501       0.86909855       0.16044114 </v>
   <v>       0.97970870       0.29315886       0.91201646 </v>
   <v>       0.04282976       0.92374703       0.52433569 </v>
   <v>       0.94757176       0.36000478       0.65975571 </v>
   <v>       0.26630599       0.71257326       0.66355386 </v>
   <v>       0.82182464       0.80501511       0.79491345 </v>
   <v>       0.93971494       0.04652393       0.99164391 </v>
   <v>       0.39797031       0.91173100       0.87656809 </v>
   <v>       0.81826531       0.13097743       0.39510272 </v>
   <v>       0.50652946       0.15174231       0.07089196 </v>
   <v>       0.18870906       0.10000534       0.90542018 </v>
   <v>       0.62050185       0.68027173       0.98492630 </v>
   <v>       0.72330167       0.23383988       0.85668486 </v>
   <v>       0.51178485       0.78087773       0.38994571 </v>
   <v>       0.86013590       0.46686660       0.10440047 </v>
   <v>       0.07623482       0.26813069       0.15339941 </v>
   <v>       0.49670246       0.47333915       0.77570322 </v>
   <v>       0.29707068       0.07078520       0.16374472 </v>
   <v>       0.12912024       0.18786432       0.64205932 </v>
   <v>       0.19572628       0.16708531       0.39600449 </v>
   <v>       0.62511106       0.32519276       0.29702282 </v>
   <v>       0.92773936       0.69513186       0.33912431 </v>
   <v>       0.40012108       0.60979407       0.20612636 </v>
   <v>       0.18059232       0.85983254       0.08781804 </v>
   <v>       0.71263274       0.57813006       0.58054537 </v>
   <v>       0.71955345       0.92518151       0.20386816 </v>
   <v>       0.17763702       0.52066257       0.44297497 </v>
   <v>       0.27516881       0.40163012       0.01228573 </v>
   <v>       0.61664661       0.01080078       0.67804434 </v>
   <v>       0.62226413       0.75024019       0.51005001 </v>
   <v>       0.20665850       0.09737399       0.03157555 </v>
   <v>       0.97363709       0.36339525       0.08157519 </v>
   <v>       0.62282169       0.02118260       0.18818191 </v>
   <v>       0.45718032       0.06662876       0.68698789 </v>
   <v>       0.52241832       0.62154716       0.11067163 </v>
   <v>       0.70753833       0.79374404       0.06002752 </v>
   <v>       0.90639658       0.00924077       0.48896542 </v>
   <v>       0.69978110       0.09497046       0.78114837 </v>
   <v>       0.01940549       0.82712875       0.38183297 </v>
   <v>       0.62610059       0.81791002       0.29334935 </v>
   <v>       0.52104983       0.47420085       0.27607235 </v>
   <v>       0.18055317       0.24469555       0.89975784 </v>
   <v>       0.84398927       0.46035225       0.58032693 </v>
   <v>       0.07939678       0.47175806       0.57150148 </v>
   <v>       0.21703018       0.95870611       0.20667323 </v>
   <v>       0.01939598       0.24342531       0.70820872 </v>
   <v>       0.57196686       0.57902079       0.87030904 </v>
   <v>       0.07349343       0.32732755       0.27976469 </v>
   <v>       0.83156421       0.30546947       0.76019613 </v>
   <v>       0.09644852       0.72115481       0.15312737 </v>
   <v>       0.09289574       0.22392948       0.49523668 </v>
   <v>       0.47903094       0.77146416       0.94519990 </v>
   <v>       0.69218724       0.72926024       0.86568921 </v>
   <v>       0.71554579       0.88307752       0.72970581 </v>
   <v>       0.15799320       0.82698377       0.58073197 </v>
   <v>       0.27197208       0.61249385       0.52242945 </v>
   <v>       0.01622411       0.16772897       0.06395201 </v>
   <v>       0.96315847       0.44979802       0.77010410 </v>
   <v>       0.29099603       0.01549120       0.81621591 </v>
   <v>       0.81314359       0.98678137       0.08392969 </v>
   <v>       0.53196388       0.91787783       0.81490499 </v>
   <v>       0.38517904       0.41589840       0.88152785 </v>
   <v>       0.24871921       0.89025445       0.97068195 </v>
   <v>       0.33745301       0.53867694       0.07834749 </v>
   <v>       0.27970591       0.40951677       0.45522925 </v>
   <v>       0.36077364       0.58209205       0.73334530 </v>
   <v>       0.38512669       0.78375620       0.60826473 </v>
   <v>       0.04277314       0.06950642       0.86661144 </v>
   <v>       0.69187541       0.04820517       0.55192141 </v>
   <v>       0.58227578       0.52844094       0.65737521 </v>
   <v>       0.57583748       0.26763916       0.14692058 </v>
   <v>       0.83061574       0.63829295       0.42677782 </v>
   <v>       0.17874000       0.47603814       0.93068063 </v>
   <v>       0.62055519       0.32797364       0.76531429 </v>
   <v>       0.42452086       0.10214737       0.19195521 </v>
   <v>       0.33645238       0.16614554       0.44509079 </v>
   <v>       0.82950479       0.79364122       0.25867905 </v>
   <v>       0.09308733       0.04004422       0.62083920 </v>
   <v>       0.91150760       0.56921278       0.25105469 </v>
   <v>       0.32173523       0.74183887       0.19516761 </v>
   <v>       0.53849852       0.29290672       0.42647590 </v>
   <v>       0.59424680       0.17160860       0.94518782 </v>
   <v>       0.84529480       0.15871702       0.94262050 </v>
   <v>       0.04069467       0.92501063       0.05021907 </v>
   <v>       0.37416476       0.25709621       0.04355978 </v>
   <v>       0.20335551       0.32818129       0.11293451 </v>
   <v>       0.44550424       0.93468018       0.38609564 </v>
   <v>       0.91206295       0.85845800       0.60946215 </v>
   <v>       0.74016415       0.39910394       0.24473292 </v>
   <v>       0.95043250       0.55917155       0.99568202 </v>
   <v>       0.88018491       0.93074690       0.86608739 </v>
   <v>       0.84084741       0.21246307       0.51979278 </v>
   <v>       0.77221816       0.99630124       0.33877320 </v>
   <v>       0.28581163       0.52436130       0.26738909 </v>
   <v>       0.76983105       0.36985250       0.95340737 </v>
   <v>       0.12949472       0.01321782       0.40154330 </v>
   <v>       0.92512122       0.72350317       0.81386504 </v>
   <v>       0.42773203       0.68195845       0.33414271 </v>
   <v>       0.30401756       0.81578665       0.81168390 </v>
   <v>       0.73572567       0.54957391       0.07649504 </v>
   <v>       0.78443180       0.66160088       0.67188239 </v>
   <v>       0.71390626       0.22326565       0.34500062 </v>
   <v>       0.42839406       0.97962550       0.01762179 </v>
   <v>       0.15671233       0.64088890       0.72067150 </v>
   <v>       0.20865782       0.16065804       0.24417270 </v>
   <v>       0.42441186       0.40651427       0.67685834 </v>
   <v>       0.67847054       0.51171460       0.46302377 </v>
   <v>       0.07307380       0.62257784       0.40533749 </v>
   <v>       0.26439382       0.19110431       0.64537103 </v>
   <v>       0.90995139       0.13844688       0.29077774 </v>
  </varray>
  <varray name="velocities" >
   <v>       0.00000000       0.00000000       0.00000000 </v>
   <v>       0.00000000       0.00000000       0.00000000 </v>
   <v>       0.00000000       0.00000000       0.00000000 </v>
   <v>       0.00000000       0.00000000       0.00000000 </v>
   <v>       0.00000000       0.00000000       0.00000000 </v>
   <v>       0.00000000       0.00000000       0.00000000 </v>
   <v>       0.00000000       0.00000000       0.00000000 </v>
   <v>       0.00000000       0.00000000       0.00000000 </v>
   <v>       0.00000000       0.00000000       0.00000000 </v>
   <v>       0.00000000       0.00000000       0.00000000 </v>
   <v>       0.00000000       0.00000000       0.00000000 </v>
   <v>       0.00000000       0.00000000       0.00000000 </v>
   <v>       0.00000000       0.00000000       0.00000000 </v>
   <v>       0.00000000       0.00000000       0.00000000 </v>
   <v>       0.00000000       0.00000000       0.00000000 </v>
   <v>       0.00000000       0.00000000       0.00000000 </v>
   <v>       0.00000000       0.00000000       0.00000000 </v>
   <v>       0.00000000       0.00000000       0.00000000 </v>
   <v>       0.00000000       0.00000000       0.00000000 </v>
   <v>       0.00000000       0.00000000       0.00000000 </v>
   <v>       0.00000000       0.00000000       0.00000000 </v>
   <v>       0.00000000       0.00000000       0.00000000 </v>
   <v>       0.00000000       0.00000000       0.00000000 </v>
   <v>       0.00000000       0.00000000       0.00000000 </v>
   <v>       0.00000000       0.00000000       0.00000000 </v>
   <v>       0.00000000       0.00000000       0.00000000 </v>
   <v>       0.00000000       0.00000000       0.00000000 </v>
   <v>       0.00000000       0.00000000       0.00000000 </v>
   <v>       0.00000000       0.00000000       0.00000000 </v>
   <v>       0.00000000       0.00000000       0.00000000 </v>
   <v>       0.00000000       0.00000000       0.00000000 </v>
   <v>       0.00000000       0.00000000       0.00000000 </v>
   <v>       0.00000000       0.00000000       0.00000000 </v>
   <v>       0.00000000       0.00000000       0.00000000 </v>
   <v>       0.00000000       0.00000000       0.00000000 </v>
   <v>       0.00000000       0.00000000       0.00000000 </v>
   <v>       0.00000000       0.00000000       0.00000000 </v>
   <v>       0.00000000       0.00000000       0.00000000 </v>
   <v>       0.00000000       0.00000000       0.00000000 </v>
   <v>       0.00000000       0.00000000       0.00000000 </v>
   <v>       0.00000000       0.00000000       0.00000000 </v>
   <v>       0.00000000       0.00000000       0.00000000 </v>
   <v>       0.00000000       0.00000000       0.00000000 </v>
   <v>       0.00000000       0.00000000       0.00000000 </v>
   <v>       0.00000000       0.00000000       0.00000000 </v>
   <v>       0.00000000       0.00000000       0.00000000 </v>
   <v>       0.00000000       0.00000000       0.00000000 </v>
   <v>       0.00000000       0.00000000       0.00000000 </v>
   <v>       0.00000000       0.00000000       0.00000000 </v>
   <v>       0.00000000       0.00000000       0.00000000 </v>
   <v>       0.00000000       0.00000000       0.00000000 </v>
   <v>       0.00000000       0.00000000       0.00000000 </v>
   <v>       0.00000000       0.00000000       0.00000000 </v>
   <v>       0.00000000       0.00000000       0.00000000 </v>
   <v>       0.00000000       0.00000000       0.00000000 </v>
   <v>       0.00000000       0.00000000       0.00000000 </v>
   <v>       0.00000000       0.00000000       0.00000000 </v>
   <v>       0.00000000       0.00000000       0.00000000 </v>
   <v>       0.00000000       0.00000000       0.00000000 </v>
   <v>       0.00000000       0.00000000       0.00000000 </v>
   <v>       0.00000000       0.00000000       0.00000000 </v>
   <v>       0.00000000       0.00000000       0.00000000 </v>
   <v>       0.00000000       0.00000000       0.00000000 </v>
   <v>       0.00000000       0.00000000       0.00000000 </v>
   <v>       0.00000000       0.00000000       0.00000000 </v>
   <v>       0.00000000       0.00000000       0.00000000 </v>
   <v>       0.00000000       0.00000000       0.00000000 </v>
   <v>       0.00000000       0.00000000       0.00000000 </v>
   <v>       0.00000000       0.00000000       0.00000000 </v>
   <v>       0.00000000       0.00000000       0.00000000 </v>
   <v>       0.00000000       0.00000000       0.00000000 </v>
   <v>       0.00000000       0.00000000       0.00000000 </v>
   <v>       0.00000000       0.00000000       0.00000000 </v>
   <v>       0.00000000       0.00000000       0.00000000 </v>
   <v>       0.00000000       0.00000000       0.00000000 </v>
   <v>       0.00000000       0.00000000       0.00000000 </v>
   <v>       0.00000000       0.00000000       0.00000000 </v>
   <v>       0.00000000       0.00000000       0.00000000 </v>
   <v>       0.00000000       0.00000000       0.00000000 </v>
   <v>       0.00000000       0.00000000       0.00000000 </v>
   <v>       0.00000000       0.00000000       0.00000000 </v>
   <v>       0.00000000       0.00000000       0.00000000 </v>
   <v>       0.00000000       0.00000000       0.00000000 </v>
   <v>       0.00000000       0.00000000       0.00000000 </v>
   <v>       0.00000000       0.00000000       0.00000000 </v>
   <v>       0.00000000       0.00000000       0.00000000 </v>
   <v>       0.00000000       0.00000000       0.00000000 </v>
   <v>       0.00000000       0.00000000       0.00000000 </v>
   <v>       0.00000000       0.00000000       0.00000000 </v>
   <v>       0.00000000       0.00000000       0.00000000 </v>
   <v>       0.00000000       0.00000000       0.00000000 </v>
   <v>       0.00000000       0.00000000       0.00000000 </v>
   <v>       0.00000000       0.00000000       0.00000000 </v>
   <v>       0.00000000       0.00000000       0.00000000 </v>
   <v>       0.00000000       0.00000000       0.00000000 </v>
   <v>       0.00000000       0.00000000       0.00000000 </v>
   <v>       0.00000000       0.00000000       0.00000000 </v>
   <v>       0.00000000       0.00000000       0.00000000 </v>
   <v>       0.00000000       0.00000000       0.00000000 </v>
   <v>       0.00000000       0.00000000       0.00000000 </v>
   <v>       0.00000000       0.00000000       0.00000000 </v>
   <v>       0.00000000       0.00000000       0.00000000 </v>
   <v>       0.00000000       0.00000000       0.00000000 </v>
   <v>       0.00000000       0.00000000       0.00000000 </v>
   <v>       0.00000000       0.00000000       0.00000000 </v>
   <v>       0.00000000       0.00000000       0.00000000 </v>
   <v>       0.00000000       0.00000000       0.00000000 </v>
   <v>       0.00000000       0.00000000       0.00000000 </v>
   <v>       0.00000000       0.00000000       0.00000000 </v>
   <v>       0.00000000       0.00000000       0.00000000 </v>
   <v>       0.00000000       0.00000000       0.00000000 </v>
   <v>       0.00000000       0.00000000       0.00000000 </v>
   <v>       0.00000000       0.00000000       0.00000000 </v>
   <v>       0.00000000       0.00000000       0.00000000 </v>
   <v>       0.00000000       0.00000000       0.00000000 </v>
   <v>       0.00000000       0.00000000       0.00000000 </v>
   <v>       0.00000000       0.00000000       0.00000000 </v>
   <v>       0.00000000       0.00000000       0.00000000 </v>
   <v>       0.00000000       0.00000000       0.00000000 </v>
   <v>       0.00000000       0.00000000       0.00000000 </v>
   <v>       0.00000000       0.00000000       0.00000000 </v>
   <v>       0.00000000       0.00000000       0.00000000 </v>
   <v>       0.00000000       0.00000000       0.00000000 </v>
   <v>       0.00000000       0.00000000       0.00000000 </v>
   <v>       0.00000000       0.00000000       0.00000000 </v>
   <v>       0.00000000       0.00000000       0.00000000 </v>
   <v>       0.00000000       0.00000000       0.00000000 </v>
   <v>       0.00000000       0.00000000       0.00000000 </v>
   <v>       0.00000000       0.00000000       0.00000000 </v>
   <v>       0.00000000       0.00000000       0.00000000 </v>
   <v>       0.00000000       0.00000000       0.00000000 </v>
   <v>       0.00000000       0.00000000       0.00000000 </v>
   <v>       0.00000000       0.00000000       0.00000000 </v>
   <v>       0.00000000       0.00000000       0.00000000 </v>
   <v>       0.00000000       0.00000000       0.00000000 </v>
  </varray>
 </structure>
 <calculation>
  <scstep>
   <time name="dav">   29.97   30.10</time>
   <time name="total">   30.35   30.49</time>
   <energy>
    <i name="alphaZ">   3473.39795963 </i>
    <i name="ewald"> -53011.77612718 </i>
    <i name="hartreedc"> -13528.26586115 </i>
    <i name="XCdc">   3218.63445529 </i>
    <i name="pawpsdc">  50594.51003143 </i>
    <i name="pawaedc"> -49994.65612350 </i>
    <i name="eentropy">     -0.03236886 </i>
    <i name="bandstr">   4149.75988213 </i>
    <i name="atom">  64968.54023382 </i>
    <i name="e_fr_energy">   9870.11208162 </i>
    <i name="e_wo_entrp">   9870.14445047 </i>
    <i name="e_0_energy">   9870.12826604 </i>
   </energy>
  </scstep>
  <scstep>
   <time name="dav">   44.03   44.64</time>
   <time name="total">   44.03   44.64</time>
   <energy>
    <i name="e_fr_energy">     99.76748087 </i>
    <i name="e_wo_entrp">     99.76748087 </i>
    <i name="e_0_energy">     99.76748087 </i>
   </energy>
  </scstep>
  <scstep>
   <time name="dav">   35.28   35.40</time>
   <time name="total">   35.28   35.40</time>
   <energy>
    <i name="e_fr_energy">   -983.29533396 </i>
    <i name="e_wo_entrp">   -983.29533396 </i>
    <i name="e_0_energy">   -983.29533396 </i>
   </energy>
  </scstep>
  <scstep>
   <time name="dav">   37.78   38.66</time>
   <time name="total">   37.78   38.66</time>
   <energy>
    <i name="e_fr_energy">  -1034.56677077 </i>
    <i name="e_wo_entrp">  -1034.56677077 </i>
    <i name="e_0_energy">  -1034.56677077 </i>
   </energy>
  </scstep>
  <scstep>
   <time name="dav">   45.64   45.83</time>
   <time name="total">   46.77   46.96</time>
   <energy>
    <i name="e_fr_energy">  -1038.93125459 </i>
    <i name="e_wo_entrp">  -1038.93125459 </i>
    <i name="e_0_energy">  -1038.93125459 </i>
   </energy>
  </scstep>
  <scstep>
   <time name="dav">   34.31   35.09</time>
   <time name="total">   35.79   36.61</time>
   <energy>
    <i name="e_fr_energy">   -909.07349745 </i>
    <i name="e_wo_entrp">   -909.07349745 </i>
    <i name="e_0_energy">   -909.07349745 </i>
   </energy>
  </scstep>
  <scstep>
   <time name="dav">   37.14   37.27</time>
   <time name="total">   38.64   38.79</time>
   <energy>
    <i name="e_fr_energy">   -911.32488697 </i>
    <i name="e_wo_entrp">   -911.32488697 </i>
    <i name="e_0_energy">   -911.32488697 </i>
   </energy>
  </scstep>
  <scstep>
   <time name="dav">   35.86   36.68</time>
   <time name="total">   37.33   38.20</time>
   <energy>
    <i name="e_fr_energy">   -910.50614150 </i>
    <i name="e_wo_entrp">   -910.50614150 </i>
    <i name="e_0_energy">   -910.50614150 </i>
   </energy>
  </scstep>
  <scstep>
   <time name="dav">   35.40   35.51</time>
   <time name="total">   36.90   37.03</time>
   <energy>
    <i name="e_fr_energy">   -910.30162126 </i>
    <i name="e_wo_entrp">   -910.30162126 </i>
    <i name="e_0_energy">   -910.30162126 </i>
   </energy>
  </scstep>
  <scstep>
   <time name="dav">   36.95   37.11</time>
   <time name="total">   38.45   38.63</time>
   <energy>
    <i name="e_fr_energy">   -910.36038287 </i>
    <i name="e_wo_entrp">   -910.36038287 </i>
    <i name="e_0_energy">   -910.36038287 </i>
   </energy>
  </scstep>
  <scstep>
   <time name="dav">   38.23   38.43</time>
   <time name="total">   39.73   39.95</time>
   <energy>
    <i name="e_fr_energy">   -910.35828852 </i>
    <i name="e_wo_entrp">   -910.35828852 </i>
    <i name="e_0_energy">   -910.35828852 </i>
   </energy>
  </scstep>
  <scstep>
   <time name="dav">   35.66   35.78</time>
   <time name="total">   37.15   37.28</time>
   <energy>
    <i name="e_fr_energy">   -910.35906392 </i>
    <i name="e_wo_entrp">   -910.35906392 </i>
    <i name="e_0_energy">   -910.35906392 </i>
   </energy>
  </scstep>
  <scstep>
   <time name="dav">   40.50   40.62</time>
   <time name="total">   42.00   42.13</time>
   <energy>
    <i name="e_fr_energy">   -910.35957367 </i>
    <i name="e_wo_entrp">   -910.35957367 </i>
    <i name="e_0_energy">   -910.35957367 </i>
   </energy>
  </scstep>
  <scstep>
   <time name="dav">   38.03   38.22</time>
   <time name="total">   39.51   39.73</time>
   <energy>
    <i name="e_fr_energy">   -910.35968343 </i>
    <i name="e_wo_entrp">   -910.35968343 </i>
    <i name="e_0_energy">   -910.35968343 </i>
   </energy>
  </scstep>
  <scstep>
   <time name="dav">   37.60   37.77</time>
   <time name="total">   39.11   39.29</time>
   <energy>
    <i name="e_fr_energy">   -910.35965873 </i>
    <i name="e_wo_entrp">   -910.35965873 </i>
    <i name="e_0_energy">   -910.35965873 </i>
   </energy>
  </scstep>
  <scstep>
   <time name="dav">   35.43   35.77</time>
   <time name="total">   36.92   37.28</time>
   <energy>
    <i name="e_fr_energy">   -910.35964500 </i>
    <i name="e_wo_entrp">   -910.35964500 </i>
    <i name="e_0_energy">   -910.35964500 </i>
   </energy>
  </scstep>
  <scstep>
   <time name="dav">   39.06   39.21</time>
   <time name="total">   40.56   40.72</time>
   <energy>
    <i name="e_fr_energy">   -910.35964747 </i>
    <i name="e_wo_entrp">   -910.35964747 </i>
    <i name="e_0_energy">   -910.35964747 </i>
   </energy>
  </scstep>
  <scstep>
   <time name="dav">   32.55   32.71</time>
   <time name="total">   32.93   33.09</time>
   <energy>
    <i name="alphaZ">   3473.39795963 </i>
    <i name="ewald"> -53011.77612718 </i>
    <i name="hartreedc"> -14761.09856825 </i>
    <i name="XCdc">   3305.64314114 </i>
    <i name="pawpsdc">  88712.50115625 </i>
    <i name="pawaedc"> -88369.64835092 </i>
    <i name="eentropy">     -0.00000000 </i>
    <i name="bandstr">  -5227.91909133 </i>
    <i name="atom">  64968.54023382 </i>
    <i name="e_fr_energy">   -910.35964684 </i>
    <i name="e_wo_entrp">   -910.35964684 </i>
    <i name="e_0_energy">   -910.35964684 </i>
   </energy>
  </scstep>
  <structure>
   <crystal>
    <varray name="basis" >
     <v>      11.12194768       0.00000000       0.00000000 </v>
     <v>       0.00000000      11.12194768       0.00000000 </v>
     <v>       0.00000000       0.00000000      11.12194768 </v>
    </varray>
    <i name="volume">   1375.75957216 </i>
    <varray name="rec_basis" >
     <v>       0.08991231       0.00000000       0.00000000 </v>
     <v>       0.00000000       0.08991231       0.00000000 </v>
     <v>       0.00000000       0.00000000       0.08991231 </v>
    </varray>
   </crystal>
   <varray name="positions" >
    <v>       0.31163133       0.98611953       0.58586682 </v>
    <v>       0.96018312       0.68635521       0.59217537 </v>
    <v>       0.57419665       0.07699302       0.39052775 </v>
    <v>       0.57490960       0.43560210       0.03831221 </v>
    <v>       0.78303002       0.87247290       0.47465087 </v>
    <v>       0.21353496       0.42686176       0.71483232 </v>
    <v>       0.65889685       0.96902798       0.95894231 </v>
    <v>       0.77113634       0.52776332       0.83200453 </v>
    <v>       0.10028293       0.62900414       0.90035628 </v>
    <v>       0.67799007       0.63257468       0.26784448 </v>
    <v>       0.39638448       0.22922720       0.82053232 </v>
    <v>       0.36850050       0.34745171       0.25762451 </v>
    <v>       0.42944644       0.25510303       0.57077664 </v>
    <v>       0.91862418       0.73671221       0.06089260 </v>
    <v>       0.93645198       0.39025639       0.39977621 </v>
    <v>       0.78051369       0.18304143       0.15271907 </v>
    <v>       0.99491180       0.97794697       0.26476307 </v>
    <v>       0.46102330       0.53179694       0.49763750 </v>
    <v>       0.35381395       0.63171262       0.91508171 </v>
    <v>       0.90291238       0.10153270       0.65720653 </v>
    <v>       0.69834582       0.31390855       0.59339843 </v>
    <v>       0.53182257       0.76933316       0.72954493 </v>
    <v>       0.09196601       0.52104903       0.16436798 </v>
    <v>       0.23711518       0.80375617       0.36433584 </v>
    <v>       0.11386040       0.86207427       0.80724432 </v>
    <v>       0.44736501       0.86909855       0.16044114 </v>
    <v>       0.97970870       0.29315886       0.91201646 </v>
    <v>       0.04282976       0.92374703       0.52433569 </v>
    <v>       0.94757176       0.36000478       0.65975571 </v>
    <v>       0.26630599       0.71257326       0.66355386 </v>
    <v>       0.82182464       0.80501511       0.79491345 </v>
    <v>       0.93971494       0.04652393       0.99164391 </v>
    <v>       0.39797031       0.91173100       0.87656809 </v>
    <v>       0.81826531       0.13097743       0.39510272 </v>
    <v>       0.50652946       0.15174231       0.07089196 </v>
    <v>       0.18870906       0.10000534       0.90542018 </v>
    <v>       0.62050185       0.68027173       0.98492630 </v>
    <v>       0.72330167       0.23383988       0.85668486 </v>
    <v>       0.51178485       0.78087773       0.38994571 </v>
    <v>       0.86013590       0.46686660       0.10440047 </v>
    <v>       0.07623482       0.26813069       0.15339941 </v>
    <v>       0.49670246       0.47333915       0.77570322 </v>
    <v>       0.29707068       0.07078520       0.16374472 </v>
    <v>       0.12912024       0.18786432       0.64205932 </v>
    <v>       0.19572628       0.16708531       0.39600449 </v>
    <v>       0.62511106       0.32519276       0.29702282 </v>
    <v>       0.92773936       0.69513186       0.33912431 </v>
    <v>       0.40012108       0.60979407       0.20612636 </v>
    <v>       0.18059232       0.85983254       0.08781804 </v>
    <v>       0.71263274       0.57813006       0.58054537 </v>
    <v>       0.71955345       0.92518151       0.20386816 </v>
    <v>       0.17763702       0.52066257       0.44297497 </v>
    <v>       0.27516881       0.40163012       0.01228573 </v>
    <v>       0.61664661       0.01080078       0.67804434 </v>
    <v>       0.62226413       0.75024019       0.51005001 </v>
    <v>       0.20665850       0.09737399       0.03157555 </v>
    <v>       0.97363709       0.36339525       0.08157519 </v>
    <v>       0.62282169       0.02118260       0.18818191 </v>
    <v>       0.45718032       0.06662876       0.68698789 </v>
    <v>       0.52241832       0.62154716       0.11067163 </v>
    <v>       0.70753833       0.79374404       0.06002752 </v>
    <v>       0.90639658       0.00924077       0.48896542 </v>
    <v>       0.69978110       0.09497046       0.78114837 </v>
    <v>       0.01940549       0.82712875       0.38183297 </v>
    <v>       0.62610059       0.81791002       0.29334935 </v>
    <v>       0.52104983       0.47420085       0.27607235 </v>
    <v>       0.18055317       0.24469555       0.89975784 </v>
    <v>       0.84398927       0.46035225       0.58032693 </v>
    <v>       0.07939678       0.47175806       0.57150148 </v>
    <v>       0.21703018       0.95870611       0.20667323 </v>
    <v>       0.01939598       0.24342531       0.70820872 </v>
    <v>       0.57196686       0.57902079       0.87030904 </v>
    <v>       0.07349343       0.32732755       0.27976469 </v>
    <v>       0.83156421       0.30546947       0.76019613 </v>
    <v>       0.09644852       0.72115481       0.15312737 </v>
    <v>       0.09289574       0.22392948       0.49523668 </v>
    <v>       0.47903094       0.77146416       0.94519990 </v>
    <v>       0.69218724       0.72926024       0.86568921 </v>
    <v>       0.71554579       0.88307752       0.72970581 </v>
    <v>       0.15799320       0.82698377       0.58073197 </v>
    <v>       0.27197208       0.61249385       0.52242945 </v>
    <v>       0.01622411       0.16772897       0.06395201 </v>
    <v>       0.96315847       0.44979802       0.77010410 </v>
    <v>       0.29099603       0.01549120       0.81621591 </v>
    <v>       0.81314359       0.98678137       0.08392969 </v>
    <v>       0.53196388       0.91787783       0.81490499 </v>
    <v>       0.38517904       0.41589840       0.88152785 </v>
    <v>       0.24871921       0.89025445       0.97068195 </v>
    <v>       0.33745301       0.53867694       0.07834749 </v>
    <v>       0.27970591       0.40951677       0.45522925 </v>
    <v>       0.36077364       0.58209205       0.73334530 </v>
    <v>       0.38512669       0.78375620       0.60826473 </v>
    <v>       0.04277314       0.06950642       0.86661144 </v>
    <v>       0.69187541       0.04820517       0.55192141 </v>
    <v>       0.58227578       0.52844094       0.65737521 </v>
    <v>       0.57583748       0.26763916       0.14692058 </v>
    <v>       0.83061574       0.63829295       0.42677782 </v>
    <v>       0.17874000       0.47603814       0.93068063 </v>
    <v>       0.62055519       0.32797364       0.76531429 </v>
    <v>       0.42452086       0.10214737       0.19195521 </v>
    <v>       0.33645238       0.16614554       0.44509079 </v>
    <v>       0.82950479       0.79364122       0.25867905 </v>
    <v>       0.09308733       0.04004422       0.62083920 </v>
    <v>       0.91150760       0.56921278       0.25105469 </v>
    <v>       0.32173523       0.74183887       0.19516761 </v>
    <v>       0.53849852       0.29290672       0.42647590 </v>
    <v>       0.59424680       0.17160860       0.94518782 </v>
    <v>       0.84529480       0.15871702       0.94262050 </v>
    <v>       0.04069467       0.92501063       0.05021907 </v>
    <v>       0.37416476       0.25709621       0.04355978 </v>
    <v>       0.20335551       0.32818129       0.11293451 </v>
    <v>       0.44550424       0.93468018       0.38609564 </v>
    <v>       0.91206295       0.85845800       0.60946215 </v>
    <v>       0.74016415       0.39910394       0.24473292 </v>
    <v>       0.95043250       0.55917155       0.99568202 </v>
    <v>       0.88018491       0.93074690       0.86608739 </v>
    <v>       0.84084741       0.21246307       0.51979278 </v>
    <v>       0.77221816       0.99630124       0.33877320 </v>
    <v>       0.28581163       0.52436130       0.26738909 </v>
    <v>       0.76983105       0.36985250       0.95340737 </v>
    <v>       0.12949472       0.01321782       0.40154330 </v>
    <v>       0.92512122       0.72350317       0.81386504 </v>
    <v>       0.42773203       0.68195845       0.33414271 </v>
    <v>       0.30401756       0.81578665       0.81168390 </v>
    <v>       0.73572567       0.54957391       0.07649504 </v>
    <v>       0.78443180       0.66160088       0.67188239 </v>
    <v>       0.71390626       0.22326565       0.34500062 </v>
    <v>       0.42839406       0.97962550       0.01762179 </v>
    <v>       0.15671233       0.64088890       0.72067150 </v>
    <v>       0.20865782       0.16065804       0.24417270 </v>
    <v>       0.42441186       0.40651427       0.67685834 </v>
    <v>       0.67847054       0.51171460       0.46302377 </v>
    <v>       0.07307380       0.62257784       0.40533749 </v>
    <v>       0.26439382       0.19110431       0.64537103 </v>
    <v>       0.90995139       0.13844688       0.29077774 </v>
   </varray>
  </structure>
  <varray name="forces" >
   <v>       0.11938302      -0.52712159      -0.25613088 </v>
   <v>       2.67973393      -4.45624921       0.88523732 </v>
   <v>      -1.82637224       0.00781151      -0.32820601 </v>
   <v>      -0.24976662      -0.85176341       0.25891256 </v>
   <v>      -2.12184368      -3.12191745       1.02863306 </v>
   <v>       0.62565461       1.84541757       0.18894289 </v>
   <v>       0.89302962      -0.85011950      -2.20230035 </v>
   <v>       2.46680499      -0.26068727      -0.46880722 </v>
   <v>      -3.02779395       0.58944766      -0.61995676 </v>
   <v>       1.48923378      -2.75743522       0.21145065 </v>
   <v>       0.68569992      -1.05575309       0.40497300 </v>
   <v>      -1.01007398      -0.54530549       1.57772509 </v>
   <v>       0.38601442       0.04093822       0.38337792 </v>
   <v>      -2.25479533       1.85585708       0.16288063 </v>
   <v>      -1.30182380       0.80097642       0.55329646 </v>
   <v>       0.17325382       1.09800263      -1.93539555 </v>
   <v>       0.02904298      -0.97659351      -1.28543741 </v>
   <v>      -0.90698676      -0.66473515      -0.34882458 </v>
   <v>      -0.03235082       0.84533116      -0.19200134 </v>
   <v>      -3.24733052      -3.81099615       2.58199554 </v>
   <v>      -0.92623298       1.15335710      -1.26559576 </v>
   <v>       1.75274974      -5.84207348      -2.41655233 </v>
   <v>       2.36103178       0.87973935       0.75407793 </v>
   <v>      -1.01457053      -0.97906840       0.98050646 </v>
   <v>      -2.02441646       1.88607049      -0.94044681 </v>
   <v>       2.84189746      -0.65445860       0.71459440 </v>
   <v>       0.49408726       1.74793801      -3.44094585 </v>
   <v>      -2.05239254       1.19962249      -0.84358503 </v>
   <v>      -3.79476427       7.42257838       0.92641047 </v>
   <v>       3.68417677      -2.18913569      -3.03293032 </v>
   <v>      -5.72748215       4.99364033      -0.54974780 </v>
   <v>       0.21375132      -2.94078613      -3.12280432 </v>
   <v>      -1.69693661      -0.43225341       2.75594411 </v>
   <v>       2.58974987      -2.32104193       4.65710898 </v>
   <v>      -1.51138923       2.61347196      -0.56382781 </v>
   <v>      -2.07060774       0.14750919      -9.52003163 </v>
   <v>      -1.81301998       3.63032723       1.58095135 </v>
   <v>       0.76704544       1.27787686      -0.95124162 </v>
   <v>       4.07735637       5.78290470       4.67565994 </v>
   <v>      -1.31742996       2.29909645      -2.54553829 </v>
   <v>      -0.18409466      -1.26119314      -0.93425254 </v>
   <v>       0.16002123       2.30157142      -0.18674076 </v>
   <v>      -8.62121203       2.01066962      -4.72692651 </v>
   <v>      -0.80524291      -4.07890851      -5.72235378 </v>
   <v>      -0.81700353      -1.93532617       1.66128547 </v>
   <v>      -3.20806441       4.46832018       0.60796065 </v>
   <v>       1.81969414       0.75477473      -0.94070601 </v>
   <v>      -3.12472220      -2.96324963      -1.72203065 </v>
   <v>      -4.17896284      -2.03350875       3.87109681 </v>
   <v>       0.10652996       0.27565392      -0.35499194 </v>
   <v>       5.15715020      -6.30274256       1.77459876 </v>
   <v>       2.91225424       0.03923102       3.71508983 </v>
   <v>       3.33148228      -0.02177262      -3.07551379 </v>
   <v>       0.97856772       1.25002874       3.96957491 </v>
   <v>      -3.85676396      -0.41469183      -1.67327074 </v>
   <v>       5.38872811      -2.54355723      13.33794789 </v>
   <v>      -1.68089432       2.09392736       4.29992991 </v>
   <v>      -4.09129420       3.58291521      -2.88716367 </v>
   <v>       4.71002185       0.78414588      -2.63078330 </v>
   <v>       2.10662681       2.20810721      -0.30676152 </v>
   <v>      -1.86435399       0.29129859       2.16279691 </v>
   <v>       3.09493795       2.52100810      -2.17846118 </v>
   <v>      -0.22089913       1.16232224      -1.35087760 </v>
   <v>      -0.83095430      -1.42434772       1.52213492 </v>
   <v>      -2.18194730       0.95492730      -0.62306031 </v>
   <v>       0.26002304      -1.36776333      -0.50967810 </v>
   <v>       1.74837513       1.99304575      -3.76370185 </v>
   <v>       0.83001322      -2.52122507       0.58565536 </v>
   <v>      -0.79014219      -2.10475119      -1.75149218 </v>
   <v>       0.92901311      -4.51541723      -1.06218215 </v>
   <v>       1.97708664       0.37070829       0.63034244 </v>
   <v>      -1.97896067      -3.62158898       1.58962301 </v>
   <v>      -0.64221099       1.13830743       2.69154097 </v>
   <v>      -1.78379506      -3.31573437      -1.75227211 </v>
   <v>       1.69783015       3.13139536      -2.09410617 </v>
   <v>       1.20197487       0.35746747      -0.48099006 </v>
   <v>       0.71710730       0.22958162       1.76117701 </v>
   <v>       3.60074564       0.52817554      -0.48916734 </v>
   <v>      -1.99185847       1.81047507      -3.39255630 </v>
   <v>      -0.54969476       0.99964749      -0.10303990 </v>
   <v>      -1.14929269       1.63271259      -0.17831294 </v>
   <v>      -0.94097616      -2.48608744       2.78602877 </v>
   <v>       3.12648951       2.31348452       1.68422734 </v>
   <v>      -1.35842657       3.88239746       1.08584073 </v>
   <v>       2.09204162       0.81468531       2.15809563 </v>
   <v>      -0.58936629       5.14739953       0.20100018 </v>
   <v>       1.29402560       0.23551134       1.95340892 </v>
   <v>      -0.56264114      -1.91046451       2.05810070 </v>
   <v>      -0.73059690      -3.94661816      -1.15741465 </v>
   <v>      -0.62822362      -1.54457640      -0.56448811 </v>
   <v>       1.00138828       2.56200090       0.25201046 </v>
   <v>      -0.38723857       1.36121173      -2.07820735 </v>
   <v>       1.81005432      -0.73936724       0.36929382 </v>
   <v>      -2.91000562      -0.44404376       0.94103755 </v>
   <v>       3.17603985       1.60001709       0.31488334 </v>
   <v>       0.74802386      -1.05417380       2.91680026 </v>
   <v>       0.76070199       2.51094591       2.47139335 </v>
   <v>       0.78720329      -1.79609933       0.80746115 </v>
   <v>      -2.11664579      -0.04459193       3.54120493 </v>
   <v>       4.55943983       0.84568261       2.22193614 </v>
   <v>      -2.86857731      -2.18970866      -3.52568208 </v>
   <v>       2.03968296       0.12165032      -1.01838099 </v>
   <v>       0.71132853      -0.19760463       2.14540925 </v>
   <v>       0.39893349      -1.90786878      -3.48702372 </v>
   <v>      -2.19636107       0.98244485      -3.56781648 </v>
   <v>       1.25040261       0.73736657      -2.96060233 </v>
   <v>      -1.36827617      -0.30558811       2.29955853 </v>
   <v>      -2.20044538      -0.88113524       0.23655356 </v>
   <v>      -0.60193356      -0.43068001       0.66360464 </v>
   <v>       3.10632203      -0.84358373      -0.56483006 </v>
   <v>      -1.33079193       1.87606937       0.22850416 </v>
   <v>      -0.66856027      -4.75703485       0.38941539 </v>
   <v>       3.57052455       1.07955080       2.06031572 </v>
   <v>       2.88240901       0.92184448      -1.89672740 </v>
   <v>      -1.70694941      -1.52423150       2.56698102 </v>
   <v>      -0.30316356      -0.06527697       1.50178831 </v>
   <v>       1.09218528       2.17783429      -1.61628935 </v>
   <v>      -2.80415379       0.15842242      -3.01744753 </v>
   <v>      -1.62896426       0.98415984       1.96381269 </v>
   <v>      -1.50151604      -1.75794160       1.67677939 </v>
   <v>       1.96553445       0.67400487       1.86499966 </v>
   <v>       6.74882945      -4.21400396       2.04610328 </v>
   <v>       2.98749285      -0.59786208       3.72812706 </v>
   <v>       0.10991491      -4.44432434      -4.27196224 </v>
   <v>      -0.39862405       1.68792669      -0.46382677 </v>
   <v>      -1.27371834       0.22888855      -0.36304169 </v>
   <v>       0.59495320      -3.19181335       0.12465221 </v>
   <v>       1.46953196       4.22161944      -2.14492133 </v>
   <v>      -2.18096186       1.35924002       0.99271556 </v>
   <v>      -0.54922975       1.55376003       1.38598582 </v>
   <v>      -2.37421243      -4.89640812      -2.83094893 </v>
   <v>      -3.16446619      -1.72224483      -2.64321468 </v>
   <v>      -0.26419314      -0.81681053      -2.05316295 </v>
   <v>       1.86810117       1.49599341       3.28068629 </v>
   <v>       2.88052862       3.83097157      -2.43445974 </v>
  </varray>
  <varray name="stress" >
   <v>     140.98953960       5.54512209      -8.08461948 </v>
   <v>       5.54512213     155.26318343      -6.36087323 </v>
   <v>      -8.08461945      -6.36087322     181.62738070 </v>
  </varray>
  <energy>
   <i name="e_fr_energy">   -910.35964684 </i>
   <i name="e_wo_entrp">   -910.35964684 </i>
   <i name="e_0_energy">     -0.00000000 </i>
  </energy>
  <time name="totalsc">  725.85  731.67</time>
  <eigenvalues>
   <array>
    <dimension dim="1">band</dimension>
    <dimension dim="2">kpoint</dimension>
    <dimension dim="3">spin</dimension>
    <field>eigene</field>
    <field>occ</field>
    <set>
     <set comment="spin 1">
      <set comment="kpoint 1">
       <r>  -34.0237    1.0000 </r>
       <r>  -33.7248    1.0000 </r>
       <r>  -33.7012    1.0000 </r>
       <r>  -33.6152    1.0000 </r>
       <r>  -33.5511    1.0000 </r>
       <r>  -33.4532    1.0000 </r>
       <r>  -33.4242    1.0000 </r>
       <r>  -33.2917    1.0000 </r>
       <r>  -33.1565    1.0000 </r>
       <r>  -33.1007    1.0000 </r>
       <r>  -33.0157    1.0000 </r>
       <r>  -33.0104    1.0000 </r>
       <r>  -32.9401    1.0000 </r>
       <r>  -32.8883    1.0000 </r>
       <r>  -32.8656    1.0000 </r>
       <r>  -32.7103    1.0000 </r>
       <r>  -32.7053    1.0000 </r>
       <r>  -32.6454    1.0000 </r>
       <r>  -32.5665    1.0000 </r>
       <r>  -32.4316    1.0000 </r>
       <r>  -32.4124    1.0000 </r>
       <r>  -32.2658    1.0000 </r>
       <r>  -31.9951    1.0000 </r>
       <r>  -31.8730    1.0000 </r>
       <r>  -31.8682    1.0000 </r>
       <r>  -31.8319    1.0000 </r>
       <r>  -31.5100    1.0000 </r>
       <r>  -17.1987    1.0000 </r>
       <r>  -16.8695    1.0000 </r>
       <r>  -16.4878    1.0000 </r>
       <r>  -16.3455    1.0000 </r>
       <r>  -16.1602    1.0000 </r>
       <r>  -16.0117    1.0000 </r>
       <r>  -15.8611    1.0000 </r>
       <r>  -15.8164    1.0000 </r>
       <r>  -15.6607    1.0000 </r>
       <r>  -15.6045    1.0000 </r>
       <r>  -15.4950    1.0000 </r>
       <r>  -15.4661    1.0000 </r>
       <r>  -15.4134    1.0000 </r>
       <r>  -15.3645    1.0000 </r>
       <r>  -15.3150    1.0000 </r>
[...]
       <r>     7.4675     0.0000   864.0000 </r>
       <r>     7.6387     0.0000   864.0000 </r>
       <r>     7.8099     0.0259   864.0044 </r>
       <r>     7.9811     1.4310   864.2494 </r>
       <r>     8.1522     2.0591   864.6019 </r>
       <r>     8.3234     8.9972   866.1422 </r>
       <r>     8.4946    17.0473   869.0606 </r>
       <r>     8.6658    12.0434   871.1223 </r>
       <r>     8.8370    16.7708   873.9934 </r>
       <r>     9.0082     0.0386   874.0000 </r>
       <r>     9.1794     5.1747   874.8859 </r>
       <r>     9.3506     6.9656   876.0784 </r>
       <r>     9.5218    11.8577   878.1083 </r>
       <r>     9.6930    16.8083   880.9858 </r>
       <r>     9.8642    26.9394   885.5976 </r>
       <r>    10.0354    31.6689   891.0192 </r>
       <r>    10.2066    33.9963   896.8391 </r>
       <r>    10.3778    26.6783   901.4063 </r>
       <r>    10.5490    37.5258   907.8305 </r>
       <r>    10.7202    37.1888   914.1969 </r>
       <r>    10.8913    39.6493   920.9847 </r>
       <r>    11.0625    49.2110   929.4093 </r>
       <r>    11.2337    57.9558   939.3310 </r>
       <r>    11.4049    51.4772   948.1435 </r>
       <r>    11.5761    56.8901   957.8828 </r>
       <r>    11.7473    70.6109   969.9709 </r>
       <r>    11.9185    72.3268   982.3528 </r>
       <r>    12.0897    86.0124   997.0776 </r>
       <r>    12.2609    85.5550  1011.7241 </r>
       <r>    12.4321    82.4337  1025.8362 </r>
       <r>    12.6033    67.3766  1037.3707 </r>
       <r>    12.7745    15.3563  1039.9996 </r>
       <r>    12.9457     0.0025  1040.0000 </r>
       <r>    13.1169     0.0000  1040.0000 </r>
       <r>    13.2881     0.0000  1040.0000 </r>
       <r>    13.4593     0.0000  1040.0000 </r>
       <r>    13.6304     0.0000  1040.0000 </r>
       <r>    13.8016     0.0000  1040.0000 </r>
       <r>    13.9728     0.0000  1040.0000 </r>
       <r>    14.1440     0.0000  1040.0000 </r>
       <r>    14.3152     0.0000  1040.0000 </r>
       <r>    14.4864     0.0000  1040.0000 </r>
       <r>    14.6576     0.0000  1040.0000 </r>
       <r>    14.8288     0.0000  1040.0000 </r>
       <r>    15.0000     0.0000  1040.0000 </r>
      </set>
     </set>
    </array>
   </total>
  </dos>
 </calculation>
 <structure name="finalpos" >
  <crystal>
   <varray name="basis" >
    <v>      11.12194768       0.00000000       0.00000000 </v>
    <v>       0.00000000      11.12194768       0.00000000 </v>
    <v>       0.00000000       0.00000000      11.12194768 </v>
   </varray>
   <i name="volume">   1375.75957216 </i>
   <varray name="rec_basis" >
    <v>       0.08991231       0.00000000       0.00000000 </v>
    <v>       0.00000000       0.08991231       0.00000000 </v>
    <v>       0.00000000       0.00000000       0.08991231 </v>
   </varray>
  </crystal>
  <varray name="positions" >
   <v>       0.31163133       0.98611953       0.58586682 </v>
   <v>       0.96018312       0.68635521       0.59217537 </v>
   <v>       0.57419665       0.07699302       0.39052775 </v>
   <v>       0.57490960       0.43560210       0.03831221 </v>
   <v>       0.78303002       0.87247290       0.47465087 </v>
   <v>       0.21353496       0.42686176       0.71483232 </v>
   <v>       0.65889685       0.96902798       0.95894231 </v>
   <v>       0.77113634       0.52776332       0.83200453 </v>
   <v>       0.10028293       0.62900414       0.90035628 </v>
   <v>       0.67799007       0.63257468       0.26784448 </v>
   <v>       0.39638448       0.22922720       0.82053232 </v>
   <v>       0.36850050       0.34745171       0.25762451 </v>
   <v>       0.42944644       0.25510303       0.57077664 </v>
   <v>       0.91862418       0.73671221       0.06089260 </v>
   <v>       0.93645198       0.39025639       0.39977621 </v>
   <v>       0.78051369       0.18304143       0.15271907 </v>
   <v>       0.99491180       0.97794697       0.26476307 </v>
   <v>       0.46102330       0.53179694       0.49763750 </v>
   <v>       0.35381395       0.63171262       0.91508171 </v>
   <v>       0.90291238       0.10153270       0.65720653 </v>
   <v>       0.69834582       0.31390855       0.59339843 </v>
   <v>       0.53182257       0.76933316       0.72954493 </v>
   <v>       0.09196601       0.52104903       0.16436798 </v>
   <v>       0.23711518       0.80375617       0.36433584 </v>
   <v>       0.11386040       0.86207427       0.80724432 </v>
   <v>       0.44736501       0.86909855       0.16044114 </v>
   <v>       0.97970870       0.29315886       0.91201646 </v>
   <v>       0.04282976       0.92374703       0.52433569 </v>
   <v>       0.94757176       0.36000478       0.65975571 </v>
   <v>       0.26630599       0.71257326       0.66355386 </v>
   <v>       0.82182464       0.80501511       0.79491345 </v>
   <v>       0.93971494       0.04652393       0.99164391 </v>
   <v>       0.39797031       0.91173100       0.87656809 </v>
   <v>       0.81826531       0.13097743       0.39510272 </v>
   <v>       0.50652946       0.15174231       0.07089196 </v>
   <v>       0.18870906       0.10000534       0.90542018 </v>
   <v>       0.62050185       0.68027173       0.98492630 </v>
   <v>       0.72330167       0.23383988       0.85668486 </v>
   <v>       0.51178485       0.78087773       0.38994571 </v>
   <v>       0.86013590       0.46686660       0.10440047 </v>
   <v>       0.07623482       0.26813069       0.15339941 </v>
   <v>       0.49670246       0.47333915       0.77570322 </v>
   <v>       0.29707068       0.07078520       0.16374472 </v>
   <v>       0.12912024       0.18786432       0.64205932 </v>
   <v>       0.19572628       0.16708531       0.39600449 </v>
   <v>       0.62511106       0.32519276       0.29702282 </v>
   <v>       0.92773936       0.69513186       0.33912431 </v>
   <v>       0.40012108       0.60979407       0.20612636 </v>
   <v>       0.18059232       0.85983254       0.08781804 </v>
   <v>       0.71263274       0.57813006       0.58054537 </v>
   <v>       0.71955345       0.92518151       0.20386816 </v>
   <v>       0.17763702       0.52066257       0.44297497 </v>
   <v>       0.27516881       0.40163012       0.01228573 </v>
   <v>       0.61664661       0.01080078       0.67804434 </v>
   <v>       0.62226413       0.75024019       0.51005001 </v>
   <v>       0.20665850       0.09737399       0.03157555 </v>
   <v>       0.97363709       0.36339525       0.08157519 </v>
   <v>       0.62282169       0.02118260       0.18818191 </v>
   <v>       0.45718032       0.06662876       0.68698789 </v>
   <v>       0.52241832       0.62154716       0.11067163 </v>
   <v>       0.70753833       0.79374404       0.06002752 </v>
   <v>       0.90639658       0.00924077       0.48896542 </v>
   <v>       0.69978110       0.09497046       0.78114837 </v>
   <v>       0.01940549       0.82712875       0.38183297 </v>
   <v>       0.62610059       0.81791002       0.29334935 </v>
   <v>       0.52104983       0.47420085       0.27607235 </v>
   <v>       0.18055317       0.24469555       0.89975784 </v>
   <v>       0.84398927       0.46035225       0.58032693 </v>
   <v>       0.07939678       0.47175806       0.57150148 </v>
   <v>       0.21703018       0.95870611       0.20667323 </v>
   <v>       0.01939598       0.24342531       0.70820872 </v>
   <v>       0.57196686       0.57902079       0.87030904 </v>
   <v>       0.07349343       0.32732755       0.27976469 </v>
   <v>       0.83156421       0.30546947       0.76019613 </v>
   <v>       0.09644852       0.72115481       0.15312737 </v>
   <v>       0.09289574       0.22392948       0.49523668 </v>
   <v>       0.47903094       0.77146416       0.94519990 </v>
   <v>       0.69218724       0.72926024       0.86568921 </v>
   <v>       0.71554579       0.88307752       0.72970581 </v>
   <v>       0.15799320       0.82698377       0.58073197 </v>
   <v>       0.27197208       0.61249385       0.52242945 </v>
   <v>       0.01622411       0.16772897       0.06395201 </v>
   <v>       0.96315847       0.44979802       0.77010410 </v>
   <v>       0.29099603       0.01549120       0.81621591 </v>
   <v>       0.81314359       0.98678137       0.08392969 </v>
   <v>       0.53196388       0.91787783       0.81490499 </v>
   <v>       0.38517904       0.41589840       0.88152785 </v>
   <v>       0.24871921       0.89025445       0.97068195 </v>
   <v>       0.33745301       0.53867694       0.07834749 </v>
   <v>       0.27970591       0.40951677       0.45522925 </v>
   <v>       0.36077364       0.58209205       0.73334530 </v>
   <v>       0.38512669       0.78375620       0.60826473 </v>
   <v>       0.04277314       0.06950642       0.86661144 </v>
   <v>       0.69187541       0.04820517       0.55192141 </v>
   <v>       0.58227578       0.52844094       0.65737521 </v>
   <v>       0.57583748       0.26763916       0.14692058 </v>
   <v>       0.83061574       0.63829295       0.42677782 </v>
   <v>       0.17874000       0.47603814       0.93068063 </v>
   <v>       0.62055519       0.32797364       0.76531429 </v>
   <v>       0.42452086       0.10214737       0.19195521 </v>
   <v>       0.33645238       0.16614554       0.44509079 </v>
   <v>       0.82950479       0.79364122       0.25867905 </v>
   <v>       0.09308733       0.04004422       0.62083920 </v>
   <v>       0.91150760       0.56921278       0.25105469 </v>
   <v>       0.32173523       0.74183887       0.19516761 </v>
   <v>       0.53849852       0.29290672       0.42647590 </v>
   <v>       0.59424680       0.17160860       0.94518782 </v>
   <v>       0.84529480       0.15871702       0.94262050 </v>
   <v>       0.04069467       0.92501063       0.05021907 </v>
   <v>       0.37416476       0.25709621       0.04355978 </v>
   <v>       0.20335551       0.32818129       0.11293451 </v>
   <v>       0.44550424       0.93468018       0.38609564 </v>
   <v>       0.91206295       0.85845800       0.60946215 </v>
   <v>       0.74016415       0.39910394       0.24473292 </v>
   <v>       0.95043250       0.55917155       0.99568202 </v>
   <v>       0.88018491       0.93074690       0.86608739 </v>
   <v>       0.84084741       0.21246307       0.51979278 </v>
   <v>       0.77221816       0.99630124       0.33877320 </v>
   <v>       0.28581163       0.52436130       0.26738909 </v>
   <v>       0.76983105       0.36985250       0.95340737 </v>
   <v>       0.12949472       0.01321782       0.40154330 </v>
   <v>       0.92512122       0.72350317       0.81386504 </v>
   <v>       0.42773203       0.68195845       0.33414271 </v>
   <v>       0.30401756       0.81578665       0.81168390 </v>
   <v>       0.73572567       0.54957391       0.07649504 </v>
   <v>       0.78443180       0.66160088       0.67188239 </v>
   <v>       0.71390626       0.22326565       0.34500062 </v>
   <v>       0.42839406       0.97962550       0.01762179 </v>
   <v>       0.15671233       0.64088890       0.72067150 </v>
   <v>       0.20865782       0.16065804       0.24417270 </v>
   <v>       0.42441186       0.40651427       0.67685834 </v>
   <v>       0.67847054       0.51171460       0.46302377 </v>
   <v>       0.07307380       0.62257784       0.40533749 </v>
   <v>       0.26439382       0.19110431       0.64537103 </v>
   <v>       0.90995139       0.13844688       0.29077774 </v>
  </varray>
  <varray name="velocities" >
   <v>       0.00000000       0.00000000       0.00000000 </v>
   <v>       0.00000000       0.00000000       0.00000000 </v>
   <v>       0.00000000       0.00000000       0.00000000 </v>
   <v>       0.00000000       0.00000000       0.00000000 </v>
   <v>       0.00000000       0.00000000       0.00000000 </v>
   <v>       0.00000000       0.00000000       0.00000000 </v>
   <v>       0.00000000       0.00000000       0.00000000 </v>
   <v>       0.00000000       0.00000000       0.00000000 </v>
   <v>       0.00000000       0.00000000       0.00000000 </v>
   <v>       0.00000000       0.00000000       0.00000000 </v>
   <v>       0.00000000       0.00000000       0.00000000 </v>
   <v>       0.00000000       0.00000000       0.00000000 </v>
   <v>       0.00000000       0.00000000       0.00000000 </v>
   <v>       0.00000000       0.00000000       0.00000000 </v>
   <v>       0.00000000       0.00000000       0.00000000 </v>
   <v>       0.00000000       0.00000000       0.00000000 </v>
   <v>       0.00000000       0.00000000       0.00000000 </v>
   <v>       0.00000000       0.00000000       0.00000000 </v>
   <v>       0.00000000       0.00000000       0.00000000 </v>
   <v>       0.00000000       0.00000000       0.00000000 </v>
   <v>       0.00000000       0.00000000       0.00000000 </v>
   <v>       0.00000000       0.00000000       0.00000000 </v>
   <v>       0.00000000       0.00000000       0.00000000 </v>
   <v>       0.00000000       0.00000000       0.00000000 </v>
   <v>       0.00000000       0.00000000       0.00000000 </v>
   <v>       0.00000000       0.00000000       0.00000000 </v>
   <v>       0.00000000       0.00000000       0.00000000 </v>
   <v>       0.00000000       0.00000000       0.00000000 </v>
   <v>       0.00000000       0.00000000       0.00000000 </v>
   <v>       0.00000000       0.00000000       0.00000000 </v>
   <v>       0.00000000       0.00000000       0.00000000 </v>
   <v>       0.00000000       0.00000000       0.00000000 </v>
   <v>       0.00000000       0.00000000       0.00000000 </v>
   <v>       0.00000000       0.00000000       0.00000000 </v>
   <v>       0.00000000       0.00000000       0.00000000 </v>
   <v>       0.00000000       0.00000000       0.00000000 </v>
   <v>       0.00000000       0.00000000       0.00000000 </v>
   <v>       0.00000000       0.00000000       0.00000000 </v>
   <v>       0.00000000       0.00000000       0.00000000 </v>
   <v>       0.00000000       0.00000000       0.00000000 </v>
   <v>       0.00000000       0.00000000       0.00000000 </v>
   <v>       0.00000000       0.00000000       0.00000000 </v>
   <v>       0.00000000       0.00000000       0.00000000 </v>
   <v>       0.00000000       0.00000000       0.00000000 </v>
   <v>       0.00000000       0.00000000       0.00000000 </v>
   <v>       0.00000000       0.00000000       0.00000000 </v>
   <v>       0.00000000       0.00000000       0.00000000 </v>
   <v>       0.00000000       0.00000000       0.00000000 </v>
   <v>       0.00000000       0.00000000       0.00000000 </v>
   <v>       0.00000000       0.00000000       0.00000000 </v>
   <v>       0.00000000       0.00000000       0.00000000 </v>
   <v>       0.00000000       0.00000000       0.00000000 </v>
   <v>       0.00000000       0.00000000       0.00000000 </v>
   <v>       0.00000000       0.00000000       0.00000000 </v>
   <v>       0.00000000       0.00000000       0.00000000 </v>
   <v>       0.00000000       0.00000000       0.00000000 </v>
   <v>       0.00000000       0.00000000       0.00000000 </v>
   <v>       0.00000000       0.00000000       0.00000000 </v>
   <v>       0.00000000       0.00000000       0.00000000 </v>
   <v>       0.00000000       0.00000000       0.00000000 </v>
   <v>       0.00000000       0.00000000       0.00000000 </v>
   <v>       0.00000000       0.00000000       0.00000000 </v>
   <v>       0.00000000       0.00000000       0.00000000 </v>
   <v>       0.00000000       0.00000000       0.00000000 </v>
   <v>       0.00000000       0.00000000       0.00000000 </v>
   <v>       0.00000000       0.00000000       0.00000000 </v>
   <v>       0.00000000       0.00000000       0.00000000 </v>
   <v>       0.00000000       0.00000000       0.00000000 </v>
   <v>       0.00000000       0.00000000       0.00000000 </v>
   <v>       0.00000000       0.00000000       0.00000000 </v>
   <v>       0.00000000       0.00000000       0.00000000 </v>
   <v>       0.00000000       0.00000000       0.00000000 </v>
   <v>       0.00000000       0.00000000       0.00000000 </v>
   <v>       0.00000000       0.00000000       0.00000000 </v>
   <v>       0.00000000       0.00000000       0.00000000 </v>
   <v>       0.00000000       0.00000000       0.00000000 </v>
   <v>       0.00000000       0.00000000       0.00000000 </v>
   <v>       0.00000000       0.00000000       0.00000000 </v>
   <v>       0.00000000       0.00000000       0.00000000 </v>
   <v>       0.00000000       0.00000000       0.00000000 </v>
   <v>       0.00000000       0.00000000       0.00000000 </v>
   <v>       0.00000000       0.00000000       0.00000000 </v>
   <v>       0.00000000       0.00000000       0.00000000 </v>
   <v>       0.00000000       0.00000000       0.00000000 </v>
   <v>       0.00000000       0.00000000       0.00000000 </v>
   <v>       0.00000000       0.00000000       0.00000000 </v>
   <v>       0.00000000       0.00000000       0.00000000 </v>
   <v>       0.00000000       0.00000000       0.00000000 </v>
   <v>       0.00000000       0.00000000       0.00000000 </v>
   <v>       0.00000000       0.00000000       0.00000000 </v>
   <v>       0.00000000       0.00000000       0.00000000 </v>
   <v>       0.00000000       0.00000000       0.00000000 </v>
   <v>       0.00000000       0.00000000       0.00000000 </v>
   <v>       0.00000000       0.00000000       0.00000000 </v>
   <v>       0.00000000       0.00000000       0.00000000 </v>
   <v>       0.00000000       0.00000000       0.00000000 </v>
   <v>       0.00000000       0.00000000       0.00000000 </v>
   <v>       0.00000000       0.00000000       0.00000000 </v>
   <v>       0.00000000       0.00000000       0.00000000 </v>
   <v>       0.00000000       0.00000000       0.00000000 </v>
   <v>       0.00000000       0.00000000       0.00000000 </v>
   <v>       0.00000000       0.00000000       0.00000000 </v>
   <v>       0.00000000       0.00000000       0.00000000 </v>
   <v>       0.00000000       0.00000000       0.00000000 </v>
   <v>       0.00000000       0.00000000       0.00000000 </v>
   <v>       0.00000000       0.00000000       0.00000000 </v>
   <v>       0.00000000       0.00000000       0.00000000 </v>
   <v>       0.00000000       0.00000000       0.00000000 </v>
   <v>       0.00000000       0.00000000       0.00000000 </v>
   <v>       0.00000000       0.00000000       0.00000000 </v>
   <v>       0.00000000       0.00000000       0.00000000 </v>
   <v>       0.00000000       0.00000000       0.00000000 </v>
   <v>       0.00000000       0.00000000       0.00000000 </v>
   <v>       0.00000000       0.00000000       0.00000000 </v>
   <v>       0.00000000       0.00000000       0.00000000 </v>
   <v>       0.00000000       0.00000000       0.00000000 </v>
   <v>       0.00000000       0.00000000       0.00000000 </v>
   <v>       0.00000000       0.00000000       0.00000000 </v>
   <v>       0.00000000       0.00000000       0.00000000 </v>
   <v>       0.00000000       0.00000000       0.00000000 </v>
   <v>       0.00000000       0.00000000       0.00000000 </v>
   <v>       0.00000000       0.00000000       0.00000000 </v>
   <v>       0.00000000       0.00000000       0.00000000 </v>
   <v>       0.00000000       0.00000000       0.00000000 </v>
   <v>       0.00000000       0.00000000       0.00000000 </v>
   <v>       0.00000000       0.00000000       0.00000000 </v>
   <v>       0.00000000       0.00000000       0.00000000 </v>
   <v>       0.00000000       0.00000000       0.00000000 </v>
   <v>       0.00000000       0.00000000       0.00000000 </v>
   <v>       0.00000000       0.00000000       0.00000000 </v>
   <v>       0.00000000       0.00000000       0.00000000 </v>
   <v>       0.00000000       0.00000000       0.00000000 </v>
   <v>       0.00000000       0.00000000       0.00000000 </v>
   <v>       0.00000000       0.00000000       0.00000000 </v>
   <v>       0.00000000       0.00000000       0.00000000 </v>
  </varray>
 </structure>
</modeling>
