80
Config_type=0 Weight=1.0 Lattice="13.128623400 0.000000000 0.000000000 -6.564311700 11.369721380 0.000000000 0.000000000 0.000000000 26.828094240" Energy=-597.583477 Virial="8.36259 -2.01056 -2.07657 -2.01056 7.13516 5.98490 -2.07657 5.98490 1.39357" Properties=species:S:1:pos:R:3:forces:R:3
Sc          0.02565      1.98151     12.19017        -0.426034     -0.606546     -0.755283
Sc         -1.55633      4.68725     12.16154        -0.654198      0.653351     -0.072556
Sc         -3.22581      7.69967     12.04859        -0.139441     -0.849656      0.646328
Sc         -4.87317     10.50175     12.10417        -0.833888     -0.420554     -0.418781
Sc          3.31647      1.88894     12.13483        -0.032781      0.043129      0.167879
Sc          1.68376      4.74001     12.26417        -0.292319      0.050416     -0.490640
Sc          0.03520      7.61709     12.08313        -0.027228     -0.060610      0.914671
Sc         -1.58827     10.45156     12.17865         0.146643     -0.023319     -0.391508
Sc          6.59062      1.89528     12.24031        -0.136853      0.394953     -0.157251
Sc          4.91983      4.70876     12.14132         0.185052      0.063519      0.504275
Sc          3.20419      7.53431     12.03625         0.581461      0.637153      1.205778
Sc          1.71106     10.44436     12.13734        -1.017868      0.181042      0.209262
Sc          9.77166      1.90442     12.27377         0.698309      0.479846     -1.370950
Sc          8.26277      4.73154     12.13379        -0.261359     -0.328658      0.411373
Sc          6.53761      7.54268     12.07020        -0.788649      0.514266      0.809909
Sc          4.94624     10.43585     12.04701        -0.275703      0.234702      0.411188
Sc          1.65614      0.95028     14.57011        -0.626346     -0.458769      1.353720
Sc         -0.04463      3.79274     14.79163         0.135347      0.211900     -0.054566
Sc         -1.66082      6.66041     14.66639         0.069909     -0.135589     -0.012268
Sc         -3.38572      9.45333     14.64758         1.005670     -0.035897      0.018178
Sc          4.87286      0.86996     14.63296         0.410840      0.617043      1.264143
Sc          3.24289      3.72270     14.71273         0.643763      0.537044      0.636586
Sc          1.61836      6.65519     14.71180         0.123401      0.307929     -0.094916
Sc         -0.01205      9.52293     14.69354         0.060843     -0.223907     -0.161466
Sc          8.27208      0.88907     14.77410        -0.551487      1.073861     -0.181808
Sc          6.51452      3.79276     14.75520         0.170486      0.039799      0.023883
Sc          4.84768      6.64939     14.61764         0.498460     -0.143839      0.481177
Sc          3.30438      9.51881     14.59415         0.540045     -1.090256      0.300711
Sc         11.56890      0.88685     14.60392         0.067182      0.350322      0.781951
Sc          9.84466      3.75584     14.72918         0.203553      0.565948     -0.118646
Sc          8.23228      6.59349     14.68117        -0.219812     -0.302993     -0.554822
Sc          6.58970      9.35978     14.64457        -0.382636      0.341435     -0.769910
F          0.00169      1.84823     15.83695        -0.070107      0.057895     -0.216431
F         -1.66795      4.96584     16.00494         0.213787     -0.601752     -0.828310
F         -3.32403      7.40242     15.93626        -0.082510      0.505670     -0.888332
F         -4.96097     10.27270     15.74938         0.033722      0.356461      0.294488
F          3.16266      1.64638     15.86950         0.393374      0.549012     -0.224320
F          1.54759      4.77548     15.85506         0.316120     -0.054694      0.103570
F         -0.10395      7.74956     15.81230         0.270090     -0.547558      0.110763
F         -1.69178     10.40976     15.91988         0.029241      0.001430     -0.713901
F          6.62039      1.93708     15.81977        -0.132703     -0.378870      0.316418
F          4.82424      4.72555     15.95233         0.112610     -0.059123     -0.585794
F          3.28826      7.56170     15.78760        -0.114140      0.196787      0.153816
F          1.76696     10.35544     15.80866        -0.377757      0.326894      0.295266
F          9.93549      2.04768     15.93917        -0.045896     -0.777734     -0.305099
F          8.29610      4.73615     15.78854        -0.428761      0.247721      0.286196
F          6.63396      7.52561     15.83135        -0.045683      0.141757     -0.312693
F          5.12544     10.31368     15.74028        -0.823118      0.616234      0.361712
F          1.58576      1.06493     10.96029         0.322517     -0.192619      0.151290
F          0.13199      3.86767     11.01196        -0.212406     -0.224255      0.084338
F         -1.56770      6.82247     10.98172        -0.131289     -0.454589     -0.399369
F         -3.17409      9.59262     11.00058        -0.284478     -0.200222     -0.466224
F          4.89716      0.93381     11.05987         0.133258      0.198977     -0.215244
F          3.36872      3.65976     11.04072        -0.281514      0.502218     -0.247251
F          1.71248      6.51804     10.97180        -0.483048      0.159071     -0.110383
F          0.05864      9.49798     11.01846        -0.054252      0.123165     -0.117387
F          7.93006      0.96609     10.96422         0.954630     -0.274231      0.182267
F          6.62643      3.79938     11.09449        -0.375931     -0.105970     -0.407054
F          4.73964      6.67605     10.94603         0.863086     -0.494710     -0.233827
F          3.15907      9.49450     11.02035         0.486358     -0.105716     -0.637153
F         11.38113      1.04008     10.99765         0.253158     -0.127610      0.142235
F          9.74305      3.66157     10.98535         0.277033      0.287925      0.019753
F          8.12456      6.68208     11.11535         0.606871     -0.405548     -1.077568
F          6.31318      9.42037     10.92961         0.867591     -0.226619     -0.426947
C          6.54235     11.35963     13.32576         0.391556      0.201886     -0.023467
C         -1.57681      2.90705     13.41793        -0.164521     -0.553812      0.479087
C          9.89182      5.55949     13.29233        -0.029475      1.599729      0.964599
C         -4.90156      8.55471     13.28209        -0.001258     -0.357596      0.640237
C         -3.34698     11.36399     13.36090         0.623608     -0.091082      0.204913
C          1.65320      2.84564     13.51386        -0.194828      0.179402     -0.690850
C          0.01462      5.77527     13.45774        -0.091507     -0.668005     -0.290416
C         -1.62610      8.61035     13.37085        -0.238804     -0.463076      0.353031
C          6.58883      0.07744     13.45897        -0.016297     -1.023869      0.371385
C          4.95367      2.80084     13.49612        -0.868842      0.211354     -0.323212
C          3.30214      5.67412     13.40857        -0.569819     -0.300548      0.106006
C          1.70645      8.52719     13.41058        -0.837211      0.324708     -0.330068
C          9.88171      0.05682     13.38047        -0.398276     -0.522219      0.652359
C          8.23494      2.85197     13.50994        -0.200735     -0.268494     -0.178629
C          6.46262      5.64147     13.44560         0.926950      0.532322     -0.377510
C          4.87019      8.55295     13.36547         0.605246     -0.457161     -0.181932
80
Config_type=5 Weight=1.0 Lattice="13.128623400 0.000000000 0.000000000 -6.564311700 11.369721380 0.000000000 0.000000000 0.000000000 26.828094240" Energy=-597.803996 Virial="10.10861 -0.13606 -2.17181 -0.13606 7.05108 6.84641 -2.17181 6.84641 7.66266" Properties=species:S:1:pos:R:3:forces:R:3
Sc         -0.00030      1.91630     12.23869        -0.015149     -0.005237     -0.857506
Sc         -1.66786      4.66006     12.11650         0.240516      0.226475      0.462771
Sc         -3.19025      7.51815     12.14132        -0.912387      0.426725     -0.053877
Sc         -4.94200     10.43947     12.16420        -0.164826      0.417849     -0.273535
Sc          3.31833      1.98789     12.21572        -0.264656     -0.612634     -0.715904
Sc          1.58860      4.81096     12.18319         1.006029     -0.377717     -0.379403
Sc         -0.00401      7.52658     12.13866        -0.191281      0.507501     -0.327926
Sc         -1.71669     10.42137     12.17468         0.579793      0.263433     -0.002044
Sc          6.56435      1.89065     12.14681        -0.018433     -0.544245      0.544706
Sc          4.93862      4.73671     12.19224         0.125878      0.489787      0.009279
Sc          3.35535      7.59856     12.08978        -0.445144     -0.241482      0.132091
Sc          1.54822     10.38280     12.10539         0.586985      0.511762     -0.055351
Sc          9.77265      1.95242     12.09321         0.817890     -0.806177      0.257778
Sc          8.22440      4.68893     12.06984        -0.485963      0.546924      1.125494
Sc          6.54930      7.64837     12.16872         0.018754     -0.910852     -0.553803
Sc          4.85995     10.48909     12.19255         0.339652     -0.324592     -1.269198
Sc          1.62813      1.00832     14.68071         0.180874     -0.329400      0.381116
Sc          0.09599      3.86890     14.69169        -0.683870     -0.720646      0.055739
Sc         -1.67836      6.62799     14.65884         0.159815      0.219747      0.199431
Sc         -3.38929      9.46096     14.69055         0.976728      0.308457      0.495906
Sc          4.86071      0.95016     14.68332         0.955451     -0.565195      0.952729
Sc          3.45899      3.81614     14.73947        -0.841694     -0.059597     -0.504952
Sc          1.60537      6.66020     14.66525         0.929010     -0.450323     -0.205618
Sc          0.01952      9.40716     14.61679        -1.062639      0.885305      0.843209
Sc          8.24206      0.92429     14.65386        -0.701093     -0.333933      0.333052
Sc          6.68934      3.71255     14.80326        -0.783361      0.023112     -0.981160
Sc          4.90885      6.68922     14.72475         0.514520     -0.136776     -0.630036
Sc          3.19291      9.46985     14.68161         0.812962     -0.083968     -0.383179
Sc         11.39521      0.95015     14.67509         0.739693     -0.101007      0.089493
Sc          9.85140      3.82773     14.67747         0.375069     -0.600673     -0.245391
Sc          8.20139      6.56564     14.66039        -0.546025      0.873075     -0.026537
Sc          6.54957      9.51650     14.54426        -0.442169     -0.302073      2.036260
F         -0.00034      1.81319     15.77673        -0.128160      0.501137      0.260991
F         -1.66348      4.76802     15.76231         0.197112     -0.079350      0.480099
F         -3.22476      7.59622     15.78471        -0.398217     -0.190737      0.261054
F         -4.96894     10.52055     15.81493         0.012756     -0.257576     -0.158960
F          3.25707      1.90124     15.93592         0.123823      0.092834     -0.470719
F          1.85874      4.68972     15.73705        -0.926045      0.384170      0.750560
F          0.03086      7.45757     15.78047        -0.236014      0.491985      0.384636
F         -1.66958     10.22579     15.84180         0.066001      0.346915     -0.212089
F          6.65167      1.75833     15.89833        -0.177793      0.582517     -0.109136
F          5.05084      4.78477     15.80156        -0.147477     -0.189144      0.502745
F          3.31189      7.60474     15.85327        -0.350169     -0.013015     -0.181787
F          1.62877     10.29779     15.83689         0.066936      0.125471     -0.104579
F          9.83516      1.76488     15.81256         0.072184      0.464464      0.398761
F          8.26912      4.60037     15.90919        -0.099249      0.534117     -0.037792
F          6.56203      7.63398     15.80811         0.017486     -0.256398      0.001578
F          4.82190     10.26142     15.76859         0.182693      0.538015      0.084631
F          1.65532      1.01551     11.02451        -0.073083     -0.205433      0.254896
F         -0.03228      3.97805     10.99051         0.186050     -0.587460      0.015947
F         -1.56356      6.46132     11.05522        -0.365428      0.799674     -0.552924
F         -3.33021      9.53754     11.08566        -0.013345     -0.297285     -0.441940
F          5.00210      0.93321     11.02861        -0.211134      0.061712     -0.061235
F          3.40002      3.83137     11.08385        -0.509715     -0.227871     -0.478576
F          1.58220      6.66317     10.95060         0.107332     -0.143844      0.204325
F         -0.05232      9.52580     10.91607         0.091217     -0.097800      0.424366
F          8.27106      1.09219     10.89192        -0.501898     -0.368563      0.363560
F          6.62137      3.73613     11.11269        -0.277091      0.109434     -0.749482
F          4.86013      6.65657     10.93798         0.331716     -0.159043      0.175072
F          3.37584      9.53222     10.97051        -0.584395     -0.265403      0.103660
F         11.43577      0.98592     11.05804         0.295773      0.144927     -0.188420
F          9.84212      3.74952     10.84348        -0.039452      0.175130      0.662998
F          8.29357      6.46860     11.05151        -0.093334      0.820757     -0.606174
F          6.46807      9.50261     10.98612         0.574954     -0.053041      0.160330
C         13.03248      0.02539     13.41558         1.058318      0.334408     -0.201093
C         -1.66301      2.90329     13.44206         0.209722     -0.270845     -0.170674
C         -3.30627      5.73497     13.39330         0.069873     -0.962422      0.206080
C          8.15832      8.54442     13.48692         0.405306     -0.192819     -1.260037
C          3.34049      0.03441     13.45626        -1.138240     -0.303000     -0.353518
C          1.70724      2.86360     13.40289        -0.769177      0.203548      0.401591
C         -0.03610      5.71608     13.46154         0.614352     -0.428198     -0.347157
C         -1.68443      8.52851     13.39459         0.375106     -0.392615     -0.378121
C          6.57087      0.05900     13.51387         0.061075     -1.126383     -1.395154
C          4.95821      2.80005     13.45446         0.274148      0.467934      0.298665
C          3.27609      5.68030     13.39367         0.150800      0.404246      0.336167
C          1.59072      8.50185     13.35523         0.419455      0.292856      0.065689
C          9.87088      0.01104     13.33815        -1.118736     -0.179887      0.889499
C          8.23231      2.78225     13.47467        -0.011757      0.770754     -0.518550
C          6.51217      5.68341     13.38244         1.219329     -0.173372      0.670912
C          4.95443      8.46650     13.37060        -0.814535      0.580875      0.165669
80
Config_type=10 Weight=1.0 Lattice="13.128623400 0.000000000 0.000000000 -6.564311700 11.369721380 0.000000000 0.000000000 0.000000000 26.828094240" Energy=-598.116177 Virial="6.43069 0.64176 0.13842 0.64176 6.82972 -5.66307 0.13842 -5.66307 -5.09776" Properties=species:S:1:pos:R:3:forces:R:3
Sc          0.03763      1.90678     12.12101        -0.179185      0.086155      0.041987
Sc         -1.61131      4.74988     12.15726        -0.393870     -0.097057      0.220330
Sc         -3.30733      7.54901     12.14855         0.195594      0.085729     -0.009965
Sc         -4.89886     10.33388     12.09602         0.002568      0.592342      0.146256
Sc          3.25879      1.86144     12.13323         0.578848      0.942577      0.188116
Sc          1.58660      4.78353     12.15744         0.546348     -0.648818      0.682297
Sc         -0.05017      7.56979     12.16175         0.588973      0.445357     -0.100379
Sc         -1.71225     10.39127     12.15741         0.897782     -0.038337     -0.082980
Sc          6.57631      1.86898     12.12955        -0.773311      0.513689      0.228056
Sc          4.93200      4.83285     12.25842        -0.490072     -1.758824     -0.724018
Sc          3.29293      7.50857     12.08836        -0.718558      1.099441      0.833992
Sc          1.67761     10.45505     12.04752        -0.373870     -1.034748      0.395123
Sc          9.90763      1.82183     12.13850        -0.240486      0.547140     -0.059196
Sc          8.23735      4.73168     12.00239        -0.345033     -0.402093      0.962503
Sc          6.49775      7.57942     12.15264         0.573644      0.182984      0.248197
Sc          4.97157     10.37986     12.20699        -0.413939     -0.110577     -0.590650
Sc          1.58065      0.96576     14.59988         1.296593     -0.069284      0.222900
Sc         -0.02832      3.81463     14.78752         0.113549      0.034407     -0.914295
Sc         -1.68004      6.61755     14.66518        -0.003494      0.119561      0.610358
Sc         -3.20241      9.54930     14.70836        -0.549088     -0.496067     -0.546574
Sc          4.89325      1.01082     14.70598        -0.155450      0.181500     -0.684437
Sc          3.21341      3.82065     14.81180         0.487520     -0.137175     -1.147542
Sc          1.64443      6.76123     14.73376        -0.671474     -0.784033     -0.825743
Sc          0.00167      9.52043     14.65852         0.066627     -0.366519     -0.423330
Sc          8.13224      0.87727     14.72305         0.503594      0.498388     -0.684983
Sc          6.54443      3.75834     14.63954        -0.160696      0.501126     -0.127467
Sc          4.91318      6.59792     14.68633         0.191661      0.616478      0.283596
Sc          3.34513      9.48002     14.70867        -0.172999     -0.035429     -0.817173
Sc         11.60129      0.93169     14.65624        -0.843509     -0.027657      0.231856
Sc          9.70523      3.69110     14.64597         1.407586      0.491322      0.005721
Sc          8.18252      6.59663     14.67605         0.445446      0.177561     -0.172789
Sc          6.75784      9.47660     14.73024        -1.432818     -0.104026     -0.350744
F          0.09158      1.69693     15.85503        -0.553100      0.612910      0.170569
F         -1.55117      4.75073     15.86483        -0.426396      0.078752      0.161181
F         -3.32419      7.62881     15.82567         0.039660      0.017089     -0.048837
F         -4.86436     10.57436     15.83977         0.065610     -0.606947     -0.020805
F          3.32969      1.98757     15.88729        -0.172390     -0.269397     -0.119287
F          1.63251      4.77127     15.88542        -0.069286     -0.067707      0.099175
F          0.04408      7.74561     15.81669        -0.181917     -0.424034      0.329347
F         -1.70172     10.51184     15.79750         0.275438     -0.151315      0.442545
F          6.49273      2.03970     15.81837         0.221375     -0.719132      0.326627
F          4.92290      4.76967     15.92066        -0.052636     -0.013511     -0.335944
F          3.18295      7.64038     15.74561         0.803439     -0.004716      1.036044
F          1.60454     10.39816     15.82672         0.209229      0.148237      0.132640
F          9.84139      1.90022     15.82608         0.002892     -0.242566     -0.147945
F          8.22816      4.65136     15.78687        -0.223117      0.375321      0.220348
F          6.63916      7.62771     15.82091        -0.073810     -0.194388      0.163831
F          4.93197     10.38524     15.89991         0.026036      0.225227     -0.441740
F          1.74259      0.91549     11.08188        -0.728262     -0.096017     -0.954763
F         -0.01307      3.82751     11.01104         0.104410     -0.067382     -0.087795
F         -1.63029      6.69713     10.93952        -0.061984     -0.219299      0.334369
F         -3.21319      9.42898     10.98336        -0.363156     -0.064949     -0.166787
F          4.89335      0.78192     11.10072         0.293921      0.902174     -0.892052
F          3.20958      3.81897     11.06357         0.147611      0.123173     -0.091658
F          1.63684      6.53285     10.98775        -0.078616      0.279679     -0.037128
F          0.08768      9.39639     10.91889        -0.246502      0.167208      0.398543
F          8.07043      1.01920     10.93690         0.617526     -0.339747      0.065582
F          6.59511      3.79103     10.90195        -0.032465      0.066643      0.524963
F          4.87946      6.58310     11.07537         0.314861      0.102222     -0.789561
F          3.36001      9.41852     10.93599        -0.172503      0.130312      0.255466
F         11.49844      0.95506     10.93280         0.021531     -0.005595      0.365417
F          9.87749      3.88556     10.93142         0.085036     -0.304139      0.209806
F          8.14257      6.55950     11.03375         0.179665      0.548703     -0.566840
F          6.49612      9.47188     10.99259         0.240128     -0.061986     -0.151655
C         -6.51308     11.33864     13.39980        -0.433118      0.144804     -0.022241
C         -1.57593      2.85476     13.42182        -0.683755     -0.636001     -0.022247
C         -3.25830      5.72406     13.39668        -0.409127     -0.447208     -0.052691
C          8.15028      8.54260     13.33891         0.681751     -0.184270      0.690346
C          3.31891      0.02911     13.30876        -0.480201     -0.744798      1.477932
C          1.61734      2.78569     13.39571        -0.024443      0.947396      0.556140
C         -0.04708      5.68711     13.50301         0.330005     -0.068716     -0.707777
C         -1.67062      8.55262     13.43807         0.089087     -0.242317     -0.050065
C          6.54691      0.01928     13.46504         0.422160      0.073529     -0.366801
C          4.87935      2.86046     13.39486         0.492471      0.155260      0.430422
C          3.26703      5.72775     13.47044         0.097734     -0.417060     -0.010644
C          1.66703      8.46271     13.36184        -0.435665      0.882066      0.096221
C          3.22243     11.32300     13.32083         0.701086      0.561418      0.813084
C          8.18148      2.87169     13.40275         0.140739     -0.627130     -0.461973
C          6.61812      5.72771     13.41345        -0.766785     -0.385169      0.122022
C          4.92260      8.51548     13.43314         0.087357      0.058256      0.085595
80
Config_type=15 Weight=1.0 Lattice="13.128623400 0.000000000 0.000000000 -6.564311700 11.369721380 0.000000000 0.000000000 0.000000000 26.828094240" Energy=-597.523039 Virial="8.87144 -0.02734 -5.79069 -0.02734 6.45289 7.51542 -5.79069 7.51542 3.29088" Properties=species:S:1:pos:R:3:forces:R:3
Sc         -0.03843      1.93558     12.10670         0.247537     -0.516144     -0.418570
Sc         -1.70901      4.87777     12.11964         0.559087     -0.963644     -0.076122
Sc         -3.36009      7.56890     12.21956         0.879873      0.462383     -0.639007
Sc         -4.91707     10.35083     12.19812        -0.341291      0.368936     -0.763426
Sc          3.25030      1.87332     12.12150        -0.545761      0.461871      0.353810
Sc          1.57132      4.77024     12.09708         0.078597      0.022977     -0.548540
Sc         -0.04836      7.58786     12.14387         0.180039      0.399218     -0.149808
Sc         -1.56420     10.51713     12.16820        -0.671191     -1.120317      0.482913
Sc          6.57193      1.88747     12.20306         0.487751      0.925924      0.116454
Sc          4.85763      4.67167     12.22230         0.480481      0.784746     -1.099127
Sc          3.28509      7.55805     12.05209        -0.095142     -0.130072      0.570041
Sc          1.65546     10.44326     12.18378        -0.369237      0.086639     -0.014477
Sc          9.92902      1.90635     12.09254        -0.757075      0.446495      0.358857
Sc          8.17925      4.73473     12.13590         0.150873     -0.465381      0.349240
Sc          6.52753      7.56385     12.24746         0.281984      0.107193     -0.896724
Sc          4.90154     10.38399     12.10473         0.839851      0.166606      0.126822
Sc          1.67902      1.03621     14.67707        -0.531606     -1.245602      0.198281
Sc         -0.02231      3.77551     14.64133        -0.113815      0.350557      0.028156
Sc         -1.58296      6.59066     14.67069        -0.826387      0.698676      0.312796
Sc         -3.25094      9.42657     14.65731         0.324462      0.192737      1.275406
Sc          4.92814      1.00939     14.66393         0.076252     -0.767576      1.014219
Sc          3.14740      3.85758     14.67182         0.440908      0.138628      0.152778
Sc          1.64659      6.70330     14.59582         0.051219     -0.903901      0.657277
Sc          0.06679      9.36561     14.68118        -1.151979      0.872674      0.539140
Sc          8.31419      0.91215     14.71807        -0.960835      0.815172      0.019149
Sc          6.51762      3.83125     14.80816         0.736991     -0.561104     -0.789840
Sc          4.93712      6.66063     14.74705        -0.377743      0.075969     -0.613411
Sc          3.26473      9.50619     14.66165         0.511335     -0.920755     -0.379983
Sc         11.55747      0.87188     14.65650         0.040807      0.253403     -0.308395
Sc          9.91010      3.68843     14.68130        -0.828371      0.718967     -0.347645
Sc          8.18051      6.54156     14.63247         1.103932      0.520862      1.488791
Sc          6.59467      9.40914     14.72643         0.471026      0.835844     -0.468325
F         -0.01103      1.84320     15.74150         0.030741      0.279553      0.501604
F         -1.69173      4.70937     15.67915         0.634765      0.000682      0.984642
F         -3.23101      7.55067     15.78499        -0.083840     -0.099079      0.150262
F         -4.98619     10.39550     15.87228         0.120832      0.160664     -0.267209
F          3.14705      2.03314     15.85020         0.369607     -0.202521     -0.093202
F          1.74432      4.81039     15.99982        -0.300031     -0.112329     -1.030991
F          0.10168      7.52844     15.89640        -0.184873      0.034152     -0.382432
F         -1.66658     10.32668     15.81224         0.231108      0.361530      0.088470
F          6.65939      1.85732     15.86390        -0.358432      0.266506     -0.050751
F          4.78455      4.82294     15.81835         0.369691     -0.277471      0.206492
F          3.30588      7.58854     15.77286        -0.184406      0.090884      0.151293
F          1.75667     10.37652     15.80730        -0.317516      0.208655      0.350708
F          9.99051      1.86752     15.85995        -0.281895     -0.145688     -0.057503
F          8.35136      4.66002     15.90847        -0.529629      0.166739     -0.308267
F          6.58923      7.63761     15.82061        -0.185300     -0.671087      0.346389
F          4.98913     10.19967     15.76022        -0.635011      0.862042      0.620379
F          1.45911      0.88322     10.93829         0.730065      0.211700      0.488193
F         -0.03428      3.77915     10.88817         0.107900      0.050650      0.458549
F         -1.61264      6.74263     11.04672        -0.489406     -0.324297     -0.492079
F         -3.40323      9.34878     10.90694         0.280023      0.371274      0.708087
F          4.83396      1.16520     11.04536         0.581960     -0.945165     -0.405911
F          3.42946      3.92349     10.84326        -0.521202     -0.517144      0.708638
F          1.54074      6.72677     10.97398         0.340276     -0.268718     -0.266186
F          0.03255      9.52852     11.12045        -0.240192      0.176923     -0.670548
F          8.12425      0.97290     11.06139         0.257004     -0.167935     -0.280596
F          6.59778      3.86177     10.94512        -0.094831     -0.223492      0.563534
F          5.01796      6.62019     11.07477        -0.310747      0.004658     -0.242113
F          3.17214      9.49262     11.02538         0.311925     -0.033507     -0.308565
F         11.41363      0.93086     10.91394         0.137372     -0.066830      0.256306
F         10.01004      3.85153     10.95388        -0.688329     -0.207392      0.024048
F          8.20600      6.62804     11.13715        -0.224594      0.042400     -0.634420
F          6.65288      9.45858     10.90670        -0.455179     -0.168497      0.789566
C          6.49833     11.28408     13.38330         0.192104      0.394536     -0.007692
C         -1.56920      2.84479     13.38731        -0.546341     -0.286014     -0.027686
C          9.83687      5.69785     13.43773         0.128882     -0.387206     -0.523666
C         -4.85451      8.52935     13.48369        -0.976189     -0.354263     -0.494521
C         -3.33016     11.36630     13.51161         0.621869      0.773345     -1.436747
C          1.58880      2.87258     13.40997         0.390886     -0.119187     -0.550322
C         -0.03942      5.71944     13.34133         0.462211     -0.466456      0.609712
C         -1.58455      8.50079     13.45760        -0.371718      0.536719     -0.419113
C         -0.03653     11.36329     13.51098         0.348141      0.317231     -0.907332
C          4.96259      2.87985     13.42222        -0.663276     -0.333624      0.691272
C          3.15382      5.67871     13.29586         0.819254      0.002102      0.793397
C          1.60070      8.49720     13.39049         0.922932      0.664941      0.150157
C          9.80355      0.08254     13.40534         0.731499     -1.098227     -0.087025
C          8.24968      2.89282     13.41709        -0.280804     -0.620810      0.052239