 running on   48 total cores
 distrk:  each k-point on   48 cores,    1 groups
 distr:  one band on   12 cores,    4 groups
 using from now: INCAR     
 vasp.5.4.4.18Apr17-6-g9f103f2a35 (build Mar 16 2023 09:39:13) complex          
  
 POSCAR found type information on POSCAR  Ca Si O 
 POSCAR found :  3 types and     135 ions
 scaLAPACK is switched off
 LDA part: xc-table for Pade appr. of Perdew
 generate k-points for:    2    2    2
 POSCAR, INCAR and KPOINTS ok, starting setup
 FFT: planning ...
 WAVECAR not read
 entering main loop
       N       E                     dE             d eps       ncg     rms          rms(c)
DAV:   1     0.933833210222E+04    0.93383E+04   -0.46755E+05  8320   0.176E+03
DAV:   2    -0.262888328543E+02   -0.93646E+04   -0.90857E+04 10120   0.462E+02
DAV:   3    -0.103699205087E+04   -0.10107E+04   -0.10050E+04 10224   0.155E+02
DAV:   4    -0.108500059573E+04   -0.48009E+02   -0.47834E+02 10752   0.315E+01
DAV:   5    -0.109138067742E+04   -0.63801E+01   -0.63767E+01 15640   0.751E+00    0.858E+01
DAV:   6    -0.938124694238E+03    0.15326E+03   -0.76116E+02 10568   0.409E+01    0.369E+01
DAV:   7    -0.939183416799E+03   -0.10587E+01   -0.71305E+01 11368   0.132E+01    0.185E+01
DAV:   8    -0.937630786791E+03    0.15526E+01   -0.11830E+01 10264   0.582E+00    0.726E+00
DAV:   9    -0.937284852636E+03    0.34593E+00   -0.26582E+00 11464   0.308E+00    0.226E+00
DAV:  10    -0.937399781346E+03   -0.11493E+00   -0.99444E-01 11968   0.167E+00    0.128E+00
DAV:  11    -0.937424433500E+03   -0.24652E-01   -0.14379E-01 11216   0.671E-01    0.743E-01
DAV:  12    -0.937448794109E+03   -0.24361E-01   -0.70970E-02  9792   0.491E-01    0.305E-01
DAV:  13    -0.937453916579E+03   -0.51225E-02   -0.18742E-02 11592   0.281E-01    0.210E-01
DAV:  14    -0.937454855661E+03   -0.93908E-03   -0.75725E-03 11360   0.147E-01    0.101E-01
DAV:  15    -0.937455225094E+03   -0.36943E-03   -0.13584E-03 10040   0.780E-02    0.572E-02
DAV:  16    -0.937455328901E+03   -0.10381E-03   -0.61651E-04 10968   0.554E-02    0.379E-02
DAV:  17    -0.937455342286E+03   -0.13386E-04   -0.33884E-04 10872   0.297E-02    0.258E-02
DAV:  18    -0.937455343198E+03   -0.91233E-06   -0.45824E-05  9952   0.103E-02    0.134E-02
DAV:  19    -0.937455347349E+03   -0.41509E-05   -0.18117E-05  8976   0.764E-03    0.597E-03
DAV:  20    -0.937455348805E+03   -0.14552E-05   -0.66600E-06  9456   0.475E-03    0.303E-03
DAV:  21    -0.937455349512E+03   -0.70783E-06   -0.13225E-06  5896   0.228E-03
   1 F= -.93745535E+03 E0= -.93745535E+03  d E =-.200056E-15
