 running on   52 total cores
 distrk:  each k-point on   52 cores,    1 groups
 distr:  one band on   13 cores,    4 groups
 using from now: INCAR     
 vasp.5.4.4.18Apr17-6-g9f103f2a35 (build Oct 31 2019 15:01:46) complex          
  
 POSCAR found type information on POSCAR  Ca Si O 
 POSCAR found :  3 types and     135 ions
 scaLAPACK is switched off
 LDA part: xc-table for Pade appr. of Perdew
 generate k-points for:    2    2    2
 POSCAR, INCAR and KPOINTS ok, starting setup
 FFT: planning ...
 WAVECAR not read
 entering main loop
       N       E                     dE             d eps       ncg     rms          rms(c)
DAV:   1     0.922019538632E+04    0.92202E+04   -0.46115E+05  8320   0.174E+03
DAV:   2     0.308133886436E+02   -0.91894E+04   -0.89106E+04 10256   0.452E+02
DAV:   3    -0.100249583247E+04   -0.10333E+04   -0.10255E+04 10280   0.153E+02
DAV:   4    -0.104999843477E+04   -0.47503E+02   -0.47323E+02 11160   0.318E+01
DAV:   5    -0.105609966255E+04   -0.61012E+01   -0.60982E+01 14784   0.702E+00    0.852E+01
DAV:   6    -0.889962920234E+03    0.16614E+03   -0.80972E+02 10104   0.430E+01    0.395E+01
DAV:   7    -0.892823798709E+03   -0.28609E+01   -0.99774E+01 10704   0.162E+01    0.210E+01
DAV:   8    -0.886998924969E+03    0.58249E+01   -0.18832E+01 12616   0.928E+00    0.127E+01
DAV:   9    -0.887986624992E+03   -0.98770E+00   -0.92965E+00 10976   0.571E+00    0.143E+01
DAV:  10    -0.886385335954E+03    0.16013E+01   -0.58897E+00 11096   0.362E+00    0.515E+00
DAV:  11    -0.886267845452E+03    0.11749E+00   -0.21217E+00 11080   0.233E+00    0.718E+00
DAV:  12    -0.886115402579E+03    0.15244E+00   -0.18426E+00 10896   0.128E+00    0.307E+00
DAV:  13    -0.886024490360E+03    0.90912E-01   -0.23697E-01 10456   0.995E-01    0.150E+00
DAV:  14    -0.886060523833E+03   -0.36033E-01   -0.31455E-01 11080   0.609E-01    0.220E+00
DAV:  15    -0.886049717822E+03    0.10806E-01   -0.31806E-01 11224   0.423E-01    0.110E+00
DAV:  16    -0.886050313916E+03   -0.59609E-03   -0.10160E-01 11304   0.317E-01    0.107E+00
DAV:  17    -0.886057853474E+03   -0.75396E-02   -0.11065E-01  9680   0.234E-01    0.876E-01
DAV:  18    -0.886057658347E+03    0.19513E-03   -0.14339E-02  9648   0.176E-01    0.246E-01
DAV:  19    -0.886060519305E+03   -0.28610E-02   -0.80260E-03 11024   0.122E-01    0.450E-01
DAV:  20    -0.886060543939E+03   -0.24634E-04   -0.46066E-03 11512   0.852E-02    0.213E-01
DAV:  21    -0.886060485886E+03    0.58053E-04   -0.12726E-03  9824   0.472E-02    0.988E-02
DAV:  22    -0.886060566707E+03   -0.80820E-04   -0.43727E-04 11144   0.287E-02    0.606E-02
DAV:  23    -0.886060582256E+03   -0.15549E-04   -0.74989E-05 10160   0.144E-02    0.169E-02
DAV:  24    -0.886060605333E+03   -0.23077E-04   -0.41263E-05  9248   0.118E-02    0.356E-02
DAV:  25    -0.886060604087E+03    0.12462E-05   -0.18762E-05 10000   0.726E-03    0.207E-02
DAV:  26    -0.886060604048E+03    0.38417E-07   -0.62106E-06  8072   0.357E-03
   1 F= -.88606060E+03 E0= -.88603469E+03  d E =-.518255E-01
