 vasp.5.4.4.18Apr17-6-g9f103f2a35 (build Oct 31 2019 15:01:46) complex          
  
 executed on             LinuxIFC date 2024.04.29  09:41:25
 running on   52 total cores
 distrk:  each k-point on   52 cores,    1 groups
 distr:  one band on NCORES_PER_BAND=  13 cores,    4 groups


--------------------------------------------------------------------------------------------------------


 INCAR:
 POTCAR:    PAW_PBE Ca_sv 06Sep2000               
 POTCAR:    PAW_PBE Si 05Jan2001                  
 POTCAR:    PAW_PBE O 08Apr2002                   
 POTCAR:    PAW_PBE Ca_sv 06Sep2000               
   SHA256 =  a47365830e737f14e0e6c5cf1ed81b94e081eecf0a33df105380881bc9da05d5 Ca
   COPYR  = (c) Copyright 06Sep2000 Georg Kresse                                
   COPYR  = This file is part of the software VASP. Any use, copying, and all ot
   COPYR  = If you do not have a valid VASP license, you may not use, copy or di
   VRHFIN =Ca: 3s3p4s                                                           
   LEXCH  = PE                                                                  
   EATOM  =  1006.0909 eV,   73.9456 Ry                                         
                                                                                
   TITEL  = PAW_PBE Ca_sv 06Sep2000                                             
   LULTRA =        F    use ultrasoft PP ?                                      
   IUNSCR =        1    unscreen: 0-lin 1-nonlin 2-no                           
   RPACOR =    2.000    partial core radius                                     
   POMASS =   40.078; ZVAL   =   10.000    mass and valenz                      
   RCORE  =    2.300    outmost cutoff radius                                   
   RWIGS  =    2.500; RWIGS  =    1.323    wigner-seitz radius (au A)           
   ENMAX  =  266.622; ENMIN  =  199.967 eV                                      
   RCLOC  =    1.808    cutoff for local pot                                    
   LCOR   =        T    correct aug charges                                     
   LPAW   =        T    paw PP                                                  
   EAUG   =  420.852                                                            
   RMAX   =    2.359    core radius for proj-oper                               
   RAUG   =    1.300    factor for augmentation sphere                          
   RDEP   =    2.392    radius for radial grids                                 
   RDEPT  =    1.987    core radius for aug-charge                              
                                                                                
   Atomic configuration                                                         
    7 entries                                                                   
     n  l   j            E        occ.                                          
     1  0  0.50     -3949.1705   2.0000                                         
     2  0  0.50      -414.3434   2.0000                                         
     2  1  1.50      -334.7047   6.0000                                         
     3  0  0.50       -47.0896   2.0000                                         
     4  0  0.50        -3.7663   2.0000                                         
     3  1  1.50       -28.0061   6.0000                                         
     3  2  1.50        -4.0817   0.0000                                         
   Description                                                                  
     l       E           TYP  RCUT    TYP  RCUT                                 
     0    -47.0896403     23  2.300                                             
     0     -3.7663320     23  2.300                                             
     1    -28.0060855     23  2.300                                             
     1      6.8029130     23  2.300                                             
     2     -4.0817478     23  2.300                                             
     2      0.4464412     23  2.300                                             
  local pseudopotential read in
  partial core-charges read in
  partial kinetic energy density read in
  atomic valenz-charges read in
  non local Contribution for L=           0  read in
    real space projection operators read in
  non local Contribution for L=           0  read in
    real space projection operators read in
  non local Contribution for L=           1  read in
    real space projection operators read in
  non local Contribution for L=           1  read in
    real space projection operators read in
  non local Contribution for L=           2  read in
    real space projection operators read in
  non local Contribution for L=           2  read in
    real space projection operators read in
    PAW grid and wavefunctions read in
 
   number of l-projection  operators is LMAX  =           6
   number of lm-projection operators is LMMAX =          18
 
 POTCAR:    PAW_PBE Si 05Jan2001                  
   SHA256 =  79d9987ad8750f624c4d6acb2a16d13abf6a777132adc04dc6c8399be72b42bb Si
   COPYR  = (c) Copyright 05Jan2001 Georg Kresse                                
   COPYR  = This file is part of the software VASP. Any use, copying, and all ot
   COPYR  = If you do not have a valid VASP license, you may not use, copy or di
   VRHFIN =Si: s2p2                                                             
   LEXCH  = PE                                                                  
   EATOM  =   103.0669 eV,    7.5752 Ry                                         
                                                                                
   TITEL  = PAW_PBE Si 05Jan2001                                                
   LULTRA =        F    use ultrasoft PP ?                                      
   IUNSCR =        1    unscreen: 0-lin 1-nonlin 2-no                           
   RPACOR =    1.500    partial core radius                                     
   POMASS =   28.085; ZVAL   =    4.000    mass and valenz                      
   RCORE  =    1.900    outmost cutoff radius                                   
   RWIGS  =    2.480; RWIGS  =    1.312    wigner-seitz radius (au A)           
   ENMAX  =  245.345; ENMIN  =  184.009 eV                                      
   ICORE  =        2    local potential                                         
   LCOR   =        T    correct aug charges                                     
   LPAW   =        T    paw PP                                                  
   EAUG   =  322.069                                                            
   DEXC   =    0.000                                                            
   RMAX   =    1.950    core radius for proj-oper                               
   RAUG   =    1.300    factor for augmentation sphere                          
   RDEP   =    1.993    radius for radial grids                                 
   RDEPT  =    1.837    core radius for aug-charge                              
                                                                                
   Atomic configuration                                                         
    6 entries                                                                   
     n  l   j            E        occ.                                          
     1  0  0.50     -1785.8828   2.0000                                         
     2  0  0.50      -139.4969   2.0000                                         
     2  1  1.50       -95.5546   6.0000                                         
     3  0  0.50       -10.8127   2.0000                                         
     3  1  0.50        -4.0811   2.0000                                         
     3  2  1.50        -4.0817   0.0000                                         
   Description                                                                  
     l       E           TYP  RCUT    TYP  RCUT                                 
     0    -10.8127223     23  1.900                                             
     0     -7.6451159     23  1.900                                             
     1     -4.0811372     23  1.900                                             
     1      2.4879257     23  1.900                                             
     2     -4.0817478      7  1.900                                             
  local pseudopotential read in
  partial core-charges read in
  partial kinetic energy density read in
  atomic valenz-charges read in
  non local Contribution for L=           0  read in
    real space projection operators read in
  non local Contribution for L=           0  read in
    real space projection operators read in
  non local Contribution for L=           1  read in
    real space projection operators read in
  non local Contribution for L=           1  read in
    real space projection operators read in
    PAW grid and wavefunctions read in
 
   number of l-projection  operators is LMAX  =           4
   number of lm-projection operators is LMMAX =           8
 
 POTCAR:    PAW_PBE O 08Apr2002                   
   SHA256 =  818f92134a0a090dccd8ba1447fa70422a3b330e708bb4f08108d8ae51209ddf O/
   COPYR  = (c) Copyright 08Apr2002 Georg Kresse                                
   COPYR  = This file is part of the software VASP. Any use, copying, and all ot
   COPYR  = If you do not have a valid VASP license, you may not use, copy or di
   VRHFIN =O: s2p4                                                              
   LEXCH  = PE                                                                  
   EATOM  =   432.3788 eV,   31.7789 Ry                                         
                                                                                
   TITEL  = PAW_PBE O 08Apr2002                                                 
   LULTRA =        F    use ultrasoft PP ?                                      
   IUNSCR =        1    unscreen: 0-lin 1-nonlin 2-no                           
   RPACOR =    1.200    partial core radius                                     
   POMASS =   16.000; ZVAL   =    6.000    mass and valenz                      
   RCORE  =    1.520    outmost cutoff radius                                   
   RWIGS  =    1.550; RWIGS  =    0.820    wigner-seitz radius (au A)           
   ENMAX  =  400.000; ENMIN  =  300.000 eV                                      
   ICORE  =        2    local potential                                         
   LCOR   =        T    correct aug charges                                     
   LPAW   =        T    paw PP                                                  
   EAUG   =  605.392                                                            
   DEXC   =    0.000                                                            
   RMAX   =    1.553    core radius for proj-oper                               
   RAUG   =    1.300    factor for augmentation sphere                          
   RDEP   =    1.550    radius for radial grids                                 
   RDEPT  =    1.329    core radius for aug-charge                              
                                                                                
   Atomic configuration                                                         
    4 entries                                                                   
     n  l   j            E        occ.                                          
     1  0  0.50      -514.6923   2.0000                                         
     2  0  0.50       -23.9615   2.0000                                         
     2  1  0.50        -9.0305   4.0000                                         
     3  2  1.50        -9.5241   0.0000                                         
   Description                                                                  
     l       E           TYP  RCUT    TYP  RCUT                                 
     0    -23.9615318     23  1.200                                             
     0     -9.5240782     23  1.200                                             
     1     -9.0304911     23  1.520                                             
     1      8.1634956     23  1.520                                             
     2     -9.5240782      7  1.500                                             
  local pseudopotential read in
  partial core-charges read in
  partial kinetic energy density read in
  kinetic energy density of atom read in
  atomic valenz-charges read in
  non local Contribution for L=           0  read in
    real space projection operators read in
  non local Contribution for L=           0  read in
    real space projection operators read in
  non local Contribution for L=           1  read in
    real space projection operators read in
  non local Contribution for L=           1  read in
    real space projection operators read in
    PAW grid and wavefunctions read in
 
   number of l-projection  operators is LMAX  =           4
   number of lm-projection operators is LMMAX =           8
 
 Optimization of the real space projectors (new method)

 maximal supplied QI-value         = 16.25
 optimisation between [QCUT,QGAM] = [ 12.51, 25.03] = [ 43.85,175.40] Ry 
 Optimized for a Real-space Cutoff    1.47 Angstroem

   l    n(q)    QCUT    max X(q) W(low)/X(q) W(high)/X(q)  e(spline) 
   0     11    12.514    11.817    0.25E-04    0.32E-05    0.87E-07
   0     11    12.514     8.461    0.39E-04    0.59E-05    0.18E-06
   1     11    12.514     3.957    0.97E-05    0.57E-05    0.28E-07
   1     11    12.514     4.314    0.42E-04    0.14E-04    0.23E-06
   2     10    12.514    14.565    0.79E-04    0.50E-03    0.16E-05
   2     10    12.514    14.552    0.75E-04    0.48E-03    0.15E-05
 Optimization of the real space projectors (new method)

 maximal supplied QI-value         = 19.84
 optimisation between [QCUT,QGAM] = [ 12.50, 25.00] = [ 43.76,175.03] Ry 
 Optimized for a Real-space Cutoff    1.16 Angstroem

   l    n(q)    QCUT    max X(q) W(low)/X(q) W(high)/X(q)  e(spline) 
   0      9    12.501   159.560    0.10E-03    0.83E-04    0.71E-07
   0      9    12.501   115.863    0.99E-04    0.81E-04    0.70E-07
   1      8    12.501    88.339    0.20E-03    0.25E-03    0.76E-07
   1      8    12.501    48.592    0.20E-03    0.24E-03    0.75E-07
 Optimization of the real space projectors (new method)

 maximal supplied QI-value         = 24.76
 optimisation between [QCUT,QGAM] = [ 12.38, 25.00] = [ 42.90,175.06] Ry 
 Optimized for a Real-space Cutoff    1.16 Angstroem

   l    n(q)    QCUT    max X(q) W(low)/X(q) W(high)/X(q)  e(spline) 
   0      9    12.378    20.381    0.16E-03    0.67E-05    0.31E-06
   0      9    12.378    15.268    0.17E-03    0.81E-05    0.33E-06
   1      8    12.378     5.964    0.20E-03    0.16E-03    0.30E-06
   1      8    12.378     5.382    0.18E-03    0.14E-03    0.26E-06
  PAW_PBE Ca_sv 06Sep2000               :
 energy of atom  1       EATOM=-1006.0909
 kinetic energy error for atom=    0.0012 (will be added to EATOM!!)
  PAW_PBE Si 05Jan2001                  :
 energy of atom  2       EATOM= -103.0669
 kinetic energy error for atom=    0.0003 (will be added to EATOM!!)
  PAW_PBE O 08Apr2002                   :
 energy of atom  3       EATOM= -432.3788
 kinetic energy error for atom=    0.0168 (will be added to EATOM!!)
 
 
 POSCAR: Ca Si  O                                
  positions in direct lattice
  No initial velocities read in
 exchange correlation table for  LEXCH =        8
   RHO(1)=    0.500       N(1)  =     2000
   RHO(2)=  100.500       N(2)  =     4000
 


--------------------------------------------------------------------------------------------------------


 ion  position               nearest neighbor table
   1  0.548  0.963  0.900- 107 1.99
   2  0.484  0.682  0.247-  64 2.14 104 2.43  57 2.55  54 3.08
   3  0.169  0.315  0.268-  82 2.15 129 2.37 115 2.44  47 2.86
   4  0.786  0.762  0.273-  98 2.17  77 2.20  53 3.00
   5  0.844  0.207  0.660- 100 2.05
   6  0.922  0.517  0.514- 106 2.03 123 2.42 111 2.56  42 2.83
   7  0.103  0.056  0.304-  82 2.31 103 2.36  62 2.42  89 2.46
   8  0.098  0.906  0.768- 133 1.96  50 2.97
   9  0.235  0.168  0.689-  92 2.20 114 2.57  46 2.72  45 2.79
  10  0.803  0.865  0.768- 134 1.99  88 2.14  80 2.25  50 2.82  23 2.92
  11  0.011  0.386  0.947-  73 1.92  76 2.45  32 3.08
  12  0.395  0.486  0.488-  57 2.33  54 3.06  48 3.08
  13  0.972  0.982  0.007- 118 2.15 113 2.16 126 2.46  34 2.63  51 2.81
  14  0.869  0.286  0.244- 122 1.73  63 2.29 123 2.51 115 2.52  42 3.01  47 3.08  30 3.15
  15  0.208  0.853  0.521-  87 2.16 108 2.22  86 2.37 103 2.44  36 2.95  40 2.97  41 3.16
  16  0.586  0.306  0.291-  63 2.18  74 2.26  30 2.62  43 2.91
  17  0.131  0.602  0.645- 106 2.04  75 2.53
  18  0.361  0.290  0.943- 125 2.01  91 2.22  69 2.49  76 2.51  33 2.87  46 3.11  43 3.15
  19  0.546  0.104  0.556- 124 2.56  48 3.09
  20  0.324  0.078  0.150-  62 1.98  69 2.22  44 2.81
  21  0.274  0.782  0.879- 121 2.04 128 2.41  94 2.43 132 2.52  39 2.92  49 3.09
  22  0.906  0.650  0.818-  72 2.42 110 2.47
  23  0.659  0.774  0.629- 134 2.08  88 2.23 117 2.50  10 2.92  54 3.15
  24  0.295  0.575  0.998- 132 2.13  58 2.39  91 2.44  67 2.44 121 2.47  28 2.72
  25  0.768  0.051  0.348-  83 2.01 105 2.36  53 3.02
  26  0.002  0.699  0.182-  81 2.12  98 2.24 101 2.55  39 2.92
  27  0.607  0.399  0.850-  90 2.09 125 2.22  56 2.34  37 2.94
  28  0.495  0.605  0.971-  67 1.72 119 1.78  90 1.80 121 2.00  65 2.05  49 2.27  24 2.72  29 2.74

  29  0.689  0.631  0.035-  65 1.58  68 1.76 131 1.80  90 2.37  71 2.46  52 2.60  28 2.74
  30  0.678  0.362  0.127-  74 1.46 122 1.52  93 1.70  71 2.06  16 2.62  52 2.73  14 3.15
  31  0.522  0.909  0.352- 124 1.58 104 1.67  55 1.78  70 1.91 105 2.27  38 2.77  44 3.06
  32  0.001  0.407  0.716- 135 1.51 127 1.57  75 1.79 106 1.96  11 3.08
  33  0.225  0.407  0.823-  92 1.44  58 1.59  75 1.85  76 1.88  18 2.87
  34  0.928  0.160  0.932- 113 1.59  79 1.65  73 1.81 126 2.26  13 2.63  47 3.04
  35  0.663  0.496  0.600- 111 1.61 117 1.72  56 1.83  95 2.08
  36  0.391  0.807  0.636-  87 1.51  59 1.54  86 1.64  94 1.81  15 2.95  54 2.98
  37  0.475  0.267  0.732- 120 1.52  85 1.55 125 1.70 114 2.36  27 2.94
  38  0.597  0.916  0.158- 130 1.62 104 1.69 107 1.74 105 1.81  31 2.77
  39  0.087  0.729  0.982- 101 1.46 132 1.50 102 1.62 110 1.91  21 2.92  26 2.92
  40  0.248  0.794  0.309- 108 1.50  64 1.71 103 1.77  41 2.56  15 2.97
  41  0.164  0.651  0.405-  78 1.62 108 1.72  60 1.94  84 2.19  40 2.56  15 3.16
  42  0.794  0.362  0.444- 123 1.55 100 1.63  95 1.79  63 1.99   6 2.83  14 3.01
  43  0.404  0.330  0.172- 129 1.64  69 1.64  91 2.00  93 2.49  16 2.91  18 3.15
  44  0.384  0.092  0.352-  97 1.55  62 1.56  70 1.76  96 1.87  20 2.81  48 2.94  31 3.06
  45  0.171  0.197  0.492-  82 1.61 112 1.64 116 1.75  96 2.45   9 2.79  48 2.88
  46  0.280  0.084  0.870-  99 1.59 128 1.66 114 1.86   9 2.72  18 3.11
  47  0.050  0.222  0.115-  89 1.57 126 1.66 115 1.72  73 1.97   3 2.86  34 3.04  14 3.08
  48  0.379  0.256  0.501-  66 1.63  96 1.73 116 1.78  85 1.90  45 2.88  44 2.94  12 3.08  19 3.09

  49  0.492  0.713  0.839-  61 1.62 119 1.63 121 1.76  94 1.90  28 2.27  21 3.09
  50  0.947  0.852  0.613- 133 1.67  72 1.70  88 1.78 109 1.82  10 2.82   8 2.97  53 3.07
  51  0.799  0.861  0.010- 118 1.49  80 1.67 130 1.98  68 2.03  13 2.81
  52  0.785  0.531  0.173-  81 1.57 131 1.66  71 1.80  74 2.32  29 2.60  30 2.73
  53  0.928  0.895  0.387-  77 1.51 109 1.64  98 1.74  83 1.75   4 3.00  25 3.02  50 3.07
  54  0.498  0.691  0.477-  59 1.56  57 1.60  55 1.71 117 2.19  36 2.98  12 3.06   2 3.08  23 3.15

  55  0.543  0.791  0.409-  54 1.71  31 1.78
  56  0.569  0.439  0.683-  35 1.83  27 2.34
  57  0.404  0.646  0.417-  54 1.60  12 2.33   2 2.55
  58  0.285  0.510  0.831-  33 1.59  24 2.39
  59  0.472  0.758  0.569-  36 1.54  54 1.56
  60  0.032  0.685  0.456-  41 1.94
  61  0.593  0.763  0.885-  49 1.62
  62  0.284  0.073  0.293-  44 1.56  20 1.98   7 2.42
  63  0.734  0.264  0.348-  42 1.99  16 2.18  14 2.29
  64  0.355  0.778  0.240-  40 1.71   2 2.14
  65  0.592  0.698  0.046-  29 1.58  28 2.05
  66  0.489  0.305  0.482-  48 1.63
  67  0.455  0.562  0.086-  28 1.72  24 2.44
  68  0.790  0.709  0.998-  29 1.76  51 2.03
  69  0.399  0.222  0.112-  43 1.64  20 2.22  18 2.49
  70  0.396  0.967  0.390-  44 1.76  31 1.91
  71  0.769  0.465  0.055-  52 1.80  30 2.06  29 2.46
  72  0.968  0.741  0.673-  50 1.70  22 2.42
  73  0.028  0.244  0.971-  34 1.81  11 1.92  47 1.97
  74  0.640  0.437  0.198-  30 1.46  16 2.26  52 2.32
  75  0.108  0.464  0.775-  32 1.79  33 1.85  17 2.53
  76  0.195  0.377  0.957-  33 1.88  11 2.45  18 2.51
  77  0.820  0.864  0.399-  53 1.51   4 2.20
  78  0.148  0.617  0.290-  41 1.62
  79  0.826  0.187  0.868-  34 1.65
  80  0.749  0.926  0.916-  51 1.67  10 2.25
  81  0.880  0.599  0.158-  52 1.57  26 2.12
  82  0.122  0.211  0.382-  45 1.61   3 2.15   7 2.31
  83  0.915  0.018  0.343-  53 1.75  25 2.01
  84  0.186  0.506  0.481-  41 2.19
  85  0.403  0.265  0.641-  37 1.55  48 1.90
  86  0.349  0.919  0.606-  36 1.64  15 2.37
  87  0.288  0.761  0.628-  36 1.51  15 2.16
  88  0.815  0.831  0.611-  50 1.78  10 2.14  23 2.23
  89  0.138  0.150  0.149-  47 1.57   7 2.46
  90  0.586  0.504  0.966-  28 1.80  27 2.09  29 2.37
  91  0.349  0.410  0.057-  43 2.00  18 2.22  24 2.44
  92  0.234  0.312  0.771-  33 1.44   9 2.20
  93  0.571  0.301  0.092-  30 1.70  43 2.49
  94  0.417  0.812  0.770-  36 1.81  49 1.90  21 2.43
  95  0.733  0.481  0.462-  42 1.79  35 2.08
  96  0.342  0.132  0.480-  48 1.73  44 1.87  45 2.45
  97  0.486  0.142  0.325-  44 1.55
  98  0.938  0.821  0.279-  53 1.74   4 2.17  26 2.24
  99  0.243  0.130  0.973-  46 1.59
 100  0.803  0.312  0.555-  42 1.63   5 2.05
 101  0.998  0.666  0.993-  39 1.46  26 2.55
 102  0.110  0.849  0.979-  39 1.62
 103  0.187  0.906  0.347-  40 1.77   7 2.36  15 2.44
 104  0.513  0.862  0.236-  31 1.67  38 1.69   2 2.43
 105  0.623  0.007  0.256-  38 1.81  31 2.27  25 2.36
 106  0.992  0.538  0.648-  32 1.96   6 2.03  17 2.04
 107  0.546  0.968  0.049-  38 1.74   1 1.99
 108  0.257  0.741  0.408-  40 1.50  41 1.72  15 2.22
 109  0.996  0.871  0.487-  53 1.64  50 1.82
 110  0.076  0.721  0.839-  39 1.91  22 2.47
 111  0.776  0.514  0.639-  35 1.61   6 2.56
 112  0.151  0.084  0.537-  45 1.64
 113  0.990  0.075  0.875-  34 1.59  13 2.16
 114  0.391  0.123  0.793-  46 1.86  37 2.36   9 2.57
 115  0.026  0.342  0.156-  47 1.72   3 2.44  14 2.52
 116  0.253  0.296  0.520-  45 1.75  48 1.78
 117  0.619  0.608  0.551-  35 1.72  54 2.19  23 2.50
 118  0.886  0.867  0.080-  51 1.49  13 2.15
 119  0.483  0.590  0.838-  49 1.63  28 1.78
 120  0.575  0.214  0.714-  37 1.52
 121  0.400  0.715  0.934-  49 1.76  28 2.00  21 2.04  24 2.47
 122  0.769  0.303  0.163-  30 1.52  14 1.73
 123  0.906  0.368  0.410-  42 1.55   6 2.42  14 2.51
 124  0.592  0.973  0.423-  31 1.58  19 2.56
 125  0.451  0.342  0.833-  37 1.70  18 2.01  27 2.22
 126  0.955  0.142  0.099-  47 1.66  34 2.26  13 2.46
 127  0.918  0.453  0.787-  32 1.57
 128  0.264  0.961  0.855-  46 1.66  21 2.41
 129  0.341  0.365  0.271-  43 1.64   3 2.37
 130  0.689  0.852  0.110-  38 1.62  51 1.98
 131  0.683  0.602  0.167-  52 1.66  29 1.80
 132  0.186  0.691  0.020-  39 1.50  24 2.13  21 2.52
 133  0.002  0.951  0.666-  50 1.67   8 1.96
 134  0.679  0.912  0.699-  10 1.99  23 2.08
 135  0.018  0.302  0.678-  32 1.51
 

IMPORTANT INFORMATION: All symmetrisations will be switched off!
NOSYMM: (Re-)initialisation of all symmetry stuff for point group C_1.

 
 

Automatic generation of k-mesh.
 generate k-points for:    2    2    2
Space group operators:
 irot       det(A)        alpha          n_x          n_y          n_z        tau_x        tau_y        tau_z
    1     1.000000     0.000001     1.000000     0.000000     0.000000     0.000000     0.000000     0.000000
 
 Subroutine IBZKPT returns following result:
 ===========================================
 
 Found      8 irreducible k-points:
 
 Following reciprocal coordinates:
            Coordinates               Weight
  0.000000  0.000000  0.000000      1.000000
  0.500000  0.000000  0.000000      1.000000
  0.000000  0.500000  0.000000      1.000000
  0.500000  0.500000  0.000000      1.000000
  0.000000  0.000000  0.500000      1.000000
  0.500000  0.000000  0.500000      1.000000
  0.000000  0.500000  0.500000      1.000000
  0.500000  0.500000  0.500000      1.000000
 
 Following cartesian coordinates:
            Coordinates               Weight
  0.000000  0.000000  0.000000      1.000000
  0.037563  0.000000  0.000000      1.000000
  0.000000  0.037563  0.000000      1.000000
  0.037563  0.037563  0.000000      1.000000
  0.000000  0.000000  0.037563      1.000000
  0.037563  0.000000  0.037563      1.000000
  0.000000  0.037563  0.037563      1.000000
  0.037563  0.037563  0.037563      1.000000
 


--------------------------------------------------------------------------------------------------------




 Dimension of arrays:
   k-points           NKPTS =      8   k-points in BZ     NKDIM =      8   number of bands    NBANDS=    520
   number of dos      NEDOS =    301   number of ions     NIONS =    135
   non local maximal  LDIM  =      6   non local SUM 2l+1 LMDIM =     18
   total plane-waves  NPLWV = ******
   max r-space proj   IRMAX =   7167   max aug-charges    IRDMAX= 204049
   dimension x,y,z NGX =   108 NGY =  108 NGZ =  108
   dimension x,y,z NGXF=   216 NGYF=  216 NGZF=  216
   support grid    NGXF=   432 NGYF=  432 NGZF=  432
   ions per type =              27  27  81
   NGX,Y,Z   is equivalent  to a cutoff of  13.49, 13.49, 13.49 a.u.
   NGXF,Y,Z  is equivalent  to a cutoff of  26.98, 26.98, 26.98 a.u.

 SYSTEM =  unknown system                          
 POSCAR =  Ca Si  O                                

 Startparameter for this run:
   NWRITE =      2    write-flag & timer
   PREC   = a         normal or accurate (medium, high low for compatibility)
   ISTART =      0    job   : 0-new  1-cont  2-samecut
   ICHARG =      2    charge: 1-file 2-atom 10-const
   ISPIN  =      1    spin polarized calculation?
   LNONCOLLINEAR =      F non collinear calculations
   LSORBIT =      F    spin-orbit coupling
   INIWAV =      1    electr: 0-lowe 1-rand  2-diag
   LASPH  =      F    aspherical Exc in radial PAW
   METAGGA=      F    non-selfconsistent MetaGGA calc.

 Electronic Relaxation 1
   ENCUT  =  600.0 eV  44.10 Ry    6.64 a.u.  26.59 26.59 26.59*2*pi/ulx,y,z
   ENINI  =  600.0     initial cutoff
   ENAUG  =  605.4 eV  augmentation charge cutoff
   NELM   =     60;   NELMIN=  2; NELMDL= -5     # of ELM steps 
   EDIFF  = 0.1E-05   stopping-criterion for ELM
   LREAL  =      T    real-space projection
   NLSPLINE    = F    spline interpolate recip. space projectors
   LCOMPAT=      F    compatible to vasp.4.4
   GGA_COMPAT  = T    GGA compatible to vasp.4.4-vasp.4.6
   LMAXPAW     = -100 max onsite density
   LMAXMIX     =    2 max onsite mixed and CHGCAR
   VOSKOWN=      0    Vosko Wilk Nusair interpolation
   ROPT   =   -0.00025  -0.00025  -0.00025
 Ionic relaxation
   EDIFFG = -.1E-01   stopping-criterion for IOM
   NSW    =      1    number of steps for IOM
   NBLOCK =      1;   KBLOCK =      1    inner block; outer block 
   IBRION =     -1    ionic relax: 0-MD 1-quasi-New 2-CG
   NFREE  =      0    steps in history (QN), initial steepest desc. (CG)
   ISIF   =      2    stress and relaxation
   IWAVPR =     10    prediction:  0-non 1-charg 2-wave 3-comb
   ISYM   =      0    0-nonsym 1-usesym 2-fastsym
   LCORR  =      T    Harris-Foulkes like correction to forces

   POTIM  = 1.0000    time-step for ionic-motion
   TEIN   =    0.0    initial temperature
   TEBEG  =    0.0;   TEEND  =   0.0 temperature during run
   SMASS  =  -3.00    Nose mass-parameter (am)
   estimated Nose-frequenzy (Omega)   =  0.10E-29 period in steps =****** mass=  -0.405E-26a.u.
   SCALEE = 1.0000    scale energy and forces
   NPACO  =    256;   APACO  = 16.0  distance and # of slots for P.C.
   PSTRESS=    0.0 pullay stress

  Mass of Ions in am
   POMASS =  40.08 28.09 16.00
  Ionic Valenz
   ZVAL   =  10.00  4.00  6.00
  Atomic Wigner-Seitz radii
   RWIGS  =  -1.00 -1.00 -1.00
  virtual crystal weights 
   VCA    =   1.00  1.00  1.00
   NELECT =     864.0000    total number of electrons
   NUPDOWN=      -1.0000    fix difference up-down

 DOS related values:
   EMIN   =  10.00;   EMAX   =-10.00  energy-range for DOS
   EFERMI =   0.00
   ISMEAR =     0;   SIGMA  =   0.05  broadening in eV -4-tet -1-fermi 0-gaus

 Electronic relaxation 2 (details)
   IALGO  =     38    algorithm
   LDIAG  =      T    sub-space diagonalisation (order eigenvalues)
   LSUBROT=      F    optimize rotation matrix (better conditioning)
   TURBO    =      0    0=normal 1=particle mesh
   IRESTART =      0    0=no restart 2=restart with 2 vectors
   NREBOOT  =      0    no. of reboots
   NMIN     =      0    reboot dimension
   EREF     =   0.00    reference energy to select bands
   IMIX   =      4    mixing-type and parameters
     AMIX     =   0.40;   BMIX     =  1.00
     AMIX_MAG =   1.60;   BMIX_MAG =  1.00
     AMIN     =   0.10
     WC   =   100.;   INIMIX=   1;  MIXPRE=   1;  MAXMIX= -45

 Intra band minimization:
   WEIMIN = 0.0000     energy-eigenvalue tresh-hold
   EBREAK =  0.48E-09  absolut break condition
   DEPER  =   0.30     relativ break condition  

   TIME   =   0.40     timestep for ELM

  volume/ion in A,a.u.               =      17.47       117.89
  Fermi-wavevector in a.u.,A,eV,Ry     =   1.171397  2.213620 18.669524  1.372171
  Thomas-Fermi vector in A             =   2.307841
 
 Write flags
   LWAVE        =      F    write WAVECAR
   LDOWNSAMPLE  =      F    k-point downsampling of WAVECAR
   LCHARG       =      F    write CHGCAR
   LVTOT        =      F    write LOCPOT, total local potential
   LVHAR        =      F    write LOCPOT, Hartree potential only
   LELF         =      F    write electronic localiz. function (ELF)
   LORBIT       =      0    0 simple, 1 ext, 2 COOP (PROOUT), +10 PAW based schemes


 Dipole corrections
   LMONO  =      F    monopole corrections only (constant potential shift)
   LDIPOL =      F    correct potential (dipole corrections)
   IDIPOL =      0    1-x, 2-y, 3-z, 4-all directions 
   EPSILON=  1.0000000 bulk dielectric constant

 Exchange correlation treatment:
   GGA     =    --    GGA type
   LEXCH   =     8    internal setting for exchange type
   VOSKOWN=      0    Vosko Wilk Nusair interpolation
   LHFCALC =     F    Hartree Fock is set to
   LHFONE  =     F    Hartree Fock one center treatment
   AEXX    =    0.0000 exact exchange contribution

 Linear response parameters
   LEPSILON=     F    determine dielectric tensor
   LRPA    =     F    only Hartree local field effects (RPA)
   LNABLA  =     F    use nabla operator in PAW spheres
   LVEL    =     F    velocity operator in full k-point grid
   LINTERFAST=   F  fast interpolation
   KINTER  =     0    interpolate to denser k-point grid
   CSHIFT  =0.1000    complex shift for real part using Kramers Kronig
   OMEGAMAX=  -1.0    maximum frequency
   DEG_THRESHOLD= 0.2000000E-02 threshold for treating states as degnerate
   RTIME   =   -0.100 relaxation time in fs
  (WPLASMAI=    0.000 imaginary part of plasma frequency in eV, 0.658/RTIME)
   DFIELD  = 0.0000000 0.0000000 0.0000000 field for delta impulse in time
 
 Orbital magnetization related:
   ORBITALMAG=     F  switch on orbital magnetization
   LCHIMAG   =     F  perturbation theory with respect to B field
   DQ        =  0.001000  dq finite difference perturbation B field
   LLRAUG    =     F  two centre corrections for induced B field



--------------------------------------------------------------------------------------------------------


 Static calculation
 charge density and potential will be updated during run
 non-spin polarized calculation
 Variant of blocked Davidson
 Davidson routine will perform the subspace rotation
 perform sub-space diagonalisation
    after iterative eigenvector-optimisation
 modified Broyden-mixing scheme, WC =      100.0
 initial mixing is a Kerker type mixing with AMIX =  0.4000 and BMIX =      1.0000
 Hartree-type preconditioning will be used
 using additional bands           88
 real space projection scheme for non local part
 use partial core corrections
 calculate Harris-corrections to forces 
   (improved forces if not selfconsistent)
 use gradient corrections 
 use of overlap-Matrix (Vanderbilt PP)
 Gauss-broadening in eV      SIGMA  =   0.05


--------------------------------------------------------------------------------------------------------


  energy-cutoff  :      600.00
  volume of cell :     2358.44
      direct lattice vectors                 reciprocal lattice vectors
    13.310935620  0.000000000  0.000000000     0.075126199  0.000000000  0.000000000
     0.000000000 13.310935620  0.000000000     0.000000000  0.075126199  0.000000000
     0.000000000  0.000000000 13.310935620     0.000000000  0.000000000  0.075126199

  length of vectors
    13.310935620 13.310935620 13.310935620     0.075126199  0.075126199  0.075126199


 
 k-points in units of 2pi/SCALE and weight: read from INCAR                         
   0.00000000  0.00000000  0.00000000       0.125
   0.03756310  0.00000000  0.00000000       0.125
   0.00000000  0.03756310  0.00000000       0.125
   0.03756310  0.03756310  0.00000000       0.125
   0.00000000  0.00000000  0.03756310       0.125
   0.03756310  0.00000000  0.03756310       0.125
   0.00000000  0.03756310  0.03756310       0.125
   0.03756310  0.03756310  0.03756310       0.125
 
 k-points in reciprocal lattice and weights: read from INCAR                         
   0.00000000  0.00000000  0.00000000       0.125
   0.50000000  0.00000000  0.00000000       0.125
   0.00000000  0.50000000  0.00000000       0.125
   0.50000000  0.50000000  0.00000000       0.125
   0.00000000  0.00000000  0.50000000       0.125
   0.50000000  0.00000000  0.50000000       0.125
   0.00000000  0.50000000  0.50000000       0.125
   0.50000000  0.50000000  0.50000000       0.125
 
 position of ions in fractional coordinates (direct lattice) 
   0.54800517  0.96272355  0.89994383
   0.48365744  0.68194485  0.24681639
   0.16936430  0.31528926  0.26769340
   0.78649183  0.76220753  0.27250110
   0.84447010  0.20682453  0.66030635
   0.92208326  0.51650128  0.51379958
   0.10347666  0.05631627  0.30449236
   0.09758309  0.90567229  0.76788313
   0.23466109  0.16820261  0.68915971
   0.80326973  0.86466760  0.76771489
   0.01115142  0.38594920  0.94688349
   0.39510738  0.48608109  0.48785517
   0.97173863  0.98229556  0.00721886
   0.86897143  0.28610363  0.24437951
   0.20756416  0.85304154  0.52092259
   0.58554046  0.30570195  0.29094406
   0.13127608  0.60173680  0.64523743
   0.36135451  0.29033777  0.94250149
   0.54593323  0.10438069  0.55601239
   0.32367602  0.07843012  0.14963205
   0.27412099  0.78237439  0.87931002
   0.90627074  0.64973342  0.81821399
   0.65905480  0.77361951  0.62917673
   0.29494444  0.57507210  0.99766608
   0.76775423  0.05119743  0.34836461
   0.00158939  0.69904849  0.18188030
   0.60685004  0.39889501  0.85030861
   0.49534311  0.60462330  0.97053161
   0.68929537  0.63101026  0.03488652
   0.67799053  0.36227405  0.12661555
   0.52189510  0.90898481  0.35197148
   0.00137996  0.40727276  0.71632956
   0.22524803  0.40658270  0.82259858
   0.92825899  0.15988117  0.93247498
   0.66281617  0.49616327  0.60036777
   0.39095947  0.80722021  0.63645457
   0.47488002  0.26668339  0.73230029
   0.59708862  0.91648189  0.15806418
   0.08740412  0.72948977  0.98189478
   0.24830161  0.79421166  0.30928950
   0.16443633  0.65055058  0.40544089
   0.79417651  0.36199577  0.44385945
   0.40422051  0.33027258  0.17168648
   0.38370864  0.09244163  0.35167746
   0.17054892  0.19669929  0.49184026
   0.28040928  0.08394071  0.86972052
   0.04976204  0.22152807  0.11540856
   0.37863407  0.25562276  0.50057815
   0.49219680  0.71259967  0.83886481
   0.94684138  0.85150334  0.61284496
   0.79909226  0.86108015  0.01045841
   0.78476438  0.53109968  0.17255739
   0.92824677  0.89535368  0.38682272
   0.49782375  0.69112529  0.47739556
   0.54331196  0.79050219  0.40947826
   0.56903261  0.43903405  0.68322868
   0.40424933  0.64588077  0.41701564
   0.28460124  0.50961279  0.83102463
   0.47161449  0.75837231  0.56931682
   0.03202366  0.68524613  0.45620020
   0.59293776  0.76303126  0.88488524
   0.28406021  0.07320231  0.29271730
   0.73357517  0.26436762  0.34774181
   0.35467466  0.77780940  0.23963623
   0.59167777  0.69777592  0.04614658
   0.48893984  0.30465325  0.48151190
   0.45529687  0.56228858  0.08609831
   0.78980196  0.70938148  0.99837155
   0.39902069  0.22227711  0.11231769
   0.39631186  0.96661613  0.38964386
   0.76870757  0.46513721  0.05534610
   0.96794774  0.74121196  0.67345035
   0.02750222  0.24436200  0.97068993
   0.64012889  0.43710746  0.19784642
   0.10793468  0.46438264  0.77455505
   0.19454655  0.37730050  0.95749934
   0.82025497  0.86375953  0.39860818
   0.14779886  0.61670809  0.28973672
   0.82575739  0.18670863  0.86767104
   0.74887898  0.92618935  0.91582513
   0.88018396  0.59939527  0.15779431
   0.12172920  0.21094885  0.38192174
   0.91473232  0.01844098  0.34335707
   0.18636928  0.50578703  0.48105090
   0.40254583  0.26454327  0.64128661
   0.34937694  0.91890582  0.60585537
   0.28757299  0.76105135  0.62806285
   0.81500610  0.83117179  0.61127992
   0.13810210  0.15031481  0.14887071
   0.58551465  0.50356295  0.96581809
   0.34897947  0.41019933  0.05747052
   0.23373547  0.31201277  0.77104672
   0.57085666  0.30114572  0.09218342
   0.41671517  0.81217666  0.76990540
   0.73338565  0.48063191  0.46176831
   0.34240730  0.13231170  0.47985456
   0.48577887  0.14175140  0.32486227
   0.93805347  0.82124173  0.27919655
   0.24330441  0.12994015  0.97338259
   0.80285594  0.31164981  0.55533820
   0.99849402  0.66619990  0.99317583
   0.10988281  0.84898341  0.97897324
   0.18745783  0.90619760  0.34657448
   0.51334828  0.86183939  0.23642318
   0.62294980  0.00713016  0.25572459
   0.99168832  0.53776492  0.64821679
   0.54577978  0.96761765  0.04901300
   0.25710434  0.74067598  0.40835451
   0.99588316  0.87148085  0.48718065
   0.07614596  0.72081745  0.83876733
   0.77618290  0.51426853  0.63864376
   0.15067062  0.08362106  0.53664128
   0.99028098  0.07525151  0.87539711
   0.39081220  0.12292593  0.79317640
   0.02649554  0.34187950  0.15618310
   0.25258783  0.29582309  0.51995560
   0.61948627  0.60781404  0.55098566
   0.88648056  0.86660880  0.08020553
   0.48348443  0.59010087  0.83814868
   0.57452177  0.21400685  0.71427272
   0.39996507  0.71458312  0.93385464
   0.76929743  0.30344098  0.16259724
   0.90571280  0.36827934  0.40989523
   0.59154612  0.97341221  0.42279075
   0.45147902  0.34174501  0.83289459
   0.95541628  0.14151428  0.09910010
   0.91845988  0.45254440  0.78709302
   0.26353916  0.96123216  0.85478380
   0.34065532  0.36508762  0.27135870
   0.68884385  0.85249267  0.11030477
   0.68290371  0.60214150  0.16651905
   0.18606770  0.69056178  0.01966706
   0.00190584  0.95109616  0.66592731
   0.67946896  0.91198753  0.69860281
   0.01803086  0.30173839  0.67763220
 
 position of ions in cartesian coordinates  (Angst):
   7.29446155 12.81475123 11.97909432
   6.43793310  9.07732394  3.28535707
   2.25439728  4.19679505  3.56324966
  10.46894209 10.14569534  3.62724460
  11.24068713  2.75302797  8.78929526
  12.27379087  6.87511526  6.83915315
   1.37737120  0.74962227  4.05307822
   1.29892227 12.05534551 10.22124290
   3.12355870  2.23893410  9.17336052
  10.69227161 11.50953482 10.21900345
   0.14843589  5.13734502 12.60390524
   5.25924884  6.47019404  6.49380874
  12.93475034 13.07527291  0.09608983
  11.56682274  3.80830696  3.25291995
   2.76287313 11.35478105  6.93396703
   7.79409140  4.06917899  3.87273759
   1.74740749  8.00967980  8.58871390
   4.80996657  3.86466736 12.54557666
   7.26688210  1.38940469  7.40104510
   4.30843069  1.04397832  1.99174261
   3.64880689 10.41413516 11.70443901
  12.06331150  8.64855979 10.89119373
   8.77263602 10.29759952  8.37493100
   3.92598640  7.65474771 13.27986899
  10.21952719  0.68148572  4.63705885
   0.02115629  9.30498939  2.42099700
   8.07774175  5.30966583 11.31840314
   6.59348024  8.04810184 12.91868384
   9.17516632  8.39933696  0.46437221
   9.02468835  4.82220649  1.68537138
   6.94691212 12.09943827  4.68506971
   0.01836860  5.42118151  9.53501667
   2.99826202  5.41199611 10.94955670
  12.35599563  2.12816793 12.41211440
   8.82270343  6.60439732  7.99145678
   5.20403634 10.74485627  8.47180581
   6.32109736  3.54980549  9.74760202
   7.94780814 12.19923140  2.10398219
   1.16343065  9.71019134 13.06993821
   3.30512676 10.57170032  4.11693260
   2.18880142  8.65943691  5.39679758
  10.57123246  4.81850237  5.90818452
   5.38055320  4.39623702  2.28530766
   5.10752103  1.23048459  4.68115600
   2.27016567  2.61825152  6.54685398
   3.73250993  1.11732940 11.57679380
   0.66237934  2.94874583  1.53619597
   5.03997373  3.40257816  6.66316349
   6.55159996  9.48536832 11.16607551
  12.60334459 11.33430614  8.15753981
  10.63666565 11.46178238  0.13921119
  10.44594812  7.06943366  2.29690035
  12.35583302 11.91799515  5.14897232
   6.62649986  9.19952421  6.35458157
   7.23199046 10.52232377  5.45053876
   7.57435639  5.84395396  9.09441294
   5.38093681  8.59727736  5.55086836
   3.78830873  6.78342298 11.06171540
   6.27763006 10.09464501  7.57813952
   0.42626491  9.12126706  6.07245144
   7.89255638 10.15666004 11.77865051
   3.78110713  0.97439126  3.89634113
   9.76457180  3.51898038  4.62876884
   4.72105162 10.35337088  3.18978247
   7.87578470  9.28805035  0.61425422
   6.50824669  4.05521984  6.40937396
   6.06042732  7.48458714  1.14604908
  10.51300300  9.44253124 13.28925941
   5.31133876  2.95871624  1.49505354
   5.27528160 12.86656507  5.18652439
  10.23221697  6.19141146  0.73670842
  12.88429005  9.86622471  8.96425430
   0.36608027  3.25268684 12.92079116
   8.52071450  5.81830932  2.63352096
   1.43671154  6.18136742 10.31005242
   2.58959662  5.02222270 12.74521212
  10.91836113 11.49744752  5.30584788
   1.96734115  8.20896168  3.85666683
  10.99160346  2.48526659 11.54951336
   9.96827983 12.32844679 12.19048933
  11.71607200  7.97851184  2.10038996
   1.62032950  2.80792653  5.08373564
  12.17594304  0.24546676  4.57040380
   2.48074953  6.73249854  6.40323753
   5.35826159  3.52131844  8.53612472
   4.65053398 12.23149627  8.06450178
   3.82786555 10.13030551  8.36010422
  10.84849372 11.06367412  8.13670765
   1.83826811  2.00083071  1.98160845
   7.79374785  6.70289398 12.85594237
   4.64524330  5.46013690  0.76498639
   3.11123784  4.15318195 10.26335325
   7.59863620  4.00853135  1.22704759
   5.54686874 10.81083128 10.24816124
   9.76204916  6.39766043  6.14656823
   4.55776155  1.76119252  6.38731317
   6.46617122  1.88684378  4.32422080
  12.48636934 10.93149585  3.71636725
   3.23860940  1.72962491 12.95663299
  10.68676369  4.14835058  7.39207101
  13.29088961  8.86774402 13.22009958
   1.46264299 11.30076351 13.03104979
   2.49523915 12.06233796  4.61323053
   6.83314588 11.47188859  3.14701367
   8.29204471  0.09490909  3.40393351
  13.20029936  7.15815428  8.62837198
   7.26483955 12.87989628  0.65240888
   3.42229937  9.85909022  5.43558062
  13.25613659 11.60022550  6.48483021
   1.01357395  9.59475471 11.16477797
  10.33172058  6.84539529  8.50094591
   2.00556688  1.11307460  7.14319754
  13.18156637  1.00166804 11.65235461
   5.20207597  1.63625911 10.55792002
   0.35268043  4.55073608  2.07894313
   3.36218034  3.93768204  6.92109553
   8.24594187  8.09057352  7.33413459
  11.79988564 11.53537401  1.06761065
   6.43563016  7.85479463 11.15654307
   7.64742233  2.84863138  9.50763822
   5.32390924  9.51176995 12.43047903
  10.24006858  4.03908331  2.16432139
  12.05588471  4.90214260  5.45608900
   7.87403228 12.95702731  5.62774048
   6.00960819  4.54894583 11.08660633
  12.71748459  1.88368746  1.31911504
  12.22556039  6.02378943 10.47694458
   3.50795279 12.79489945 11.37797208
   4.53444106  4.85965783  3.61203821
   9.16915614 11.34747503  1.46825972
   9.09008733  8.01506671  2.21652431
   2.47673517  9.19202342  0.26178694
   0.02536851 12.65997969  8.86411559
   9.04436764 12.13940725  9.29905704
   0.24000756  4.01642029  9.01991860
 


--------------------------------------------------------------------------------------------------------


 k-point  1 :   0.0000 0.0000 0.0000  plane waves:   78805
 k-point  2 :   0.5000 0.0000 0.0000  plane waves:   78774
 k-point  3 :   0.0000 0.5000 0.0000  plane waves:   78774
 k-point  4 :   0.5000 0.5000 0.0000  plane waves:   78724
 k-point  5 :   0.0000 0.0000 0.5000  plane waves:   78774
 k-point  6 :   0.5000 0.0000 0.5000  plane waves:   78724
 k-point  7 :   0.0000 0.5000 0.5000  plane waves:   78724
 k-point  8 :   0.5000 0.5000 0.5000  plane waves:   78792

 maximum and minimum number of plane-waves per node :      6096     6000

 maximum number of plane-waves:     78805
 maximum index in each direction: 
   IXMAX=   26   IYMAX=   26   IZMAX=   26
   IXMIN=  -27   IYMIN=  -27   IZMIN=  -27


 real space projection operators:
  total allocation   :      49162.22 KBytes
  max/ min on nodes  :       4146.34       3584.56


 parallel 3D FFT for wavefunctions:
    minimum data exchange during FFTs selected (reduces bandwidth)
 parallel 3D FFT for charge:
    minimum data exchange during FFTs selected (reduces bandwidth)


 total amount of memory used by VASP MPI-rank0   207781. kBytes
=======================================================================

   base      :      30000. kBytes
   nonlr-proj:      21547. kBytes
   fftplans  :      33581. kBytes
   grid      :      19248. kBytes
   one-center:        171. kBytes
   wavefun   :     103234. kBytes
 
     INWAV:  cpu time    0.0001: real time    0.0000
 Broyden mixing: mesh for mixing (old mesh)
   NGX = 53   NGY = 53   NGZ = 53
  (NGX  =216   NGY  =216   NGZ  =216)
  gives a total of 148877 points

 initial charge density was supplied:
 charge density of overlapping atoms calculated
 number of electron     864.0000000 magnetization 
 keeping initial charge density in first step


--------------------------------------------------------------------------------------------------------


 Maximum index for non-local projection operator          841
 Maximum index for augmentation-charges         7697 (set IRDMAX)


--------------------------------------------------------------------------------------------------------


 First call to EWALD:  gamma=   0.133
 Maximum number of real-space cells 3x 3x 3
 Maximum number of reciprocal cells 3x 3x 3

    FEWALD:  cpu time    0.0046: real time    0.0046


--------------------------------------- Iteration      1(   1)  ---------------------------------------


    POTLOK:  cpu time    0.2206: real time    0.2278
    SETDIJ:  cpu time    0.3866: real time    0.3867
     EDDAV:  cpu time   48.5082: real time   48.5155
       DOS:  cpu time    0.0022: real time    0.0022
    --------------------------------------------
      LOOP:  cpu time   49.1177: real time   49.1323

 eigenvalue-minimisations  :  8320
 total energy-change (2. order) : 0.9220195E+04  (-0.4611493E+05)
 number of electron     864.0000000 magnetization 
 augmentation part      864.0000000 magnetization 

 Free energy of the ion-electron system (eV)
  ---------------------------------------------------
  alpha Z        PSCENC =      2026.14881195
  Ewald energy   TEWEN  =    -36697.98613352
  -Hartree energ DENC   =    -24059.24274058
  -exchange      EXHF   =         0.00000000
  -V(xc)+E(xc)   XCENC  =      3124.82046059
  PAW double counting   =     50594.51003143   -49994.65612350
  entropy T*S    EENTRO =        -0.04352862
  eigenvalues    EBANDS =      -741.89562525
  atomic energy  EATOM  =     64968.54023382
  Solvation  Ediel_sol  =         0.00000000
  ---------------------------------------------------
  free energy    TOTEN  =      9220.19538632 eV

  energy without entropy =     9220.23891494  energy(sigma->0) =     9220.21715063


--------------------------------------------------------------------------------------------------------




--------------------------------------- Iteration      1(   2)  ---------------------------------------


     EDDAV:  cpu time   57.5853: real time   57.6168
       DOS:  cpu time    0.0012: real time    0.0012
    --------------------------------------------
      LOOP:  cpu time   57.5864: real time   57.6180

 eigenvalue-minimisations  : 10256
 total energy-change (2. order) :-0.9189382E+04  (-0.8910594E+04)
 number of electron     864.0000000 magnetization 
 augmentation part      864.0000000 magnetization 

 Free energy of the ion-electron system (eV)
  ---------------------------------------------------
  alpha Z        PSCENC =      2026.14881195
  Ewald energy   TEWEN  =    -36697.98613352
  -Hartree energ DENC   =    -24059.24274058
  -exchange      EXHF   =         0.00000000
  -V(xc)+E(xc)   XCENC  =      3124.82046059
  PAW double counting   =     50594.51003143   -49994.65612350
  entropy T*S    EENTRO =        -0.00000000
  eigenvalues    EBANDS =     -9931.32115155
  atomic energy  EATOM  =     64968.54023382
  Solvation  Ediel_sol  =         0.00000000
  ---------------------------------------------------
  free energy    TOTEN  =        30.81338864 eV

  energy without entropy =       30.81338864  energy(sigma->0) =       30.81338864


--------------------------------------------------------------------------------------------------------




--------------------------------------- Iteration      1(   3)  ---------------------------------------


     EDDAV:  cpu time   57.1875: real time   57.2008
       DOS:  cpu time    0.0009: real time    0.0009
    --------------------------------------------
      LOOP:  cpu time   57.1884: real time   57.2016

 eigenvalue-minimisations  : 10280
 total energy-change (2. order) :-0.1033309E+04  (-0.1025519E+04)
 number of electron     864.0000000 magnetization 
 augmentation part      864.0000000 magnetization 

 Free energy of the ion-electron system (eV)
  ---------------------------------------------------
  alpha Z        PSCENC =      2026.14881195
  Ewald energy   TEWEN  =    -36697.98613352
  -Hartree energ DENC   =    -24059.24274058
  -exchange      EXHF   =         0.00000000
  -V(xc)+E(xc)   XCENC  =      3124.82046059
  PAW double counting   =     50594.51003143   -49994.65612350
  entropy T*S    EENTRO =        -0.00000000
  eigenvalues    EBANDS =    -10964.63037266
  atomic energy  EATOM  =     64968.54023382
  Solvation  Ediel_sol  =         0.00000000
  ---------------------------------------------------
  free energy    TOTEN  =     -1002.49583247 eV

  energy without entropy =    -1002.49583247  energy(sigma->0) =    -1002.49583247


--------------------------------------------------------------------------------------------------------




--------------------------------------- Iteration      1(   4)  ---------------------------------------


     EDDAV:  cpu time   61.2115: real time   61.2300
       DOS:  cpu time    0.0009: real time    0.0009
    --------------------------------------------
      LOOP:  cpu time   61.2123: real time   61.2309

 eigenvalue-minimisations  : 11160
 total energy-change (2. order) :-0.4750260E+02  (-0.4732345E+02)
 number of electron     864.0000000 magnetization 
 augmentation part      864.0000000 magnetization 

 Free energy of the ion-electron system (eV)
  ---------------------------------------------------
  alpha Z        PSCENC =      2026.14881195
  Ewald energy   TEWEN  =    -36697.98613352
  -Hartree energ DENC   =    -24059.24274058
  -exchange      EXHF   =         0.00000000
  -V(xc)+E(xc)   XCENC  =      3124.82046059
  PAW double counting   =     50594.51003143   -49994.65612350
  entropy T*S    EENTRO =        -0.00000000
  eigenvalues    EBANDS =    -11012.13297496
  atomic energy  EATOM  =     64968.54023382
  Solvation  Ediel_sol  =         0.00000000
  ---------------------------------------------------
  free energy    TOTEN  =     -1049.99843477 eV

  energy without entropy =    -1049.99843477  energy(sigma->0) =    -1049.99843477


--------------------------------------------------------------------------------------------------------




--------------------------------------- Iteration      1(   5)  ---------------------------------------


     EDDAV:  cpu time   77.1949: real time   77.2121
       DOS:  cpu time    0.0010: real time    0.0010
    CHARGE:  cpu time    2.2438: real time    2.2438
    MIXING:  cpu time    0.0107: real time    0.0109
    --------------------------------------------
      LOOP:  cpu time   79.4505: real time   79.4679

 eigenvalue-minimisations  : 14784
 total energy-change (2. order) :-0.6101228E+01  (-0.6098179E+01)
 number of electron     864.0000008 magnetization 
 augmentation part      133.4095793 magnetization 

 Broyden mixing:
  rms(total) = 0.85216E+01    rms(broyden)= 0.85208E+01
  rms(prec ) = 0.10039E+02
  weight for this iteration     100.00

 Free energy of the ion-electron system (eV)
  ---------------------------------------------------
  alpha Z        PSCENC =      2026.14881195
  Ewald energy   TEWEN  =    -36697.98613352
  -Hartree energ DENC   =    -24059.24274058
  -exchange      EXHF   =         0.00000000
  -V(xc)+E(xc)   XCENC  =      3124.82046059
  PAW double counting   =     50594.51003143   -49994.65612350
  entropy T*S    EENTRO =        -0.00000000
  eigenvalues    EBANDS =    -11018.23420274
  atomic energy  EATOM  =     64968.54023382
  Solvation  Ediel_sol  =         0.00000000
  ---------------------------------------------------
  free energy    TOTEN  =     -1056.09966255 eV

  energy without entropy =    -1056.09966255  energy(sigma->0) =    -1056.09966255


--------------------------------------------------------------------------------------------------------




--------------------------------------- Iteration      1(   6)  ---------------------------------------


    POTLOK:  cpu time    0.1634: real time    0.1822
    SETDIJ:  cpu time    0.3845: real time    0.3844
     EDDAV:  cpu time   56.5538: real time   56.5563
       DOS:  cpu time    0.0023: real time    0.0023
    CHARGE:  cpu time    2.2450: real time    2.2450
    MIXING:  cpu time    0.0101: real time    0.0101
    --------------------------------------------
      LOOP:  cpu time   59.3590: real time   59.3803

 eigenvalue-minimisations  : 10104
 total energy-change (2. order) : 0.1661367E+03  (-0.8097231E+02)
 number of electron     864.0000007 magnetization 
 augmentation part      117.6149154 magnetization 

 Broyden mixing:
  rms(total) = 0.39517E+01    rms(broyden)= 0.39501E+01
  rms(prec ) = 0.43131E+01
  weight for this iteration     100.00

 eigenvalues of (default mixing * dielectric matrix)
  average eigenvalue GAMMA=   0.8962
  0.8962

 Free energy of the ion-electron system (eV)
  ---------------------------------------------------
  alpha Z        PSCENC =      2026.14881195
  Ewald energy   TEWEN  =    -36697.98613352
  -Hartree energ DENC   =    -25673.23378264
  -exchange      EXHF   =         0.00000000
  -V(xc)+E(xc)   XCENC  =      3225.59277902
  PAW double counting   =     63953.94683980   -63497.15277014
  entropy T*S    EENTRO =        -0.05782480
  eigenvalues    EBANDS =     -9195.76107372
  atomic energy  EATOM  =     64968.54023382
  Solvation  Ediel_sol  =         0.00000000
  ---------------------------------------------------
  free energy    TOTEN  =      -889.96292023 eV

  energy without entropy =     -889.90509544  energy(sigma->0) =     -889.93400784


--------------------------------------------------------------------------------------------------------




--------------------------------------- Iteration      1(   7)  ---------------------------------------


    POTLOK:  cpu time    0.2139: real time    0.2245
    SETDIJ:  cpu time    0.4028: real time    0.4028
     EDDAV:  cpu time   58.9947: real time   58.9988
       DOS:  cpu time    0.0019: real time    0.0019
    CHARGE:  cpu time    2.2670: real time    2.2670
    MIXING:  cpu time    0.0099: real time    0.0099
    --------------------------------------------
      LOOP:  cpu time   61.8901: real time   61.9048

 eigenvalue-minimisations  : 10704
 total energy-change (2. order) :-0.2860878E+01  (-0.9977357E+01)
 number of electron     864.0000007 magnetization 
 augmentation part      118.5008628 magnetization 

 Broyden mixing:
  rms(total) = 0.21042E+01    rms(broyden)= 0.21039E+01
  rms(prec ) = 0.24476E+01
  weight for this iteration     100.00

 eigenvalues of (default mixing * dielectric matrix)
  average eigenvalue GAMMA=   0.9833
  0.9833  0.9833

 Free energy of the ion-electron system (eV)
  ---------------------------------------------------
  alpha Z        PSCENC =      2026.14881195
  Ewald energy   TEWEN  =    -36697.98613352
  -Hartree energ DENC   =    -25679.43234373
  -exchange      EXHF   =         0.00000000
  -V(xc)+E(xc)   XCENC  =      3222.33439090
  PAW double counting   =     73580.93732016   -73171.68166319
  entropy T*S    EENTRO =        -0.00001330
  eigenvalues    EBANDS =     -9141.68440180
  atomic energy  EATOM  =     64968.54023382
  Solvation  Ediel_sol  =         0.00000000
  ---------------------------------------------------
  free energy    TOTEN  =      -892.82379871 eV

  energy without entropy =     -892.82378541  energy(sigma->0) =     -892.82379206


--------------------------------------------------------------------------------------------------------




--------------------------------------- Iteration      1(   8)  ---------------------------------------


    POTLOK:  cpu time    0.1863: real time    0.2059
    SETDIJ:  cpu time    0.3840: real time    0.3840
     EDDAV:  cpu time   67.0789: real time   67.0835
       DOS:  cpu time    0.0022: real time    0.0022
    CHARGE:  cpu time    2.2473: real time    2.2474
    MIXING:  cpu time    0.0093: real time    0.0093
    --------------------------------------------
      LOOP:  cpu time   69.9080: real time   69.9323

 eigenvalue-minimisations  : 12616
 total energy-change (2. order) : 0.5824874E+01  (-0.1883174E+01)
 number of electron     864.0000007 magnetization 
 augmentation part      117.7161619 magnetization 

 Broyden mixing:
  rms(total) = 0.12745E+01    rms(broyden)= 0.12743E+01
  rms(prec ) = 0.14653E+01
  weight for this iteration     100.00

 eigenvalues of (default mixing * dielectric matrix)
  average eigenvalue GAMMA=   1.1000
  1.6236  1.0454  0.6312

 Free energy of the ion-electron system (eV)
  ---------------------------------------------------
  alpha Z        PSCENC =      2026.14881195
  Ewald energy   TEWEN  =    -36697.98613352
  -Hartree energ DENC   =    -25753.60789349
  -exchange      EXHF   =         0.00000000
  -V(xc)+E(xc)   XCENC  =      3224.14922293
  PAW double counting   =     78676.77323723   -78300.98941589
  entropy T*S    EENTRO =        -0.00402884
  eigenvalues    EBANDS =     -9030.02295915
  atomic energy  EATOM  =     64968.54023382
  Solvation  Ediel_sol  =         0.00000000
  ---------------------------------------------------
  free energy    TOTEN  =      -886.99892497 eV

  energy without entropy =     -886.99489613  energy(sigma->0) =     -886.99691055


--------------------------------------------------------------------------------------------------------




--------------------------------------- Iteration      1(   9)  ---------------------------------------


    POTLOK:  cpu time    0.1947: real time    0.2119
    SETDIJ:  cpu time    0.4047: real time    0.4069
     EDDAV:  cpu time   60.1350: real time   60.1381
       DOS:  cpu time    0.0023: real time    0.0023
    CHARGE:  cpu time    2.2666: real time    2.2666
    MIXING:  cpu time    0.0110: real time    0.0110
    --------------------------------------------
      LOOP:  cpu time   63.0142: real time   63.0369

 eigenvalue-minimisations  : 10976
 total energy-change (2. order) :-0.9877000E+00  (-0.9296519E+00)
 number of electron     864.0000007 magnetization 
 augmentation part      117.3557275 magnetization 

 Broyden mixing:
  rms(total) = 0.14301E+01    rms(broyden)= 0.14297E+01
  rms(prec ) = 0.19451E+01
  weight for this iteration     100.00

 eigenvalues of (default mixing * dielectric matrix)
  average eigenvalue GAMMA=   0.9582
  1.8006  1.0473  0.4926  0.4926

 Free energy of the ion-electron system (eV)
  ---------------------------------------------------
  alpha Z        PSCENC =      2026.14881195
  Ewald energy   TEWEN  =    -36697.98613352
  -Hartree energ DENC   =    -25828.96604235
  -exchange      EXHF   =         0.00000000
  -V(xc)+E(xc)   XCENC  =      3226.53223723
  PAW double counting   =     83992.66280689   -83643.28216455
  entropy T*S    EENTRO =        -0.01830310
  eigenvalues    EBANDS =     -8931.61807138
  atomic energy  EATOM  =     64968.54023382
  Solvation  Ediel_sol  =         0.00000000
  ---------------------------------------------------
  free energy    TOTEN  =      -887.98662499 eV

  energy without entropy =     -887.96832190  energy(sigma->0) =     -887.97747344


--------------------------------------------------------------------------------------------------------




--------------------------------------- Iteration      1(  10)  ---------------------------------------


    POTLOK:  cpu time    0.1866: real time    0.2041
    SETDIJ:  cpu time    0.3924: real time    0.3979
     EDDAV:  cpu time   60.5818: real time   60.5826
       DOS:  cpu time    0.0024: real time    0.0024
    CHARGE:  cpu time    2.2664: real time    2.2664
    MIXING:  cpu time    0.0108: real time    0.0108
    --------------------------------------------
      LOOP:  cpu time   63.4403: real time   63.4642

 eigenvalue-minimisations  : 11096
 total energy-change (2. order) : 0.1601289E+01  (-0.5889728E+00)
 number of electron     864.0000007 magnetization 
 augmentation part      117.8343793 magnetization 

 Broyden mixing:
  rms(total) = 0.51501E+00    rms(broyden)= 0.51421E+00
  rms(prec ) = 0.67839E+00
  weight for this iteration     100.00

 eigenvalues of (default mixing * dielectric matrix)
  average eigenvalue GAMMA=   0.9693
  2.1952  0.8861  0.8861  0.4397  0.4397

 Free energy of the ion-electron system (eV)
  ---------------------------------------------------
  alpha Z        PSCENC =      2026.14881195
  Ewald energy   TEWEN  =    -36697.98613352
  -Hartree energ DENC   =    -25848.96890414
  -exchange      EXHF   =         0.00000000
  -V(xc)+E(xc)   XCENC  =      3227.23788643
  PAW double counting   =     85311.07324988   -84968.27879110
  entropy T*S    EENTRO =        -0.01361598
  eigenvalues    EBANDS =     -8904.13807330
  atomic energy  EATOM  =     64968.54023382
  Solvation  Ediel_sol  =         0.00000000
  ---------------------------------------------------
  free energy    TOTEN  =      -886.38533595 eV

  energy without entropy =     -886.37171998  energy(sigma->0) =     -886.37852796


--------------------------------------------------------------------------------------------------------




--------------------------------------- Iteration      1(  11)  ---------------------------------------


    POTLOK:  cpu time    0.1864: real time    0.2213
    SETDIJ:  cpu time    0.3883: real time    0.3884
     EDDAV:  cpu time   60.4479: real time   60.4570
       DOS:  cpu time    0.0022: real time    0.0022
    CHARGE:  cpu time    2.2328: real time    2.2328
    MIXING:  cpu time    0.0106: real time    0.0106
    --------------------------------------------
      LOOP:  cpu time   63.2682: real time   63.3123

 eigenvalue-minimisations  : 11080
 total energy-change (2. order) : 0.1174905E+00  (-0.2121706E+00)
 number of electron     864.0000007 magnetization 
 augmentation part      117.2952129 magnetization 

 Broyden mixing:
  rms(total) = 0.71845E+00    rms(broyden)= 0.71815E+00
  rms(prec ) = 0.98957E+00
  weight for this iteration     100.00

 eigenvalues of (default mixing * dielectric matrix)
  average eigenvalue GAMMA=   0.8568
  2.1782  0.9217  0.7250  0.7250  0.2956  0.2956

 Free energy of the ion-electron system (eV)
  ---------------------------------------------------
  alpha Z        PSCENC =      2026.14881195
  Ewald energy   TEWEN  =    -36697.98613352
  -Hartree energ DENC   =    -25897.85499569
  -exchange      EXHF   =         0.00000000
  -V(xc)+E(xc)   XCENC  =      3229.41324018
  PAW double counting   =     87040.29871190   -86704.89197725
  entropy T*S    EENTRO =        -0.04053380
  eigenvalues    EBANDS =     -8849.89520306
  atomic energy  EATOM  =     64968.54023382
  Solvation  Ediel_sol  =         0.00000000
  ---------------------------------------------------
  free energy    TOTEN  =      -886.26784545 eV

  energy without entropy =     -886.22731165  energy(sigma->0) =     -886.24757855


--------------------------------------------------------------------------------------------------------




--------------------------------------- Iteration      1(  12)  ---------------------------------------


    POTLOK:  cpu time    0.1630: real time    0.1813
    SETDIJ:  cpu time    0.3826: real time    0.3826
     EDDAV:  cpu time   59.6634: real time   59.6650
       DOS:  cpu time    0.0021: real time    0.0021
    CHARGE:  cpu time    2.2630: real time    2.2630
    MIXING:  cpu time    0.0113: real time    0.0113
    --------------------------------------------
      LOOP:  cpu time   62.4855: real time   62.5053

 eigenvalue-minimisations  : 10896
 total energy-change (2. order) : 0.1524429E+00  (-0.1842574E+00)
 number of electron     864.0000007 magnetization 
 augmentation part      117.6188020 magnetization 

 Broyden mixing:
  rms(total) = 0.30709E+00    rms(broyden)= 0.30648E+00
  rms(prec ) = 0.44421E+00
  weight for this iteration     100.00

 eigenvalues of (default mixing * dielectric matrix)
  average eigenvalue GAMMA=   0.8804
  2.3736  1.0005  1.0005  0.6978  0.4481  0.4481  0.1942

 Free energy of the ion-electron system (eV)
  ---------------------------------------------------
  alpha Z        PSCENC =      2026.14881195
  Ewald energy   TEWEN  =    -36697.98613352
  -Hartree energ DENC   =    -25896.95232816
  -exchange      EXHF   =         0.00000000
  -V(xc)+E(xc)   XCENC  =      3229.35807817
  PAW double counting   =     86976.05443204   -86640.28182569
  entropy T*S    EENTRO =        -0.00169461
  eigenvalues    EBANDS =     -8850.99497659
  atomic energy  EATOM  =     64968.54023382
  Solvation  Ediel_sol  =         0.00000000
  ---------------------------------------------------
  free energy    TOTEN  =      -886.11540258 eV

  energy without entropy =     -886.11370797  energy(sigma->0) =     -886.11455528


--------------------------------------------------------------------------------------------------------




--------------------------------------- Iteration      1(  13)  ---------------------------------------


    POTLOK:  cpu time    0.2053: real time    0.2222
    SETDIJ:  cpu time    0.4073: real time    0.4075
     EDDAV:  cpu time   57.9943: real time   57.9967
       DOS:  cpu time    0.0025: real time    0.0024
    CHARGE:  cpu time    2.2417: real time    2.2418
    MIXING:  cpu time    0.0118: real time    0.0118
    --------------------------------------------
      LOOP:  cpu time   60.8628: real time   60.8823

 eigenvalue-minimisations  : 10456
 total energy-change (2. order) : 0.9091222E-01  (-0.2369710E-01)
 number of electron     864.0000007 magnetization 
 augmentation part      117.4443035 magnetization 

 Broyden mixing:
  rms(total) = 0.14988E+00    rms(broyden)= 0.14985E+00
  rms(prec ) = 0.22098E+00
  weight for this iteration     100.00

 eigenvalues of (default mixing * dielectric matrix)
  average eigenvalue GAMMA=   0.9154
  2.4002  1.4479  0.8919  0.8919  0.5610  0.5610  0.3629  0.2067

 Free energy of the ion-electron system (eV)
  ---------------------------------------------------
  alpha Z        PSCENC =      2026.14881195
  Ewald energy   TEWEN  =    -36697.98613352
  -Hartree energ DENC   =    -25921.25478682
  -exchange      EXHF   =         0.00000000
  -V(xc)+E(xc)   XCENC  =      3230.37016284
  PAW double counting   =     87458.63269650   -87123.93826277
  entropy T*S    EENTRO =        -0.03355903
  eigenvalues    EBANDS =     -8826.50365335
  atomic energy  EATOM  =     64968.54023382
  Solvation  Ediel_sol  =         0.00000000
  ---------------------------------------------------
  free energy    TOTEN  =      -886.02449036 eV

  energy without entropy =     -885.99093133  energy(sigma->0) =     -886.00771085


--------------------------------------------------------------------------------------------------------




--------------------------------------- Iteration      1(  14)  ---------------------------------------


    POTLOK:  cpu time    0.2008: real time    0.2167
    SETDIJ:  cpu time    0.4121: real time    0.4144
     EDDAV:  cpu time   60.5594: real time   60.5670
       DOS:  cpu time    0.0025: real time    0.0025
    CHARGE:  cpu time    2.2347: real time    2.2347
    MIXING:  cpu time    0.0124: real time    0.0124
    --------------------------------------------
      LOOP:  cpu time   63.4219: real time   63.4476

 eigenvalue-minimisations  : 11080
 total energy-change (2. order) :-0.3603347E-01  (-0.3145484E-01)
 number of electron     864.0000007 magnetization 
 augmentation part      117.3939110 magnetization 

 Broyden mixing:
  rms(total) = 0.21998E+00    rms(broyden)= 0.21990E+00
  rms(prec ) = 0.31395E+00
  weight for this iteration     100.00

 eigenvalues of (default mixing * dielectric matrix)
  average eigenvalue GAMMA=   0.8598
  2.4211  1.5428  0.8652  0.8652  0.5568  0.5568  0.4406  0.2850  0.2051

 Free energy of the ion-electron system (eV)
  ---------------------------------------------------
  alpha Z        PSCENC =      2026.14881195
  Ewald energy   TEWEN  =    -36697.98613352
  -Hartree energ DENC   =    -25928.49619079
  -exchange      EXHF   =         0.00000000
  -V(xc)+E(xc)   XCENC  =      3230.56007041
  PAW double counting   =     87399.39969451   -87063.73151522
  entropy T*S    EENTRO =        -0.04587426
  eigenvalues    EBANDS =     -8820.44962073
  atomic energy  EATOM  =     64968.54023382
  Solvation  Ediel_sol  =         0.00000000
  ---------------------------------------------------
  free energy    TOTEN  =      -886.06052383 eV

  energy without entropy =     -886.01464958  energy(sigma->0) =     -886.03758671


--------------------------------------------------------------------------------------------------------




--------------------------------------- Iteration      1(  15)  ---------------------------------------


    POTLOK:  cpu time    0.2024: real time    0.2215
    SETDIJ:  cpu time    0.4094: real time    0.4094
     EDDAV:  cpu time   61.1807: real time   61.1804
       DOS:  cpu time    0.0023: real time    0.0023
    CHARGE:  cpu time    2.2305: real time    2.2305
    MIXING:  cpu time    0.0106: real time    0.0106
    --------------------------------------------
      LOOP:  cpu time   64.0357: real time   64.0546

 eigenvalue-minimisations  : 11224
 total energy-change (2. order) : 0.1080601E-01  (-0.3180636E-01)
 number of electron     864.0000007 magnetization 
 augmentation part      117.4056198 magnetization 

 Broyden mixing:
  rms(total) = 0.11018E+00    rms(broyden)= 0.10994E+00
  rms(prec ) = 0.15644E+00
  weight for this iteration     100.00

 eigenvalues of (default mixing * dielectric matrix)
  average eigenvalue GAMMA=   0.8397
  2.4428  1.7549  0.8390  0.8390  0.5738  0.5738  0.5470  0.3884  0.2017  0.2370

 Free energy of the ion-electron system (eV)
  ---------------------------------------------------
  alpha Z        PSCENC =      2026.14881195
  Ewald energy   TEWEN  =    -36697.98613352
  -Hartree energ DENC   =    -25931.99018176
  -exchange      EXHF   =         0.00000000
  -V(xc)+E(xc)   XCENC  =      3230.66806047
  PAW double counting   =     87394.91567391   -87058.95035058
  entropy T*S    EENTRO =        -0.04000152
  eigenvalues    EBANDS =     -8817.35583060
  atomic energy  EATOM  =     64968.54023382
  Solvation  Ediel_sol  =         0.00000000
  ---------------------------------------------------
  free energy    TOTEN  =      -886.04971782 eV

  energy without entropy =     -886.00971631  energy(sigma->0) =     -886.02971706


--------------------------------------------------------------------------------------------------------




--------------------------------------- Iteration      1(  16)  ---------------------------------------


    POTLOK:  cpu time    0.2134: real time    0.2355
    SETDIJ:  cpu time    0.4272: real time    0.4292
     EDDAV:  cpu time   61.7480: real time   61.7499
       DOS:  cpu time    0.0024: real time    0.0024
    CHARGE:  cpu time    2.2836: real time    2.2837
    MIXING:  cpu time    0.0127: real time    0.0127
    --------------------------------------------
      LOOP:  cpu time   64.6874: real time   64.7134

 eigenvalue-minimisations  : 11304
 total energy-change (2. order) :-0.5960946E-03  (-0.1016048E-01)
 number of electron     864.0000007 magnetization 
 augmentation part      117.3813535 magnetization 

 Broyden mixing:
  rms(total) = 0.10708E+00    rms(broyden)= 0.10701E+00
  rms(prec ) = 0.15419E+00
  weight for this iteration     100.00

 eigenvalues of (default mixing * dielectric matrix)
  average eigenvalue GAMMA=   0.8479
  2.4354  1.9992  0.8798  0.8798  0.9063  0.5533  0.5533  0.3846  0.2681  0.2681
  0.1991

 Free energy of the ion-electron system (eV)
  ---------------------------------------------------
  alpha Z        PSCENC =      2026.14881195
  Ewald energy   TEWEN  =    -36697.98613352
  -Hartree energ DENC   =    -25935.87598789
  -exchange      EXHF   =         0.00000000
  -V(xc)+E(xc)   XCENC  =      3230.79416858
  PAW double counting   =     87371.28533582   -87034.97238345
  entropy T*S    EENTRO =        -0.05260068
  eigenvalues    EBANDS =     -8813.93175856
  atomic energy  EATOM  =     64968.54023382
  Solvation  Ediel_sol  =         0.00000000
  ---------------------------------------------------
  free energy    TOTEN  =      -886.05031392 eV

  energy without entropy =     -885.99771324  energy(sigma->0) =     -886.02401358


--------------------------------------------------------------------------------------------------------




--------------------------------------- Iteration      1(  17)  ---------------------------------------


    POTLOK:  cpu time    0.2141: real time    0.2305
    SETDIJ:  cpu time    0.4144: real time    0.4145
     EDDAV:  cpu time   54.5024: real time   54.5031
       DOS:  cpu time    0.0024: real time    0.0024
    CHARGE:  cpu time    2.2792: real time    2.2792
    MIXING:  cpu time    0.0132: real time    0.0132
    --------------------------------------------
      LOOP:  cpu time   57.4258: real time   57.4429

 eigenvalue-minimisations  :  9680
 total energy-change (2. order) :-0.7539558E-02  (-0.1106530E-01)
 number of electron     864.0000007 magnetization 
 augmentation part      117.3902577 magnetization 

 Broyden mixing:
  rms(total) = 0.87555E-01    rms(broyden)= 0.87441E-01
  rms(prec ) = 0.12676E+00
  weight for this iteration     100.00

 eigenvalues of (default mixing * dielectric matrix)
  average eigenvalue GAMMA=   0.8746
  2.3769  2.3769  1.0067  1.0067  0.7116  0.7116  0.6012  0.6012  0.4227  0.2438
  0.2438  0.1923

 Free energy of the ion-electron system (eV)
  ---------------------------------------------------
  alpha Z        PSCENC =      2026.14881195
  Ewald energy   TEWEN  =    -36697.98613352
  -Hartree energ DENC   =    -25939.38757043
  -exchange      EXHF   =         0.00000000
  -V(xc)+E(xc)   XCENC  =      3230.88319557
  PAW double counting   =     87314.78667040   -86978.02581047
  entropy T*S    EENTRO =        -0.04381062
  eigenvalues    EBANDS =     -8810.97344018
  atomic energy  EATOM  =     64968.54023382
  Solvation  Ediel_sol  =         0.00000000
  ---------------------------------------------------
  free energy    TOTEN  =      -886.05785347 eV

  energy without entropy =     -886.01404286  energy(sigma->0) =     -886.03594817


--------------------------------------------------------------------------------------------------------




--------------------------------------- Iteration      1(  18)  ---------------------------------------


    POTLOK:  cpu time    0.1843: real time    0.1965
    SETDIJ:  cpu time    0.3849: real time    0.3870
     EDDAV:  cpu time   54.2478: real time   54.2529
       DOS:  cpu time    0.0025: real time    0.0025
    CHARGE:  cpu time    2.2385: real time    2.2386
    MIXING:  cpu time    0.0114: real time    0.0114
    --------------------------------------------
      LOOP:  cpu time   57.0694: real time   57.0890

 eigenvalue-minimisations  :  9648
 total energy-change (2. order) : 0.1951267E-03  (-0.1433947E-02)
 number of electron     864.0000007 magnetization 
 augmentation part      117.3915574 magnetization 

 Broyden mixing:
  rms(total) = 0.24574E-01    rms(broyden)= 0.24552E-01
  rms(prec ) = 0.35238E-01
  weight for this iteration     100.00

 eigenvalues of (default mixing * dielectric matrix)
  average eigenvalue GAMMA=   0.9175
  2.5241  2.5087  1.3242  0.9424  0.9424  0.7615  0.7615  0.5401  0.5401  0.4052
  0.2423  0.2423  0.1930

 Free energy of the ion-electron system (eV)
  ---------------------------------------------------
  alpha Z        PSCENC =      2026.14881195
  Ewald energy   TEWEN  =    -36697.98613352
  -Hartree energ DENC   =    -25942.47506045
  -exchange      EXHF   =         0.00000000
  -V(xc)+E(xc)   XCENC  =      3230.95119926
  PAW double counting   =     87258.53445606   -86921.38778113
  entropy T*S    EENTRO =        -0.05035982
  eigenvalues    EBANDS =     -8808.33302453
  atomic energy  EATOM  =     64968.54023382
  Solvation  Ediel_sol  =         0.00000000
  ---------------------------------------------------
  free energy    TOTEN  =      -886.05765835 eV

  energy without entropy =     -886.00729853  energy(sigma->0) =     -886.03247844


--------------------------------------------------------------------------------------------------------




--------------------------------------- Iteration      1(  19)  ---------------------------------------


    POTLOK:  cpu time    0.1841: real time    0.2017
    SETDIJ:  cpu time    0.3923: real time    0.3923
     EDDAV:  cpu time   60.3175: real time   60.3187
       DOS:  cpu time    0.0024: real time    0.0024
    CHARGE:  cpu time    2.2408: real time    2.2408
    MIXING:  cpu time    0.0127: real time    0.0127
    --------------------------------------------
      LOOP:  cpu time   63.1498: real time   63.1686

 eigenvalue-minimisations  : 11024
 total energy-change (2. order) :-0.2860958E-02  (-0.8026025E-03)
 number of electron     864.0000007 magnetization 
 augmentation part      117.3706743 magnetization 

 Broyden mixing:
  rms(total) = 0.45036E-01    rms(broyden)= 0.45000E-01
  rms(prec ) = 0.63722E-01
  weight for this iteration     100.00

 eigenvalues of (default mixing * dielectric matrix)
  average eigenvalue GAMMA=   0.9277
  2.8199  2.4179  1.5794  0.9108  0.9108  0.7934  0.7934  0.6067  0.6067  0.4360
  0.4360  0.2417  0.2417  0.1931

 Free energy of the ion-electron system (eV)
[...]
   0.281E+02 -.410E+02 0.149E+03   -.446E+02 0.387E+02 -.159E+03   0.197E+02 0.283E+01 0.834E+01   0.773E-03 -.233E-02 -.201E-02
   -.172E+02 0.655E+02 0.495E+02   0.397E+02 -.854E+02 -.478E+02   -.213E+02 0.205E+02 0.305E+00   -.121E-02 0.323E-02 0.106E-02
   -.123E+03 0.904E+02 0.155E+02   0.129E+03 -.105E+03 -.932E+01   -.487E+01 0.175E+02 -.556E+01   -.470E-02 0.110E-02 0.849E-02
   0.294E+02 -.404E+02 -.143E+03   -.356E+02 0.503E+02 0.136E+03   0.742E+01 -.113E+02 0.992E+01   0.550E-02 0.465E-02 0.233E-02
   0.495E+02 0.535E+02 0.911E+02   -.488E+02 -.842E+02 -.110E+03   0.109E+01 0.220E+02 0.144E+02   -.559E-03 0.123E-01 0.478E-02
   -.400E+02 0.173E+03 0.143E+03   0.192E+02 -.189E+03 -.154E+03   0.227E+02 0.163E+02 0.124E+02   -.125E-02 0.686E-02 0.606E-03
   -.840E+02 -.111E+03 0.144E+02   0.791E+02 0.127E+03 -.425E+01   0.705E+01 -.184E+02 -.115E+02   0.156E-02 -.658E-02 0.261E-02
   0.825E+02 -.610E+02 0.105E+03   -.878E+02 0.822E+02 -.110E+03   0.507E+01 -.245E+02 0.476E+01   0.183E-03 -.856E-03 -.499E-02
   -.163E+01 0.384E+02 -.706E+02   -.968E+01 -.607E+02 0.815E+02   0.131E+02 0.248E+02 -.120E+02   0.253E-02 0.540E-03 -.536E-02
   -.141E+03 -.764E+02 0.623E+02   0.172E+03 0.855E+02 -.712E+02   -.317E+02 -.708E+01 0.848E+01   0.169E-02 0.257E-02 -.327E-02
   -.118E+03 -.275E+02 0.347E+02   0.122E+03 0.227E+02 -.489E+02   -.145E+01 0.481E+01 0.142E+02   -.783E-03 -.276E-02 -.232E-02
   0.475E+02 0.636E+02 -.288E+02   -.630E+02 -.510E+02 0.557E+02   0.167E+02 -.124E+02 -.275E+02   0.160E-03 0.650E-02 0.154E-01
   0.579E+02 0.102E+03 -.641E+02   -.566E+02 -.105E+03 0.839E+02   -.255E+01 0.250E+01 -.197E+02   -.718E-03 0.659E-03 -.121E-02
   0.895E+02 0.156E+03 -.590E+02   -.121E+03 -.180E+03 0.601E+02   0.250E+02 0.207E+02 0.172E+01   -.129E-02 -.320E-02 0.381E-02
   -.404E+02 -.178E+03 -.129E+03   0.498E+02 0.202E+03 0.129E+03   -.110E+02 -.213E+02 0.418E+00   -.820E-03 -.322E-02 0.470E-02
   0.811E+02 -.228E+01 0.112E+03   -.873E+02 0.195E+02 -.106E+03   0.695E+01 -.205E+02 -.777E+01   0.179E-04 -.226E-02 -.335E-02
   0.458E+02 -.119E+02 0.113E+03   -.664E+02 -.384E+01 -.123E+03   0.214E+02 0.146E+02 0.831E+01   0.878E-04 -.380E-02 -.227E-02
   -.827E+02 -.154E+03 0.114E+03   0.826E+02 0.171E+03 -.102E+03   0.722E+00 -.192E+02 -.160E+02   0.533E-03 0.629E-03 -.151E-02
   0.719E+02 0.392E+02 0.309E+02   -.778E+02 -.280E+02 -.277E+02   0.606E+01 -.140E+02 -.326E+01   -.936E-03 -.240E-02 0.191E-03
   0.503E+02 -.172E+03 -.123E+00   -.570E+02 0.182E+03 -.100E+02   0.628E+01 -.101E+02 0.134E+02   0.196E-02 -.117E-02 0.247E-02
   -.172E+02 0.118E+03 0.145E+02   0.403E+02 -.124E+03 0.141E+02   -.240E+02 0.242E+01 -.232E+02   0.524E-03 -.247E-02 -.378E-02
   -.687E+01 -.682E+02 -.101E+02   0.286E+02 0.632E+02 0.141E+02   -.219E+02 0.571E+01 -.241E+01   -.153E-03 -.907E-03 -.348E-02
   -.164E+02 0.292E+02 0.539E+02   0.140E+02 -.327E+02 -.658E+02   0.367E+01 0.438E+01 0.123E+02   0.300E-03 -.444E-02 0.344E-02
   0.189E+02 0.348E+01 -.113E+03   0.101E+02 -.112E+01 0.124E+03   -.301E+02 -.168E+01 -.995E+01   -.530E-03 -.258E-02 -.397E-03
   0.164E+03 0.463E+02 -.773E+02   -.171E+03 -.753E+02 0.852E+02   0.741E+01 0.319E+02 -.722E+01   -.353E-02 -.151E-02 -.591E-02
   0.823E+01 -.230E+02 0.180E+03   0.843E+01 0.797E+01 -.200E+03   -.165E+02 0.136E+02 0.208E+02   -.689E-02 0.210E-02 0.345E-02
   -.160E+03 0.112E+03 -.308E+02   0.175E+03 -.114E+03 0.211E+02   -.175E+02 0.267E+01 0.116E+02   0.134E-01 0.460E-02 0.184E-02
   0.309E+02 -.198E+03 -.447E+02   -.365E+02 0.224E+03 0.488E+02   0.674E+01 -.296E+02 -.396E+01   -.152E-02 0.268E-02 -.535E-03
   0.102E+03 -.178E+03 0.535E+01   -.110E+03 0.206E+03 0.373E+01   0.808E+01 -.290E+02 -.978E+01   0.592E-03 0.627E-02 -.408E-02
   -.387E+01 0.341E+02 0.467E+02   0.943E+01 -.212E+02 -.518E+02   -.850E+01 -.114E+02 0.411E+01   0.140E-03 -.326E-02 -.254E-02
   -.455E+02 -.670E+02 -.880E+02   0.727E+02 0.635E+02 0.117E+03   -.237E+02 0.415E+01 -.277E+02   -.954E-03 -.223E-02 0.119E-02
   -.408E+02 0.104E+03 0.225E+03   0.365E+02 -.137E+03 -.245E+03   0.502E+01 0.335E+02 0.194E+02   -.190E-03 -.329E-02 0.748E-02
   -.266E+03 0.117E+03 -.550E+02   0.299E+03 -.131E+03 0.521E+02   -.299E+02 0.128E+02 0.216E+01   0.603E-02 0.457E-02 0.883E-03
   -.728E+01 -.110E+03 -.119E+03   -.472E+01 0.118E+03 0.132E+03   0.147E+02 -.973E+01 -.123E+02   0.237E-02 -.838E-02 0.712E-02
   0.124E+02 0.138E+03 0.194E+03   0.320E+01 -.154E+03 -.194E+03   -.191E+02 0.148E+02 -.567E+01   -.115E-02 0.661E-02 0.615E-03
   -.173E+03 0.207E+02 0.375E+02   0.206E+03 -.224E+02 -.444E+02   -.310E+02 0.286E+01 0.471E+01   -.344E-02 0.218E-02 -.359E-02
   -.151E+03 -.627E+02 -.170E+03   0.169E+03 0.759E+02 0.185E+03   -.165E+02 -.116E+02 -.110E+02   0.111E-02 0.421E-03 -.302E-02
   -.916E+02 -.447E+01 0.432E+02   0.849E+02 0.231E+02 -.303E+02   0.897E+01 -.202E+02 -.168E+02   0.191E-02 0.703E-02 0.733E-02
   0.195E+03 0.651E+02 -.488E+02   -.212E+03 -.809E+02 0.533E+02   0.158E+02 0.150E+02 -.480E+01   -.216E-02 0.296E-02 0.569E-03
   0.236E+03 0.819E+02 -.106E+03   -.259E+03 -.685E+02 0.119E+03   0.215E+02 -.146E+02 -.926E+01   -.149E-02 -.814E-03 0.177E-02
   -.472E+02 -.455E+02 -.403E+02   0.461E+02 0.234E+02 0.389E+02   0.722E+00 0.236E+02 0.846E+00   0.162E-02 -.128E-01 0.712E-02
   0.639E+01 -.140E+03 -.931E+02   -.177E+02 0.152E+03 0.114E+03   0.123E+02 -.124E+02 -.206E+02   0.209E-02 0.442E-02 -.936E-02
   -.360E+02 -.858E+02 -.753E-01   0.455E+02 0.692E+02 -.556E+01   -.704E+01 0.164E+02 0.593E+01   -.890E-03 -.412E-02 -.116E-03
   0.313E+02 -.852E+01 -.177E+03   -.580E+02 0.152E+02 0.192E+03   0.281E+02 -.450E+01 -.148E+02   0.661E-03 -.723E-02 -.791E-03
   -.308E+02 0.171E+02 -.217E+03   0.570E+02 -.255E+02 0.232E+03   -.210E+02 0.608E+01 -.133E+02   0.342E-02 -.472E-02 0.312E-02
   0.105E+03 -.266E+03 0.544E+02   -.989E+02 0.291E+03 -.522E+02   -.854E+01 -.259E+02 -.369E+01   -.308E-02 0.959E-04 -.783E-03
   0.120E+03 -.294E+03 0.177E+02   -.124E+03 0.302E+03 -.204E+02   0.205E+01 -.743E+01 0.338E+01   -.318E-03 0.172E-02 0.166E-02
   0.255E+02 0.184E+03 0.910E+02   -.162E+02 -.216E+03 -.102E+03   -.979E+01 0.283E+02 0.953E+01   -.546E-02 0.366E-02 0.860E-03
 -----------------------------------------------------------------------------------------------
   -.145E+02 0.414E+02 0.882E+02   -.192E-12 0.313E-12 0.412E-12   0.146E+02 -.414E+02 -.883E+02   0.199E-01 -.199E-01 0.432E-01
 
 
 POSITION                                       TOTAL-FORCE (eV/Angst)
 -----------------------------------------------------------------------------------
      7.29446     12.81475     11.97909         0.998422     -0.985852     -1.554288
      6.43793      9.07732      3.28536        -0.301190     -0.203459     -1.733263
      2.25440      4.19680      3.56325         0.720401      1.581925     -0.337638
     10.46894     10.14570      3.62724        -0.193889      0.962145     -0.079577
     11.24069      2.75303      8.78930         1.057106      0.875753      1.353919
     12.27379      6.87512      6.83915        -0.436477      1.083732     -0.572739
      1.37737      0.74962      4.05308         0.081772     -0.814856      0.360635
      1.29892     12.05535     10.22124         1.613252     -1.493553      3.407571
      3.12356      2.23893      9.17336         0.515077      1.002095     -0.173563
     10.69227     11.50953     10.21900         0.050768      1.471897      1.206035
      0.14844      5.13735     12.60391         0.591808      4.803055     -0.830579
      5.25925      6.47019      6.49381        -1.576472     -0.076084     -0.004331
     12.93475     13.07527      0.09609         2.880713     -1.265540      1.361226
     11.56682      3.80831      3.25292         7.030734     -1.190785      5.616992
      2.76287     11.35478      6.93397        -0.324861      2.246281      0.230840
      7.79409      4.06918      3.87274        -0.338514     -1.625704      1.710117
      1.74741      8.00968      8.58871         0.476763      0.225424      0.553912
      4.80997      3.86467     12.54558        -2.233062     -0.939186      2.853172
      7.26688      1.38940      7.40105        -0.243452     -1.265841     -0.362534
      4.30843      1.04398      1.99174         0.425358      0.378191     -4.219982
      3.64881     10.41414     11.70444        -2.276803      1.388078     -0.391825
     12.06331      8.64856     10.89119         2.766778     -1.568517     -0.277568
      8.77264     10.29760      8.37493         0.156085      0.423268     -1.342081
      3.92599      7.65475     13.27987        -0.659154     -2.519534      0.471170
     10.21953      0.68149      4.63706        -3.509643     -0.593691     -0.091691
      0.02116      9.30499      2.42100         1.514791      0.127718      0.238066
      8.07774      5.30967     11.31840         0.460055      0.290154     -0.801902
      6.59348      8.04810     12.91868         3.081132     -2.484521      5.232239
      9.17517      8.39934      0.46437         0.601424      0.375547      0.748133
      9.02469      4.82221      1.68537        -1.210573     -1.697944     -8.373002
      6.94691     12.09944      4.68507        -1.533123      2.172979      1.960014
      0.01837      5.42118      9.53502         2.026561      8.209311      1.042299
      2.99826      5.41200     10.94956        -5.177600      9.215589      6.026877
     12.35600      2.12817     12.41211         0.435315      3.697026     -1.551223
      8.82270      6.60440      7.99146         0.337259     -0.045894      0.626560
      5.20404     10.74486      8.47181        -2.002048      6.401442      4.515305
      6.32110      3.54981      9.74760        -1.622323      1.883588      3.707617
      7.94781     12.19923      2.10398        -0.143657      5.216945     -0.888574
      1.16343      9.71019     13.06994         1.514767      4.985207     -7.675931
      3.30513     10.57170      4.11693         2.112012      5.839462     -6.481121
      2.18880      8.65944      5.39680        -5.559115     -4.559740      2.015687
     10.57123      4.81850      5.90818        -3.798916     -1.197530      0.615400
      5.38055      4.39624      2.28531        -2.758695      1.517677     -5.768876
      5.10752      1.23048      4.68116         0.618314     -4.375239      4.711475
      2.27017      2.61825      6.54685         0.336717     -1.292663     -1.584579
      3.73251      1.11733     11.57679         2.489578     -2.742007      0.101896
      0.66238      2.94875      1.53620        -2.518709      1.325325     -4.668100
      5.03997      3.40258      6.66316        -0.455365     -1.079759      3.464217
      6.55160      9.48537     11.16608        -1.923925      4.645694     -0.651242
     12.60334     11.33431      8.15754        -1.708407     -2.458541     -2.294495
     10.63667     11.46178      0.13921        -9.604332     -3.381841     -0.860318
     10.44595      7.06943      2.29690        -1.826457     -1.932392     -2.718427
     12.35583     11.91800      5.14897         2.152850      0.133323     -3.060454
      6.62650      9.19952      6.35458         2.468178      1.089304     -2.161816
      7.23199     10.52232      5.45054         0.179709     -2.374911     -0.655260
      7.57436      5.84395      9.09441         2.649521      1.350965     -3.164744
      5.38094      8.59728      5.55087         2.047881     -2.679022      0.431044
      3.78831      6.78342     11.06172         1.193254      0.556411      0.093503
      6.27763     10.09465      7.57814         2.709890     -0.939988      1.789647
      0.42626      9.12127      6.07245         4.960782     -1.690348     -0.667457
      7.89256     10.15666     11.77865        -0.796369      0.038764     -3.053729
      3.78111      0.97439      3.89634        -2.401955      1.857383      0.184022
      9.76457      3.51898      4.62877         0.879170      1.298376      2.866107
      4.72105     10.35337      3.18978        -4.715742      0.452065      1.436405
      7.87578      9.28805      0.61425        -3.156772     -0.989369     -1.260221
      6.50825      4.05522      6.40937        -1.777252      0.464458     -1.610632
      6.06043      7.48459      1.14605        -1.329560      2.260886     -1.942402
     10.51300      9.44253     13.28926        -1.398979     -0.282061     -0.700361
      5.31134      2.95872      1.49505        -0.791558      0.179939      1.578110
      5.27528     12.86657      5.18652         3.175215     -0.630809     -1.838511
     10.23222      6.19141      0.73671        -0.331337      0.658271      1.771857
     12.88429      9.86622      8.96425         0.499024      2.552364     -0.363070
      0.36608      3.25269     12.92079        -1.148452     -3.831305      1.038392
      8.52071      5.81831      2.63352        -1.924498      4.568469      6.710841
      1.43671      6.18137     10.31005         0.796184     -2.391858      0.168418
      2.58960      5.02222     12.74521         0.073518      0.526731     -2.570417
     10.91836     11.49745      5.30585        -6.753790     -0.719925      1.412796
      1.96734      8.20896      3.85667         0.606668      1.811517     -0.488853
     10.99160      2.48527     11.54951         1.794765      0.339906      1.564951
      9.96828     12.32845     12.19049         2.267582     -1.184432      2.382203
     11.71607      7.97851      2.10039         0.209781     -0.206580      1.810923
      1.62033      2.80793      5.08374         0.085560      0.124181      0.751676
     12.17594      0.24547      4.57040         4.029685     -0.968930      0.599383
      2.48075      6.73250      6.40324         1.448973      3.626373     -0.682483
      5.35826      3.52132      8.53612        -3.165370     -0.781791     -3.901837
      4.65053     12.23150      8.06450         1.603846      1.089616     -0.283191
      3.82787     10.13031      8.36010        -5.372439     -5.501367      0.377168
     10.84849     11.06367      8.13671         3.278798      0.498046     -0.805348
      1.83827      2.00083      1.98161         1.296685      0.574780      1.977318
      7.79375      6.70289     12.85594         1.258218      3.286713      0.625271
      4.64524      5.46014      0.76499         1.227229     -1.352393      3.121621
      3.11124      4.15318     10.26335         1.747900     -8.666201     -4.287669
      7.59864      4.00853      1.22705         1.824498      0.766173      0.787464
      5.54687     10.81083     10.24816         2.204128     -2.624168     -1.305670
      9.76205      6.39766      6.14657        -0.229693     -3.361550     -0.609525
      4.55776      1.76119      6.38731         1.827740      2.484514     -1.059942
      6.46617      1.88684      4.32422         0.234364      2.072737     -0.419842
     12.48637     10.93150      3.71637         2.284955      0.077120      0.027410
      3.23861      1.72962     12.95663         1.299868      0.255819     -0.608898
     10.68676      4.14835      7.39207        -1.181229     -1.012798      0.101359
     13.29089      8.86774     13.22010        -6.861772     -4.024523      2.859066
      1.46264     11.30076     13.03105        -1.577354      2.839531      0.515075
      2.49524     12.06234      4.61323         0.708197     -3.250694     -1.966939
      6.83315     11.47189      3.14701         0.810458     -1.131487     -1.121343
      8.29204      0.09491      3.40393         0.668192     -2.486506     -3.811558
     13.20030      7.15815      8.62837         0.174071     -2.769901     -0.119959
      7.26484     12.87990      0.65241        -0.329513     -0.696086      3.232169
      3.42230      9.85909      5.43558        -0.980480     -3.956030      5.383545
     13.25614     11.60023      6.48483        -0.173208      0.667941      1.651542
      1.01357      9.59475     11.16478         1.221569      0.885003      0.366639
     10.33172      6.84540      8.50095        -1.194658      0.676644      1.098822
      2.00557      1.11307      7.14320         0.454620      2.956927      0.612506
     13.18157      1.00167     11.65235         0.147350     -1.490088      0.244524
      5.20208      1.63626     10.55792        -2.714330      0.131764      1.926399
      0.35268      4.55074      2.07894         1.136953     -3.337894      0.089707
      3.36218      3.93768      6.92110         0.212005     -1.403171     -0.699003
      8.24594      8.09057      7.33413        -2.933333      1.452684     -0.945843
     11.79989     11.53537      1.06761         3.471927      0.639307      1.741065
      6.43563      7.85479     11.15654         0.747720      0.432213     -0.099552
      7.64742      2.84863      9.50764         2.975830     -2.031321     -0.674475
      5.32391      9.51177     12.43048         2.728959     -1.715023      1.305382
     10.24007      4.03908      2.16432        -3.579161     -1.442960     -5.315513
     12.05588      4.90214      5.45609         1.986094      1.112539     -2.159509
      7.87403     12.95703      5.62774         1.276689      1.532507      3.514693
      6.00961      4.54895     11.08661         2.267466     -1.524713     -3.803720
     12.71748      1.88369      1.31912        -1.759716     -0.860507     -0.286187
     12.22556      6.02379     10.47694        -2.037577     -1.212430      3.368647
      3.50795     12.79490     11.37797        -0.353376      1.488127     -0.593545
      4.53444      4.85966      3.61204         1.024656     -0.828209      0.095165
      9.16916     11.34748      1.46826         2.422487     -0.314204      0.300127
      9.09009      8.01507      2.21652         1.439829      2.133832     -0.254609
      2.47674      9.19202      0.26179         5.237550     -2.376406      2.149484
      0.02537     12.65998      8.86412        -2.649688     -0.493119     -1.457280
      9.04437     12.13941      9.29906        -2.207322      1.143724      0.668752
      0.24001      4.01642      9.01992        -0.558762     -4.107703     -1.761754
 -----------------------------------------------------------------------------------
    total drift:                                0.049690     -0.010661     -0.037443


--------------------------------------------------------------------------------------------------------



  FREE ENERGIE OF THE ION-ELECTRON SYSTEM (eV)
  ---------------------------------------------------
  free  energy   TOTEN  =      -886.06060405 eV

  energy  without entropy=     -886.00877858  energy(sigma->0) =     -886.03469131
 


--------------------------------------------------------------------------------------------------------


    POTLOK:  cpu time    0.5435: real time    0.5436


--------------------------------------------------------------------------------------------------------


     LOOP+:  cpu time 1646.2158: real time 1646.7878
    4ORBIT:  cpu time    0.0000: real time    0.0000

 total amount of memory used by VASP MPI-rank0   207781. kBytes
=======================================================================

   base      :      30000. kBytes
   nonlr-proj:      21547. kBytes
   fftplans  :      33581. kBytes
   grid      :      19248. kBytes
   one-center:        171. kBytes
   wavefun   :     103234. kBytes
 
  
  
 General timing and accounting informations for this job:
 ========================================================
  
                  Total CPU time used (sec):     1677.894
                            User time (sec):     1670.043
                          System time (sec):        7.851
                         Elapsed time (sec):     1678.613
  
                   Maximum memory used (kb):      360596.
                   Average memory used (kb):           0.
  
                          Minor page faults:       136262
                          Major page faults:            0
                 Voluntary context switches:         2790
