135
Time=99999.99999996 pbc="T T T" Lattice="12.93041299 0.00000000 0.00000000 0.00000000 12.93041299 0.00000000 0.00000000 0.00000000 12.93041299" energy=-865.62594812 virial="14.80242323 11.84217270 -0.45036365 11.84217270 51.68205225 30.50522955 -0.45036365 30.50522955 -28.19869315" stress="0.03375236 0.00547765 -0.00020832 0.00547765 0.05081119 0.01411033 -0.00020832 0.01411033 0.01386200" Properties=species:S:1:pos:R:3
Ca 6.56297622 6.24607233 9.92767663
Ca 9.60240830 12.00508789 5.59219391
Ca 7.01636804 6.61411154 0.38233173
Ca 8.47799767 5.40662663 4.70062266
Ca 7.18895039 0.31739474 0.54565757
Ca 1.91436125 1.08888743 7.74322139
Ca 11.52516800 5.09465761 3.94791297
Ca 5.47051877 12.36788439 8.93988589
Ca 1.85530954 3.94211507 2.03694707
Ca 10.02378199 9.92469880 8.82607275
Ca 7.45344717 11.49450839 2.97127024
Ca 1.16078630 8.71772155 12.36525726
Ca 11.01937546 3.27951143 8.04984626
Ca 10.65703244 7.35442823 10.86788803
Ca 8.73410862 10.72901917 11.58244079
Ca 3.91454203 11.22922634 11.18079376
Ca 9.47760052 8.88016880 2.86574324
Ca 0.60659133 7.08109962 6.26977833
Ca 3.49194594 7.79101388 9.45797825
Ca 12.71631752 7.12839402 2.02051228
Ca 4.51756186 11.00003358 5.58242990
Ca 12.19036481 1.14377879 2.99458847
Ca 2.71409919 9.24387511 5.08233793
Ca 0.92625076 4.10977618 10.51256122
Ca 0.02925433 11.14742859 1.07850503
Ca 1.62057965 11.68668791 4.46407586
Ca 7.20405683 2.91859496 10.03827527
Si 4.62459848 5.56493728 3.96100511
Si 10.48740766 6.34674044 8.07922352
Si 11.81519351 1.57820474 11.28146710
Si 2.11718129 0.83779799 0.25001572
Si 3.85726419 0.69576559 2.77091626
Si 3.86811158 8.12729874 12.45995970
Si 2.33610703 8.92584502 2.14612288
Si 0.14363525 6.66000290 9.21377054
Si 5.41293281 2.65631788 3.99656040
Si 0.40754558 2.93538435 5.66806266
Si 10.35354756 11.81193744 1.31119959
Si 12.26506250 9.37063841 3.87506103
Si 9.10217285 3.30157988 11.72529539
Si 6.74206643 8.22519600 4.08671988
Si 2.83272993 11.14345172 8.10560620
Si 10.42374326 3.73931449 1.79487906
Si 10.99187072 9.15265263 12.71858318
Si 5.68524952 9.83746306 0.73231449
Si 8.71583724 1.59441386 4.57108652
Si 9.02515112 0.70114938 9.43067961
Si 7.15515362 9.26020798 8.98943668
Si 10.11908873 6.24034595 0.80554699
Si 2.32532328 4.90754080 7.23570068
Si 6.57538832 9.67609397 6.63052268
Si 4.07958730 3.04590158 9.23446672
Si 3.17920310 5.22201892 11.92099892
Si 1.16432297 11.96215163 10.47681102
O 7.75306088 9.55072972 4.52176435
O 7.37409444 0.79462659 9.90001711
O 1.25292570 7.93219739 9.22064419
O 9.68753340 6.00565190 11.96848688
O 11.64887442 2.79244052 1.39978781
O 5.51039405 0.29878536 2.63138329
O 6.08930774 8.44872181 2.17784922
O 11.58120506 5.54554945 1.18405892
O 0.69103234 1.23930218 1.06862427
O 3.11612376 12.28587670 3.50930661
O 5.62748276 8.87833523 8.65288475
O 8.10546962 7.34090439 3.93606891
O 2.00120511 5.07119310 5.44018783
O 8.93072336 11.83621544 8.78894335
O 3.51245641 2.37188245 3.21360433
O 3.54802489 9.27176970 3.28686504
O 4.04977694 10.63743967 8.92927456
O 2.39036513 6.07752604 7.82507277
O 4.00548555 4.38508247 7.28585991
O 8.99545446 2.09810532 8.79848768
O 0.66622581 1.38958985 5.77838677
O 7.21276400 11.21551454 0.34621265
O 2.78215882 9.57688543 7.28638218
O 3.20256645 0.11036800 11.94866457
O 0.22209423 3.37181558 4.04856630
O 0.53275409 9.12176324 5.03657233
O 5.56557242 9.19808989 4.95191532
O 6.71131439 10.68836152 9.96313061
O 8.36345534 8.68466852 9.85076923
O 5.40953827 8.59105162 12.40728618
O 5.94823001 5.52051664 12.44500074
O 2.93089479 0.62228092 1.58766655
O 6.06304868 11.06197312 7.03156070
O 8.95278905 4.32240929 10.43946418
O 11.98114097 7.02126967 7.77304356
O 10.14713783 0.73160862 11.09974270
O 2.42346665 4.17472663 12.79900953
O 6.01341734 1.99039338 5.36891889
O 3.39882246 7.74941057 1.11549772
O 11.21934825 7.58980989 3.45844084
O 9.36851669 4.28065935 0.49270443
O 8.92475303 3.06282521 4.94505108
O 5.27539071 6.88758070 4.63075060
O 2.66403777 11.92681218 6.37723459
O 2.98808614 4.94421094 10.25063488
O 9.79697951 7.78319171 8.79866016
O 11.75861162 10.30360543 2.46195042
O 10.73228861 5.69802749 9.57841994
O 10.95327293 12.60902263 2.52209211
O 8.00520363 9.36955456 7.18005231
O 1.45567848 3.64602027 7.17441814
O 3.84488410 4.92202036 2.74104749
O 2.04541921 12.24105238 8.97692266
O 12.63681911 11.85079336 9.92219789
O 10.83198684 2.62496816 11.97012411
O 0.54424781 5.18211727 8.84165629
O 9.87907748 5.82766265 6.30324527
O 1.46734326 10.92562615 11.85642287
O 9.27311669 10.77085470 2.00669015
O 11.67793979 3.57932404 6.16523770
O 3.88561993 1.59091191 8.12177419
O 9.84859221 8.19958381 0.67303864
O 12.26833403 2.38390064 9.78730921
O 10.78797700 10.92652284 12.74350327
O 9.51240044 0.24864821 0.63657603
O 12.85500123 6.96823525 11.35881497
O 0.96159105 8.45113835 2.81741490
O 1.71866420 10.06692183 1.21307776
O 5.47501263 4.17262518 4.01435307
O 2.80406191 8.84159513 11.34639936
O 5.40983561 3.98655766 9.24313473
O 4.38791302 10.83647997 0.36971572
O 0.48310471 0.75665028 11.64431143
O 12.22141069 8.18911059 0.54701039
O 7.72037407 2.46770663 12.47533627
O 9.17241500 6.12489084 2.35741291
O 10.24928866 1.08753255 4.58413714
O 7.54494456 1.13069671 3.71296444
O 3.90104681 6.62081028 12.11352560
O 10.48418300 9.57352047 11.12619489
O 10.88396479 9.93670654 4.51376118
135
Time=199999.99999918 pbc="T T T" Lattice="12.93041299 0.00000000 0.00000000 0.00000000 12.93041299 0.00000000 0.00000000 0.00000000 12.93041299" energy=-864.49179449 virial="2.76945237 -11.32994062 -8.02178892 -11.32994062 62.97480434 -18.77011179 -8.02178892 -18.77011179 -24.89556569" stress="0.02818645 -0.00524071 -0.00371051 -0.00524071 0.05603470 -0.00868220 -0.00371051 -0.00868220 0.01538988" Properties=species:S:1:pos:R:3
Ca 11.20307197 2.02967135 4.85758184
Ca 9.15642734 5.13788298 12.48406845
Ca 0.58209455 1.98309864 0.46108021
Ca 6.02097890 0.23490835 12.38877170
Ca 0.84439482 7.17508849 2.90115560
Ca 8.04674587 7.48317336 4.73597735
Ca 11.01489739 10.76427072 2.22728672
Ca 1.97082402 10.64026840 4.24192384
Ca 5.18164028 9.99288251 9.88445802
Ca 3.30183444 6.14868434 11.75275359
Ca 3.35541314 1.32130315 5.14824351
Ca 9.72847140 11.73585912 11.08949133
Ca 12.61330731 11.85070930 6.77050540
Ca 5.16167503 12.72700655 8.51542964
Ca 5.92435504 7.23108134 11.77212255
Ca 12.81492242 3.87707310 4.17416741
Ca 7.83636130 9.21152414 0.38702577
Ca 7.51901414 9.61969432 7.79696918
Ca 8.06296884 3.99399251 6.80010475
Ca 3.25283806 11.62414195 1.55935506
Ca 10.43370819 7.67413687 11.15177371
Ca 5.78441405 2.33123036 2.28259705
Ca 12.58331374 5.25728291 9.65385618
Ca 8.54946239 12.15450368 5.25651118
Ca 0.53152753 6.70365134 5.37875822
Ca 4.24671932 5.57909342 5.26518183
Ca 1.11815626 11.70443148 10.67006181
Si 3.71709614 2.11653055 0.15488095
Si 2.25399613 6.39252950 8.26329426
Si 7.24789547 2.82332042 10.61350417
Si 8.46942199 12.84910153 2.19472128
Si 12.23582863 1.58255402 9.20568883
Si 6.11869740 8.16159921 2.75700172
Si 7.88122386 8.13154537 9.96358240
Si 0.45004235 0.89375854 3.43836258
Si 5.11188758 9.29052520 5.41115686
Si 1.87196112 9.16395387 6.86861068
Si 3.96314666 5.78214738 2.65818250
Si 4.78661599 3.36037040 8.60400609
Si 0.32521964 8.58880792 0.36958341
Si 9.85584986 1.56400974 9.90393154
Si 10.97970023 4.60723291 6.79408188
Si 5.24161139 6.69697123 7.80404491
Si 1.93066288 2.14726471 9.88309203
Si 10.26343817 7.05694384 7.42772563
Si 12.31027956 11.05196483 12.90839327
Si 10.45987595 9.91026309 6.04557059
Si 5.93250454 12.50647371 4.37253919
Si 5.66847404 3.89613809 12.55566653
Si 9.41036944 1.51245246 7.20590073
Si 11.05625943 6.95022131 1.53788292
Si 2.94305259 12.11695294 7.77688170
Si 0.21125299 5.34327528 0.45328854
Si 3.34141055 9.28642288 0.06098404
O 12.44827817 5.51211737 2.09503780
O 9.83785264 4.57819780 5.36352006
O 9.96724443 9.60274103 10.61321148
O 11.31724548 2.81789389 9.80308219
O 7.70586269 0.31642034 0.59147324
O 6.42346340 7.38398721 9.47942685
O 10.73744436 11.03329297 12.36345845
O 4.66264602 2.39509766 7.12767736
O 5.48198784 9.54312582 6.87274023
O 5.77203976 6.60595536 3.47695085
O 6.54799072 8.58874044 4.75648260
O 12.00549145 5.26432901 5.55330346
O 11.59343570 6.13245035 7.53464018
O 8.72320479 2.63697984 7.97045815
O 7.31595337 12.83793950 3.49093680
O 4.70092380 8.58442427 12.57423053
O 8.14942414 10.95462451 0.93768155
O 3.09964913 1.62602642 11.17649822
O 2.52704975 9.95706479 1.55917496
O 12.23760858 1.84784922 2.35991964
O 3.54946615 10.71635896 12.73081102
O 9.42921917 8.26059301 8.97370398
O 11.02078307 0.38882032 10.48488069
O 5.04666905 9.35014098 2.67825648
O 5.17369059 4.85130459 8.14220490
O 1.90314881 8.61887500 12.52177426
O 4.41450564 3.44654926 0.70589578
O 0.00415369 10.25606566 11.75359455
O 9.37219811 0.53001384 8.42258038
O 3.86751042 6.33668586 1.11286309
O 0.96579212 4.32349928 12.50910296
O 11.82849788 0.04710249 4.51414952
O 8.73875671 9.97752706 5.55423132
O 9.69678612 1.01035111 5.85270441
O 4.81861298 11.04538091 4.47862763
O 2.89496814 12.71802303 6.27465182
O 8.24716333 7.36053562 11.49029586
O 7.60750227 4.36458390 10.94203911
O 9.02750000 6.05824799 6.83050851
O 1.35797546 2.18511395 4.17898304
O 6.07602577 12.01011881 9.98924373
O 3.34100188 9.27086847 5.93237573
O 5.07307765 0.57851284 3.21002305
O 10.81233939 6.20996433 12.89963627
O 2.44152675 2.62722139 1.37251358
O 5.72094649 2.64405893 9.43552506
O 10.34490947 6.76758403 2.76553578
O 11.91288749 3.40713356 7.45517335
O 7.08985468 9.18494738 10.85557846
O 4.41108009 0.76308871 0.46795629
O 1.72658959 5.73627765 9.68042667
O 2.20404640 5.77815115 3.19188454
O 4.01321046 6.74329775 9.18866308
O 8.17909014 1.47496641 10.29819085
O 0.67740387 2.38896749 8.32407439
O 12.84440223 9.71833828 1.36908711
O 6.01512280 2.48637925 11.94493153
O 10.08027783 0.18560298 2.59204127
O 6.58893743 12.84947718 6.21579841
O 4.93791566 4.86881840 11.42307741
O 1.46844539 12.23184610 2.78780578
O 5.81054622 6.49440447 6.41393812
O 6.94714942 3.21992507 5.29952951
O 1.48950874 10.62653426 7.64467482
O 2.83081382 3.89502118 9.70942585
O 11.61392925 8.16688921 12.92012143
O 3.72789826 10.80239339 7.77676348
O 0.79824927 6.87894556 0.67614391
O 4.47321061 4.52421460 3.41411943
O 11.83713927 0.38654477 8.35229049
O 0.60736307 1.06454368 10.55952084
O 11.39298556 10.03160394 4.39527356
O 0.71157944 9.11537311 5.77268765
O 11.01490365 10.36810687 7.44785958
O 2.52466756 5.67836676 6.60646864
O 1.28386545 7.52303916 7.78318813
O 2.99627099 0.09955939 9.34588650
O 7.51029688 8.52559947 2.14850404
O 10.34006550 8.14308891 6.49566679
O 7.03179366 3.81315760 0.73264360
O 12.42666683 12.53393979 0.00232529
135
Time=299999.99999840 pbc="T T T" Lattice="12.93041299 0.00000000 0.00000000 0.00000000 12.93041299 0.00000000 0.00000000 0.00000000 12.93041299" energy=-856.44451736 virial="42.73525774 -19.28534345 -0.77182798 -19.28534345 8.83707362 9.94079132 -0.77182798 9.94079132 -9.54721824" stress="0.04667281 -0.00892052 -0.00035701 -0.00892052 0.03099306 0.00459816 -0.00035701 0.00459816 0.02248932" Properties=species:S:1:pos:R:3
Ca 1.66278882 12.75074349 10.85388727
Ca 2.06179596 12.04243465 4.36863397
Ca 10.24284416 5.57409018 2.69815496
Ca 8.02929285 0.07219243 8.99407845
Ca 5.54499668 2.69519455 0.61937217
Ca 9.02158020 2.30253922 1.29279635
Ca 0.75346036 3.17406979 1.33941674
Ca 3.49260702 9.02448203 2.70622263
Ca 7.06396100 4.30603519 3.05012334
Ca 12.56011285 8.23009008 1.21000186
Ca 1.47640882 6.12390856 2.99156127
Ca 3.96942998 6.74353761 11.79498254
Ca 5.62282806 6.30824267 8.56740616
Ca 2.76429229 9.37702511 7.17873426
Ca 11.55999816 0.56760783 3.20139286
Ca 4.99716496 0.63975541 10.20505769
Ca 6.37652779 12.38045903 4.89770954
Ca 10.14810176 11.74503298 10.31100465
Ca 7.46276181 3.51568501 11.41166746
Ca 4.00907569 0.87083303 6.76882308
Ca 12.78227301 11.28588582 7.63333738
Ca 9.55406017 8.07513204 11.34651655
Ca 5.58585036 9.83231817 12.06094145
Ca 11.40510789 6.94459743 6.29306254
Ca 8.29346626 11.83647280 1.36666956
Ca 8.48919824 6.03443905 9.10239901
Ca 12.12447123 5.28780344 9.64423788
Si 1.77821133 9.71243948 11.43969198
Si 1.27001659 4.56215057 5.99478731
Si 10.17457287 10.65787113 0.33743183
Si 9.87567050 1.86761578 10.56539106
Si 0.96366967 9.66170344 3.31322002
Si 12.06307098 0.47124575 9.30927294
Si 1.05951735 5.71270930 12.70146785
Si 2.81230710 3.09878836 4.25095892
Si 0.00465453 2.69953461 7.01358631
Si 6.07903858 10.85593980 8.44388358
Si 10.76689105 9.16573415 3.57189108
Si 7.24781385 7.01061272 1.49233106
Si 9.72589415 2.27606248 4.12347564
Si 11.77953560 8.46262387 8.77881785
Si 6.50012873 3.16242896 6.77392167
Si 5.48816951 12.53394535 0.55357982
Si 10.82750787 5.00790977 12.91361458
Si 2.06792947 6.77096090 9.73058020
Si 9.12082447 5.24202469 6.44396801
Si 0.69889670 11.28032712 1.32677080
Si 7.02818364 6.24920537 11.68697126
Si 1.72027627 2.20371185 8.79639766
Si 8.40731258 8.58095011 4.97831846
Si 2.66544469 1.06195579 1.23864510
Si 9.36177381 12.34865516 6.25880490
Si 9.96796310 2.74735582 7.42822716
Si 5.64553760 8.84817310 5.61793883
O 12.38435662 9.22555031 3.29879756
O 10.61746008 12.30391759 0.71406815
O 3.60798783 7.29697186 9.38922117
O 6.54560004 5.59736467 0.46843665
O 12.76591332 4.45276668 6.99388225
O 5.50340903 4.20808218 7.34606217
O 8.57065780 6.48677707 5.79975020
O 3.00852547 1.18260132 8.99543960
O 6.97057303 9.68726829 8.66553658
O 9.63803735 4.56150082 0.95334510
O 10.50159300 9.51752020 2.00258972
O 12.45835716 12.63388755 10.58476585
O 3.10887447 4.68716283 4.70215052
O 1.43329471 3.52833305 8.03517080
O 3.72263292 8.94131193 12.61948764
O 9.55063999 3.73158342 3.56084253
O 9.14912244 0.61633012 10.98480759
O 2.10981901 9.63531082 4.49535040
O 0.82834791 5.46278844 4.84151166
O 1.58966479 11.29379107 6.91144851
O 4.22810109 12.92247158 1.62141169
O 12.20584168 9.96861798 9.17963494
O 5.29421851 1.05574169 12.44274186
O 5.93351739 11.63318154 10.05922763
O 4.39921262 8.01203665 6.27034494
O 12.74761357 5.41466239 2.48547471
O 9.02209377 1.06195201 3.21352398
O 9.17500478 11.64347653 8.13015814
O 11.31351508 1.63643973 9.97145826
O 1.65824854 3.34789074 3.16063825
O 11.75780855 7.66708573 10.22262730
O 2.11269360 11.30233294 12.20532514
O 9.40754074 2.66170648 11.98051726
O 0.49439848 4.08967996 12.55259570
O 10.55687028 7.51077325 4.16398244
O 6.78580697 0.66660531 1.31251107
O 10.44113459 6.78899939 0.38542569
O 10.43373348 1.69010011 6.21248108
O 10.17265673 5.63863984 7.62929112
O 6.81794013 8.66999756 1.64979401
O 8.36479588 5.83470507 11.04619399
O 11.09626594 0.05422803 8.15150811
O 0.03374744 11.62021214 3.50292223
O 7.12064622 7.95356982 11.52384263
O 2.03124071 5.78100212 7.88213403
O 7.93914778 9.46645296 6.13541265
O 5.50934467 10.95802088 0.94624302
O 0.47841751 2.36525841 5.41092405
O 0.83393616 0.96587203 7.58778732
O 7.06404383 7.56575518 4.94080880
O 1.08270834 2.10375252 10.31180344
O 10.36354194 11.37137437 5.55375560
O 8.21889286 0.20168430 5.44648480
O 10.98480754 5.18816213 11.31221846
O 10.59853268 4.80745133 5.59493201
O 8.38321323 4.01521921 7.00602821
O 1.16940979 8.29944072 11.07638559
O 12.38425946 10.45777887 0.83638045
O 5.41837896 11.96893509 7.47900988
O 3.55592109 2.26830933 2.87816181
O 1.21261449 6.08940977 11.03455202
O 2.77061326 1.16343066 12.62506425
O 11.45626548 8.50291245 7.27526851
O 8.96207518 1.98602243 8.57603103
O 3.40572728 1.95827834 5.27314481
O 7.20562035 3.76246618 0.94814931
O 5.71422859 10.29419081 4.49428527
O 8.14232430 6.04424169 2.40664620
O 0.05685131 6.97508485 12.55428885
O 5.64557678 5.66746262 10.79600623
O 6.39300199 1.44596230 7.92730211
O 9.29619326 9.37617096 3.91776692
O 6.41495839 3.06586130 5.04813665
O 11.62698123 2.75322798 7.95016429
O 10.98490433 9.74485625 12.07358436
O 8.25444526 10.18422408 0.06269113
O 1.98781157 10.87588686 2.18143384
O 1.86266435 10.52936374 9.97596609
O 1.20818726 8.45303116 2.40231160
O 0.86566922 0.13429365 1.32474585
O 2.62291347 6.19127751 0.47055878
135
Time=400000.00000008 pbc="T T T" Lattice="12.93041299 0.00000000 0.00000000 0.00000000 12.93041299 0.00000000 0.00000000 0.00000000 12.93041299" energy=-874.29850463 virial="10.06256290 6.94858438 23.43788222 6.94858438 -38.36012113 -8.28657809 23.43788222 -8.28657809 -14.09306516" stress="0.03155991 0.00321410 0.01084130 0.00321410 0.00916179 -0.00383299 0.01084130 -0.00383299 0.02038662" Properties=species:S:1:pos:R:3
Ca 10.63411907 12.29924006 4.53434577
Ca 12.58406076 9.05350452 7.66617442
Ca 9.19628365 8.08042755 8.28199268
Ca 11.65373283 12.09039908 8.68202098
Ca 5.68676336 4.04888557 9.97546583
Ca 8.89530235 3.97264272 11.55279462
Ca 6.19834142 9.12678915 5.06349432
Ca 4.53579332 12.50525325 11.21784381
Ca 0.99779921 2.26788317 7.09301489
Ca 0.03705015 9.21175305 4.20198157
Ca 2.87104141 8.57266922 0.79309716
Ca 11.20845842 3.58308102 8.25512958
Ca 3.42417923 8.24098427 9.98305633
Ca 0.89901504 4.66976462 1.88701108
Ca 4.73622344 1.25099765 5.22606078
Ca 0.42980927 0.79214294 3.78534860
Ca 8.42083609 10.39592563 10.53236828
Ca 7.56474276 9.55428869 1.96424217
Ca 5.25396943 5.35985289 12.78939297
Ca 12.62587914 0.84098064 0.69178109
Ca 9.93407547 6.22082402 5.16521733
Ca 8.33248516 3.21239711 6.06292921
Ca 3.67750757 1.46145675 1.36272336
Ca 3.34940933 5.82757463 5.67158495
Ca 9.39417472 3.81266234 2.34103075
Ca 7.00701303 0.03452551 6.14677353
Ca 0.43435611 6.64884237 10.34915061
Si 3.33968711 9.41195211 7.25204520
Si 5.97675293 9.86533712 8.65548171
Si 12.92796792 9.01193606 0.72720217
Si 2.04329040 11.15892873 2.76773324
Si 10.52431082 5.93848883 0.81107862
Si 7.59920134 1.40702881 11.89938080
Si 10.58907426 10.90207371 1.35290476
Si 1.65705546 11.37098822 12.74176831
Si 11.88078642 2.68504533 5.02202479
Si 12.43266449 1.64431707 10.42346838
Si 3.90680710 11.23863768 4.78515277
Si 6.38454940 2.03222134 2.73222504
Si 2.94377801 2.57970135 10.92013444
Si 0.53393832 6.07000924 7.74937825
Si 7.44515288 6.47104752 10.41154774
Si 4.36425349 7.34433085 3.03519846
Si 9.88854049 8.94329347 4.03890038
Si 2.33646727 5.15684083 11.78646067
Si 6.23378926 5.37671695 4.96135391
Si 7.78402607 5.33053636 7.98145819
Si 9.77250156 0.17204752 12.08781147
Si 9.76794754 10.50901171 6.79580505
Si 6.43004423 8.99104343 11.63216069
Si 1.94290087 11.99672574 8.14034355
Si 10.25482949 8.38686267 12.38538194
Si 4.40348335 2.54436901 7.73952076
Si 8.66061862 0.27038322 2.76951928
O 3.72492402 3.00968000 9.10175034
O 1.82071846 3.64348292 11.78963890
O 4.92983799 2.82229079 3.53537688
O 11.21077242 1.31425108 6.14301847
O 9.24273468 1.77238449 2.25284424
O 12.24904248 4.12855093 6.16052386
O 8.36668188 11.78356706 1.83970312
O 6.42793156 2.70265779 1.11711585
O 9.09430651 1.63906631 12.56915425
O 9.67598895 12.08061195 6.96390240
O 9.31360499 7.41194696 1.11309739
O 7.46006878 8.18410542 10.42907274
O 1.11755209 9.14159943 12.59936547
O 9.27163532 9.33865800 5.72803153
O 7.44362391 2.73035746 10.61929192
O 0.57033324 2.39794648 5.03997866
O 5.27839385 7.83466983 12.08429054
O 1.39564265 6.03110042 6.28150016
O 8.36753730 9.96320529 4.13187346
O 10.81034567 2.79059677 3.88103222
O 5.66906849 10.96869141 4.77896637
O 7.76746618 5.32068381 4.47393853
O 11.12438916 0.71691877 11.36406159
O 8.51789469 12.60894089 4.44585444
O 0.59869745 4.52363705 8.60482206
O 7.32974852 5.76160205 11.82949281
O 8.56391178 12.54631544 11.34547834
O 5.52198039 1.18884342 7.30109811
O 5.49291294 6.34491334 4.00959245
O 12.37117188 7.07358554 6.72450943
O 4.76431806 8.94784120 2.93892684
O 1.98600897 10.32636076 7.76315155
O 6.30326486 8.31600836 8.05322891
O 2.63479093 6.23819761 0.39786980
O 11.54697926 11.84053418 2.37179919
O 1.11792488 1.82577824 10.97916729
O 10.79412234 7.65845558 4.04817479
O 11.47459090 5.38323412 2.15658733
O 10.43727608 12.24905794 0.26419836
O 10.82275898 3.58058943 11.09432891
O 3.47900004 2.82062347 6.31273147
O 3.98414812 3.92235510 11.35022617
O 11.45560697 10.80123366 5.85896493
O 2.41992889 5.99901580 10.06991277
O 11.42827495 10.02504554 0.12693081
O 7.22657585 3.71930077 7.87027388
O 4.82752189 6.56204091 1.45687992
O 0.95336674 2.21562435 1.58843573
O 0.43512122 8.35499867 2.15559363
O 10.46266120 6.94848330 11.39476216
O 0.73651349 7.61844299 8.75472235
O 7.34044912 10.84596071 8.46256666
O 6.65356286 6.18122425 9.12106870
O 3.83162171 10.03221094 5.85406756
O 4.39498776 9.79849976 8.51047639
O 6.06168831 0.37082860 2.64923231
O 0.61189610 6.00783848 12.57583686
O 3.54282468 12.48746040 5.93202462
O 1.76051418 11.38770999 4.33708285
O 8.68533501 5.36040841 9.42226838
O 5.76847384 9.70640059 10.39267904
O 0.38369797 12.18944254 12.71911281
O 3.28195672 7.90632354 7.96479153
O 9.83376844 4.55988326 0.72162431
O 7.15066161 9.82625139 0.06038885
O 5.87412032 5.46756724 6.33109433
O 2.98813639 7.25434407 3.57912884
O 9.08388499 9.55035091 12.16176209
O 1.82860330 12.72990165 2.18811528
O 2.03945055 10.54590414 1.33913088
O 6.26884168 0.51064157 11.62166995
O 0.30876074 11.90501365 7.40470296
O 8.49499995 6.33913345 7.13752541
O 12.24169972 1.16608520 8.51422879
O 9.77476962 9.70570851 2.50827129
O 3.50039466 11.59849147 3.26580231
O 3.30223951 0.06028310 8.73350148
O 2.87541714 11.59427413 11.41498382
O 10.29861597 9.80482620 8.32176290
O 7.70114513 2.04689157 4.67331445
O 3.22613205 1.43381005 11.99026006
135
Time=500000.00000301 pbc="T T T" Lattice="12.93041299 0.00000000 0.00000000 0.00000000 12.93041299 0.00000000 0.00000000 0.00000000 12.93041299" energy=-855.99813471 virial="96.59109341 4.04359187 -16.32602339 4.04359187 48.22607231 -20.81380490 -16.32602339 -20.81380490 36.40778318" stress="0.07158407 0.00187038 -0.00755167 0.00187038 0.04921261 -0.00962752 -0.00755167 -0.00962752 0.04374601" Properties=species:S:1:pos:R:3
Ca 4.79780396 0.78565319 0.13190475
Ca 5.41197000 8.58032748 5.05808211
Ca 8.95583296 7.92890102 9.72157160
Ca 5.96595180 5.69556629 11.20784503
Ca 12.39302861 6.35920017 8.86417661
Ca 7.60965149 5.75248550 6.30957982
Ca 10.19993228 8.41702082 0.10894481
Ca 1.31948889 0.02674633 2.75776784
Ca 1.44078159 2.59624716 2.20156465
Ca 12.41073963 10.76237794 8.48232709
Ca 8.09550718 11.54279438 12.22457955
Ca 10.21342749 2.17775780 8.54017151
Ca 2.07838143 9.24982527 5.07263738
Ca 3.21816121 4.89143117 9.35742553
Ca 1.01392942 0.98850552 8.69182964
Ca 7.15298441 2.35011070 3.59954980
Ca 8.59762154 11.10039451 4.36904617
Ca 11.28573040 7.59845574 5.84590893
Ca 3.68587641 0.69648873 8.32441893
Ca 10.09809672 4.85673876 2.12636939
Ca 5.75410935 7.76201992 8.62530403
Ca 5.31834805 8.73945176 0.70293372
Ca 6.95437986 11.92933826 5.86955201
Ca 2.24333739 11.76600448 0.05806915
Ca 0.93496035 6.64501094 11.54604372
Ca 7.03886013 1.20216996 8.02518561
Ca 12.79572741 6.69132240 3.11448528
Si 2.31733797 2.62187299 6.52123645
Si 7.95104597 5.18812490 9.33048672
Si 12.15657593 12.84470602 5.27839258
Si 2.48644355 10.61383683 9.35073919
Si 11.62244291 8.45630281 10.23137968
Si 12.62705585 5.07417186 0.93187280
Si 6.61178126 3.72471363 0.21339733
Si 8.39928949 7.58068967 3.12665286
Si 8.46524544 8.44832195 5.86604274
Si 1.41426136 6.50706164 5.85261859
Si 12.68329848 3.25149996 5.50847728
Si 9.94065317 12.87492498 10.26457358
Si 4.16131951 11.59995031 4.07101307
Si 6.05694630 10.90794742 10.27294131
Si 4.88191138 2.08506445 5.20682313
Si 10.02803477 4.21988326 11.36397229
Si 3.51463634 4.05373314 12.84099977
Si 1.16602017 1.56190974 11.22980003
Si 5.81463115 3.88972529 8.20162045
Si 6.79395060 5.50618332 3.05318206
Si 2.49153864 8.06213264 8.12651246
Si 12.52806916 9.84015400 2.29658795
Si 2.65714351 7.13626858 0.71103948
Si 11.20818770 12.67921235 1.42982155
Si 6.11417113 11.77013889 1.83203928
Si 9.78636913 0.97500415 4.71465351
Si 12.54483055 4.09541606 11.55208887
O 10.67278821 5.27980666 10.36604373
O 4.31593174 11.65749238 0.70027550
O 7.38823873 4.08524975 8.28353920
O 11.04217203 10.38278894 1.53018362
O 3.64979858 3.06092678 5.28197636
O 6.35158978 2.31728481 0.20093319
O 11.35298314 2.90000125 11.31391673
O 11.95895266 4.46436821 6.10589142
O 1.20495934 7.05645901 1.41357889
O 10.06255953 12.67509267 11.92523982
O 7.14300526 9.97195945 11.19271683
O 6.68518695 4.03332019 2.06510983
O 2.79437816 5.31354931 0.73987430
O 6.40738886 1.50190667 6.23341833
O 1.37422970 11.11503045 10.25608849
O 10.02322844 9.79389827 10.59246943
O 9.01763515 0.72093538 9.37914709
O 1.23640956 7.56385143 9.11303317
O 2.37707630 1.00631797 10.40080825
O 2.88392114 4.04171114 11.18522506
O 2.94201345 9.05030411 9.68378781
O 5.28510952 12.35125981 10.68474369
O 0.46111396 4.97709878 9.95203866
O 2.13794495 3.32209195 8.27201034
O 11.10620904 12.03353221 9.51931173
O 6.91427130 10.98582895 8.89638700
O 9.56263520 8.03791573 4.13346187
O 5.25301496 2.25336965 8.33162448
O 10.98418836 12.51974475 4.44469511
O 6.85901937 8.24810490 6.52252070
O 11.01403521 7.84366628 8.60556224
O 2.86227612 11.34603324 3.46561066
O 8.25026715 3.35708774 10.01134469
O 6.60314632 10.08138885 1.74683379
O 6.59657966 6.36899780 1.90402519
O 12.31874843 7.72468494 11.17611226
O 8.03271988 9.95625366 5.77213028
O 9.58354661 8.35787483 6.94744806
O 12.50764604 11.79995186 6.48267639
O 12.25705169 8.63051075 0.91139789
O 12.65616955 10.21827668 4.05809546
O 6.07722881 5.05707089 4.27984697
O 5.28749729 4.37564461 9.66464255
O 1.52947338 6.11998721 7.38183312
O 8.91688425 6.08549415 3.66796603
O 5.59476582 4.83860458 7.00011699
O 3.04446850 2.73266302 0.68799507
O 5.00361920 2.23970312 3.61075389
O 9.48606936 1.56920784 6.07567961
O 4.78467948 0.53330588 5.36387509
O 12.61765295 1.11148699 10.33384825
O 3.31148458 11.26898266 8.20692658
O 9.21448977 5.98072448 7.65891749
O 7.06370688 5.16497995 12.83009575
O 2.96702122 7.58618175 12.15608284
O 8.31710265 0.04195138 3.72845683
O 4.83351970 4.42626985 12.47573805
O 7.18102392 6.56798758 10.04180514
O 2.24185027 6.70254756 4.46719724
O 3.67143086 7.33576253 7.67671387
O 0.52199600 7.94420745 5.88945340
O 10.91300768 6.64067083 1.42560655
O 9.15424945 4.31745630 12.64786069
O 0.36818593 0.90818109 4.46304327
O 1.39112332 9.98621157 7.40928282
O 8.61992369 8.12695066 1.84377916
O 1.14688953 0.88827458 12.66487874
O 4.56091034 10.73744592 5.49962105
O 10.23624356 2.25459522 3.76406629
O 6.95533206 8.13376380 3.61104328
O 5.45060488 12.38900343 3.12281796
O 1.92725909 1.22878284 6.88921710
O 6.98262341 0.08262576 1.33143896
O 0.11146776 4.59597236 2.43351983
O 11.45303733 4.87618275 12.86691796
O 12.46447223 0.89610377 1.64415409
O 12.02649037 2.03342009 5.82791444
O 3.88908495 7.91525361 1.64112338
O 1.07036329 10.63767199 1.98240735
O 1.41210170 3.34182786 5.07827364
O 0.72382402 4.15009895 0.15788952
135
Time=600000.00000594 pbc="T T T" Lattice="12.93041299 0.00000000 0.00000000 0.00000000 12.93041299 0.00000000 0.00000000 0.00000000 12.93041299" energy=-864.15263624 virial="-39.64839739 -14.71376283 13.54357898 -14.71376283 -15.71144496 34.77257336 13.54357898 34.77257336 -19.68161830" stress="0.00856589 -0.00680592 0.00626464 -0.00680592 0.01963803 0.01608421 0.00626464 0.01608421 0.01780161" Properties=species:S:1:pos:R:3
Ca 4.93927098 4.43310417 1.10495189
Ca 3.45147160 3.54013861 7.41874930
Ca 10.16707277 11.46420893 6.58154296
Ca 1.34461074 1.43256919 9.94665141
Ca 12.80765762 9.10150478 7.53799329
Ca 4.97637762 0.06307753 2.60189045
Ca 10.40987705 3.35007741 4.06997713
Ca 4.94772467 1.25459547 9.20300930
Ca 5.81474836 0.34932040 11.69400579
Ca 10.13930300 7.51486053 12.64584217
Ca 6.61341228 7.82136193 3.66612577
Ca 6.70237463 4.41765511 8.69178296
Ca 12.44471810 1.83276776 1.00019176
Ca 6.51862287 5.83921980 11.67102652
Ca 9.16994776 0.25667312 9.84646971
Ca 0.19352942 9.15493740 1.35159182
Ca 5.05657610 9.31871486 10.69825344
Ca 2.44397207 5.22014557 10.50277373
Ca 12.32211653 12.47607302 11.97940605
Ca 9.89967922 12.53133362 2.19944163
Ca 10.45614440 5.09283139 7.71293410
Ca 3.04466433 11.19377927 11.87576574
Ca 0.69974009 1.43007251 6.53254553
Ca 6.21604050 3.87957246 4.93427026
Ca 7.39232283 7.49218416 7.41448339
Ca 3.66691368 11.11106169 6.46114214
Ca 10.29473912 3.84935648 11.56080816
Si 3.76347479 7.95584479 8.21086047
Si 4.26881180 3.08634628 10.84617206
Si 0.03484209 5.92245145 12.31133931
Si 8.61143506 5.24922846 3.61984364
Si 6.07553362 10.30622592 1.04987179
Si 11.57606123 2.31216288 9.62360145
Si 2.12771211 11.28930285 8.94665029
Si 3.38075444 2.77724639 3.87233576
Si 7.43187958 10.84089634 9.02047094
Si 6.58442265 10.93617598 5.40889556
Si 7.63576488 0.93743037 4.11258865
Si 2.26709886 7.73099997 3.71977124
Si 11.31892992 10.20741553 3.99211134
Si 10.54958397 10.21857737 11.35461539
Si 3.04794753 5.57552173 4.99933408
Si 9.23904516 7.42702162 9.39366947
Si 8.03591529 3.53151960 1.24922476
Si 12.12372026 1.22005105 3.87519099
Si 11.94840002 6.34162166 9.24598538
Si 1.33915729 5.53754677 7.82389243
Si 0.83033505 12.67814152 1.92527074
Si 4.35752086 8.05886708 0.52358891
Si 2.82490643 1.28861522 0.44848186
Si 10.41346425 7.69549328 3.36170550
Si 9.10880781 1.70305227 7.83944469
Si 6.29342826 1.40459026 6.97957419
Si 1.63126334 6.35972848 1.61073202
O 10.14924758 10.80434070 3.37774369
O 10.51040332 7.12770956 8.05086752
O 1.56956730 8.73709962 4.62838118
O 1.35203436 11.30481416 2.72524951
O 3.47341722 3.67376592 12.03803603
O 7.39387902 1.31723573 8.39201247
O 0.86632854 7.37103139 0.05448661
O 8.15338009 5.96708761 8.30420887
O 10.22000277 1.74318491 10.63028752
O 3.96570334 5.51781443 6.39112088
O 1.01306438 11.03435370 10.78728313
O 12.07070624 12.53849329 1.11421088
O 2.32579224 2.33610862 4.98880120
O 5.44341886 7.16120819 1.75491664
O 5.31322040 2.86579632 7.27854244
O 3.68892304 12.73816744 0.58247714
O 10.86581037 1.81228832 8.29450141
O 7.23125664 0.63292639 2.42602066
O 0.98417941 5.96124162 3.24915251
O 1.99169502 8.10406647 2.08994836
O 7.71661648 3.36732366 2.73875193
O 7.12775730 1.74677433 5.46419804
O 9.09739305 7.44040173 4.09555928
O 3.72711505 4.35542246 3.84960611
O 5.73933803 2.33063595 10.72819112
O 7.50707844 9.18885009 1.53698631
O 10.37806948 5.34844748 3.11452303
O 5.37938853 0.32571114 6.57385514
O 6.78141773 10.49024079 7.51410550
O 12.61248105 6.16027719 7.82325072