<?xml version="1.0" encoding="ISO-8859-1"?>
<modeling>
 <generator>
  <i name="program" type="string">vasp </i>
  <i name="version" type="string">5.4.4.18Apr17-6-g9f103f2a35  </i>
  <i name="subversion" type="string">(build Oct 31 2019 15:01:46) complex            parallel </i>
  <i name="platform" type="string">LinuxIFC </i>
  <i name="date" type="string">2024 04 29 </i>
  <i name="time" type="string">19:51:50 </i>
 </generator>
 <incar>
  <i type="int" name="ISTART">     0</i>
  <i type="string" name="PREC">a</i>
  <i type="logical" name="ADDGRID"> T  </i>
  <i type="int" name="IBRION">    -1</i>
  <i name="EDIFF">      0.00000100</i>
  <i name="EDIFFG">     -0.01000000</i>
  <i type="int" name="NSW">     1</i>
  <i type="int" name="ISIF">     2</i>
  <i type="int" name="ISYM">     0</i>
  <i name="ENCUT">    600.00000000</i>
  <i name="POTIM">      1.00000000</i>
  <i type="string" name="LREAL">  Auto</i>
  <i type="int" name="ISMEAR">     0</i>
  <i name="SIGMA">      0.05000000</i>
  <i name="KSPACING">      0.30000000</i>
  <i type="logical" name="KGAMMA"> T  </i>
  <i type="logical" name="LWAVE"> F  </i>
  <i type="logical" name="LCHARG"> F  </i>
  <i type="logical" name="LSCALAPACK"> F  </i>
  <v type="int" name="KPOINT_BSE">    -1     0     0     0</v>
 </incar>
 <structure name="primitive_cell" >
  <crystal>
   <varray name="basis" >
    <v>      12.52607000       0.00000000       0.00000000 </v>
    <v>       0.00000000      12.52607000       0.00000000 </v>
    <v>       0.00000000       0.00000000      12.52607000 </v>
   </varray>
   <i name="volume">   1965.37081690 </i>
   <varray name="rec_basis" >
    <v>       0.07983350       0.00000000       0.00000000 </v>
    <v>       0.00000000       0.07983350       0.00000000 </v>
    <v>       0.00000000       0.00000000       0.07983350 </v>
   </varray>
  </crystal>
  <varray name="positions" >
   <v>       0.30494394       0.30058401      -0.12878513 </v>
   <v>       0.33239303       0.31412591       0.02165090 </v>
   <v>       0.16771466       0.43052857      -0.12071333 </v>
   <v>       0.33324316       0.22858219      -0.30145270 </v>
   <v>       0.41926291       0.44752990      -0.23353242 </v>
   <v>      -0.48763835       0.28759077      -0.07007975 </v>
   <v>       0.10833454       0.35241972      -0.03830145 </v>
   <v>       0.25224451       0.29183537      -0.35641407 </v>
   <v>       0.07936837       0.22197327      -0.06090944 </v>
   <v>      -0.47303863       0.41442838      -0.14741279 </v>
   <v>       0.46574419       0.49202148      -0.05303182 </v>
   <v>       0.31532446      -0.42975637      -0.14739410 </v>
   <v>       0.33382625       0.33040269       0.14761134 </v>
   <v>       0.15001769       0.37328108      -0.35207206 </v>
   <v>       0.48821574       0.09417394      -0.19747995 </v>
   <v>       0.32007394       0.37311169      -0.41888525 </v>
   <v>       0.49373625       0.19307889      -0.33836214 </v>
   <v>       0.24563355       0.00259364      -0.14032750 </v>
   <v>       0.20068185       0.20357752       0.14170920 </v>
   <v>       0.27540865       0.03424302      -0.29408495 </v>
   <v>       0.00278508       0.27593851      -0.22458089 </v>
   <v>       0.07530728       0.44060589       0.04535648 </v>
   <v>       0.27280961       0.47394387       0.13959643 </v>
   <v>       0.25320072      -0.44395802      -0.31757436 </v>
   <v>       0.11689166      -0.46945374      -0.30131250 </v>
   <v>       0.48557316       0.00449416      -0.09975996 </v>
   <v>       0.18180041       0.01414290       0.04494540 </v>
   <v>      -0.03553338       0.18914189      -0.13100654 </v>
   <v>       0.17022396       0.21290923      -0.44897593 </v>
   <v>      -0.39492035       0.34317453       0.07484904 </v>
   <v>       0.10861547       0.10470088       0.11359183 </v>
   <v>       0.44658214       0.30676714       0.21230466 </v>
   <v>       0.41625746      -0.39986023       0.07314376 </v>
   <v>       0.40870582      -0.47016432      -0.41254129 </v>
   <v>      -0.32993472       0.38969918      -0.06996450 </v>
   <v>      -0.00079150       0.05841518      -0.16084963 </v>
   <v>       0.02152652       0.25983416      -0.39638601 </v>
   <v>       0.08015861      -0.38699607      -0.21696740 </v>
   <v>       0.41498188      -0.05366478       0.01245753 </v>
   <v>      -0.00455797       0.09886180       0.01994239 </v>
   <v>      -0.42745537       0.03012838      -0.00824576 </v>
   <v>      -0.32417955       0.13788554      -0.12598293 </v>
   <v>       0.49055228       0.13156427       0.19070552 </v>
   <v>      -0.35917976       0.34937519      -0.37528607 </v>
   <v>      -0.44313581       0.04134165       0.11345015 </v>
   <v>       0.09760083       0.42703482       0.23417438 </v>
   <v>      -0.07787255       0.24722071       0.10109801 </v>
   <v>       0.18242459       0.02517395      -0.46314417 </v>
   <v>      -0.46064241      -0.08162865      -0.17694863 </v>
   <v>       0.24884133       0.30131849       0.42135695 </v>
   <v>       0.05656811      -0.45143516      -0.41943845 </v>
   <v>       0.43589617      -0.27699112      -0.25574771 </v>
   <v>       0.38836170      -0.11284217      -0.31525836 </v>
   <v>      -0.13835021       0.16554651      -0.05607671 </v>
   <v>      -0.25871554       0.48255885      -0.11683976 </v>
   <v>      -0.37732034      -0.47545074      -0.40517962 </v>
   <v>      -0.48968834      -0.26759692      -0.13413461 </v>
   <v>       0.47505243       0.09866286       0.47141434 </v>
   <v>       0.22114843      -0.32959179      -0.42175423 </v>
   <v>       0.47854671      -0.04886863       0.15597068 </v>
   <v>       0.33552777       0.25578456       0.35198014 </v>
   <v>       0.24414121      -0.12764624       0.10250742 </v>
   <v>       0.05067931       0.08928122       0.24255723 </v>
   <v>       0.12804950       0.27564037       0.40373292 </v>
   <v>      -0.12225039       0.12915131       0.06904681 </v>
   <v>       0.24897501      -0.20188163      -0.10259412 </v>
   <v>      -0.43757435       0.34500480       0.44045760 </v>
   <v>      -0.33053408       0.41067224       0.20301662 </v>
   <v>      -0.23482997       0.47512405      -0.25918543 </v>
   <v>       0.23630491       0.42035615       0.36213033 </v>
   <v>      -0.15509138      -0.49261235      -0.05120127 </v>
   <v>      -0.36236546       0.43249891       0.49677731 </v>
   <v>      -0.28496766      -0.38264865      -0.12392830 </v>
   <v>       0.15136321      -0.20698800      -0.18145245 </v>
   <v>       0.40988362       0.42332136       0.36662701 </v>
   <v>      -0.06975404      -0.33887363      -0.08981143 </v>
   <v>      -0.21123607       0.22712552      -0.31821833 </v>
   <v>      -0.26863486      -0.00462774      -0.15329034 </v>
   <v>      -0.03635650      -0.09532325      -0.07276257 </v>
   <v>      -0.22321146       0.37076507      -0.35643655 </v>
   <v>      -0.32474873       0.06055819      -0.42287264 </v>
   <v>       0.34736888      -0.20305695       0.06370997 </v>
   <v>       0.20903921      -0.20040035      -0.29525691 </v>
   <v>       0.00496061       0.11017359       0.47036201 </v>
   <v>       0.35947253      -0.40231651       0.42683528 </v>
   <v>      -0.47377590       0.21127225       0.35772088 </v>
   <v>       0.47586428      -0.16402942       0.09980286 </v>
   <v>       0.18512226       0.08081379       0.35939438 </v>
   <v>       0.02424917      -0.11860723       0.09641245 </v>
   <v>      -0.12409514       0.26170930       0.22279241 </v>
   <v>       0.03455050      -0.18017373      -0.20166106 </v>
   <v>      -0.36042479      -0.00621515       0.19367725 </v>
   <v>      -0.12266155       0.38861144       0.22042113 </v>
   <v>       0.23699611      -0.12090600       0.23726350 </v>
   <v>      -0.43458603      -0.22352781       0.02787387 </v>
   <v>      -0.15637271       0.44644560      -0.42238804 </v>
   <v>      -0.38977826       0.01258194       0.48995968 </v>
   <v>       0.07685366      -0.27285902       0.16721548 </v>
   <v>       0.42660340      -0.01202751       0.33344319 </v>
   <v>       0.07354562       0.14398057       0.37167153 </v>
   <v>      -0.05857887       0.24104404       0.32669049 </v>
   <v>       0.11616350      -0.36190829       0.31576497 </v>
   <v>      -0.38695669      -0.46614035       0.42577568 </v>
   <v>      -0.25621621      -0.34227314      -0.30024150 </v>
   <v>      -0.21937768       0.17757495       0.20619449 </v>
   <v>      -0.18361669       0.02433417       0.07048266 </v>
   <v>      -0.44676573      -0.26998032      -0.46169787 </v>
   <v>       0.31844185      -0.28844257       0.30534929 </v>
   <v>      -0.24758509      -0.09472765      -0.24303297 </v>
   <v>      -0.31909785      -0.13264746      -0.34042058 </v>
   <v>      -0.28617278      -0.12399712       0.04415877 </v>
   <v>      -0.18277122       0.13617946      -0.47800710 </v>
   <v>      -0.24530468       0.45867741       0.27296632 </v>
   <v>       0.49609206      -0.23854434       0.25045993 </v>
   <v>       0.37417146      -0.16043712       0.45082490 </v>
   <v>      -0.08370939      -0.45580513       0.44118574 </v>
   <v>      -0.35851780      -0.34111962       0.47635159 </v>
   <v>       0.08667775      -0.09023588       0.32171872 </v>
   <v>       0.00962483      -0.29757055       0.27520303 </v>
   <v>      -0.26729215       0.41857591       0.40694375 </v>
   <v>      -0.07732897      -0.14634226       0.13502572 </v>
   <v>      -0.40721177      -0.06773118       0.42128850 </v>
   <v>      -0.23490860       0.05837766       0.26125027 </v>
   <v>      -0.24333792      -0.34841782      -0.45978359 </v>
   <v>      -0.14255955      -0.21319272       0.00135742 </v>
   <v>      -0.14291543      -0.19656720      -0.21002890 </v>
   <v>      -0.09921795      -0.27624407       0.20921415 </v>
   <v>      -0.10708491      -0.22388389      -0.39995408 </v>
   <v>      -0.27302797       0.07013067       0.38147761 </v>
   <v>      -0.11890746      -0.03531319       0.29520812 </v>
   <v>      -0.21932138      -0.40611966       0.29721314 </v>
   <v>      -0.49033710      -0.20569919       0.40603545 </v>
   <v>      -0.37011870      -0.27687866       0.35471828 </v>
   <v>      -0.04219618      -0.21316262       0.46371298 </v>
   <v>      -0.21074067      -0.19516576       0.35158732 </v>
  </varray>
 </structure>
 <varray name="primitive_index" >
  <v type="int" >        1 </v>
  <v type="int" >       86 </v>
  <v type="int" >       62 </v>
  <v type="int" >       61 </v>
  <v type="int" >      105 </v>
  <v type="int" >       74 </v>
  <v type="int" >       47 </v>
  <v type="int" >       45 </v>
  <v type="int" >       57 </v>
  <v type="int" >       43 </v>
  <v type="int" >      113 </v>
  <v type="int" >       22 </v>
  <v type="int" >       48 </v>
  <v type="int" >       96 </v>
  <v type="int" >       99 </v>
  <v type="int" >       67 </v>
  <v type="int" >       11 </v>
  <v type="int" >        3 </v>
  <v type="int" >      131 </v>
  <v type="int" >      111 </v>
  <v type="int" >      109 </v>
  <v type="int" >      133 </v>
  <v type="int" >       85 </v>
  <v type="int" >       70 </v>
  <v type="int" >       51 </v>
  <v type="int" >       33 </v>
  <v type="int" >      103 </v>
  <v type="int" >       42 </v>
  <v type="int" >       71 </v>
  <v type="int" >       25 </v>
  <v type="int" >       29 </v>
  <v type="int" >       97 </v>
  <v type="int" >       24 </v>
  <v type="int" >       14 </v>
  <v type="int" >       82 </v>
  <v type="int" >       79 </v>
  <v type="int" >       17 </v>
  <v type="int" >       95 </v>
  <v type="int" >       84 </v>
  <v type="int" >       77 </v>
  <v type="int" >      117 </v>
  <v type="int" >       10 </v>
  <v type="int" >      100 </v>
  <v type="int" >      115 </v>
  <v type="int" >       34 </v>
  <v type="int" >        8 </v>
  <v type="int" >      124 </v>
  <v type="int" >       21 </v>
  <v type="int" >      134 </v>
  <v type="int" >       40 </v>
  <v type="int" >       87 </v>
  <v type="int" >       55 </v>
  <v type="int" >       13 </v>
  <v type="int" >       94 </v>
  <v type="int" >       41 </v>
  <v type="int" >      102 </v>
  <v type="int" >       23 </v>
  <v type="int" >      130 </v>
  <v type="int" >       27 </v>
  <v type="int" >      122 </v>
  <v type="int" >      112 </v>
  <v type="int" >       32 </v>
  <v type="int" >      128 </v>
  <v type="int" >       88 </v>
  <v type="int" >       52 </v>
  <v type="int" >       78 </v>
  <v type="int" >      135 </v>
  <v type="int" >      132 </v>
  <v type="int" >      114 </v>
  <v type="int" >       64 </v>
  <v type="int" >       92 </v>
  <v type="int" >       38 </v>
  <v type="int" >       63 </v>
  <v type="int" >       46 </v>
  <v type="int" >        2 </v>
  <v type="int" >        9 </v>
  <v type="int" >       60 </v>
  <v type="int" >      126 </v>
  <v type="int" >       12 </v>
  <v type="int" >       53 </v>
  <v type="int" >       59 </v>
  <v type="int" >      118 </v>
  <v type="int" >      120 </v>
  <v type="int" >       65 </v>
  <v type="int" >       76 </v>
  <v type="int" >       15 </v>
  <v type="int" >       39 </v>
  <v type="int" >      104 </v>
  <v type="int" >      129 </v>
  <v type="int" >       35 </v>
  <v type="int" >       93 </v>
  <v type="int" >       72 </v>
  <v type="int" >       69 </v>
  <v type="int" >      127 </v>
  <v type="int" >      106 </v>
  <v type="int" >       73 </v>
  <v type="int" >       31 </v>
  <v type="int" >       75 </v>
  <v type="int" >       20 </v>
  <v type="int" >       50 </v>
  <v type="int" >       81 </v>
  <v type="int" >      123 </v>
  <v type="int" >       98 </v>
  <v type="int" >        6 </v>
  <v type="int" >       91 </v>
  <v type="int" >       66 </v>
  <v type="int" >      108 </v>
  <v type="int" >       19 </v>
  <v type="int" >       36 </v>
  <v type="int" >       80 </v>
  <v type="int" >        5 </v>
  <v type="int" >       26 </v>
  <v type="int" >       54 </v>
  <v type="int" >      125 </v>
  <v type="int" >       56 </v>
  <v type="int" >        7 </v>
  <v type="int" >       28 </v>
  <v type="int" >        4 </v>
  <v type="int" >       49 </v>
  <v type="int" >       58 </v>
  <v type="int" >       30 </v>
  <v type="int" >      116 </v>
  <v type="int" >       37 </v>
  <v type="int" >       83 </v>
  <v type="int" >      121 </v>
  <v type="int" >      110 </v>
  <v type="int" >       68 </v>
  <v type="int" >       18 </v>
  <v type="int" >      101 </v>
  <v type="int" >       90 </v>
  <v type="int" >       89 </v>
  <v type="int" >       44 </v>
  <v type="int" >      107 </v>
  <v type="int" >      119 </v>
  <v type="int" >       16 </v>
 </varray>
 <kpoints>
  <generation param="Gamma">
   <v type="int" name="divisions">       2        2        2 </v>
   <v name="usershift">      0.00000000       0.00000000       0.00000000 </v>
   <v name="genvec1">      0.50000000       0.00000000       0.00000000 </v>
   <v name="genvec2">      0.00000000       0.50000000       0.00000000 </v>
   <v name="genvec3">      0.00000000       0.00000000       0.50000000 </v>
   <v name="shift">      0.00000000       0.00000000       0.00000000 </v>
  </generation>
  <varray name="kpointlist" >
   <v>       0.00000000       0.00000000       0.00000000 </v>
   <v>       0.50000000       0.00000000       0.00000000 </v>
   <v>       0.00000000       0.50000000       0.00000000 </v>
   <v>       0.50000000       0.50000000       0.00000000 </v>
   <v>       0.00000000       0.00000000       0.50000000 </v>
   <v>       0.50000000       0.00000000       0.50000000 </v>
   <v>       0.00000000       0.50000000       0.50000000 </v>
   <v>       0.50000000       0.50000000       0.50000000 </v>
  </varray>
  <varray name="weights" >
   <v>       0.12500000 </v>
   <v>       0.12500000 </v>
   <v>       0.12500000 </v>
   <v>       0.12500000 </v>
   <v>       0.12500000 </v>
   <v>       0.12500000 </v>
   <v>       0.12500000 </v>
   <v>       0.12500000 </v>
  </varray>
 </kpoints>
 <parameters>
  <separator name="general" >
   <i type="string" name="SYSTEM">unknown system</i>
   <i type="logical" name="LCOMPAT"> F  </i>
  </separator>
  <separator name="electronic" >
   <i type="string" name="PREC">a</i>
   <i name="ENMAX">    600.00000000</i>
   <i name="ENAUG">    605.39200000</i>
   <i name="EDIFF">      0.00000100</i>
   <i type="int" name="IALGO">    38</i>
   <i type="int" name="IWAVPR">    10</i>
   <i type="int" name="NBANDS">   520</i>
   <i name="NELECT">    864.00000000</i>
   <i type="int" name="TURBO">     0</i>
   <i type="int" name="IRESTART">     0</i>
   <i type="int" name="NREBOOT">     0</i>
   <i type="int" name="NMIN">     0</i>
   <i name="EREF">      0.00000000</i>
   <separator name="electronic smearing" >
    <i type="int" name="ISMEAR">     0</i>
    <i name="SIGMA">      0.05000000</i>
    <i name="KSPACING">      0.30000000</i>
    <i type="logical" name="KGAMMA"> T  </i>
   </separator>
   <separator name="electronic projectors" >
    <i type="logical" name="LREAL"> T  </i>
    <v name="ROPT">     -0.00025000     -0.00025000     -0.00025000</v>
    <i type="int" name="LMAXPAW">  -100</i>
    <i type="int" name="LMAXMIX">     2</i>
    <i type="logical" name="NLSPLINE"> F  </i>
   </separator>
   <separator name="electronic startup" >
    <i type="int" name="ISTART">     0</i>
    <i type="int" name="ICHARG">     2</i>
    <i type="int" name="INIWAV">     1</i>
   </separator>
   <separator name="electronic spin" >
    <i type="int" name="ISPIN">     1</i>
    <i type="logical" name="LNONCOLLINEAR"> F  </i>
    <v name="MAGMOM">      1.00000000      1.00000000      1.00000000      1.00000000      1.00000000      1.00000000      1.00000000      1.00000000      1.00000000      1.00000000      1.00000000      1.00000000      1.00000000      1.00000000      1.00000000      1.00000000      1.00000000      1.00000000      1.00000000      1.00000000
      1.00000000      1.00000000      1.00000000      1.00000000      1.00000000      1.00000000      1.00000000      1.00000000      1.00000000      1.00000000      1.00000000      1.00000000      1.00000000      1.00000000      1.00000000      1.00000000      1.00000000      1.00000000      1.00000000      1.00000000
      1.00000000      1.00000000      1.00000000      1.00000000      1.00000000      1.00000000      1.00000000      1.00000000      1.00000000      1.00000000      1.00000000      1.00000000      1.00000000      1.00000000      1.00000000      1.00000000      1.00000000      1.00000000      1.00000000      1.00000000
      1.00000000      1.00000000      1.00000000      1.00000000      1.00000000      1.00000000      1.00000000      1.00000000      1.00000000      1.00000000      1.00000000      1.00000000      1.00000000      1.00000000      1.00000000      1.00000000      1.00000000      1.00000000      1.00000000      1.00000000
      1.00000000      1.00000000      1.00000000      1.00000000      1.00000000      1.00000000      1.00000000      1.00000000      1.00000000      1.00000000      1.00000000      1.00000000      1.00000000      1.00000000      1.00000000      1.00000000      1.00000000      1.00000000      1.00000000      1.00000000
      1.00000000      1.00000000      1.00000000      1.00000000      1.00000000      1.00000000      1.00000000      1.00000000      1.00000000      1.00000000      1.00000000      1.00000000      1.00000000      1.00000000      1.00000000      1.00000000      1.00000000      1.00000000      1.00000000      1.00000000
      1.00000000      1.00000000      1.00000000      1.00000000      1.00000000      1.00000000      1.00000000      1.00000000      1.00000000      1.00000000      1.00000000      1.00000000      1.00000000      1.00000000      1.00000000</v>
    <i name="NUPDOWN">     -1.00000000</i>
    <i type="logical" name="LSORBIT"> F  </i>
    <v name="SAXIS">      0.00000000      0.00000000      1.00000000</v>
    <i type="logical" name="LSPIRAL"> F  </i>
    <v name="QSPIRAL">      0.00000000      0.00000000      0.00000000</v>
    <i type="logical" name="LZEROZ"> F  </i>
   </separator>
   <separator name="electronic exchange-correlation" >
    <i type="logical" name="LASPH"> F  </i>
    <i type="logical" name="LMETAGGA"> F  </i>
   </separator>
   <separator name="electronic convergence" >
    <i type="int" name="NELM">    60</i>
    <i type="int" name="NELMDL">    -5</i>
    <i type="int" name="NELMIN">     2</i>
    <i name="ENINI">    600.00000000</i>
    <separator name="electronic convergence detail" >
     <i type="logical" name="LDIAG"> T  </i>
     <i type="logical" name="LSUBROT"> F  </i>
     <i name="WEIMIN">      0.00000000</i>
     <i name="EBREAK">      0.00000000</i>
     <i name="DEPER">      0.30000000</i>
     <i type="int" name="NRMM">     4</i>
     <i name="TIME">      0.40000000</i>
    </separator>
   </separator>
   <separator name="electronic mixer" >
    <i name="AMIX">      0.40000000</i>
    <i name="BMIX">      1.00000000</i>
    <i name="AMIN">      0.10000000</i>
    <i name="AMIX_MAG">      1.60000000</i>
    <i name="BMIX_MAG">      1.00000000</i>
    <separator name="electronic mixer details" >
     <i type="int" name="IMIX">     4</i>
     <i type="logical" name="MIXFIRST"> F  </i>
     <i type="int" name="MAXMIX">   -45</i>
     <i name="WC">    100.00000000</i>
     <i type="int" name="INIMIX">     1</i>
     <i type="int" name="MIXPRE">     1</i>
     <i type="int" name="MREMOVE">     5</i>
    </separator>
   </separator>
   <separator name="electronic dipolcorrection" >
    <i type="logical" name="LDIPOL"> F  </i>
    <i type="logical" name="LMONO"> F  </i>
    <i type="int" name="IDIPOL">     0</i>
    <i name="EPSILON">      1.00000000</i>
    <v name="DIPOL">   -100.00000000   -100.00000000   -100.00000000</v>
    <i name="EFIELD">      0.00000000</i>
   </separator>
  </separator>
  <separator name="grids" >
   <i type="int" name="NGX">   100</i>
   <i type="int" name="NGY">   100</i>
   <i type="int" name="NGZ">   100</i>
   <i type="int" name="NGXF">   200</i>
   <i type="int" name="NGYF">   200</i>
   <i type="int" name="NGZF">   200</i>
   <i type="logical" name="ADDGRID"> T  </i>
  </separator>
  <separator name="ionic" >
   <i type="int" name="NSW">     1</i>
   <i type="int" name="IBRION">    -1</i>
   <i type="int" name="MDALGO">     0</i>
   <i type="int" name="ISIF">     2</i>
   <i name="PSTRESS">      0.00000000</i>
   <i name="EDIFFG">     -0.01000000</i>
   <i type="int" name="NFREE">     0</i>
   <i name="POTIM">      1.00000000</i>
   <i name="SMASS">     -3.00000000</i>
   <i name="SCALEE">      1.00000000</i>
  </separator>
  <separator name="ionic md" >
   <i name="TEBEG">      0.00010000</i>
   <i name="TEEND">      0.00010000</i>
   <i type="int" name="NBLOCK">     1</i>
   <i type="int" name="KBLOCK">     1</i>
   <i type="int" name="NPACO">   256</i>
   <i name="APACO">     16.00000000</i>
  </separator>
  <separator name="symmetry" >
   <i type="int" name="ISYM">     0</i>
   <i name="SYMPREC">      0.00001000</i>
  </separator>
  <separator name="dos" >
   <i type="int" name="LORBIT">     0</i>
   <v name="RWIGS">     -1.00000000     -1.00000000     -1.00000000</v>
   <i type="int" name="NEDOS">   301</i>
   <i name="EMIN">     10.00000000</i>
   <i name="EMAX">    -10.00000000</i>
   <i name="EFERMI">      0.00000000</i>
  </separator>
  <separator name="writing" >
   <i type="int" name="NWRITE">     2</i>
   <i type="logical" name="LWAVE"> F  </i>
   <i type="logical" name="LDOWNSAMPLE"> F  </i>
   <i type="logical" name="LCHARG"> F  </i>
   <i type="logical" name="LPARD"> F  </i>
   <i type="logical" name="LVTOT"> F  </i>
   <i type="logical" name="LVHAR"> F  </i>
   <i type="logical" name="LELF"> F  </i>
   <i type="logical" name="LOPTICS"> F  </i>
   <v name="STM">      0.00000000      0.00000000      0.00000000      0.00000000      0.00000000      0.00000000      0.00000000</v>
  </separator>
  <separator name="performance" >
   <i type="int" name="NPAR">     4</i>
   <i type="int" name="NSIM">     4</i>
   <i type="int" name="NBLK">    -1</i>
   <i type="logical" name="LPLANE"> T  </i>
   <i type="logical" name="LSCALAPACK"> F  </i>
   <i type="logical" name="LSCAAWARE"> F  </i>
   <i type="logical" name="LSCALU"> F  </i>
   <i type="logical" name="LASYNC"> F  </i>
   <i type="logical" name="LORBITALREAL"> F  </i>
  </separator>
  <separator name="miscellaneous" >
   <i type="int" name="IDIOT">     3</i>
   <i type="int" name="ISPECIAL">     0</i>
   <i type="logical" name="LMUSIC"> F  </i>
   <v name="POMASS">     40.07800000     28.08500000     16.00000000</v>
   <v name="DARWINR">      0.00000000      0.00000000      0.00000000</v>
   <v name="DARWINV">      1.00000000      1.00000000      1.00000000</v>
   <i type="logical" name="LCORR"> T  </i>
  </separator>
  <i type="logical" name="GGA_COMPAT"> T  </i>
  <i type="logical" name="LBERRY"> F  </i>
  <i type="int" name="ICORELEVEL">     0</i>
  <i type="logical" name="LDAU"> F  </i>
  <i type="int" name="I_CONSTRAINED_M">     0</i>
  <separator name="electronic exchange-correlation" >
   <i type="string" name="GGA">--</i>
   <i type="int" name="VOSKOWN">     0</i>
   <i type="logical" name="LHFCALC"> F  </i>
   <i type="string" name="PRECFOCK"></i>
   <i type="logical" name="LSYMGRAD"> F  </i>
   <i type="logical" name="LHFONE"> F  </i>
   <i type="logical" name="LRHFCALC"> F  </i>
   <i type="logical" name="LTHOMAS"> F  </i>
   <i type="logical" name="LMODELHF"> F  </i>
   <i name="ENCUT4O">     -1.00000000</i>
   <i type="int" name="EXXOEP">     0</i>
   <i type="int" name="FOURORBIT">     0</i>
   <i name="AEXX">      0.00000000</i>
   <i name="HFALPHA">      0.00000000</i>
   <i name="MCALPHA">      0.00000000</i>
   <i name="ALDAX">      1.00000000</i>
   <i name="AGGAX">      1.00000000</i>
   <i name="ALDAC">      1.00000000</i>
   <i name="AGGAC">      1.00000000</i>
   <i type="int" name="NKREDX">     1</i>
   <i type="int" name="NKREDY">     1</i>
   <i type="int" name="NKREDZ">     1</i>
   <i type="logical" name="SHIFTRED"> F  </i>
   <i type="logical" name="ODDONLY"> F  </i>
   <i type="logical" name="EVENONLY"> F  </i>
   <i type="int" name="LMAXFOCK">     0</i>
   <i type="int" name="NMAXFOCKAE">     0</i>
   <i type="logical" name="LFOCKAEDFT"> F  </i>
   <i name="HFSCREEN">      0.00000000</i>
   <i name="HFSCREENC">      0.00000000</i>
   <i type="int" name="NBANDSGWLOW">     0</i>
  </separator>
  <separator name="vdW DFT" >
   <i type="logical" name="LUSE_VDW"> F  </i>
   <i name="Zab_VDW">     -0.84910000</i>
   <i name="PARAM1">      0.12340000</i>
   <i name="PARAM2">      1.00000000</i>
   <i name="PARAM3">      0.00000000</i>
  </separator>
  <separator name="model GW" >
   <i type="int" name="MODEL_GW">     0</i>
   <i name="MODEL_EPS0">      8.73498141</i>
   <i name="MODEL_ALPHA">      1.00000000</i>
  </separator>
  <separator name="linear response parameters" >
   <i type="logical" name="LEPSILON"> F  </i>
   <i type="logical" name="LRPA"> F  </i>
   <i type="logical" name="LNABLA"> F  </i>
   <i type="logical" name="LVEL"> F  </i>
   <i type="int" name="KINTER">     0</i>
   <i name="CSHIFT">      0.10000000</i>
   <i name="OMEGAMAX">     -1.00000000</i>
   <i name="DEG_THRESHOLD">      0.00200000</i>
   <i name="RTIME">     -0.10000000</i>
   <i name="WPLASMAI">      0.00000000</i>
   <v name="DFIELD">      0.00000000      0.00000000      0.00000000</v>
   <v name="WPLASMA">      0.00000000      0.00000000      0.00000000      0.00000000      0.00000000      0.00000000      0.00000000      0.00000000      0.00000000</v>
  </separator>
  <separator name="orbital magnetization" >
   <i type="logical" name="NUCIND"> F  </i>
   <v name="MAGPOS">      0.00000000      0.00000000      0.00000000</v>
   <i type="logical" name="LNICSALL"> T  </i>
   <i type="logical" name="ORBITALMAG"> F  </i>
   <i type="logical" name="LMAGBLOCH"> F  </i>
   <i type="logical" name="LCHIMAG"> F  </i>
   <i type="logical" name="LGAUGE"> T  </i>
   <i type="int" name="MAGATOM">     0</i>
   <v name="MAGDIPOL">      0.00000000      0.00000000      0.00000000</v>
   <v name="AVECCONST">      0.00000000      0.00000000      0.00000000</v>
  </separator>
  <separator name="response functions" >
   <i type="logical" name="LADDER"> F  </i>
   <i type="logical" name="LRPAFORCE"> F  </i>
   <i type="logical" name="LFXC"> F  </i>
   <i type="logical" name="LHARTREE"> T  </i>
   <i type="int" name="IBSE">     0</i>
   <v type="int" name="KPOINT">    -1     0     0     0</v>
   <i type="logical" name="LTCTE"> F  </i>
   <i type="logical" name="LTETE"> F  </i>
   <i type="logical" name="LTRIPLET"> F  </i>
   <i type="logical" name="LFXCEPS"> F  </i>
   <i type="logical" name="LFXHEG"> F  </i>
   <i type="int" name="NATURALO">     2</i>
   <i type="logical" name="L2ORDER"> F  </i>
   <i type="logical" name="LMP2LT"> F  </i>
   <i type="logical" name="LUSEW"> F  </i>
   <i name="ENCUTGW">     -2.00000000</i>
   <i name="ENCUTGWSOFT">     -2.00000000</i>
   <i name="ENCUTLF">     -1.00000000</i>
   <i type="int" name="LMAXMP2">    -1</i>
   <i name="SCISSOR">      0.00000000</i>
   <i type="int" name="NOMEGA">     0</i>
   <i type="int" name="NOMEGAR">     0</i>
   <i type="int" name="NBANDSGW">    -1</i>
   <i type="int" name="NBANDSO">    -1</i>
   <i type="int" name="NBANDSV">    -1</i>
   <i type="int" name="NELM">     1</i>
   <i type="int" name="NELMHF">     1</i>
   <i type="int" name="DIM">     3</i>
   <i type="int" name="ANTIRES">     0</i>
   <i name="OMEGAMAX">    -30.00000000</i>
   <i name="OMEGAMIN">    -30.00000000</i>
   <i name="OMEGATL">   -200.00000000</i>
   <i type="int" name="OMEGAGRID">   140</i>
   <i name="CSHIFT">     -0.10000000</i>
   <i type="logical" name="SELFENERGY"> F  </i>
   <i type="logical" name="LSPECTRAL"> F  </i>
   <i type="logical" name="LSPECTRALGW"> F  </i>
   <i type="logical" name="LSINGLES"> F  </i>
   <i type="logical" name="LFERMIGW"> F  </i>
   <i type="logical" name="ODDONLYGW"> F  </i>
   <i type="logical" name="EVENONLYGW"> F  </i>
   <i type="int" name="NKREDLFX">     1</i>
   <i type="int" name="NKREDLFY">     1</i>
   <i type="int" name="NKREDLFZ">     1</i>
   <i type="int" name="MAXMEM">  2800</i>
   <i type="int" name="TELESCOPE">     0</i>
   <i type="int" name="TAUPAR">     1</i>
   <i type="int" name="OMEGAPAR">    -1</i>
   <i name="LAMBDA">      1.00000000</i>
  </separator>
  <separator name="External order field" >
   <i name="OFIELD_KAPPA">      0.00000000</i>
   <v name="OFIELD_K">      0.00000000      0.00000000      0.00000000</v>
   <i name="OFIELD_Q6_NEAR">      0.00000000</i>
   <i name="OFIELD_Q6_FAR">      0.00000000</i>
   <i name="OFIELD_A">      0.00000000</i>
  </separator>
 </parameters>
 <atominfo>
  <atoms>     135 </atoms>
  <types>       3 </types>
  <array name="atoms" >
   <dimension dim="1">ion</dimension>
   <field type="string">element</field>
   <field type="int">atomtype</field>
   <set>
    <rc><c>Ca</c><c>   1</c></rc>
    <rc><c>Ca</c><c>   1</c></rc>
    <rc><c>Ca</c><c>   1</c></rc>
    <rc><c>Ca</c><c>   1</c></rc>
    <rc><c>Ca</c><c>   1</c></rc>
    <rc><c>Ca</c><c>   1</c></rc>
    <rc><c>Ca</c><c>   1</c></rc>
    <rc><c>Ca</c><c>   1</c></rc>
    <rc><c>Ca</c><c>   1</c></rc>
    <rc><c>Ca</c><c>   1</c></rc>
    <rc><c>Ca</c><c>   1</c></rc>
    <rc><c>Ca</c><c>   1</c></rc>
    <rc><c>Ca</c><c>   1</c></rc>
    <rc><c>Ca</c><c>   1</c></rc>
    <rc><c>Ca</c><c>   1</c></rc>
    <rc><c>Ca</c><c>   1</c></rc>
    <rc><c>Ca</c><c>   1</c></rc>
    <rc><c>Ca</c><c>   1</c></rc>
    <rc><c>Ca</c><c>   1</c></rc>
    <rc><c>Ca</c><c>   1</c></rc>
    <rc><c>Ca</c><c>   1</c></rc>
    <rc><c>Ca</c><c>   1</c></rc>
    <rc><c>Ca</c><c>   1</c></rc>
    <rc><c>Ca</c><c>   1</c></rc>
    <rc><c>Ca</c><c>   1</c></rc>
    <rc><c>Ca</c><c>   1</c></rc>
    <rc><c>Ca</c><c>   1</c></rc>
    <rc><c>Si</c><c>   2</c></rc>
    <rc><c>Si</c><c>   2</c></rc>
    <rc><c>Si</c><c>   2</c></rc>
    <rc><c>Si</c><c>   2</c></rc>
    <rc><c>Si</c><c>   2</c></rc>
    <rc><c>Si</c><c>   2</c></rc>
    <rc><c>Si</c><c>   2</c></rc>
    <rc><c>Si</c><c>   2</c></rc>
    <rc><c>Si</c><c>   2</c></rc>
    <rc><c>Si</c><c>   2</c></rc>
    <rc><c>Si</c><c>   2</c></rc>
    <rc><c>Si</c><c>   2</c></rc>
    <rc><c>Si</c><c>   2</c></rc>
    <rc><c>Si</c><c>   2</c></rc>
    <rc><c>Si</c><c>   2</c></rc>
    <rc><c>Si</c><c>   2</c></rc>
    <rc><c>Si</c><c>   2</c></rc>
    <rc><c>Si</c><c>   2</c></rc>
    <rc><c>Si</c><c>   2</c></rc>
    <rc><c>Si</c><c>   2</c></rc>
    <rc><c>Si</c><c>   2</c></rc>
    <rc><c>Si</c><c>   2</c></rc>
    <rc><c>Si</c><c>   2</c></rc>
    <rc><c>Si</c><c>   2</c></rc>
    <rc><c>Si</c><c>   2</c></rc>
    <rc><c>Si</c><c>   2</c></rc>
    <rc><c>Si</c><c>   2</c></rc>
    <rc><c>O </c><c>   3</c></rc>
    <rc><c>O </c><c>   3</c></rc>
    <rc><c>O </c><c>   3</c></rc>
    <rc><c>O </c><c>   3</c></rc>
    <rc><c>O </c><c>   3</c></rc>
    <rc><c>O </c><c>   3</c></rc>
    <rc><c>O </c><c>   3</c></rc>
    <rc><c>O </c><c>   3</c></rc>
    <rc><c>O </c><c>   3</c></rc>
    <rc><c>O </c><c>   3</c></rc>
    <rc><c>O </c><c>   3</c></rc>
    <rc><c>O </c><c>   3</c></rc>
    <rc><c>O </c><c>   3</c></rc>
    <rc><c>O </c><c>   3</c></rc>
    <rc><c>O </c><c>   3</c></rc>
    <rc><c>O </c><c>   3</c></rc>
    <rc><c>O </c><c>   3</c></rc>
    <rc><c>O </c><c>   3</c></rc>
    <rc><c>O </c><c>   3</c></rc>
    <rc><c>O </c><c>   3</c></rc>
    <rc><c>O </c><c>   3</c></rc>
    <rc><c>O </c><c>   3</c></rc>
    <rc><c>O </c><c>   3</c></rc>
    <rc><c>O </c><c>   3</c></rc>
    <rc><c>O </c><c>   3</c></rc>
    <rc><c>O </c><c>   3</c></rc>
    <rc><c>O </c><c>   3</c></rc>
    <rc><c>O </c><c>   3</c></rc>
    <rc><c>O </c><c>   3</c></rc>
    <rc><c>O </c><c>   3</c></rc>
    <rc><c>O </c><c>   3</c></rc>
    <rc><c>O </c><c>   3</c></rc>
    <rc><c>O </c><c>   3</c></rc>
    <rc><c>O </c><c>   3</c></rc>
    <rc><c>O </c><c>   3</c></rc>
    <rc><c>O </c><c>   3</c></rc>
    <rc><c>O </c><c>   3</c></rc>
    <rc><c>O </c><c>   3</c></rc>
    <rc><c>O </c><c>   3</c></rc>
    <rc><c>O </c><c>   3</c></rc>
    <rc><c>O </c><c>   3</c></rc>
    <rc><c>O </c><c>   3</c></rc>
    <rc><c>O </c><c>   3</c></rc>
    <rc><c>O </c><c>   3</c></rc>
    <rc><c>O </c><c>   3</c></rc>
    <rc><c>O </c><c>   3</c></rc>
    <rc><c>O </c><c>   3</c></rc>
    <rc><c>O </c><c>   3</c></rc>
    <rc><c>O </c><c>   3</c></rc>
    <rc><c>O </c><c>   3</c></rc>
    <rc><c>O </c><c>   3</c></rc>
    <rc><c>O </c><c>   3</c></rc>
    <rc><c>O </c><c>   3</c></rc>
    <rc><c>O </c><c>   3</c></rc>
    <rc><c>O </c><c>   3</c></rc>
    <rc><c>O </c><c>   3</c></rc>
    <rc><c>O </c><c>   3</c></rc>
    <rc><c>O </c><c>   3</c></rc>
    <rc><c>O </c><c>   3</c></rc>
    <rc><c>O </c><c>   3</c></rc>
    <rc><c>O </c><c>   3</c></rc>
    <rc><c>O </c><c>   3</c></rc>
    <rc><c>O </c><c>   3</c></rc>
    <rc><c>O </c><c>   3</c></rc>
    <rc><c>O </c><c>   3</c></rc>
    <rc><c>O </c><c>   3</c></rc>
    <rc><c>O </c><c>   3</c></rc>
    <rc><c>O </c><c>   3</c></rc>
    <rc><c>O </c><c>   3</c></rc>
    <rc><c>O </c><c>   3</c></rc>
    <rc><c>O </c><c>   3</c></rc>
    <rc><c>O </c><c>   3</c></rc>
    <rc><c>O </c><c>   3</c></rc>
    <rc><c>O </c><c>   3</c></rc>
    <rc><c>O </c><c>   3</c></rc>
    <rc><c>O </c><c>   3</c></rc>
    <rc><c>O </c><c>   3</c></rc>
    <rc><c>O </c><c>   3</c></rc>
    <rc><c>O </c><c>   3</c></rc>
    <rc><c>O </c><c>   3</c></rc>
    <rc><c>O </c><c>   3</c></rc>
   </set>
  </array>
  <array name="atomtypes" >
   <dimension dim="1">type</dimension>
   <field type="int">atomspertype</field>
   <field type="string">element</field>
   <field>mass</field>
   <field>valence</field>
   <field type="string">pseudopotential</field>
   <set>
    <rc><c>  27</c><c>Ca</c><c>     40.07800000</c><c>     10.00000000</c><c>  PAW_PBE Ca_sv 06Sep2000               </c></rc>
    <rc><c>  27</c><c>Si</c><c>     28.08500000</c><c>      4.00000000</c><c>  PAW_PBE Si 05Jan2001                  </c></rc>
    <rc><c>  81</c><c>O </c><c>     16.00000000</c><c>      6.00000000</c><c>  PAW_PBE O 08Apr2002                   </c></rc>
   </set>
  </array>
 </atominfo>
 <structure name="initialpos" >
  <crystal>
   <varray name="basis" >
    <v>      12.52607000       0.00000000       0.00000000 </v>
    <v>       0.00000000      12.52607000       0.00000000 </v>
    <v>       0.00000000       0.00000000      12.52607000 </v>
   </varray>
   <i name="volume">   1965.37081690 </i>
   <varray name="rec_basis" >
    <v>       0.07983350       0.00000000       0.00000000 </v>
    <v>       0.00000000       0.07983350       0.00000000 </v>
    <v>       0.00000000       0.00000000       0.07983350 </v>
   </varray>
  </crystal>
  <varray name="positions" >
   <v>       0.30494394       0.30058401       0.87121487 </v>
   <v>       0.40988362       0.42332136       0.36662701 </v>
   <v>       0.24563355       0.00259364       0.85967250 </v>
   <v>       0.08667775       0.90976412       0.32171872 </v>
   <v>       0.71382722       0.87600288       0.04415877 </v>
   <v>       0.74378379       0.65772686       0.69975850 </v>
   <v>       0.91629061       0.54419487       0.44118574 </v>
   <v>       0.09760083       0.42703482       0.23417438 </v>
   <v>       0.93024596       0.66112637       0.91018857 </v>
   <v>       0.67582045       0.13788554       0.87401707 </v>
   <v>       0.49373625       0.19307889       0.66163786 </v>
   <v>       0.96364350       0.90467675       0.92723743 </v>
   <v>       0.38836170       0.88715783       0.68474164 </v>
   <v>       0.40870582       0.52983568       0.58745871 </v>
   <v>       0.52622410       0.21127225       0.35772088 </v>
   <v>       0.78925933       0.80483424       0.35158732 </v>
   <v>       0.02152652       0.25983416       0.60361399 </v>
   <v>       0.89291509       0.77611611       0.60004592 </v>
   <v>       0.31844185       0.71155743       0.30534929 </v>
   <v>       0.42660340       0.98797249       0.33344319 </v>
   <v>       0.18242459       0.02517395       0.53685583 </v>
   <v>       0.31532446       0.57024363       0.85260590 </v>
   <v>       0.51031166       0.73240308       0.86586539 </v>
   <v>       0.41625746       0.60013977       0.07314376 </v>
   <v>       0.60507965       0.34317453       0.07484904 </v>
   <v>       0.81722878       0.13617946       0.52199290 </v>
   <v>       0.22114843       0.67040821       0.57824577 </v>
   <v>       0.64148220       0.65888038       0.47635159 </v>
   <v>       0.10861547       0.10470088       0.11359183 </v>
   <v>       0.92267103       0.85365774       0.13502572 </v>
   <v>       0.61022174       0.01258194       0.48995968 </v>
   <v>       0.24414121       0.87235376       0.10250742 </v>
   <v>       0.48557316       0.00449416       0.90024004 </v>
   <v>       0.55686419       0.04134165       0.11345015 </v>
   <v>       0.87590486       0.26170930       0.22279241 </v>
   <v>       0.75241491       0.90527235       0.75696703 </v>
   <v>       0.76509140       0.05837766       0.26125027 </v>
   <v>       0.63763454       0.43249891       0.49677731 </v>
   <v>       0.47586428       0.83597058       0.09980286 </v>
   <v>       0.24884133       0.30131849       0.42135695 </v>
   <v>       0.74128446       0.48255885       0.88316024 </v>
   <v>       0.96446662       0.18914189       0.86899346 </v>
   <v>       0.52696137       0.41442838       0.85258721 </v>
   <v>       0.50966290       0.79430081       0.40603545 </v>
   <v>       0.25224451       0.29183537       0.64358593 </v>
   <v>       0.15136321       0.79301200       0.81854755 </v>
   <v>       0.10833454       0.35241972       0.96169855 </v>
   <v>       0.33382625       0.33040269       0.14761134 </v>
   <v>       0.00962483       0.70242945       0.27520303 </v>
   <v>       0.07354562       0.14398057       0.37167153 </v>
   <v>       0.11689166       0.53054626       0.69868750 </v>
   <v>       0.87774961       0.12915131       0.06904681 </v>
   <v>       0.77678854       0.37076507       0.64356345 </v>
   <v>       0.75469532       0.45867741       0.27296632 </v>
   <v>       0.43589617       0.72300888       0.74425229 </v>
   <v>       0.37417146       0.83956288       0.45082490 </v>
   <v>       0.07936837       0.22197327       0.93909056 </v>
   <v>       0.73270785       0.41857591       0.40694375 </v>
   <v>       0.67525127       0.06055819       0.57712736 </v>
   <v>       0.78876393       0.22712552       0.68178167 </v>
   <v>       0.33324316       0.22858219       0.69854730 </v>
   <v>       0.16771466       0.43052857       0.87928667 </v>
   <v>       0.71503234       0.61735135       0.87607170 </v>
   <v>       0.23630491       0.42035615       0.36213033 </v>
   <v>       0.00496061       0.11017359       0.47036201 </v>
   <v>       0.81638331       0.02433417       0.07048266 </v>
   <v>       0.32007394       0.37311169       0.58111475 </v>
   <v>       0.90078205       0.72375593       0.20921415 </v>
   <v>       0.87733845       0.38861144       0.22042113 </v>
   <v>       0.25320072       0.55604198       0.68242564 </v>
   <v>       0.17022396       0.21290923       0.55102407 </v>
   <v>       0.63957521       0.99378485       0.19367725 </v>
   <v>       0.84362729       0.44644560       0.57761196 </v>
   <v>       0.51236165       0.28759077       0.92992025 </v>
   <v>       0.07685366       0.72714098       0.16721548 </v>
   <v>       0.35947253       0.59768349       0.42683528 </v>
   <v>       0.99544203       0.09886180       0.01994239 </v>
   <v>       0.24897501       0.79811837       0.89740588 </v>
   <v>       0.99920850       0.05841518       0.83915037 </v>
   <v>       0.68090215       0.86735254       0.65957942 </v>
   <v>       0.94142113       0.24104404       0.32669049 </v>
   <v>       0.67006528       0.38969918       0.93003550 </v>
   <v>       0.75666208       0.65158218       0.54021641 </v>
   <v>       0.41498188       0.94633522       0.01245753 </v>
   <v>       0.27280961       0.47394387       0.13959643 </v>
   <v>       0.33239303       0.31412591       0.02165090 </v>
   <v>       0.05656811       0.54856484       0.58056155 </v>
   <v>       0.12804950       0.27564037       0.40373292 </v>
   <v>       0.78067862       0.59388034       0.29721314 </v>
   <v>       0.88109254       0.96468681       0.29520812 </v>
   <v>       0.78062232       0.17757495       0.20619449 </v>
   <v>       0.84490862       0.50738765       0.94879873 </v>
   <v>       0.03455050       0.81982627       0.79833894 </v>
   <v>       0.86164979       0.16554651       0.94392329 </v>
   <v>       0.08015861       0.61300393       0.78303260 </v>
   <v>       0.15001769       0.37328108       0.64792794 </v>
   <v>       0.44658214       0.30676714       0.21230466 </v>
   <v>       0.61304331       0.53385965       0.42577568 </v>
   <v>       0.48821574       0.09417394       0.80252005 </v>
   <v>       0.49055228       0.13156427       0.19070552 </v>
   <v>       0.72697203       0.07013067       0.38147761 </v>
   <v>       0.62267966       0.52454926       0.59482038 </v>
   <v>       0.18180041       0.01414290       0.04494540 </v>
   <v>       0.18512226       0.08081379       0.35939438 </v>
   <v>       0.41926291       0.44752990       0.76646758 </v>
   <v>       0.56541397       0.77647219       0.02787387 </v>
   <v>       0.62988130       0.72312134       0.35471828 </v>
   <v>       0.55323427       0.73001968       0.53830213 </v>
   <v>       0.00278508       0.27593851       0.77541911 </v>
   <v>       0.85708457       0.80343280       0.78997110 </v>
   <v>       0.27540865       0.03424302       0.70591505 </v>
   <v>       0.33552777       0.25578456       0.35198014 </v>
   <v>       0.46574419       0.49202148       0.94696818 </v>
   <v>       0.76517003       0.47512405       0.74081457 </v>
   <v>       0.64082024       0.34937519       0.62471393 </v>
   <v>       0.59278823       0.93226882       0.42128850 </v>
   <v>       0.57254463       0.03012838       0.99175424 </v>
   <v>       0.34736888       0.79694305       0.06370997 </v>
   <v>       0.95780382       0.78683738       0.46371298 </v>
   <v>       0.20903921       0.79959965       0.70474309 </v>
   <v>       0.85744045       0.78680728       0.00135742 </v>
   <v>       0.47854671       0.95113137       0.15597068 </v>
   <v>       0.11616350       0.63809171       0.31576497 </v>
   <v>       0.92212745       0.24722071       0.10109801 </v>
   <v>       0.49609206       0.76145566       0.25045993 </v>
   <v>       0.73136514       0.99537226       0.84670966 </v>
   <v>       0.23699611       0.87909400       0.23726350 </v>
   <v>       0.05067931       0.08928122       0.24255723 </v>
   <v>       0.02424917       0.88139277       0.09641245 </v>
   <v>       0.47505243       0.09866286       0.47141434 </v>
   <v>       0.20068185       0.20357752       0.14170920 </v>
   <v>       0.66946592       0.41067224       0.20301662 </v>
   <v>       0.07530728       0.44060589       0.04535648 </v>
   <v>       0.53935759       0.91837135       0.82305137 </v>
   <v>       0.56242565       0.34500480       0.44045760 </v>
  </varray>
  <varray name="velocities" >
   <v>       0.00000000       0.00000000       0.00000000 </v>
   <v>       0.00000000       0.00000000       0.00000000 </v>
   <v>       0.00000000       0.00000000       0.00000000 </v>
   <v>       0.00000000       0.00000000       0.00000000 </v>
   <v>       0.00000000       0.00000000       0.00000000 </v>
   <v>       0.00000000       0.00000000       0.00000000 </v>
   <v>       0.00000000       0.00000000       0.00000000 </v>
   <v>       0.00000000       0.00000000       0.00000000 </v>
   <v>       0.00000000       0.00000000       0.00000000 </v>
   <v>       0.00000000       0.00000000       0.00000000 </v>
   <v>       0.00000000       0.00000000       0.00000000 </v>
   <v>       0.00000000       0.00000000       0.00000000 </v>
   <v>       0.00000000       0.00000000       0.00000000 </v>
   <v>       0.00000000       0.00000000       0.00000000 </v>
   <v>       0.00000000       0.00000000       0.00000000 </v>
   <v>       0.00000000       0.00000000       0.00000000 </v>
   <v>       0.00000000       0.00000000       0.00000000 </v>
   <v>       0.00000000       0.00000000       0.00000000 </v>
   <v>       0.00000000       0.00000000       0.00000000 </v>
   <v>       0.00000000       0.00000000       0.00000000 </v>
   <v>       0.00000000       0.00000000       0.00000000 </v>
   <v>       0.00000000       0.00000000       0.00000000 </v>
   <v>       0.00000000       0.00000000       0.00000000 </v>
   <v>       0.00000000       0.00000000       0.00000000 </v>
   <v>       0.00000000       0.00000000       0.00000000 </v>
   <v>       0.00000000       0.00000000       0.00000000 </v>
   <v>       0.00000000       0.00000000       0.00000000 </v>
   <v>       0.00000000       0.00000000       0.00000000 </v>
   <v>       0.00000000       0.00000000       0.00000000 </v>
   <v>       0.00000000       0.00000000       0.00000000 </v>
   <v>       0.00000000       0.00000000       0.00000000 </v>
   <v>       0.00000000       0.00000000       0.00000000 </v>
   <v>       0.00000000       0.00000000       0.00000000 </v>
   <v>       0.00000000       0.00000000       0.00000000 </v>
   <v>       0.00000000       0.00000000       0.00000000 </v>
   <v>       0.00000000       0.00000000       0.00000000 </v>
   <v>       0.00000000       0.00000000       0.00000000 </v>
   <v>       0.00000000       0.00000000       0.00000000 </v>
   <v>       0.00000000       0.00000000       0.00000000 </v>
   <v>       0.00000000       0.00000000       0.00000000 </v>
   <v>       0.00000000       0.00000000       0.00000000 </v>
   <v>       0.00000000       0.00000000       0.00000000 </v>
   <v>       0.00000000       0.00000000       0.00000000 </v>
   <v>       0.00000000       0.00000000       0.00000000 </v>
   <v>       0.00000000       0.00000000       0.00000000 </v>
   <v>       0.00000000       0.00000000       0.00000000 </v>
   <v>       0.00000000       0.00000000       0.00000000 </v>
   <v>       0.00000000       0.00000000       0.00000000 </v>
   <v>       0.00000000       0.00000000       0.00000000 </v>
   <v>       0.00000000       0.00000000       0.00000000 </v>
   <v>       0.00000000       0.00000000       0.00000000 </v>
   <v>       0.00000000       0.00000000       0.00000000 </v>
   <v>       0.00000000       0.00000000       0.00000000 </v>
   <v>       0.00000000       0.00000000       0.00000000 </v>
   <v>       0.00000000       0.00000000       0.00000000 </v>
   <v>       0.00000000       0.00000000       0.00000000 </v>
   <v>       0.00000000       0.00000000       0.00000000 </v>
   <v>       0.00000000       0.00000000       0.00000000 </v>
   <v>       0.00000000       0.00000000       0.00000000 </v>
   <v>       0.00000000       0.00000000       0.00000000 </v>
   <v>       0.00000000       0.00000000       0.00000000 </v>
   <v>       0.00000000       0.00000000       0.00000000 </v>
   <v>       0.00000000       0.00000000       0.00000000 </v>
   <v>       0.00000000       0.00000000       0.00000000 </v>
   <v>       0.00000000       0.00000000       0.00000000 </v>
   <v>       0.00000000       0.00000000       0.00000000 </v>
   <v>       0.00000000       0.00000000       0.00000000 </v>
   <v>       0.00000000       0.00000000       0.00000000 </v>
   <v>       0.00000000       0.00000000       0.00000000 </v>
   <v>       0.00000000       0.00000000       0.00000000 </v>
   <v>       0.00000000       0.00000000       0.00000000 </v>
   <v>       0.00000000       0.00000000       0.00000000 </v>
   <v>       0.00000000       0.00000000       0.00000000 </v>
   <v>       0.00000000       0.00000000       0.00000000 </v>
   <v>       0.00000000       0.00000000       0.00000000 </v>
   <v>       0.00000000       0.00000000       0.00000000 </v>
   <v>       0.00000000       0.00000000       0.00000000 </v>
   <v>       0.00000000       0.00000000       0.00000000 </v>
   <v>       0.00000000       0.00000000       0.00000000 </v>
   <v>       0.00000000       0.00000000       0.00000000 </v>
   <v>       0.00000000       0.00000000       0.00000000 </v>
   <v>       0.00000000       0.00000000       0.00000000 </v>
   <v>       0.00000000       0.00000000       0.00000000 </v>
   <v>       0.00000000       0.00000000       0.00000000 </v>
   <v>       0.00000000       0.00000000       0.00000000 </v>
   <v>       0.00000000       0.00000000       0.00000000 </v>
   <v>       0.00000000       0.00000000       0.00000000 </v>
   <v>       0.00000000       0.00000000       0.00000000 </v>
   <v>       0.00000000       0.00000000       0.00000000 </v>
   <v>       0.00000000       0.00000000       0.00000000 </v>
   <v>       0.00000000       0.00000000       0.00000000 </v>
   <v>       0.00000000       0.00000000       0.00000000 </v>
   <v>       0.00000000       0.00000000       0.00000000 </v>
   <v>       0.00000000       0.00000000       0.00000000 </v>
   <v>       0.00000000       0.00000000       0.00000000 </v>
   <v>       0.00000000       0.00000000       0.00000000 </v>
   <v>       0.00000000       0.00000000       0.00000000 </v>
   <v>       0.00000000       0.00000000       0.00000000 </v>
   <v>       0.00000000       0.00000000       0.00000000 </v>
   <v>       0.00000000       0.00000000       0.00000000 </v>
   <v>       0.00000000       0.00000000       0.00000000 </v>
   <v>       0.00000000       0.00000000       0.00000000 </v>
   <v>       0.00000000       0.00000000       0.00000000 </v>
   <v>       0.00000000       0.00000000       0.00000000 </v>
   <v>       0.00000000       0.00000000       0.00000000 </v>
   <v>       0.00000000       0.00000000       0.00000000 </v>
   <v>       0.00000000       0.00000000       0.00000000 </v>
   <v>       0.00000000       0.00000000       0.00000000 </v>
   <v>       0.00000000       0.00000000       0.00000000 </v>
   <v>       0.00000000       0.00000000       0.00000000 </v>
   <v>       0.00000000       0.00000000       0.00000000 </v>
   <v>       0.00000000       0.00000000       0.00000000 </v>
   <v>       0.00000000       0.00000000       0.00000000 </v>
   <v>       0.00000000       0.00000000       0.00000000 </v>
   <v>       0.00000000       0.00000000       0.00000000 </v>
   <v>       0.00000000       0.00000000       0.00000000 </v>
   <v>       0.00000000       0.00000000       0.00000000 </v>
   <v>       0.00000000       0.00000000       0.00000000 </v>
   <v>       0.00000000       0.00000000       0.00000000 </v>
   <v>       0.00000000       0.00000000       0.00000000 </v>
   <v>       0.00000000       0.00000000       0.00000000 </v>
   <v>       0.00000000       0.00000000       0.00000000 </v>
   <v>       0.00000000       0.00000000       0.00000000 </v>
   <v>       0.00000000       0.00000000       0.00000000 </v>
   <v>       0.00000000       0.00000000       0.00000000 </v>
   <v>       0.00000000       0.00000000       0.00000000 </v>
   <v>       0.00000000       0.00000000       0.00000000 </v>
   <v>       0.00000000       0.00000000       0.00000000 </v>
   <v>       0.00000000       0.00000000       0.00000000 </v>
   <v>       0.00000000       0.00000000       0.00000000 </v>
   <v>       0.00000000       0.00000000       0.00000000 </v>
   <v>       0.00000000       0.00000000       0.00000000 </v>
   <v>       0.00000000       0.00000000       0.00000000 </v>
   <v>       0.00000000       0.00000000       0.00000000 </v>
   <v>       0.00000000       0.00000000       0.00000000 </v>
  </varray>
 </structure>
 <calculation>
  <scstep>
   <time name="dav">   38.58   38.59</time>
   <time name="total">   39.08   39.09</time>
   <energy>
    <i name="alphaZ">   2431.37857233 </i>
    <i name="ewald"> -41714.07014829 </i>
    <i name="hartreedc"> -20659.01166677 </i>
    <i name="XCdc">   3151.73480970 </i>
    <i name="pawpsdc">  50594.51003143 </i>
    <i name="pawaedc"> -49994.65612350 </i>
    <i name="eentropy">     -0.04092890 </i>
    <i name="bandstr">    649.42259106 </i>
    <i name="atom">  64968.54023382 </i>
    <i name="e_fr_energy">   9427.80737088 </i>
    <i name="e_wo_entrp">   9427.84829978 </i>
    <i name="e_0_energy">   9427.82783533 </i>
   </energy>
  </scstep>
  <scstep>
   <time name="dav">   45.26   45.28</time>
   <time name="total">   45.26   45.28</time>
   <energy>
    <i name="e_fr_energy">     61.44150889 </i>
    <i name="e_wo_entrp">     61.44150889 </i>
    <i name="e_0_energy">     61.44150889 </i>
   </energy>
  </scstep>
  <scstep>
   <time name="dav">   45.88   45.88</time>
   <time name="total">   45.88   45.88</time>
   <energy>
    <i name="e_fr_energy">   -982.41166656 </i>
    <i name="e_wo_entrp">   -982.41166656 </i>
    <i name="e_0_energy">   -982.41166656 </i>
   </energy>
  </scstep>
  <scstep>
   <time name="dav">   48.43   48.45</time>
   <time name="total">   48.43   48.45</time>
   <energy>
    <i name="e_fr_energy">  -1034.17626177 </i>
    <i name="e_wo_entrp">  -1034.17626177 </i>
    <i name="e_0_energy">  -1034.17626177 </i>
   </energy>
  </scstep>
  <scstep>
   <time name="dav">   61.74   61.74</time>
   <time name="total">   63.32   63.32</time>
   <energy>
    <i name="e_fr_energy">  -1040.48895352 </i>
    <i name="e_wo_entrp">  -1040.48895352 </i>
    <i name="e_0_energy">  -1040.48895352 </i>
   </energy>
  </scstep>
  <scstep>
   <time name="dav">   45.34   45.34</time>
   <time name="total">   47.42   47.44</time>
   <energy>
    <i name="e_fr_energy">   -876.78821333 </i>
    <i name="e_wo_entrp">   -876.74717929 </i>
    <i name="e_0_energy">   -876.76769631 </i>
   </energy>
  </scstep>
  <scstep>
   <time name="dav">   45.33   45.33</time>
   <time name="total">   47.36   47.36</time>
   <energy>
    <i name="e_fr_energy">   -878.44302534 </i>
    <i name="e_wo_entrp">   -878.40703068 </i>
    <i name="e_0_energy">   -878.42502801 </i>
   </energy>
  </scstep>
  <scstep>
   <time name="dav">   52.05   52.04</time>
   <time name="total">   54.12   54.14</time>
   <energy>
    <i name="e_fr_energy">   -875.33945707 </i>
    <i name="e_wo_entrp">   -875.31280729 </i>
    <i name="e_0_energy">   -875.32613218 </i>
   </energy>
  </scstep>
  <scstep>
   <time name="dav">   48.96   48.96</time>
   <time name="total">   51.00   51.01</time>
   <energy>
    <i name="e_fr_energy">   -874.63106342 </i>
    <i name="e_wo_entrp">   -874.61982480 </i>
    <i name="e_0_energy">   -874.62544411 </i>
   </energy>
  </scstep>
  <scstep>
   <time name="dav">   47.94   47.94</time>
   <time name="total">   50.01   50.02</time>
   <energy>
    <i name="e_fr_energy">   -873.72796883 </i>
    <i name="e_wo_entrp">   -873.71126623 </i>
    <i name="e_0_energy">   -873.71961753 </i>
   </energy>
  </scstep>
  <scstep>
   <time name="dav">   48.22   48.22</time>
   <time name="total">   50.25   50.25</time>
   <energy>
    <i name="e_fr_energy">   -873.75773879 </i>
    <i name="e_wo_entrp">   -873.72157448 </i>
    <i name="e_0_energy">   -873.73965663 </i>
   </energy>
  </scstep>
  <scstep>
   <time name="dav">   48.06   48.06</time>
   <time name="total">   50.12   50.13</time>
   <energy>
    <i name="e_fr_energy">   -873.82067992 </i>
    <i name="e_wo_entrp">   -873.78678269 </i>
    <i name="e_0_energy">   -873.80373131 </i>
   </energy>
  </scstep>
  <scstep>
   <time name="dav">   48.89   48.89</time>
   <time name="total">   50.94   50.95</time>
   <energy>
    <i name="e_fr_energy">   -873.68764718 </i>
    <i name="e_wo_entrp">   -873.65018133 </i>
    <i name="e_0_energy">   -873.66891425 </i>
   </energy>
  </scstep>
  <scstep>
   <time name="dav">   49.72   49.72</time>
   <time name="total">   51.80   51.81</time>
   <energy>
    <i name="e_fr_energy">   -873.64446416 </i>
    <i name="e_wo_entrp">   -873.61419614 </i>
    <i name="e_0_energy">   -873.62933015 </i>
   </energy>
  </scstep>
  <scstep>
   <time name="dav">   48.74   48.74</time>
   <time name="total">   50.79   50.79</time>
   <energy>
    <i name="e_fr_energy">   -873.65750853 </i>
    <i name="e_wo_entrp">   -873.60876506 </i>
    <i name="e_0_energy">   -873.63313679 </i>
   </energy>
  </scstep>
  <scstep>
   <time name="dav">   45.87   45.87</time>
   <time name="total">   47.95   47.97</time>
   <energy>
    <i name="e_fr_energy">   -873.58965082 </i>
    <i name="e_wo_entrp">   -873.54873471 </i>
    <i name="e_0_energy">   -873.56919277 </i>
   </energy>
  </scstep>
  <scstep>
   <time name="dav">   50.50   50.50</time>
   <time name="total">   52.51   52.52</time>
   <energy>
    <i name="e_fr_energy">   -873.56495721 </i>
    <i name="e_wo_entrp">   -873.52948891 </i>
    <i name="e_0_energy">   -873.54722306 </i>
   </energy>
  </scstep>
  <scstep>
   <time name="dav">   45.81   45.81</time>
   <time name="total">   47.89   47.91</time>
   <energy>
    <i name="e_fr_energy">   -873.54760009 </i>
    <i name="e_wo_entrp">   -873.50585943 </i>
    <i name="e_0_energy">   -873.52672976 </i>
   </energy>
  </scstep>
  <scstep>
   <time name="dav">   48.95   48.95</time>
   <time name="total">   51.01   51.02</time>
   <energy>
    <i name="e_fr_energy">   -873.53277096 </i>
    <i name="e_wo_entrp">   -873.48317565 </i>
    <i name="e_0_energy">   -873.50797331 </i>
   </energy>
  </scstep>
  <scstep>
   <time name="dav">   45.99   45.99</time>
   <time name="total">   48.07   48.08</time>
   <energy>
    <i name="e_fr_energy">   -873.53391582 </i>
    <i name="e_wo_entrp">   -873.47484390 </i>
    <i name="e_0_energy">   -873.50437986 </i>
   </energy>
  </scstep>
  <scstep>
   <time name="dav">   46.48   46.48</time>
   <time name="total">   48.50   48.50</time>
   <energy>
    <i name="e_fr_energy">   -873.52927446 </i>
    <i name="e_wo_entrp">   -873.47294715 </i>
    <i name="e_0_energy">   -873.50111080 </i>
   </energy>
  </scstep>
  <scstep>
   <time name="dav">   44.71   44.71</time>
   <time name="total">   46.78   46.79</time>
   <energy>
    <i name="e_fr_energy">   -873.52843307 </i>
    <i name="e_wo_entrp">   -873.47818927 </i>
    <i name="e_0_energy">   -873.50331117 </i>
   </energy>
  </scstep>
  <scstep>
   <time name="dav">   46.49   46.49</time>
   <time name="total">   48.57   48.58</time>
   <energy>
    <i name="e_fr_energy">   -873.52786108 </i>
    <i name="e_wo_entrp">   -873.47355621 </i>
    <i name="e_0_energy">   -873.50070865 </i>
   </energy>
  </scstep>
  <scstep>
   <time name="dav">   43.20   43.20</time>
   <time name="total">   45.24   45.26</time>
   <energy>
    <i name="e_fr_energy">   -873.52776003 </i>
    <i name="e_wo_entrp">   -873.47455246 </i>
    <i name="e_0_energy">   -873.50115624 </i>
   </energy>
  </scstep>
  <scstep>
   <time name="dav">   43.70   43.70</time>
   <time name="total">   45.72   45.73</time>
   <energy>
    <i name="e_fr_energy">   -873.52784695 </i>
    <i name="e_wo_entrp">   -873.47397008 </i>
    <i name="e_0_energy">   -873.50090851 </i>
   </energy>
  </scstep>
  <scstep>
   <time name="dav">   51.10   51.10</time>
   <time name="total">   53.12   53.13</time>
   <energy>
    <i name="e_fr_energy">   -873.52781053 </i>
    <i name="e_wo_entrp">   -873.47430185 </i>
    <i name="e_0_energy">   -873.50105619 </i>
   </energy>
  </scstep>
  <scstep>
   <time name="dav">   42.41   42.41</time>
   <time name="total">   44.43   44.44</time>
   <energy>
    <i name="e_fr_energy">   -873.52781767 </i>
    <i name="e_wo_entrp">   -873.47465657 </i>
    <i name="e_0_energy">   -873.50123712 </i>
   </energy>
  </scstep>
  <scstep>
   <time name="dav">   40.61   40.61</time>
   <time name="total">   42.65   42.67</time>
   <energy>
    <i name="e_fr_energy">   -873.52781904 </i>
    <i name="e_wo_entrp">   -873.47435408 </i>
    <i name="e_0_energy">   -873.50108656 </i>
   </energy>
  </scstep>
  <scstep>
   <time name="dav">   34.51   34.51</time>
   <time name="total">   36.53   36.54</time>
   <energy>
    <i name="e_fr_energy">   -873.52781819 </i>
    <i name="e_wo_entrp">   -873.47456697 </i>
    <i name="e_0_energy">   -873.50119258 </i>
   </energy>
  </scstep>
  <scstep>
   <time name="dav">   30.52   30.52</time>
   <time name="total">   31.03   31.04</time>
   <energy>
    <i name="alphaZ">   2431.37857233 </i>
    <i name="ewald"> -41714.07014829 </i>
    <i name="hartreedc"> -22373.65996290 </i>
    <i name="XCdc">   3253.41773114 </i>
    <i name="pawpsdc">  90953.22068900 </i>
    <i name="pawaedc"> -90613.05029200 </i>
    <i name="eentropy">     -0.05341646 </i>
    <i name="bandstr">  -7779.25122418 </i>
    <i name="atom">  64968.54023382 </i>
    <i name="e_fr_energy">   -873.52781754 </i>
    <i name="e_wo_entrp">   -873.47440108 </i>
    <i name="e_0_energy">   -873.50110931 </i>
   </energy>
  </scstep>
  <structure>
   <crystal>
    <varray name="basis" >
     <v>      12.52607000       0.00000000       0.00000000 </v>
     <v>       0.00000000      12.52607000       0.00000000 </v>
     <v>       0.00000000       0.00000000      12.52607000 </v>
    </varray>
    <i name="volume">   1965.37081690 </i>
    <varray name="rec_basis" >
     <v>       0.07983350       0.00000000       0.00000000 </v>
     <v>       0.00000000       0.07983350       0.00000000 </v>
     <v>       0.00000000       0.00000000       0.07983350 </v>
    </varray>
   </crystal>
   <varray name="positions" >
    <v>       0.30494394       0.30058401       0.87121487 </v>
    <v>       0.40988362       0.42332136       0.36662701 </v>
    <v>       0.24563355       0.00259364       0.85967250 </v>
    <v>       0.08667775       0.90976412       0.32171872 </v>
    <v>       0.71382722       0.87600288       0.04415877 </v>
    <v>       0.74378379       0.65772686       0.69975850 </v>
    <v>       0.91629061       0.54419487       0.44118574 </v>
    <v>       0.09760083       0.42703482       0.23417438 </v>
    <v>       0.93024596       0.66112637       0.91018857 </v>
    <v>       0.67582045       0.13788554       0.87401707 </v>
    <v>       0.49373625       0.19307889       0.66163786 </v>
    <v>       0.96364350       0.90467675       0.92723743 </v>
    <v>       0.38836170       0.88715783       0.68474164 </v>
    <v>       0.40870582       0.52983568       0.58745871 </v>
    <v>       0.52622410       0.21127225       0.35772088 </v>
    <v>       0.78925933       0.80483424       0.35158732 </v>
    <v>       0.02152652       0.25983416       0.60361399 </v>
    <v>       0.89291509       0.77611611       0.60004592 </v>
    <v>       0.31844185       0.71155743       0.30534929 </v>
    <v>       0.42660340       0.98797249       0.33344319 </v>
    <v>       0.18242459       0.02517395       0.53685583 </v>
    <v>       0.31532446       0.57024363       0.85260590 </v>
    <v>       0.51031166       0.73240308       0.86586539 </v>
    <v>       0.41625746       0.60013977       0.07314376 </v>
    <v>       0.60507965       0.34317453       0.07484904 </v>
    <v>       0.81722878       0.13617946       0.52199290 </v>
    <v>       0.22114843       0.67040821       0.57824577 </v>
    <v>       0.64148220       0.65888038       0.47635159 </v>
    <v>       0.10861547       0.10470088       0.11359183 </v>
    <v>       0.92267103       0.85365774       0.13502572 </v>
    <v>       0.61022174       0.01258194       0.48995968 </v>
    <v>       0.24414121       0.87235376       0.10250742 </v>
    <v>       0.48557316       0.00449416       0.90024004 </v>
    <v>       0.55686419       0.04134165       0.11345015 </v>
    <v>       0.87590486       0.26170930       0.22279241 </v>
    <v>       0.75241491       0.90527235       0.75696703 </v>
    <v>       0.76509140       0.05837766       0.26125027 </v>
    <v>       0.63763454       0.43249891       0.49677731 </v>
    <v>       0.47586428       0.83597058       0.09980286 </v>
    <v>       0.24884133       0.30131849       0.42135695 </v>
    <v>       0.74128446       0.48255885       0.88316024 </v>
    <v>       0.96446662       0.18914189       0.86899346 </v>
    <v>       0.52696137       0.41442838       0.85258721 </v>
    <v>       0.50966290       0.79430081       0.40603545 </v>
    <v>       0.25224451       0.29183537       0.64358593 </v>
    <v>       0.15136321       0.79301200       0.81854755 </v>
    <v>       0.10833454       0.35241972       0.96169855 </v>
    <v>       0.33382625       0.33040269       0.14761134 </v>
    <v>       0.00962483       0.70242945       0.27520303 </v>
    <v>       0.07354562       0.14398057       0.37167153 </v>
    <v>       0.11689166       0.53054626       0.69868750 </v>
    <v>       0.87774961       0.12915131       0.06904681 </v>
    <v>       0.77678854       0.37076507       0.64356345 </v>
    <v>       0.75469532       0.45867741       0.27296632 </v>
    <v>       0.43589617       0.72300888       0.74425229 </v>
    <v>       0.37417146       0.83956288       0.45082490 </v>
    <v>       0.07936837       0.22197327       0.93909056 </v>
    <v>       0.73270785       0.41857591       0.40694375 </v>
    <v>       0.67525127       0.06055819       0.57712736 </v>
    <v>       0.78876393       0.22712552       0.68178167 </v>
    <v>       0.33324316       0.22858219       0.69854730 </v>
    <v>       0.16771466       0.43052857       0.87928667 </v>
    <v>       0.71503234       0.61735135       0.87607170 </v>
    <v>       0.23630491       0.42035615       0.36213033 </v>
    <v>       0.00496061       0.11017359       0.47036201 </v>
    <v>       0.81638331       0.02433417       0.07048266 </v>
    <v>       0.32007394       0.37311169       0.58111475 </v>
    <v>       0.90078205       0.72375593       0.20921415 </v>
    <v>       0.87733845       0.38861144       0.22042113 </v>
    <v>       0.25320072       0.55604198       0.68242564 </v>
    <v>       0.17022396       0.21290923       0.55102407 </v>
    <v>       0.63957521       0.99378485       0.19367725 </v>
    <v>       0.84362729       0.44644560       0.57761196 </v>
    <v>       0.51236165       0.28759077       0.92992025 </v>
    <v>       0.07685366       0.72714098       0.16721548 </v>
    <v>       0.35947253       0.59768349       0.42683528 </v>
    <v>       0.99544203       0.09886180       0.01994239 </v>
    <v>       0.24897501       0.79811837       0.89740588 </v>
    <v>       0.99920850       0.05841518       0.83915037 </v>
    <v>       0.68090215       0.86735254       0.65957942 </v>
    <v>       0.94142113       0.24104404       0.32669049 </v>
    <v>       0.67006528       0.38969918       0.93003550 </v>
    <v>       0.75666208       0.65158218       0.54021641 </v>
    <v>       0.41498188       0.94633522       0.01245753 </v>
    <v>       0.27280961       0.47394387       0.13959643 </v>
    <v>       0.33239303       0.31412591       0.02165090 </v>
    <v>       0.05656811       0.54856484       0.58056155 </v>
    <v>       0.12804950       0.27564037       0.40373292 </v>
    <v>       0.78067862       0.59388034       0.29721314 </v>
    <v>       0.88109254       0.96468681       0.29520812 </v>
    <v>       0.78062232       0.17757495       0.20619449 </v>
    <v>       0.84490862       0.50738765       0.94879873 </v>
    <v>       0.03455050       0.81982627       0.79833894 </v>
    <v>       0.86164979       0.16554651       0.94392329 </v>
    <v>       0.08015861       0.61300393       0.78303260 </v>
    <v>       0.15001769       0.37328108       0.64792794 </v>
    <v>       0.44658214       0.30676714       0.21230466 </v>
    <v>       0.61304331       0.53385965       0.42577568 </v>
    <v>       0.48821574       0.09417394       0.80252005 </v>
    <v>       0.49055228       0.13156427       0.19070552 </v>
    <v>       0.72697203       0.07013067       0.38147761 </v>
    <v>       0.62267966       0.52454926       0.59482038 </v>
    <v>       0.18180041       0.01414290       0.04494540 </v>
    <v>       0.18512226       0.08081379       0.35939438 </v>
    <v>       0.41926291       0.44752990       0.76646758 </v>
    <v>       0.56541397       0.77647219       0.02787387 </v>
    <v>       0.62988130       0.72312134       0.35471828 </v>
    <v>       0.55323427       0.73001968       0.53830213 </v>
    <v>       0.00278508       0.27593851       0.77541911 </v>
    <v>       0.85708457       0.80343280       0.78997110 </v>
    <v>       0.27540865       0.03424302       0.70591505 </v>
    <v>       0.33552777       0.25578456       0.35198014 </v>
    <v>       0.46574419       0.49202148       0.94696818 </v>
    <v>       0.76517003       0.47512405       0.74081457 </v>
    <v>       0.64082024       0.34937519       0.62471393 </v>
    <v>       0.59278823       0.93226882       0.42128850 </v>
    <v>       0.57254463       0.03012838       0.99175424 </v>
    <v>       0.34736888       0.79694305       0.06370997 </v>
    <v>       0.95780382       0.78683738       0.46371298 </v>
    <v>       0.20903921       0.79959965       0.70474309 </v>
    <v>       0.85744045       0.78680728       0.00135742 </v>
    <v>       0.47854671       0.95113137       0.15597068 </v>
    <v>       0.11616350       0.63809171       0.31576497 </v>
    <v>       0.92212745       0.24722071       0.10109801 </v>
    <v>       0.49609206       0.76145566       0.25045993 </v>
    <v>       0.73136514       0.99537226       0.84670966 </v>
    <v>       0.23699611       0.87909400       0.23726350 </v>
    <v>       0.05067931       0.08928122       0.24255723 </v>
    <v>       0.02424917       0.88139277       0.09641245 </v>
    <v>       0.47505243       0.09866286       0.47141434 </v>
    <v>       0.20068185       0.20357752       0.14170920 </v>
    <v>       0.66946592       0.41067224       0.20301662 </v>
    <v>       0.07530728       0.44060589       0.04535648 </v>
    <v>       0.53935759       0.91837135       0.82305137 </v>
    <v>       0.56242565       0.34500480       0.44045760 </v>
   </varray>
  </structure>
  <varray name="forces" >
   <v>       1.09213118      -0.44803073      -2.53216188 </v>
   <v>       0.91583103       1.75215649      -1.01011826 </v>
   <v>      -1.30197783       0.76853618       1.12733840 </v>
   <v>      -0.57062502       1.67555502      -0.85640401 </v>
   <v>       0.23271186      -0.22399551      -1.03031675 </v>
   <v>      -2.35958710      -1.90825504       3.51411815 </v>
   <v>      -0.76872622      -0.63536302       1.54933248 </v>
   <v>       1.21343536       0.03650885      -0.61193859 </v>
   <v>      -0.43053775      -2.29095776      -0.09233251 </v>
   <v>      -0.08738752       3.65650038      -0.42076273 </v>
   <v>       0.37702823       0.41161757      -1.18636996 </v>
   <v>      -0.16001291       3.48391877      -1.14466848 </v>
   <v>       0.48006253      -0.79710965      -0.05220691 </v>
   <v>       1.37909416      -0.25748484       1.12018500 </v>
   <v>      -0.37620807       0.61442448      -2.53383948 </v>
   <v>       0.77895718      -0.69298825      -0.57018687 </v>
   <v>      -1.10378499       1.21284101       0.45720062 </v>
   <v>       0.39327653       0.15130595       2.25574115 </v>
   <v>      -1.25188529      -0.84820723       0.45110716 </v>
   <v>      -1.90581924       1.18619157      -1.21477405 </v>
   <v>       0.69586621       1.84193803       1.83487998 </v>
   <v>      -1.18798570      -0.55567290      -1.74728096 </v>
   <v>       4.24500687       0.69317171       2.80726008 </v>
   <v>      -0.28182366      -1.65349265       1.50918856 </v>
   <v>      -2.58033968      -1.60931640       0.70371745 </v>
   <v>       1.00275762       0.83902147      -0.05261538 </v>
   <v>      -0.66113786       2.16258442      -2.82347736 </v>
   <v>       0.34654527      -4.49815915      -1.16914740 </v>
   <v>       0.25880611       2.20980802       0.84068180 </v>
   <v>     -10.69444677      -5.99686611       3.06578807 </v>
   <v>      -0.86430555      15.72237128       7.40871275 </v>
   <v>      -1.98562893       2.17580950       0.93571674 </v>
   <v>      -1.25350470      -2.23984726      -1.84127045 </v>
   <v>      -5.03259817       5.48388425       5.81196372 </v>
   <v>       3.44752028       2.65035718       0.22153312 </v>
   <v>       0.73589679      -1.97746147       2.11711827 </v>
   <v>       0.75567929      -4.13421979      -0.84305234 </v>
   <v>      -0.04675120      -1.91417497       2.21507296 </v>
   <v>      -1.80072306      -0.19765798       0.64360538 </v>
   <v>      -3.28165658       3.08617278       2.05338888 </v>
   <v>       3.41450786       4.91788656      -3.15401044 </v>
   <v>       4.34186199      -2.58515875      -2.85870877 </v>
   <v>      -3.57598091      -2.27954806       3.42752449 </v>
   <v>       0.76772890      -2.38301824       1.05613981 </v>
   <v>      -7.25426553       1.58308668      -5.42862605 </v>
   <v>       2.44875608      -2.55005060      -3.97753749 </v>
   <v>      -1.62981135       1.33480879       0.43106033 </v>
   <v>      -0.62250051       1.40067644      -0.62344085 </v>
   <v>       3.99428459      -2.32855018      -1.58343290 </v>
   <v>       0.52364366       4.69526276      -3.94411389 </v>
   <v>       1.91287109      -4.48782897      -3.97334116 </v>
   <v>       4.23881907       2.38037631      -3.36548454 </v>
   <v>      -3.87943778      -3.19782970       6.13492315 </v>
   <v>       3.77942529       3.15885737       4.56578205 </v>
   <v>      -3.90157073      -1.23307173      -4.47416158 </v>
   <v>       3.17347959      -0.10919036      -1.73164659 </v>
   <v>       2.66977061       4.05297491       0.78757202 </v>
   <v>       5.14533337      -2.20215643      -2.57338711 </v>
   <v>       1.12742226       1.05798200       3.69572427 </v>
   <v>       1.18949445       2.90493406      -1.40930987 </v>
   <v>       3.53345039      -3.64422955       5.69664030 </v>
   <v>       2.24337267      -0.89245169      -1.89589510 </v>
   <v>      -2.55070877      -0.29151415      -0.78325670 </v>
   <v>      -0.10693518       0.66040158       0.55980387 </v>
   <v>      -1.71839936      -2.09852533       2.84242607 </v>
   <v>      -3.04227603      -3.59563780       1.79849615 </v>
   <v>       3.63236787       2.04385418      -5.86549019 </v>
   <v>      -3.15248522       3.02910360       0.59434746 </v>
   <v>      -2.95664749       4.47161688       1.75990596 </v>
   <v>      -1.17686488      -0.84985631       1.82900892 </v>
   <v>       5.31687557      -1.61268426       3.48980019 </v>
   <v>       8.30460892      -0.12970992       3.00768169 </v>
   <v>       3.41281226       0.25347804      -3.41505670 </v>
   <v>      -0.21917126       1.51056403      -3.88461479 </v>
   <v>       1.72252811       0.89193380      -1.14527331 </v>
   <v>       0.28300239       0.71583679       0.58303787 </v>
   <v>       4.49695882      -3.96921331       5.96675824 </v>
   <v>      -0.72318915       0.32048331       1.99964606 </v>
   <v>      -0.44154387       1.22347366      -1.67634578 </v>
   <v>       1.71338341      -0.52091528      -0.03038183 </v>
   <v>       1.10502676      -1.71081124       1.93644111 </v>
   <v>      -1.10046435       0.66481945      -2.56314706 </v>
   <v>       1.86949166       2.44272240      -3.64224388 </v>
   <v>      -2.04442151       2.59341458      -7.68810419 </v>
   <v>       2.52206888      -1.58620514       1.11908749 </v>
   <v>      -0.00381680      -0.38323241       2.21110780 </v>
   <v>       0.36158565       1.10690659       1.04326514 </v>
   <v>      -5.80486690      -1.99178845      -4.06659776 </v>
   <v>       0.95733295      -3.23962880      -0.16195981 </v>
   <v>      -3.08773421       0.51597091      -1.98341234 </v>
   <v>      -2.86637255      -1.85703705      -0.09118008 </v>
   <v>       2.40210139      -0.90517056       0.93649598 </v>
   <v>      -1.01999619       0.39998068       1.35680862 </v>
   <v>      -5.40109382       2.62271175      -3.09389817 </v>
   <v>      -0.93854865       1.76331244       2.70470296 </v>
   <v>      -2.36356766       2.27751241       3.30889918 </v>
   <v>      -1.41446611       3.40660184      -1.90366134 </v>
   <v>      -3.36722956       6.84516019      -2.81919167 </v>
   <v>      -0.54668951       0.95988202       2.33627181 </v>
   <v>       2.67017992      -1.33376814      -1.96258642 </v>
   <v>      -1.70154211       0.82813380       1.04379485 </v>
   <v>      -1.56980004       0.71680200       1.17676495 </v>
   <v>       1.67134779      -2.58962297       0.95577174 </v>
   <v>       1.86568276      -3.02748401       2.97154431 </v>
   <v>       3.05833291      -1.45696171       0.58685942 </v>
   <v>      -0.97048721       0.14308005       2.29968800 </v>
   <v>       0.09154948       1.47590963       3.31190265 </v>
   <v>      -1.76305979       1.81039284      -1.97054129 </v>
   <v>      -2.50714582      -0.84252297       0.92125050 </v>
   <v>      -4.57566095       2.51567981      -2.05775910 </v>
   <v>       0.14241439      -1.93161801      -1.70474136 </v>
   <v>       3.93731222      -3.43273597       0.12342572 </v>
   <v>       1.15099058       1.98769274       0.89575970 </v>
   <v>      -0.41176271      -2.09408795       2.95529981 </v>
   <v>       1.73060935      -0.48038819      -1.16740492 </v>
   <v>      -4.47552164     -17.12279895     -11.67834336 </v>
   <v>       4.66724200       2.32808156      -1.00558181 </v>
[...]
       <r>     3.0113    25.9927   855.3577 </r>
       <r>     3.1846    56.7926   865.1979 </r>
       <r>     3.3579     4.7130   866.0145 </r>
       <r>     3.5311    17.0326   868.9657 </r>
       <r>     3.7044     6.3740   870.0701 </r>
       <r>     3.8777    11.1248   871.9977 </r>
       <r>     4.0509     6.9206   873.1968 </r>
       <r>     4.2242     6.6726   874.3529 </r>
       <r>     4.3975    11.3469   876.3189 </r>
       <r>     4.5707     9.6996   877.9996 </r>
       <r>     4.7440     0.0507   878.0083 </r>
       <r>     4.9173    18.5491   881.2223 </r>
       <r>     5.0905    12.3200   883.3569 </r>
       <r>     5.2638    15.1474   885.9814 </r>
       <r>     5.4371    28.0267   890.8375 </r>
       <r>     5.6103    16.5195   893.6998 </r>
       <r>     5.7836    36.3544   899.9988 </r>
       <r>     5.9569    23.8067   904.1237 </r>
       <r>     6.1301    47.1687   912.2964 </r>
       <r>     6.3034    34.2832   918.2365 </r>
       <r>     6.4767    43.3258   925.7434 </r>
       <r>     6.6499    41.4852   932.9314 </r>
       <r>     6.8232    48.2244   941.2870 </r>
       <r>     6.9965    62.5537   952.1255 </r>
       <r>     7.1697    51.7156   961.0860 </r>
       <r>     7.3430    52.1829   970.1275 </r>
       <r>     7.5163    75.1458   983.1478 </r>
       <r>     7.6895    73.2324   995.8365 </r>
       <r>     7.8628    84.4837  1010.4746 </r>
       <r>     8.0361    74.7116  1023.4196 </r>
       <r>     8.2093    74.0831  1036.2557 </r>
       <r>     8.3826    21.6072  1039.9995 </r>
       <r>     8.5559     0.0029  1040.0000 </r>
       <r>     8.7291     0.0000  1040.0000 </r>
       <r>     8.9024     0.0000  1040.0000 </r>
       <r>     9.0757     0.0000  1040.0000 </r>
       <r>     9.2489     0.0000  1040.0000 </r>
       <r>     9.4222     0.0000  1040.0000 </r>
       <r>     9.5955     0.0000  1040.0000 </r>
       <r>     9.7687     0.0000  1040.0000 </r>
       <r>     9.9420     0.0000  1040.0000 </r>
       <r>    10.1153     0.0000  1040.0000 </r>
       <r>    10.2885     0.0000  1040.0000 </r>
       <r>    10.4618     0.0000  1040.0000 </r>
       <r>    10.6350     0.0000  1040.0000 </r>
      </set>
     </set>
    </array>
   </total>
  </dos>
 </calculation>
 <structure name="finalpos" >
  <crystal>
   <varray name="basis" >
    <v>      12.52607000       0.00000000       0.00000000 </v>
    <v>       0.00000000      12.52607000       0.00000000 </v>
    <v>       0.00000000       0.00000000      12.52607000 </v>
   </varray>
   <i name="volume">   1965.37081690 </i>
   <varray name="rec_basis" >
    <v>       0.07983350       0.00000000       0.00000000 </v>
    <v>       0.00000000       0.07983350       0.00000000 </v>
    <v>       0.00000000       0.00000000       0.07983350 </v>
   </varray>
  </crystal>
  <varray name="positions" >
   <v>       0.30494394       0.30058401       0.87121487 </v>
   <v>       0.40988362       0.42332136       0.36662701 </v>
   <v>       0.24563355       0.00259364       0.85967250 </v>
   <v>       0.08667775       0.90976412       0.32171872 </v>
   <v>       0.71382722       0.87600288       0.04415877 </v>
   <v>       0.74378379       0.65772686       0.69975850 </v>
   <v>       0.91629061       0.54419487       0.44118574 </v>
   <v>       0.09760083       0.42703482       0.23417438 </v>
   <v>       0.93024596       0.66112637       0.91018857 </v>
   <v>       0.67582045       0.13788554       0.87401707 </v>
   <v>       0.49373625       0.19307889       0.66163786 </v>
   <v>       0.96364350       0.90467675       0.92723743 </v>
   <v>       0.38836170       0.88715783       0.68474164 </v>
   <v>       0.40870582       0.52983568       0.58745871 </v>
   <v>       0.52622410       0.21127225       0.35772088 </v>
   <v>       0.78925933       0.80483424       0.35158732 </v>
   <v>       0.02152652       0.25983416       0.60361399 </v>
   <v>       0.89291509       0.77611611       0.60004592 </v>
   <v>       0.31844185       0.71155743       0.30534929 </v>
   <v>       0.42660340       0.98797249       0.33344319 </v>
   <v>       0.18242459       0.02517395       0.53685583 </v>
   <v>       0.31532446       0.57024363       0.85260590 </v>
   <v>       0.51031166       0.73240308       0.86586539 </v>
   <v>       0.41625746       0.60013977       0.07314376 </v>
   <v>       0.60507965       0.34317453       0.07484904 </v>
   <v>       0.81722878       0.13617946       0.52199290 </v>
   <v>       0.22114843       0.67040821       0.57824577 </v>
   <v>       0.64148220       0.65888038       0.47635159 </v>
   <v>       0.10861547       0.10470088       0.11359183 </v>
   <v>       0.92267103       0.85365774       0.13502572 </v>
   <v>       0.61022174       0.01258194       0.48995968 </v>
   <v>       0.24414121       0.87235376       0.10250742 </v>
   <v>       0.48557316       0.00449416       0.90024004 </v>
   <v>       0.55686419       0.04134165       0.11345015 </v>
   <v>       0.87590486       0.26170930       0.22279241 </v>
   <v>       0.75241491       0.90527235       0.75696703 </v>
   <v>       0.76509140       0.05837766       0.26125027 </v>
   <v>       0.63763454       0.43249891       0.49677731 </v>
   <v>       0.47586428       0.83597058       0.09980286 </v>
   <v>       0.24884133       0.30131849       0.42135695 </v>
   <v>       0.74128446       0.48255885       0.88316024 </v>
   <v>       0.96446662       0.18914189       0.86899346 </v>
   <v>       0.52696137       0.41442838       0.85258721 </v>
   <v>       0.50966290       0.79430081       0.40603545 </v>
   <v>       0.25224451       0.29183537       0.64358593 </v>
   <v>       0.15136321       0.79301200       0.81854755 </v>
   <v>       0.10833454       0.35241972       0.96169855 </v>
   <v>       0.33382625       0.33040269       0.14761134 </v>
   <v>       0.00962483       0.70242945       0.27520303 </v>
   <v>       0.07354562       0.14398057       0.37167153 </v>
   <v>       0.11689166       0.53054626       0.69868750 </v>
   <v>       0.87774961       0.12915131       0.06904681 </v>
   <v>       0.77678854       0.37076507       0.64356345 </v>
   <v>       0.75469532       0.45867741       0.27296632 </v>
   <v>       0.43589617       0.72300888       0.74425229 </v>
   <v>       0.37417146       0.83956288       0.45082490 </v>
   <v>       0.07936837       0.22197327       0.93909056 </v>
   <v>       0.73270785       0.41857591       0.40694375 </v>
   <v>       0.67525127       0.06055819       0.57712736 </v>
   <v>       0.78876393       0.22712552       0.68178167 </v>
   <v>       0.33324316       0.22858219       0.69854730 </v>
   <v>       0.16771466       0.43052857       0.87928667 </v>
   <v>       0.71503234       0.61735135       0.87607170 </v>
   <v>       0.23630491       0.42035615       0.36213033 </v>
   <v>       0.00496061       0.11017359       0.47036201 </v>
   <v>       0.81638331       0.02433417       0.07048266 </v>
   <v>       0.32007394       0.37311169       0.58111475 </v>
   <v>       0.90078205       0.72375593       0.20921415 </v>
   <v>       0.87733845       0.38861144       0.22042113 </v>
   <v>       0.25320072       0.55604198       0.68242564 </v>
   <v>       0.17022396       0.21290923       0.55102407 </v>
   <v>       0.63957521       0.99378485       0.19367725 </v>
   <v>       0.84362729       0.44644560       0.57761196 </v>
   <v>       0.51236165       0.28759077       0.92992025 </v>
   <v>       0.07685366       0.72714098       0.16721548 </v>
   <v>       0.35947253       0.59768349       0.42683528 </v>
   <v>       0.99544203       0.09886180       0.01994239 </v>
   <v>       0.24897501       0.79811837       0.89740588 </v>
   <v>       0.99920850       0.05841518       0.83915037 </v>
   <v>       0.68090215       0.86735254       0.65957942 </v>
   <v>       0.94142113       0.24104404       0.32669049 </v>
   <v>       0.67006528       0.38969918       0.93003550 </v>
   <v>       0.75666208       0.65158218       0.54021641 </v>
   <v>       0.41498188       0.94633522       0.01245753 </v>
   <v>       0.27280961       0.47394387       0.13959643 </v>
   <v>       0.33239303       0.31412591       0.02165090 </v>
   <v>       0.05656811       0.54856484       0.58056155 </v>
   <v>       0.12804950       0.27564037       0.40373292 </v>
   <v>       0.78067862       0.59388034       0.29721314 </v>
   <v>       0.88109254       0.96468681       0.29520812 </v>
   <v>       0.78062232       0.17757495       0.20619449 </v>
   <v>       0.84490862       0.50738765       0.94879873 </v>
   <v>       0.03455050       0.81982627       0.79833894 </v>
   <v>       0.86164979       0.16554651       0.94392329 </v>
   <v>       0.08015861       0.61300393       0.78303260 </v>
   <v>       0.15001769       0.37328108       0.64792794 </v>
   <v>       0.44658214       0.30676714       0.21230466 </v>
   <v>       0.61304331       0.53385965       0.42577568 </v>
   <v>       0.48821574       0.09417394       0.80252005 </v>
   <v>       0.49055228       0.13156427       0.19070552 </v>
   <v>       0.72697203       0.07013067       0.38147761 </v>
   <v>       0.62267966       0.52454926       0.59482038 </v>
   <v>       0.18180041       0.01414290       0.04494540 </v>
   <v>       0.18512226       0.08081379       0.35939438 </v>
   <v>       0.41926291       0.44752990       0.76646758 </v>
   <v>       0.56541397       0.77647219       0.02787387 </v>
   <v>       0.62988130       0.72312134       0.35471828 </v>
   <v>       0.55323427       0.73001968       0.53830213 </v>
   <v>       0.00278508       0.27593851       0.77541911 </v>
   <v>       0.85708457       0.80343280       0.78997110 </v>
   <v>       0.27540865       0.03424302       0.70591505 </v>
   <v>       0.33552777       0.25578456       0.35198014 </v>
   <v>       0.46574419       0.49202148       0.94696818 </v>
   <v>       0.76517003       0.47512405       0.74081457 </v>
   <v>       0.64082024       0.34937519       0.62471393 </v>
   <v>       0.59278823       0.93226882       0.42128850 </v>
   <v>       0.57254463       0.03012838       0.99175424 </v>
   <v>       0.34736888       0.79694305       0.06370997 </v>
   <v>       0.95780382       0.78683738       0.46371298 </v>
   <v>       0.20903921       0.79959965       0.70474309 </v>
   <v>       0.85744045       0.78680728       0.00135742 </v>
   <v>       0.47854671       0.95113137       0.15597068 </v>
   <v>       0.11616350       0.63809171       0.31576497 </v>
   <v>       0.92212745       0.24722071       0.10109801 </v>
   <v>       0.49609206       0.76145566       0.25045993 </v>
   <v>       0.73136514       0.99537226       0.84670966 </v>
   <v>       0.23699611       0.87909400       0.23726350 </v>
   <v>       0.05067931       0.08928122       0.24255723 </v>
   <v>       0.02424917       0.88139277       0.09641245 </v>
   <v>       0.47505243       0.09866286       0.47141434 </v>
   <v>       0.20068185       0.20357752       0.14170920 </v>
   <v>       0.66946592       0.41067224       0.20301662 </v>
   <v>       0.07530728       0.44060589       0.04535648 </v>
   <v>       0.53935759       0.91837135       0.82305137 </v>
   <v>       0.56242565       0.34500480       0.44045760 </v>
  </varray>
  <varray name="velocities" >
   <v>       0.00000000       0.00000000       0.00000000 </v>
   <v>       0.00000000       0.00000000       0.00000000 </v>
   <v>       0.00000000       0.00000000       0.00000000 </v>
   <v>       0.00000000       0.00000000       0.00000000 </v>
   <v>       0.00000000       0.00000000       0.00000000 </v>
   <v>       0.00000000       0.00000000       0.00000000 </v>
   <v>       0.00000000       0.00000000       0.00000000 </v>
   <v>       0.00000000       0.00000000       0.00000000 </v>
   <v>       0.00000000       0.00000000       0.00000000 </v>
   <v>       0.00000000       0.00000000       0.00000000 </v>
   <v>       0.00000000       0.00000000       0.00000000 </v>
   <v>       0.00000000       0.00000000       0.00000000 </v>
   <v>       0.00000000       0.00000000       0.00000000 </v>
   <v>       0.00000000       0.00000000       0.00000000 </v>
   <v>       0.00000000       0.00000000       0.00000000 </v>
   <v>       0.00000000       0.00000000       0.00000000 </v>
   <v>       0.00000000       0.00000000       0.00000000 </v>
   <v>       0.00000000       0.00000000       0.00000000 </v>
   <v>       0.00000000       0.00000000       0.00000000 </v>
   <v>       0.00000000       0.00000000       0.00000000 </v>
   <v>       0.00000000       0.00000000       0.00000000 </v>
   <v>       0.00000000       0.00000000       0.00000000 </v>
   <v>       0.00000000       0.00000000       0.00000000 </v>
   <v>       0.00000000       0.00000000       0.00000000 </v>
   <v>       0.00000000       0.00000000       0.00000000 </v>
   <v>       0.00000000       0.00000000       0.00000000 </v>
   <v>       0.00000000       0.00000000       0.00000000 </v>
   <v>       0.00000000       0.00000000       0.00000000 </v>
   <v>       0.00000000       0.00000000       0.00000000 </v>
   <v>       0.00000000       0.00000000       0.00000000 </v>
   <v>       0.00000000       0.00000000       0.00000000 </v>
   <v>       0.00000000       0.00000000       0.00000000 </v>
   <v>       0.00000000       0.00000000       0.00000000 </v>
   <v>       0.00000000       0.00000000       0.00000000 </v>
   <v>       0.00000000       0.00000000       0.00000000 </v>
   <v>       0.00000000       0.00000000       0.00000000 </v>
   <v>       0.00000000       0.00000000       0.00000000 </v>
   <v>       0.00000000       0.00000000       0.00000000 </v>
   <v>       0.00000000       0.00000000       0.00000000 </v>
   <v>       0.00000000       0.00000000       0.00000000 </v>
   <v>       0.00000000       0.00000000       0.00000000 </v>
   <v>       0.00000000       0.00000000       0.00000000 </v>
   <v>       0.00000000       0.00000000       0.00000000 </v>
   <v>       0.00000000       0.00000000       0.00000000 </v>
   <v>       0.00000000       0.00000000       0.00000000 </v>
   <v>       0.00000000       0.00000000       0.00000000 </v>
   <v>       0.00000000       0.00000000       0.00000000 </v>
   <v>       0.00000000       0.00000000       0.00000000 </v>
   <v>       0.00000000       0.00000000       0.00000000 </v>
   <v>       0.00000000       0.00000000       0.00000000 </v>
   <v>       0.00000000       0.00000000       0.00000000 </v>
   <v>       0.00000000       0.00000000       0.00000000 </v>
   <v>       0.00000000       0.00000000       0.00000000 </v>
   <v>       0.00000000       0.00000000       0.00000000 </v>
   <v>       0.00000000       0.00000000       0.00000000 </v>
   <v>       0.00000000       0.00000000       0.00000000 </v>
   <v>       0.00000000       0.00000000       0.00000000 </v>
   <v>       0.00000000       0.00000000       0.00000000 </v>
   <v>       0.00000000       0.00000000       0.00000000 </v>
   <v>       0.00000000       0.00000000       0.00000000 </v>
   <v>       0.00000000       0.00000000       0.00000000 </v>
   <v>       0.00000000       0.00000000       0.00000000 </v>
   <v>       0.00000000       0.00000000       0.00000000 </v>
   <v>       0.00000000       0.00000000       0.00000000 </v>
   <v>       0.00000000       0.00000000       0.00000000 </v>
   <v>       0.00000000       0.00000000       0.00000000 </v>
   <v>       0.00000000       0.00000000       0.00000000 </v>
   <v>       0.00000000       0.00000000       0.00000000 </v>
   <v>       0.00000000       0.00000000       0.00000000 </v>
   <v>       0.00000000       0.00000000       0.00000000 </v>
   <v>       0.00000000       0.00000000       0.00000000 </v>
   <v>       0.00000000       0.00000000       0.00000000 </v>
   <v>       0.00000000       0.00000000       0.00000000 </v>
   <v>       0.00000000       0.00000000       0.00000000 </v>
   <v>       0.00000000       0.00000000       0.00000000 </v>
   <v>       0.00000000       0.00000000       0.00000000 </v>
   <v>       0.00000000       0.00000000       0.00000000 </v>
   <v>       0.00000000       0.00000000       0.00000000 </v>
   <v>       0.00000000       0.00000000       0.00000000 </v>
   <v>       0.00000000       0.00000000       0.00000000 </v>
   <v>       0.00000000       0.00000000       0.00000000 </v>
   <v>       0.00000000       0.00000000       0.00000000 </v>
   <v>       0.00000000       0.00000000       0.00000000 </v>
   <v>       0.00000000       0.00000000       0.00000000 </v>
   <v>       0.00000000       0.00000000       0.00000000 </v>
   <v>       0.00000000       0.00000000       0.00000000 </v>
   <v>       0.00000000       0.00000000       0.00000000 </v>
   <v>       0.00000000       0.00000000       0.00000000 </v>
   <v>       0.00000000       0.00000000       0.00000000 </v>
   <v>       0.00000000       0.00000000       0.00000000 </v>
   <v>       0.00000000       0.00000000       0.00000000 </v>
   <v>       0.00000000       0.00000000       0.00000000 </v>
   <v>       0.00000000       0.00000000       0.00000000 </v>
   <v>       0.00000000       0.00000000       0.00000000 </v>
   <v>       0.00000000       0.00000000       0.00000000 </v>
   <v>       0.00000000       0.00000000       0.00000000 </v>
   <v>       0.00000000       0.00000000       0.00000000 </v>
   <v>       0.00000000       0.00000000       0.00000000 </v>
   <v>       0.00000000       0.00000000       0.00000000 </v>
   <v>       0.00000000       0.00000000       0.00000000 </v>
   <v>       0.00000000       0.00000000       0.00000000 </v>
   <v>       0.00000000       0.00000000       0.00000000 </v>
   <v>       0.00000000       0.00000000       0.00000000 </v>
   <v>       0.00000000       0.00000000       0.00000000 </v>
   <v>       0.00000000       0.00000000       0.00000000 </v>
   <v>       0.00000000       0.00000000       0.00000000 </v>
   <v>       0.00000000       0.00000000       0.00000000 </v>
   <v>       0.00000000       0.00000000       0.00000000 </v>
   <v>       0.00000000       0.00000000       0.00000000 </v>
   <v>       0.00000000       0.00000000       0.00000000 </v>
   <v>       0.00000000       0.00000000       0.00000000 </v>
   <v>       0.00000000       0.00000000       0.00000000 </v>
   <v>       0.00000000       0.00000000       0.00000000 </v>
   <v>       0.00000000       0.00000000       0.00000000 </v>
   <v>       0.00000000       0.00000000       0.00000000 </v>
   <v>       0.00000000       0.00000000       0.00000000 </v>
   <v>       0.00000000       0.00000000       0.00000000 </v>
   <v>       0.00000000       0.00000000       0.00000000 </v>
   <v>       0.00000000       0.00000000       0.00000000 </v>
   <v>       0.00000000       0.00000000       0.00000000 </v>
   <v>       0.00000000       0.00000000       0.00000000 </v>
   <v>       0.00000000       0.00000000       0.00000000 </v>
   <v>       0.00000000       0.00000000       0.00000000 </v>
   <v>       0.00000000       0.00000000       0.00000000 </v>
   <v>       0.00000000       0.00000000       0.00000000 </v>
   <v>       0.00000000       0.00000000       0.00000000 </v>
   <v>       0.00000000       0.00000000       0.00000000 </v>
   <v>       0.00000000       0.00000000       0.00000000 </v>
   <v>       0.00000000       0.00000000       0.00000000 </v>
   <v>       0.00000000       0.00000000       0.00000000 </v>
   <v>       0.00000000       0.00000000       0.00000000 </v>
   <v>       0.00000000       0.00000000       0.00000000 </v>
   <v>       0.00000000       0.00000000       0.00000000 </v>
   <v>       0.00000000       0.00000000       0.00000000 </v>
   <v>       0.00000000       0.00000000       0.00000000 </v>
  </varray>
 </structure>
</modeling>
