<?xml version="1.0" encoding="ISO-8859-1"?>
<modeling>
 <generator>
  <i name="program" type="string">vasp </i>
  <i name="version" type="string">5.4.4.18Apr17-6-g9f103f2a35  </i>
  <i name="subversion" type="string">(build Oct 31 2019 15:01:46) complex            parallel </i>
  <i name="platform" type="string">LinuxIFC </i>
  <i name="date" type="string">2024 04 30 </i>
  <i name="time" type="string">04:06:29 </i>
 </generator>
 <incar>
  <i type="int" name="ISTART">     0</i>
  <i type="string" name="PREC">a</i>
  <i type="logical" name="ADDGRID"> T  </i>
  <i type="int" name="IBRION">    -1</i>
  <i name="EDIFF">      0.00000100</i>
  <i name="EDIFFG">     -0.01000000</i>
  <i type="int" name="NSW">     1</i>
  <i type="int" name="ISIF">     2</i>
  <i type="int" name="ISYM">     0</i>
  <i name="ENCUT">    600.00000000</i>
  <i name="POTIM">      1.00000000</i>
  <i type="string" name="LREAL">  Auto</i>
  <i type="int" name="ISMEAR">     0</i>
  <i name="SIGMA">      0.05000000</i>
  <i name="KSPACING">      0.30000000</i>
  <i type="logical" name="KGAMMA"> T  </i>
  <i type="logical" name="LWAVE"> F  </i>
  <i type="logical" name="LCHARG"> F  </i>
  <i type="logical" name="LSCALAPACK"> F  </i>
  <v type="int" name="KPOINT_BSE">    -1     0     0     0</v>
 </incar>
 <structure name="primitive_cell" >
  <crystal>
   <varray name="basis" >
    <v>      11.12194768       0.00000000       0.00000000 </v>
    <v>       0.00000000      11.12194768       0.00000000 </v>
    <v>       0.00000000       0.00000000      11.12194768 </v>
   </varray>
   <i name="volume">   1375.75957216 </i>
   <varray name="rec_basis" >
    <v>       0.08991231       0.00000000       0.00000000 </v>
    <v>       0.00000000       0.08991231       0.00000000 </v>
    <v>       0.00000000       0.00000000       0.08991231 </v>
   </varray>
  </crystal>
  <varray name="positions" >
   <v>      -0.09307123      -0.49111583       0.05836429 </v>
   <v>      -0.09432200       0.37221980      -0.07183939 </v>
   <v>      -0.12004666      -0.37337176      -0.09065052 </v>
   <v>      -0.16109605       0.31068794       0.09653729 </v>
   <v>       0.06292833      -0.34415945       0.05278724 </v>
   <v>      -0.04754791      -0.39946091       0.24893394 </v>
   <v>      -0.18334568      -0.38010127       0.24563188 </v>
   <v>      -0.31504284       0.46957039       0.14544628 </v>
   <v>      -0.31003711       0.44654393      -0.05883590 </v>
   <v>       0.03697532       0.30792181       0.14923500 </v>
   <v>      -0.16539619       0.36873939       0.26505321 </v>
   <v>       0.13409836       0.42755655      -0.05042119 </v>
   <v>      -0.29782086      -0.35787367       0.16501165 </v>
   <v>      -0.12794994      -0.23320223       0.12822716 </v>
   <v>      -0.03506420       0.24174503       0.04856792 </v>
   <v>      -0.20048871      -0.49729985      -0.19418620 </v>
   <v>       0.01992046      -0.20554716       0.10239642 </v>
   <v>      -0.02784444       0.31181727       0.29126148 </v>
   <v>      -0.33315687      -0.35577817      -0.09205391 </v>
   <v>      -0.22581839      -0.26818016      -0.11993942 </v>
   <v>       0.14203462      -0.42508805       0.25946726 </v>
   <v>      -0.29470221       0.27419075      -0.05564405 </v>
   <v>      -0.03213758       0.31249938      -0.20193646 </v>
   <v>       0.23987204      -0.45590371       0.07649732 </v>
   <v>       0.06258825       0.40369269       0.33799921 </v>
   <v>       0.08910374       0.28858813      -0.13165161 </v>
   <v>       0.12157464      -0.45140328      -0.20916099 </v>
   <v>      -0.28394570      -0.48375565       0.35570593 </v>
   <v>       0.07688946      -0.24993310      -0.15143697 </v>
   <v>      -0.09873052      -0.19872390      -0.15548819 </v>
   <v>      -0.22808708       0.30368107      -0.20936850 </v>
   <v>      -0.37134552       0.27107464       0.11839190 </v>
   <v>      -0.26386864       0.23635454       0.24480715 </v>
   <v>      -0.08685399       0.18280570       0.24361174 </v>
   <v>      -0.23573613      -0.28833667       0.34146487 </v>
   <v>       0.09600147      -0.21294814       0.23526230 </v>
   <v>       0.06184585      -0.38086813       0.41107068 </v>
   <v>      -0.31831945      -0.16305362       0.10599550 </v>
   <v>       0.18695249       0.21415635       0.06321933 </v>
   <v>      -0.00647088       0.10756784       0.04976888 </v>
   <v>      -0.04459286       0.38615022      -0.34413705 </v>
   <v>      -0.23405495       0.38929489       0.44113551 </v>
   <v>      -0.07168970       0.15252781      -0.17732951 </v>
   <v>       0.19131963       0.22934068       0.21689943 </v>
   <v>      -0.24920321      -0.25298378      -0.26754645 </v>
   <v>       0.49236999      -0.36173163       0.03024797 </v>
   <v>       0.27004601      -0.43204563      -0.17918148 </v>
   <v>      -0.01382630      -0.28095374      -0.32066329 </v>
   <v>       0.29888439       0.43531757      -0.12992288 </v>
   <v>       0.28220776      -0.25724149       0.07336672 </v>
   <v>       0.08576221      -0.08682339       0.03183967 </v>
   <v>       0.25152038      -0.26404299      -0.11802836 </v>
   <v>      -0.21406890      -0.36673261       0.47228033 </v>
   <v>       0.30099238       0.33108810       0.17954809 </v>
   <v>      -0.25839315       0.10253964      -0.04322547 </v>
   <v>      -0.35201592       0.27137407       0.34418355 </v>
   <v>      -0.12672440      -0.47306933      -0.48850451 </v>
   <v>       0.46082013       0.39919819       0.05107147 </v>
   <v>       0.09988108       0.19544480       0.33778198 </v>
   <v>       0.36041367       0.47572913       0.15613181 </v>
   <v>      -0.43363849      -0.30730042       0.31809232 </v>
   <v>      -0.12599756      -0.19385245      -0.30196307 </v>
   <v>       0.17214192      -0.28606468       0.39113872 </v>
   <v>      -0.09545126      -0.16963633       0.40867431 </v>
   <v>      -0.42187208      -0.41467094      -0.27828225 </v>
   <v>      -0.14953448      -0.02616186      -0.04018494 </v>
   <v>       0.48420957       0.41513354      -0.14747319 </v>
   <v>      -0.07869182      -0.02583397       0.17472796 </v>
   <v>      -0.41464864       0.20669114      -0.13578289 </v>
   <v>      -0.14848157       0.29377777       0.48676702 </v>
   <v>      -0.27277483       0.07865363       0.20534187 </v>
   <v>      -0.33589142      -0.07855244      -0.06522596 </v>
   <v>      -0.25191442       0.27463411      -0.35678994 </v>
   <v>       0.06754773      -0.41066647      -0.41201035 </v>
   <v>       0.43079239      -0.42077076       0.21202751 </v>
   <v>       0.29433786      -0.49229481       0.38356379 </v>
   <v>       0.14954817       0.07307586      -0.04536691 </v>
   <v>      -0.49891613      -0.17573458       0.10640406 </v>
   <v>       0.06568553       0.35494554      -0.47357908 </v>
   <v>       0.47206935       0.37152701       0.30377594 </v>
   <v>      -0.36391762      -0.11750814       0.30195970 </v>
   <v>       0.31323079      -0.27721514       0.32084681 </v>
   <v>       0.08673300       0.03032675       0.20456822 </v>
   <v>      -0.13743539       0.03315161       0.29272187 </v>
   <v>       0.22255625       0.26792658      -0.30545095 </v>
   <v>      -0.46433450      -0.24862260      -0.24814363 </v>
   <v>       0.24920460       0.49575040      -0.36114460 </v>
   <v>      -0.40981268       0.08121811      -0.04541294 </v>
   <v>      -0.37875771      -0.36148142      -0.49490643 </v>
   <v>       0.10297147      -0.15438068       0.44344570 </v>
   <v>       0.11920322       0.10471764      -0.24759549 </v>
   <v>      -0.32409899       0.40884288      -0.43455785 </v>
   <v>      -0.17124486      -0.25266308      -0.43888835 </v>
   <v>       0.40864135      -0.35080808      -0.16124793 </v>
   <v>       0.18590797      -0.14231031      -0.28645784 </v>
   <v>       0.35583419       0.40541869       0.38450363 </v>
   <v>      -0.01783163       0.17588949      -0.39158267 </v>
   <v>       0.28131125      -0.12856629      -0.16904405 </v>
   <v>      -0.43062458      -0.48129939      -0.40232307 </v>
   <v>       0.29292885       0.16549203       0.30335324 </v>
   <v>       0.42413927       0.20967759       0.12635273 </v>
   <v>       0.28605118      -0.05542893       0.07391960 </v>
   <v>      -0.20161762       0.15214590      -0.38459619 </v>
   <v>      -0.49086151       0.48159441       0.48479901 </v>
   <v>      -0.39355732       0.20912219      -0.35363592 </v>
   <v>       0.18470176      -0.28859145      -0.45966887 </v>
   <v>      -0.31749302       0.04872084      -0.25507642 </v>
   <v>      -0.45282427       0.02842353       0.13118236 </v>
   <v>       0.31515403       0.35640827      -0.36324855 </v>
   <v>      -0.37999863       0.02128406       0.28072446 </v>
   <v>       0.45658165       0.33995519      -0.31429779 </v>
   <v>      -0.01973861       0.01339489       0.41220594 </v>
   <v>      -0.22348341      -0.00348293       0.41051929 </v>
   <v>       0.31427987      -0.08020153       0.28440904 </v>
   <v>       0.20801929       0.14308623       0.46574600 </v>
   <v>      -0.49630976       0.24079270       0.45374827 </v>
   <v>       0.32946135       0.31992776       0.49262215 </v>
   <v>       0.42979797      -0.06834879       0.06973581 </v>
   <v>      -0.49275556       0.09538378       0.33864598 </v>
   <v>      -0.21285898      -0.06379559      -0.41057315 </v>
   <v>       0.12917297      -0.12742939      -0.42670050 </v>
   <v>       0.43695244       0.06496121      -0.00652002 </v>
   <v>      -0.10997439       0.06309164      -0.46799714 </v>
   <v>       0.41275996      -0.09359762      -0.09242394 </v>
   <v>      -0.39708124      -0.12441876      -0.49396699 </v>
   <v>       0.03574510      -0.04716348      -0.40438570 </v>
   <v>       0.42802477       0.17931465      -0.24604320 </v>
   <v>       0.33330458      -0.36690797      -0.44234245 </v>
   <v>       0.37139664      -0.18633957      -0.33268633 </v>
   <v>       0.29472513       0.00559176      -0.23424939 </v>
   <v>      -0.48478366      -0.04325239      -0.33086846 </v>
   <v>       0.40626832      -0.13337375       0.44443091 </v>
   <v>       0.24815594      -0.03140653      -0.47401087 </v>
   <v>       0.42876386       0.11287624      -0.42776119 </v>
   <v>       0.37685296      -0.05144760      -0.40220828 </v>
  </varray>
 </structure>
 <varray name="primitive_index" >
  <v type="int" >        1 </v>
  <v type="int" >       98 </v>
  <v type="int" >       85 </v>
  <v type="int" >       87 </v>
  <v type="int" >      103 </v>
  <v type="int" >      114 </v>
  <v type="int" >       37 </v>
  <v type="int" >        5 </v>
  <v type="int" >      108 </v>
  <v type="int" >       79 </v>
  <v type="int" >       76 </v>
  <v type="int" >       23 </v>
  <v type="int" >       74 </v>
  <v type="int" >      122 </v>
  <v type="int" >       44 </v>
  <v type="int" >        6 </v>
  <v type="int" >       51 </v>
  <v type="int" >       30 </v>
  <v type="int" >       62 </v>
  <v type="int" >       46 </v>
  <v type="int" >       27 </v>
  <v type="int" >       54 </v>
  <v type="int" >       35 </v>
  <v type="int" >       96 </v>
  <v type="int" >       70 </v>
  <v type="int" >      128 </v>
  <v type="int" >      117 </v>
  <v type="int" >       67 </v>
  <v type="int" >       15 </v>
  <v type="int" >       77 </v>
  <v type="int" >       60 </v>
  <v type="int" >       69 </v>
  <v type="int" >       39 </v>
  <v type="int" >      127 </v>
  <v type="int" >      107 </v>
  <v type="int" >      130 </v>
  <v type="int" >      133 </v>
  <v type="int" >       22 </v>
  <v type="int" >       55 </v>
  <v type="int" >      118 </v>
  <v type="int" >       65 </v>
  <v type="int" >       45 </v>
  <v type="int" >      111 </v>
  <v type="int" >       40 </v>
  <v type="int" >       94 </v>
  <v type="int" >       10 </v>
  <v type="int" >       29 </v>
  <v type="int" >      115 </v>
  <v type="int" >       61 </v>
  <v type="int" >       16 </v>
  <v type="int" >       91 </v>
  <v type="int" >       75 </v>
  <v type="int" >       31 </v>
  <v type="int" >       93 </v>
  <v type="int" >      110 </v>
  <v type="int" >      120 </v>
  <v type="int" >      134 </v>
  <v type="int" >       86 </v>
  <v type="int" >       66 </v>
  <v type="int" >       42 </v>
  <v type="int" >       12 </v>
  <v type="int" >       38 </v>
  <v type="int" >       36 </v>
  <v type="int" >       25 </v>
  <v type="int" >       83 </v>
  <v type="int" >       21 </v>
  <v type="int" >       13 </v>
  <v type="int" >      124 </v>
  <v type="int" >      132 </v>
  <v type="int" >       63 </v>
  <v type="int" >       81 </v>
  <v type="int" >       80 </v>
  <v type="int" >       50 </v>
  <v type="int" >       19 </v>
  <v type="int" >      113 </v>
  <v type="int" >      129 </v>
  <v type="int" >       26 </v>
  <v type="int" >      109 </v>
  <v type="int" >       14 </v>
  <v type="int" >       57 </v>
  <v type="int" >      116 </v>
  <v type="int" >      125 </v>
  <v type="int" >        8 </v>
  <v type="int" >       33 </v>
  <v type="int" >      119 </v>
  <v type="int" >       11 </v>
  <v type="int" >       59 </v>
  <v type="int" >       43 </v>
  <v type="int" >      135 </v>
  <v type="int" >       56 </v>
  <v type="int" >       24 </v>
  <v type="int" >      123 </v>
  <v type="int" >      104 </v>
  <v type="int" >       88 </v>
  <v type="int" >       68 </v>
  <v type="int" >       53 </v>
  <v type="int" >      105 </v>
  <v type="int" >       28 </v>
  <v type="int" >       49 </v>
  <v type="int" >       92 </v>
  <v type="int" >       18 </v>
  <v type="int" >       58 </v>
  <v type="int" >       97 </v>
  <v type="int" >       72 </v>
  <v type="int" >       73 </v>
  <v type="int" >       64 </v>
  <v type="int" >        2 </v>
  <v type="int" >       78 </v>
  <v type="int" >       48 </v>
  <v type="int" >       52 </v>
  <v type="int" >      112 </v>
  <v type="int" >      106 </v>
  <v type="int" >       71 </v>
  <v type="int" >        7 </v>
  <v type="int" >        3 </v>
  <v type="int" >        9 </v>
  <v type="int" >      131 </v>
  <v type="int" >       34 </v>
  <v type="int" >      100 </v>
  <v type="int" >       84 </v>
  <v type="int" >       41 </v>
  <v type="int" >      121 </v>
  <v type="int" >       32 </v>
  <v type="int" >      102 </v>
  <v type="int" >       17 </v>
  <v type="int" >       99 </v>
  <v type="int" >        4 </v>
  <v type="int" >       20 </v>
  <v type="int" >      101 </v>
  <v type="int" >       95 </v>
  <v type="int" >       90 </v>
  <v type="int" >       89 </v>
  <v type="int" >      126 </v>
  <v type="int" >       82 </v>
  <v type="int" >       47 </v>
 </varray>
 <kpoints>
  <generation param="Gamma">
   <v type="int" name="divisions">       2        2        2 </v>
   <v name="usershift">      0.00000000       0.00000000       0.00000000 </v>
   <v name="genvec1">      0.50000000       0.00000000       0.00000000 </v>
   <v name="genvec2">      0.00000000       0.50000000       0.00000000 </v>
   <v name="genvec3">      0.00000000       0.00000000       0.50000000 </v>
   <v name="shift">      0.00000000       0.00000000       0.00000000 </v>
  </generation>
  <varray name="kpointlist" >
   <v>       0.00000000       0.00000000       0.00000000 </v>
   <v>       0.50000000       0.00000000       0.00000000 </v>
   <v>       0.00000000       0.50000000       0.00000000 </v>
   <v>       0.50000000       0.50000000       0.00000000 </v>
   <v>       0.00000000       0.00000000       0.50000000 </v>
   <v>       0.50000000       0.00000000       0.50000000 </v>
   <v>       0.00000000       0.50000000       0.50000000 </v>
   <v>       0.50000000       0.50000000       0.50000000 </v>
  </varray>
  <varray name="weights" >
   <v>       0.12500000 </v>
   <v>       0.12500000 </v>
   <v>       0.12500000 </v>
   <v>       0.12500000 </v>
   <v>       0.12500000 </v>
   <v>       0.12500000 </v>
   <v>       0.12500000 </v>
   <v>       0.12500000 </v>
  </varray>
 </kpoints>
 <parameters>
  <separator name="general" >
   <i type="string" name="SYSTEM">unknown system</i>
   <i type="logical" name="LCOMPAT"> F  </i>
  </separator>
  <separator name="electronic" >
   <i type="string" name="PREC">a</i>
   <i name="ENMAX">    600.00000000</i>
   <i name="ENAUG">    605.39200000</i>
   <i name="EDIFF">      0.00000100</i>
   <i type="int" name="IALGO">    38</i>
   <i type="int" name="IWAVPR">    10</i>
   <i type="int" name="NBANDS">   520</i>
   <i name="NELECT">    864.00000000</i>
   <i type="int" name="TURBO">     0</i>
   <i type="int" name="IRESTART">     0</i>
   <i type="int" name="NREBOOT">     0</i>
   <i type="int" name="NMIN">     0</i>
   <i name="EREF">      0.00000000</i>
   <separator name="electronic smearing" >
    <i type="int" name="ISMEAR">     0</i>
    <i name="SIGMA">      0.05000000</i>
    <i name="KSPACING">      0.30000000</i>
    <i type="logical" name="KGAMMA"> T  </i>
   </separator>
   <separator name="electronic projectors" >
    <i type="logical" name="LREAL"> T  </i>
    <v name="ROPT">     -0.00025000     -0.00025000     -0.00025000</v>
    <i type="int" name="LMAXPAW">  -100</i>
    <i type="int" name="LMAXMIX">     2</i>
    <i type="logical" name="NLSPLINE"> F  </i>
   </separator>
   <separator name="electronic startup" >
    <i type="int" name="ISTART">     0</i>
    <i type="int" name="ICHARG">     2</i>
    <i type="int" name="INIWAV">     1</i>
   </separator>
   <separator name="electronic spin" >
    <i type="int" name="ISPIN">     1</i>
    <i type="logical" name="LNONCOLLINEAR"> F  </i>
    <v name="MAGMOM">      1.00000000      1.00000000      1.00000000      1.00000000      1.00000000      1.00000000      1.00000000      1.00000000      1.00000000      1.00000000      1.00000000      1.00000000      1.00000000      1.00000000      1.00000000      1.00000000      1.00000000      1.00000000      1.00000000      1.00000000
      1.00000000      1.00000000      1.00000000      1.00000000      1.00000000      1.00000000      1.00000000      1.00000000      1.00000000      1.00000000      1.00000000      1.00000000      1.00000000      1.00000000      1.00000000      1.00000000      1.00000000      1.00000000      1.00000000      1.00000000
      1.00000000      1.00000000      1.00000000      1.00000000      1.00000000      1.00000000      1.00000000      1.00000000      1.00000000      1.00000000      1.00000000      1.00000000      1.00000000      1.00000000      1.00000000      1.00000000      1.00000000      1.00000000      1.00000000      1.00000000
      1.00000000      1.00000000      1.00000000      1.00000000      1.00000000      1.00000000      1.00000000      1.00000000      1.00000000      1.00000000      1.00000000      1.00000000      1.00000000      1.00000000      1.00000000      1.00000000      1.00000000      1.00000000      1.00000000      1.00000000
      1.00000000      1.00000000      1.00000000      1.00000000      1.00000000      1.00000000      1.00000000      1.00000000      1.00000000      1.00000000      1.00000000      1.00000000      1.00000000      1.00000000      1.00000000      1.00000000      1.00000000      1.00000000      1.00000000      1.00000000
      1.00000000      1.00000000      1.00000000      1.00000000      1.00000000      1.00000000      1.00000000      1.00000000      1.00000000      1.00000000      1.00000000      1.00000000      1.00000000      1.00000000      1.00000000      1.00000000      1.00000000      1.00000000      1.00000000      1.00000000
      1.00000000      1.00000000      1.00000000      1.00000000      1.00000000      1.00000000      1.00000000      1.00000000      1.00000000      1.00000000      1.00000000      1.00000000      1.00000000      1.00000000      1.00000000</v>
    <i name="NUPDOWN">     -1.00000000</i>
    <i type="logical" name="LSORBIT"> F  </i>
    <v name="SAXIS">      0.00000000      0.00000000      1.00000000</v>
    <i type="logical" name="LSPIRAL"> F  </i>
    <v name="QSPIRAL">      0.00000000      0.00000000      0.00000000</v>
    <i type="logical" name="LZEROZ"> F  </i>
   </separator>
   <separator name="electronic exchange-correlation" >
    <i type="logical" name="LASPH"> F  </i>
    <i type="logical" name="LMETAGGA"> F  </i>
   </separator>
   <separator name="electronic convergence" >
    <i type="int" name="NELM">    60</i>
    <i type="int" name="NELMDL">    -5</i>
    <i type="int" name="NELMIN">     2</i>
    <i name="ENINI">    600.00000000</i>
    <separator name="electronic convergence detail" >
     <i type="logical" name="LDIAG"> T  </i>
     <i type="logical" name="LSUBROT"> F  </i>
     <i name="WEIMIN">      0.00000000</i>
     <i name="EBREAK">      0.00000000</i>
     <i name="DEPER">      0.30000000</i>
     <i type="int" name="NRMM">     4</i>
     <i name="TIME">      0.40000000</i>
    </separator>
   </separator>
   <separator name="electronic mixer" >
    <i name="AMIX">      0.40000000</i>
    <i name="BMIX">      1.00000000</i>
    <i name="AMIN">      0.10000000</i>
    <i name="AMIX_MAG">      1.60000000</i>
    <i name="BMIX_MAG">      1.00000000</i>
    <separator name="electronic mixer details" >
     <i type="int" name="IMIX">     4</i>
     <i type="logical" name="MIXFIRST"> F  </i>
     <i type="int" name="MAXMIX">   -45</i>
     <i name="WC">    100.00000000</i>
     <i type="int" name="INIMIX">     1</i>
     <i type="int" name="MIXPRE">     1</i>
     <i type="int" name="MREMOVE">     5</i>
    </separator>
   </separator>
   <separator name="electronic dipolcorrection" >
    <i type="logical" name="LDIPOL"> F  </i>
    <i type="logical" name="LMONO"> F  </i>
    <i type="int" name="IDIPOL">     0</i>
    <i name="EPSILON">      1.00000000</i>
    <v name="DIPOL">   -100.00000000   -100.00000000   -100.00000000</v>
    <i name="EFIELD">      0.00000000</i>
   </separator>
  </separator>
  <separator name="grids" >
   <i type="int" name="NGX">    90</i>
   <i type="int" name="NGY">    90</i>
   <i type="int" name="NGZ">    90</i>
   <i type="int" name="NGXF">   180</i>
   <i type="int" name="NGYF">   180</i>
   <i type="int" name="NGZF">   180</i>
   <i type="logical" name="ADDGRID"> T  </i>
  </separator>
  <separator name="ionic" >
   <i type="int" name="NSW">     1</i>
   <i type="int" name="IBRION">    -1</i>
   <i type="int" name="MDALGO">     0</i>
   <i type="int" name="ISIF">     2</i>
   <i name="PSTRESS">      0.00000000</i>
   <i name="EDIFFG">     -0.01000000</i>
   <i type="int" name="NFREE">     0</i>
   <i name="POTIM">      1.00000000</i>
   <i name="SMASS">     -3.00000000</i>
   <i name="SCALEE">      1.00000000</i>
  </separator>
  <separator name="ionic md" >
   <i name="TEBEG">      0.00010000</i>
   <i name="TEEND">      0.00010000</i>
   <i type="int" name="NBLOCK">     1</i>
   <i type="int" name="KBLOCK">     1</i>
   <i type="int" name="NPACO">   256</i>
   <i name="APACO">     16.00000000</i>
  </separator>
  <separator name="symmetry" >
   <i type="int" name="ISYM">     0</i>
   <i name="SYMPREC">      0.00001000</i>
  </separator>
  <separator name="dos" >
   <i type="int" name="LORBIT">     0</i>
   <v name="RWIGS">     -1.00000000     -1.00000000     -1.00000000</v>
   <i type="int" name="NEDOS">   301</i>
   <i name="EMIN">     10.00000000</i>
   <i name="EMAX">    -10.00000000</i>
   <i name="EFERMI">      0.00000000</i>
  </separator>
  <separator name="writing" >
   <i type="int" name="NWRITE">     2</i>
   <i type="logical" name="LWAVE"> F  </i>
   <i type="logical" name="LDOWNSAMPLE"> F  </i>
   <i type="logical" name="LCHARG"> F  </i>
   <i type="logical" name="LPARD"> F  </i>
   <i type="logical" name="LVTOT"> F  </i>
   <i type="logical" name="LVHAR"> F  </i>
   <i type="logical" name="LELF"> F  </i>
   <i type="logical" name="LOPTICS"> F  </i>
   <v name="STM">      0.00000000      0.00000000      0.00000000      0.00000000      0.00000000      0.00000000      0.00000000</v>
  </separator>
  <separator name="performance" >
   <i type="int" name="NPAR">     4</i>
   <i type="int" name="NSIM">     4</i>
   <i type="int" name="NBLK">    -1</i>
   <i type="logical" name="LPLANE"> T  </i>
   <i type="logical" name="LSCALAPACK"> F  </i>
   <i type="logical" name="LSCAAWARE"> F  </i>
   <i type="logical" name="LSCALU"> F  </i>
   <i type="logical" name="LASYNC"> F  </i>
   <i type="logical" name="LORBITALREAL"> F  </i>
  </separator>
  <separator name="miscellaneous" >
   <i type="int" name="IDIOT">     3</i>
   <i type="int" name="ISPECIAL">     0</i>
   <i type="logical" name="LMUSIC"> F  </i>
   <v name="POMASS">     40.07800000     28.08500000     16.00000000</v>
   <v name="DARWINR">      0.00000000      0.00000000      0.00000000</v>
   <v name="DARWINV">      1.00000000      1.00000000      1.00000000</v>
   <i type="logical" name="LCORR"> T  </i>
  </separator>
  <i type="logical" name="GGA_COMPAT"> T  </i>
  <i type="logical" name="LBERRY"> F  </i>
  <i type="int" name="ICORELEVEL">     0</i>
  <i type="logical" name="LDAU"> F  </i>
  <i type="int" name="I_CONSTRAINED_M">     0</i>
  <separator name="electronic exchange-correlation" >
   <i type="string" name="GGA">--</i>
   <i type="int" name="VOSKOWN">     0</i>
   <i type="logical" name="LHFCALC"> F  </i>
   <i type="string" name="PRECFOCK"></i>
   <i type="logical" name="LSYMGRAD"> F  </i>
   <i type="logical" name="LHFONE"> F  </i>
   <i type="logical" name="LRHFCALC"> F  </i>
   <i type="logical" name="LTHOMAS"> F  </i>
   <i type="logical" name="LMODELHF"> F  </i>
   <i name="ENCUT4O">     -1.00000000</i>
   <i type="int" name="EXXOEP">     0</i>
   <i type="int" name="FOURORBIT">     0</i>
   <i name="AEXX">      0.00000000</i>
   <i name="HFALPHA">      0.00000000</i>
   <i name="MCALPHA">      0.00000000</i>
   <i name="ALDAX">      1.00000000</i>
   <i name="AGGAX">      1.00000000</i>
   <i name="ALDAC">      1.00000000</i>
   <i name="AGGAC">      1.00000000</i>
   <i type="int" name="NKREDX">     1</i>
   <i type="int" name="NKREDY">     1</i>
   <i type="int" name="NKREDZ">     1</i>
   <i type="logical" name="SHIFTRED"> F  </i>
   <i type="logical" name="ODDONLY"> F  </i>
   <i type="logical" name="EVENONLY"> F  </i>
   <i type="int" name="LMAXFOCK">     0</i>
   <i type="int" name="NMAXFOCKAE">     0</i>
   <i type="logical" name="LFOCKAEDFT"> F  </i>
   <i name="HFSCREEN">      0.00000000</i>
   <i name="HFSCREENC">      0.00000000</i>
   <i type="int" name="NBANDSGWLOW">     0</i>
  </separator>
  <separator name="vdW DFT" >
   <i type="logical" name="LUSE_VDW"> F  </i>
   <i name="Zab_VDW">     -0.84910000</i>
   <i name="PARAM1">      0.12340000</i>
   <i name="PARAM2">      1.00000000</i>
   <i name="PARAM3">      0.00000000</i>
  </separator>
  <separator name="model GW" >
   <i type="int" name="MODEL_GW">     0</i>
   <i name="MODEL_EPS0">      6.11448699</i>
   <i name="MODEL_ALPHA">      1.00000000</i>
  </separator>
  <separator name="linear response parameters" >
   <i type="logical" name="LEPSILON"> F  </i>
   <i type="logical" name="LRPA"> F  </i>
   <i type="logical" name="LNABLA"> F  </i>
   <i type="logical" name="LVEL"> F  </i>
   <i type="int" name="KINTER">     0</i>
   <i name="CSHIFT">      0.10000000</i>
   <i name="OMEGAMAX">     -1.00000000</i>
   <i name="DEG_THRESHOLD">      0.00200000</i>
   <i name="RTIME">     -0.10000000</i>
   <i name="WPLASMAI">      0.00000000</i>
   <v name="DFIELD">      0.00000000      0.00000000      0.00000000</v>
   <v name="WPLASMA">      0.00000000      0.00000000      0.00000000      0.00000000      0.00000000      0.00000000      0.00000000      0.00000000      0.00000000</v>
  </separator>
  <separator name="orbital magnetization" >
   <i type="logical" name="NUCIND"> F  </i>
   <v name="MAGPOS">      0.00000000      0.00000000      0.00000000</v>
   <i type="logical" name="LNICSALL"> T  </i>
   <i type="logical" name="ORBITALMAG"> F  </i>
   <i type="logical" name="LMAGBLOCH"> F  </i>
   <i type="logical" name="LCHIMAG"> F  </i>
   <i type="logical" name="LGAUGE"> T  </i>
   <i type="int" name="MAGATOM">     0</i>
   <v name="MAGDIPOL">      0.00000000      0.00000000      0.00000000</v>
   <v name="AVECCONST">      0.00000000      0.00000000      0.00000000</v>
  </separator>
  <separator name="response functions" >
   <i type="logical" name="LADDER"> F  </i>
   <i type="logical" name="LRPAFORCE"> F  </i>
   <i type="logical" name="LFXC"> F  </i>
   <i type="logical" name="LHARTREE"> T  </i>
   <i type="int" name="IBSE">     0</i>
   <v type="int" name="KPOINT">    -1     0     0     0</v>
   <i type="logical" name="LTCTE"> F  </i>
   <i type="logical" name="LTETE"> F  </i>
   <i type="logical" name="LTRIPLET"> F  </i>
   <i type="logical" name="LFXCEPS"> F  </i>
   <i type="logical" name="LFXHEG"> F  </i>
   <i type="int" name="NATURALO">     2</i>
   <i type="logical" name="L2ORDER"> F  </i>
   <i type="logical" name="LMP2LT"> F  </i>
   <i type="logical" name="LUSEW"> F  </i>
   <i name="ENCUTGW">     -2.00000000</i>
   <i name="ENCUTGWSOFT">     -2.00000000</i>
   <i name="ENCUTLF">     -1.00000000</i>
   <i type="int" name="LMAXMP2">    -1</i>
   <i name="SCISSOR">      0.00000000</i>
   <i type="int" name="NOMEGA">     0</i>
   <i type="int" name="NOMEGAR">     0</i>
   <i type="int" name="NBANDSGW">    -1</i>
   <i type="int" name="NBANDSO">    -1</i>
   <i type="int" name="NBANDSV">    -1</i>
   <i type="int" name="NELM">     1</i>
   <i type="int" name="NELMHF">     1</i>
   <i type="int" name="DIM">     3</i>
   <i type="int" name="ANTIRES">     0</i>
   <i name="OMEGAMAX">    -30.00000000</i>
   <i name="OMEGAMIN">    -30.00000000</i>
   <i name="OMEGATL">   -200.00000000</i>
   <i type="int" name="OMEGAGRID">   140</i>
   <i name="CSHIFT">     -0.10000000</i>
   <i type="logical" name="SELFENERGY"> F  </i>
   <i type="logical" name="LSPECTRAL"> F  </i>
   <i type="logical" name="LSPECTRALGW"> F  </i>
   <i type="logical" name="LSINGLES"> F  </i>
   <i type="logical" name="LFERMIGW"> F  </i>
   <i type="logical" name="ODDONLYGW"> F  </i>
   <i type="logical" name="EVENONLYGW"> F  </i>
   <i type="int" name="NKREDLFX">     1</i>
   <i type="int" name="NKREDLFY">     1</i>
   <i type="int" name="NKREDLFZ">     1</i>
   <i type="int" name="MAXMEM">  2800</i>
   <i type="int" name="TELESCOPE">     0</i>
   <i type="int" name="TAUPAR">     1</i>
   <i type="int" name="OMEGAPAR">    -1</i>
   <i name="LAMBDA">      1.00000000</i>
  </separator>
  <separator name="External order field" >
   <i name="OFIELD_KAPPA">      0.00000000</i>
   <v name="OFIELD_K">      0.00000000      0.00000000      0.00000000</v>
   <i name="OFIELD_Q6_NEAR">      0.00000000</i>
   <i name="OFIELD_Q6_FAR">      0.00000000</i>
   <i name="OFIELD_A">      0.00000000</i>
  </separator>
 </parameters>
 <atominfo>
  <atoms>     135 </atoms>
  <types>       3 </types>
  <array name="atoms" >
   <dimension dim="1">ion</dimension>
   <field type="string">element</field>
   <field type="int">atomtype</field>
   <set>
    <rc><c>Ca</c><c>   1</c></rc>
    <rc><c>Ca</c><c>   1</c></rc>
    <rc><c>Ca</c><c>   1</c></rc>
    <rc><c>Ca</c><c>   1</c></rc>
    <rc><c>Ca</c><c>   1</c></rc>
    <rc><c>Ca</c><c>   1</c></rc>
    <rc><c>Ca</c><c>   1</c></rc>
    <rc><c>Ca</c><c>   1</c></rc>
    <rc><c>Ca</c><c>   1</c></rc>
    <rc><c>Ca</c><c>   1</c></rc>
    <rc><c>Ca</c><c>   1</c></rc>
    <rc><c>Ca</c><c>   1</c></rc>
    <rc><c>Ca</c><c>   1</c></rc>
    <rc><c>Ca</c><c>   1</c></rc>
    <rc><c>Ca</c><c>   1</c></rc>
    <rc><c>Ca</c><c>   1</c></rc>
    <rc><c>Ca</c><c>   1</c></rc>
    <rc><c>Ca</c><c>   1</c></rc>
    <rc><c>Ca</c><c>   1</c></rc>
    <rc><c>Ca</c><c>   1</c></rc>
    <rc><c>Ca</c><c>   1</c></rc>
    <rc><c>Ca</c><c>   1</c></rc>
    <rc><c>Ca</c><c>   1</c></rc>
    <rc><c>Ca</c><c>   1</c></rc>
    <rc><c>Ca</c><c>   1</c></rc>
    <rc><c>Ca</c><c>   1</c></rc>
    <rc><c>Ca</c><c>   1</c></rc>
    <rc><c>Si</c><c>   2</c></rc>
    <rc><c>Si</c><c>   2</c></rc>
    <rc><c>Si</c><c>   2</c></rc>
    <rc><c>Si</c><c>   2</c></rc>
    <rc><c>Si</c><c>   2</c></rc>
    <rc><c>Si</c><c>   2</c></rc>
    <rc><c>Si</c><c>   2</c></rc>
    <rc><c>Si</c><c>   2</c></rc>
    <rc><c>Si</c><c>   2</c></rc>
    <rc><c>Si</c><c>   2</c></rc>
    <rc><c>Si</c><c>   2</c></rc>
    <rc><c>Si</c><c>   2</c></rc>
    <rc><c>Si</c><c>   2</c></rc>
    <rc><c>Si</c><c>   2</c></rc>
    <rc><c>Si</c><c>   2</c></rc>
    <rc><c>Si</c><c>   2</c></rc>
    <rc><c>Si</c><c>   2</c></rc>
    <rc><c>Si</c><c>   2</c></rc>
    <rc><c>Si</c><c>   2</c></rc>
    <rc><c>Si</c><c>   2</c></rc>
    <rc><c>Si</c><c>   2</c></rc>
    <rc><c>Si</c><c>   2</c></rc>
    <rc><c>Si</c><c>   2</c></rc>
    <rc><c>Si</c><c>   2</c></rc>
    <rc><c>Si</c><c>   2</c></rc>
    <rc><c>Si</c><c>   2</c></rc>
    <rc><c>Si</c><c>   2</c></rc>
    <rc><c>O </c><c>   3</c></rc>
    <rc><c>O </c><c>   3</c></rc>
    <rc><c>O </c><c>   3</c></rc>
    <rc><c>O </c><c>   3</c></rc>
    <rc><c>O </c><c>   3</c></rc>
    <rc><c>O </c><c>   3</c></rc>
    <rc><c>O </c><c>   3</c></rc>
    <rc><c>O </c><c>   3</c></rc>
    <rc><c>O </c><c>   3</c></rc>
    <rc><c>O </c><c>   3</c></rc>
    <rc><c>O </c><c>   3</c></rc>
    <rc><c>O </c><c>   3</c></rc>
    <rc><c>O </c><c>   3</c></rc>
    <rc><c>O </c><c>   3</c></rc>
    <rc><c>O </c><c>   3</c></rc>
    <rc><c>O </c><c>   3</c></rc>
    <rc><c>O </c><c>   3</c></rc>
    <rc><c>O </c><c>   3</c></rc>
    <rc><c>O </c><c>   3</c></rc>
    <rc><c>O </c><c>   3</c></rc>
    <rc><c>O </c><c>   3</c></rc>
    <rc><c>O </c><c>   3</c></rc>
    <rc><c>O </c><c>   3</c></rc>
    <rc><c>O </c><c>   3</c></rc>
    <rc><c>O </c><c>   3</c></rc>
    <rc><c>O </c><c>   3</c></rc>
    <rc><c>O </c><c>   3</c></rc>
    <rc><c>O </c><c>   3</c></rc>
    <rc><c>O </c><c>   3</c></rc>
    <rc><c>O </c><c>   3</c></rc>
    <rc><c>O </c><c>   3</c></rc>
    <rc><c>O </c><c>   3</c></rc>
    <rc><c>O </c><c>   3</c></rc>
    <rc><c>O </c><c>   3</c></rc>
    <rc><c>O </c><c>   3</c></rc>
    <rc><c>O </c><c>   3</c></rc>
    <rc><c>O </c><c>   3</c></rc>
    <rc><c>O </c><c>   3</c></rc>
    <rc><c>O </c><c>   3</c></rc>
    <rc><c>O </c><c>   3</c></rc>
    <rc><c>O </c><c>   3</c></rc>
    <rc><c>O </c><c>   3</c></rc>
    <rc><c>O </c><c>   3</c></rc>
    <rc><c>O </c><c>   3</c></rc>
    <rc><c>O </c><c>   3</c></rc>
    <rc><c>O </c><c>   3</c></rc>
    <rc><c>O </c><c>   3</c></rc>
    <rc><c>O </c><c>   3</c></rc>
    <rc><c>O </c><c>   3</c></rc>
    <rc><c>O </c><c>   3</c></rc>
    <rc><c>O </c><c>   3</c></rc>
    <rc><c>O </c><c>   3</c></rc>
    <rc><c>O </c><c>   3</c></rc>
    <rc><c>O </c><c>   3</c></rc>
    <rc><c>O </c><c>   3</c></rc>
    <rc><c>O </c><c>   3</c></rc>
    <rc><c>O </c><c>   3</c></rc>
    <rc><c>O </c><c>   3</c></rc>
    <rc><c>O </c><c>   3</c></rc>
    <rc><c>O </c><c>   3</c></rc>
    <rc><c>O </c><c>   3</c></rc>
    <rc><c>O </c><c>   3</c></rc>
    <rc><c>O </c><c>   3</c></rc>
    <rc><c>O </c><c>   3</c></rc>
    <rc><c>O </c><c>   3</c></rc>
    <rc><c>O </c><c>   3</c></rc>
    <rc><c>O </c><c>   3</c></rc>
    <rc><c>O </c><c>   3</c></rc>
    <rc><c>O </c><c>   3</c></rc>
    <rc><c>O </c><c>   3</c></rc>
    <rc><c>O </c><c>   3</c></rc>
    <rc><c>O </c><c>   3</c></rc>
    <rc><c>O </c><c>   3</c></rc>
    <rc><c>O </c><c>   3</c></rc>
    <rc><c>O </c><c>   3</c></rc>
    <rc><c>O </c><c>   3</c></rc>
    <rc><c>O </c><c>   3</c></rc>
    <rc><c>O </c><c>   3</c></rc>
    <rc><c>O </c><c>   3</c></rc>
    <rc><c>O </c><c>   3</c></rc>
    <rc><c>O </c><c>   3</c></rc>
   </set>
  </array>
  <array name="atomtypes" >
   <dimension dim="1">type</dimension>
   <field type="int">atomspertype</field>
   <field type="string">element</field>
   <field>mass</field>
   <field>valence</field>
   <field type="string">pseudopotential</field>
   <set>
    <rc><c>  27</c><c>Ca</c><c>     40.07800000</c><c>     10.00000000</c><c>  PAW_PBE Ca_sv 06Sep2000               </c></rc>
    <rc><c>  27</c><c>Si</c><c>     28.08500000</c><c>      4.00000000</c><c>  PAW_PBE Si 05Jan2001                  </c></rc>
    <rc><c>  81</c><c>O </c><c>     16.00000000</c><c>      6.00000000</c><c>  PAW_PBE O 08Apr2002                   </c></rc>
   </set>
  </array>
 </atominfo>
 <structure name="initialpos" >
  <crystal>
   <varray name="basis" >
    <v>      11.12194768       0.00000000       0.00000000 </v>
    <v>       0.00000000      11.12194768       0.00000000 </v>
    <v>       0.00000000       0.00000000      11.12194768 </v>
   </varray>
   <i name="volume">   1375.75957216 </i>
   <varray name="rec_basis" >
    <v>       0.08991231       0.00000000       0.00000000 </v>
    <v>       0.00000000       0.08991231       0.00000000 </v>
    <v>       0.00000000       0.00000000       0.08991231 </v>
   </varray>
  </crystal>
  <varray name="positions" >
   <v>       0.90692877       0.50888417       0.05836429 </v>
   <v>       0.68250698       0.04872084       0.74492358 </v>
   <v>       0.20801929       0.14308623       0.46574600 </v>
   <v>       0.42802477       0.17931465       0.75395680 </v>
   <v>       0.68495716       0.46957039       0.14544628 </v>
   <v>       0.79951129       0.50270015       0.80581380 </v>
   <v>       0.31427987       0.91979847       0.28440904 </v>
   <v>       0.08673300       0.03032675       0.20456822 </v>
   <v>       0.50369024       0.24079270       0.45374827 </v>
   <v>       0.49236999       0.63826837       0.03024797 </v>
   <v>       0.53566550       0.75137740       0.75185637 </v>
   <v>       0.56636151       0.69269958       0.31809232 </v>
   <v>       0.48420957       0.41513354       0.85252681 </v>
   <v>       0.06568553       0.35494554       0.52642092 </v>
   <v>       0.07688946       0.75006690       0.84856303 </v>
   <v>       0.28220776       0.74275851       0.07336672 </v>
   <v>       0.60291876       0.87558124       0.50603301 </v>
   <v>       0.42413927       0.20967759       0.12635273 </v>
   <v>       0.06754773       0.58933353       0.58798965 </v>
   <v>       0.33330458       0.63309203       0.55765755 </v>
   <v>       0.85046552       0.97383814       0.95981506 </v>
   <v>       0.68168055       0.83694638       0.10599550 </v>
   <v>       0.13409836       0.42755655       0.94957881 </v>
   <v>       0.11920322       0.10471764       0.75240451 </v>
   <v>       0.90454874       0.83036367       0.40867431 </v>
   <v>       0.14954817       0.07307586       0.95463309 </v>
   <v>       0.14203462       0.57491195       0.25946726 </v>
   <v>       0.28131125       0.87143371       0.83095595 </v>
   <v>       0.27004601       0.56795437       0.82081852 </v>
   <v>       0.97215556       0.31181727       0.29126148 </v>
   <v>       0.78593110       0.63326739       0.47228033 </v>
   <v>       0.89002561       0.06309164       0.53200286 </v>
   <v>       0.86256461       0.03315161       0.29272187 </v>
   <v>       0.42979797       0.93165121       0.06973581 </v>
   <v>       0.96786242       0.31249938       0.79806354 </v>
   <v>       0.17214192       0.71393532       0.39113872 </v>
   <v>       0.81665432       0.61989873       0.24563188 </v>
   <v>       0.87400244       0.80614755       0.69803693 </v>
   <v>       0.73613136       0.23635454       0.24480715 </v>
   <v>       0.19131963       0.22934068       0.21689943 </v>
   <v>       0.12917297       0.87257061       0.57329950 </v>
   <v>       0.36041367       0.47572913       0.15613181 </v>
   <v>       0.59018732       0.08121811       0.95458706 </v>
   <v>       0.96493580       0.24174503       0.04856792 </v>
   <v>       0.76594505       0.38929489       0.44113551 </v>
   <v>       0.77418161       0.73181984       0.88006058 </v>
   <v>       0.37685296       0.94855240       0.59779172 </v>
   <v>       0.31515403       0.35640827       0.63675145 </v>
   <v>       0.56937542       0.51870061       0.59767693 </v>
   <v>       0.74808558       0.27463411       0.64321006 </v>
   <v>       0.01992046       0.79445284       0.10239642 </v>
   <v>       0.62000137       0.02128406       0.28072446 </v>
   <v>       0.35583419       0.40541869       0.38450363 </v>
   <v>       0.70529779       0.27419075       0.94435595 </v>
   <v>       0.18695249       0.21415635       0.06321933 </v>
   <v>       0.10297147       0.84561932       0.44344570 </v>
   <v>       0.47206935       0.37152701       0.30377594 </v>
   <v>       0.28605118       0.94457107       0.07391960 </v>
   <v>       0.24920460       0.49575040       0.63885540 </v>
   <v>       0.77191292       0.30368107       0.79063150 </v>
   <v>       0.29888439       0.43531757       0.87007712 </v>
   <v>       0.66684313       0.64422183       0.90794609 </v>
   <v>       0.85151843       0.29377777       0.48676702 </v>
   <v>       0.18470176       0.71140855       0.54033113 </v>
   <v>       0.95540714       0.38615022       0.65586295 </v>
   <v>       0.09988108       0.19544480       0.33778198 </v>
   <v>       0.71605430       0.51624435       0.35570593 </v>
   <v>       0.18590797       0.85768969       0.71354216 </v>
   <v>       0.62865448       0.27107464       0.11839190 </v>
   <v>       0.06258825       0.40369269       0.33799921 </v>
   <v>       0.77651659       0.99651707       0.41051929 </v>
   <v>       0.50913849       0.48159441       0.48479901 </v>
   <v>       0.60644268       0.20912219       0.64636408 </v>
   <v>       0.70217914       0.64212633       0.16501165 </v>
   <v>       0.25152038       0.73595701       0.88197164 </v>
   <v>       0.83460381       0.36873939       0.26505321 </v>
   <v>       0.90126948       0.80127610       0.84451181 </v>
   <v>       0.54717573       0.02842353       0.13118236 </v>
   <v>       0.03697532       0.30792181       0.14923500 </v>
   <v>       0.66410858       0.92144756       0.93477404 </v>
   <v>       0.72722517       0.07865363       0.20534187 </v>
   <v>       0.42876386       0.11287624       0.57223881 </v>
   <v>       0.57812792       0.58532906       0.72171775 </v>
   <v>       0.78714102       0.93620441       0.58942685 </v>
   <v>       0.87995334       0.62662824       0.90934948 </v>
   <v>       0.46082013       0.39919819       0.05107147 </v>
   <v>       0.83890395       0.31068794       0.09653729 </v>
   <v>       0.40864135       0.64919192       0.83875207 </v>
   <v>       0.40626832       0.86662625       0.44443091 </v>
   <v>       0.51521634       0.95674761       0.66913154 </v>
   <v>       0.08576221       0.91317661       0.03183967 </v>
   <v>       0.29292885       0.16549203       0.30335324 </v>
   <v>       0.30099238       0.33108810       0.17954809 </v>
   <v>       0.75079679       0.74701622       0.73245355 </v>
   <v>       0.29472513       0.00559176       0.76575061 </v>
   <v>       0.23987204       0.54409629       0.07649732 </v>
   <v>       0.79838238       0.15214590       0.61540381 </v>
   <v>       0.90567800       0.37221980       0.92816061 </v>
   <v>       0.03574510       0.95283652       0.59561430 </v>
   <v>       0.50724444       0.09538378       0.33864598 </v>
   <v>       0.37139664       0.81366043       0.66731367 </v>
   <v>       0.41275996       0.90640238       0.90757606 </v>
   <v>       0.06292833       0.65584055       0.05278724 </v>
   <v>       0.82875514       0.74733692       0.56111165 </v>
   <v>       0.98216837       0.17588949       0.60841733 </v>
   <v>       0.98026139       0.01339489       0.41220594 </v>
   <v>       0.76426387       0.71166333       0.34146487 </v>
   <v>       0.68996289       0.44654393       0.94116410 </v>
   <v>       0.50108387       0.82426542       0.10640406 </v>
   <v>       0.74160685       0.10253964       0.95677453 </v>
   <v>       0.92831030       0.15252781       0.82267049 </v>
   <v>       0.45658165       0.33995519       0.68570221 </v>
   <v>       0.43079239       0.57922924       0.21202751 </v>
   <v>       0.95245209       0.60053909       0.24893394 </v>
   <v>       0.98617370       0.71904626       0.67933671 </v>
   <v>       0.63608238       0.88249186       0.30195970 </v>
   <v>       0.12157464       0.54859672       0.79083901 </v>
   <v>       0.99352912       0.10756784       0.04976888 </v>
   <v>       0.22255625       0.26792658       0.69454905 </v>
   <v>       0.64798408       0.27137407       0.34418355 </v>
   <v>       0.43695244       0.06496121       0.99347998 </v>
   <v>       0.87205006       0.76679777       0.12822716 </v>
   <v>       0.67590101       0.40884288       0.56544215 </v>
   <v>       0.92130818       0.97416603       0.17472796 </v>
   <v>       0.31323079       0.72278486       0.32084681 </v>
   <v>       0.24815594       0.96859347       0.52598913 </v>
   <v>       0.91314601       0.18280570       0.24361174 </v>
   <v>       0.08910374       0.28858813       0.86834839 </v>
   <v>       0.29433786       0.50770519       0.38356379 </v>
   <v>       0.09600147       0.78705186       0.23526230 </v>
   <v>       0.32946135       0.31992776       0.49262215 </v>
   <v>       0.58535136       0.20669114       0.86421711 </v>
   <v>       0.06184585       0.61913187       0.41107068 </v>
   <v>       0.87327560       0.52693067       0.51149549 </v>
   <v>       0.62124229       0.63851858       0.50509357 </v>
  </varray>
  <varray name="velocities" >
   <v>       0.00000000       0.00000000       0.00000000 </v>
   <v>       0.00000000       0.00000000       0.00000000 </v>
   <v>       0.00000000       0.00000000       0.00000000 </v>
   <v>       0.00000000       0.00000000       0.00000000 </v>
   <v>       0.00000000       0.00000000       0.00000000 </v>
   <v>       0.00000000       0.00000000       0.00000000 </v>
   <v>       0.00000000       0.00000000       0.00000000 </v>
   <v>       0.00000000       0.00000000       0.00000000 </v>
   <v>       0.00000000       0.00000000       0.00000000 </v>
   <v>       0.00000000       0.00000000       0.00000000 </v>
   <v>       0.00000000       0.00000000       0.00000000 </v>
   <v>       0.00000000       0.00000000       0.00000000 </v>
   <v>       0.00000000       0.00000000       0.00000000 </v>
   <v>       0.00000000       0.00000000       0.00000000 </v>
   <v>       0.00000000       0.00000000       0.00000000 </v>
   <v>       0.00000000       0.00000000       0.00000000 </v>
   <v>       0.00000000       0.00000000       0.00000000 </v>
   <v>       0.00000000       0.00000000       0.00000000 </v>
   <v>       0.00000000       0.00000000       0.00000000 </v>
   <v>       0.00000000       0.00000000       0.00000000 </v>
   <v>       0.00000000       0.00000000       0.00000000 </v>
   <v>       0.00000000       0.00000000       0.00000000 </v>
   <v>       0.00000000       0.00000000       0.00000000 </v>
   <v>       0.00000000       0.00000000       0.00000000 </v>
   <v>       0.00000000       0.00000000       0.00000000 </v>
   <v>       0.00000000       0.00000000       0.00000000 </v>
   <v>       0.00000000       0.00000000       0.00000000 </v>
   <v>       0.00000000       0.00000000       0.00000000 </v>
   <v>       0.00000000       0.00000000       0.00000000 </v>
   <v>       0.00000000       0.00000000       0.00000000 </v>
   <v>       0.00000000       0.00000000       0.00000000 </v>
   <v>       0.00000000       0.00000000       0.00000000 </v>
   <v>       0.00000000       0.00000000       0.00000000 </v>
   <v>       0.00000000       0.00000000       0.00000000 </v>
   <v>       0.00000000       0.00000000       0.00000000 </v>
   <v>       0.00000000       0.00000000       0.00000000 </v>
   <v>       0.00000000       0.00000000       0.00000000 </v>
   <v>       0.00000000       0.00000000       0.00000000 </v>
   <v>       0.00000000       0.00000000       0.00000000 </v>
   <v>       0.00000000       0.00000000       0.00000000 </v>
   <v>       0.00000000       0.00000000       0.00000000 </v>
   <v>       0.00000000       0.00000000       0.00000000 </v>
   <v>       0.00000000       0.00000000       0.00000000 </v>
   <v>       0.00000000       0.00000000       0.00000000 </v>
   <v>       0.00000000       0.00000000       0.00000000 </v>
   <v>       0.00000000       0.00000000       0.00000000 </v>
   <v>       0.00000000       0.00000000       0.00000000 </v>
   <v>       0.00000000       0.00000000       0.00000000 </v>
   <v>       0.00000000       0.00000000       0.00000000 </v>
   <v>       0.00000000       0.00000000       0.00000000 </v>
   <v>       0.00000000       0.00000000       0.00000000 </v>
   <v>       0.00000000       0.00000000       0.00000000 </v>
   <v>       0.00000000       0.00000000       0.00000000 </v>
   <v>       0.00000000       0.00000000       0.00000000 </v>
   <v>       0.00000000       0.00000000       0.00000000 </v>
   <v>       0.00000000       0.00000000       0.00000000 </v>
   <v>       0.00000000       0.00000000       0.00000000 </v>
   <v>       0.00000000       0.00000000       0.00000000 </v>
   <v>       0.00000000       0.00000000       0.00000000 </v>
   <v>       0.00000000       0.00000000       0.00000000 </v>
   <v>       0.00000000       0.00000000       0.00000000 </v>
   <v>       0.00000000       0.00000000       0.00000000 </v>
   <v>       0.00000000       0.00000000       0.00000000 </v>
   <v>       0.00000000       0.00000000       0.00000000 </v>
   <v>       0.00000000       0.00000000       0.00000000 </v>
   <v>       0.00000000       0.00000000       0.00000000 </v>
   <v>       0.00000000       0.00000000       0.00000000 </v>
   <v>       0.00000000       0.00000000       0.00000000 </v>
   <v>       0.00000000       0.00000000       0.00000000 </v>
   <v>       0.00000000       0.00000000       0.00000000 </v>
   <v>       0.00000000       0.00000000       0.00000000 </v>
   <v>       0.00000000       0.00000000       0.00000000 </v>
   <v>       0.00000000       0.00000000       0.00000000 </v>
   <v>       0.00000000       0.00000000       0.00000000 </v>
   <v>       0.00000000       0.00000000       0.00000000 </v>
   <v>       0.00000000       0.00000000       0.00000000 </v>
   <v>       0.00000000       0.00000000       0.00000000 </v>
   <v>       0.00000000       0.00000000       0.00000000 </v>
   <v>       0.00000000       0.00000000       0.00000000 </v>
   <v>       0.00000000       0.00000000       0.00000000 </v>
   <v>       0.00000000       0.00000000       0.00000000 </v>
   <v>       0.00000000       0.00000000       0.00000000 </v>
   <v>       0.00000000       0.00000000       0.00000000 </v>
   <v>       0.00000000       0.00000000       0.00000000 </v>
   <v>       0.00000000       0.00000000       0.00000000 </v>
   <v>       0.00000000       0.00000000       0.00000000 </v>
   <v>       0.00000000       0.00000000       0.00000000 </v>
   <v>       0.00000000       0.00000000       0.00000000 </v>
   <v>       0.00000000       0.00000000       0.00000000 </v>
   <v>       0.00000000       0.00000000       0.00000000 </v>
   <v>       0.00000000       0.00000000       0.00000000 </v>
   <v>       0.00000000       0.00000000       0.00000000 </v>
   <v>       0.00000000       0.00000000       0.00000000 </v>
   <v>       0.00000000       0.00000000       0.00000000 </v>
   <v>       0.00000000       0.00000000       0.00000000 </v>
   <v>       0.00000000       0.00000000       0.00000000 </v>
   <v>       0.00000000       0.00000000       0.00000000 </v>
   <v>       0.00000000       0.00000000       0.00000000 </v>
   <v>       0.00000000       0.00000000       0.00000000 </v>
   <v>       0.00000000       0.00000000       0.00000000 </v>
   <v>       0.00000000       0.00000000       0.00000000 </v>
   <v>       0.00000000       0.00000000       0.00000000 </v>
   <v>       0.00000000       0.00000000       0.00000000 </v>
   <v>       0.00000000       0.00000000       0.00000000 </v>
   <v>       0.00000000       0.00000000       0.00000000 </v>
   <v>       0.00000000       0.00000000       0.00000000 </v>
   <v>       0.00000000       0.00000000       0.00000000 </v>
   <v>       0.00000000       0.00000000       0.00000000 </v>
   <v>       0.00000000       0.00000000       0.00000000 </v>
   <v>       0.00000000       0.00000000       0.00000000 </v>
   <v>       0.00000000       0.00000000       0.00000000 </v>
   <v>       0.00000000       0.00000000       0.00000000 </v>
   <v>       0.00000000       0.00000000       0.00000000 </v>
   <v>       0.00000000       0.00000000       0.00000000 </v>
   <v>       0.00000000       0.00000000       0.00000000 </v>
   <v>       0.00000000       0.00000000       0.00000000 </v>
   <v>       0.00000000       0.00000000       0.00000000 </v>
   <v>       0.00000000       0.00000000       0.00000000 </v>
   <v>       0.00000000       0.00000000       0.00000000 </v>
   <v>       0.00000000       0.00000000       0.00000000 </v>
   <v>       0.00000000       0.00000000       0.00000000 </v>
   <v>       0.00000000       0.00000000       0.00000000 </v>
   <v>       0.00000000       0.00000000       0.00000000 </v>
   <v>       0.00000000       0.00000000       0.00000000 </v>
   <v>       0.00000000       0.00000000       0.00000000 </v>
   <v>       0.00000000       0.00000000       0.00000000 </v>
   <v>       0.00000000       0.00000000       0.00000000 </v>
   <v>       0.00000000       0.00000000       0.00000000 </v>
   <v>       0.00000000       0.00000000       0.00000000 </v>
   <v>       0.00000000       0.00000000       0.00000000 </v>
   <v>       0.00000000       0.00000000       0.00000000 </v>
   <v>       0.00000000       0.00000000       0.00000000 </v>
   <v>       0.00000000       0.00000000       0.00000000 </v>
   <v>       0.00000000       0.00000000       0.00000000 </v>
   <v>       0.00000000       0.00000000       0.00000000 </v>
  </varray>
 </structure>
 <calculation>
  <scstep>
   <time name="dav">   29.79   29.79</time>
   <time name="total">   30.21   30.21</time>
   <energy>
    <i name="alphaZ">   3473.39795963 </i>
    <i name="ewald"> -52110.85255990 </i>
    <i name="hartreedc"> -14197.06740687 </i>
    <i name="XCdc">   3226.47419452 </i>
    <i name="pawpsdc">  50594.51003143 </i>
    <i name="pawaedc"> -49994.65612350 </i>
    <i name="eentropy">     -0.03326694 </i>
    <i name="bandstr">   4059.40786293 </i>
    <i name="atom">  64968.54023382 </i>
    <i name="e_fr_energy">  10019.72092513 </i>
    <i name="e_wo_entrp">  10019.75419207 </i>
    <i name="e_0_energy">  10019.73755860 </i>
   </energy>
  </scstep>
  <scstep>
   <time name="dav">   32.88   32.90</time>
   <time name="total">   32.88   32.90</time>
   <energy>
    <i name="e_fr_energy">    201.35106227 </i>
    <i name="e_wo_entrp">    201.35106227 </i>
    <i name="e_0_energy">    201.35106227 </i>
   </energy>
  </scstep>
  <scstep>
   <time name="dav">   35.05   35.06</time>
   <time name="total">   35.05   35.06</time>
   <energy>
    <i name="e_fr_energy">   -937.54493618 </i>
    <i name="e_wo_entrp">   -937.54493618 </i>
    <i name="e_0_energy">   -937.54493618 </i>
   </energy>
  </scstep>
  <scstep>
   <time name="dav">   38.40   38.43</time>
   <time name="total">   38.40   38.43</time>
   <energy>
    <i name="e_fr_energy">   -994.05772436 </i>
    <i name="e_wo_entrp">   -994.05772436 </i>
    <i name="e_0_energy">   -994.05772436 </i>
   </energy>
  </scstep>
  <scstep>
   <time name="dav">   44.85   44.86</time>
   <time name="total">   45.93   45.94</time>
   <energy>
    <i name="e_fr_energy">   -998.95542026 </i>
    <i name="e_wo_entrp">   -998.95542026 </i>
    <i name="e_0_energy">   -998.95542026 </i>
   </energy>
  </scstep>
  <scstep>
   <time name="dav">   34.10   34.10</time>
   <time name="total">   35.63   35.65</time>
   <energy>
    <i name="e_fr_energy">   -853.87851994 </i>
    <i name="e_wo_entrp">   -853.87851994 </i>
    <i name="e_0_energy">   -853.87851994 </i>
   </energy>
  </scstep>
  <scstep>
   <time name="dav">   35.85   35.85</time>
   <time name="total">   37.34   37.35</time>
   <energy>
    <i name="e_fr_energy">   -855.95702205 </i>
    <i name="e_wo_entrp">   -855.95697589 </i>
    <i name="e_0_energy">   -855.95699897 </i>
   </energy>
  </scstep>
  <scstep>
   <time name="dav">   37.88   37.88</time>
   <time name="total">   39.37   39.39</time>
   <energy>
    <i name="e_fr_energy">   -854.91054130 </i>
    <i name="e_wo_entrp">   -854.91054130 </i>
    <i name="e_0_energy">   -854.91054130 </i>
   </energy>
  </scstep>
  <scstep>
   <time name="dav">   36.76   36.76</time>
   <time name="total">   38.26   38.28</time>
   <energy>
    <i name="e_fr_energy">   -854.66590925 </i>
    <i name="e_wo_entrp">   -854.64731913 </i>
    <i name="e_0_energy">   -854.65661419 </i>
   </energy>
  </scstep>
  <scstep>
   <time name="dav">   36.24   36.26</time>
   <time name="total">   37.76   37.80</time>
   <energy>
    <i name="e_fr_energy">   -854.73871351 </i>
    <i name="e_wo_entrp">   -854.73871342 </i>
    <i name="e_0_energy">   -854.73871347 </i>
   </energy>
  </scstep>
  <scstep>
   <time name="dav">   35.84   35.86</time>
   <time name="total">   37.33   37.36</time>
   <energy>
    <i name="e_fr_energy">   -854.72677701 </i>
    <i name="e_wo_entrp">   -854.72634314 </i>
    <i name="e_0_energy">   -854.72656008 </i>
   </energy>
  </scstep>
  <scstep>
   <time name="dav">   38.92   38.94</time>
   <time name="total">   40.44   40.49</time>
   <energy>
    <i name="e_fr_energy">   -854.72943960 </i>
    <i name="e_wo_entrp">   -854.72349094 </i>
    <i name="e_0_energy">   -854.72646527 </i>
   </energy>
  </scstep>
  <scstep>
   <time name="dav">   35.81   35.82</time>
   <time name="total">   37.35   37.38</time>
   <energy>
    <i name="e_fr_energy">   -854.73198459 </i>
    <i name="e_wo_entrp">   -854.72933761 </i>
    <i name="e_0_energy">   -854.73066110 </i>
   </energy>
  </scstep>
  <scstep>
   <time name="dav">   36.32   36.34</time>
   <time name="total">   37.81   37.85</time>
   <energy>
    <i name="e_fr_energy">   -854.73248154 </i>
    <i name="e_wo_entrp">   -854.72621080 </i>
    <i name="e_0_energy">   -854.72934617 </i>
   </energy>
  </scstep>
  <scstep>
   <time name="dav">   38.61   38.62</time>
   <time name="total">   40.13   40.15</time>
   <energy>
    <i name="e_fr_energy">   -854.73250353 </i>
    <i name="e_wo_entrp">   -854.72732131 </i>
    <i name="e_0_energy">   -854.72991242 </i>
   </energy>
  </scstep>
  <scstep>
   <time name="dav">   34.33   34.35</time>
   <time name="total">   35.85   35.89</time>
   <energy>
    <i name="e_fr_energy">   -854.73252831 </i>
    <i name="e_wo_entrp">   -854.72773877 </i>
    <i name="e_0_energy">   -854.73013354 </i>
   </energy>
  </scstep>
  <scstep>
   <time name="dav">   35.79   35.81</time>
   <time name="total">   37.29   37.32</time>
   <energy>
    <i name="e_fr_energy">   -854.73254842 </i>
    <i name="e_wo_entrp">   -854.72765015 </i>
    <i name="e_0_energy">   -854.73009929 </i>
   </energy>
  </scstep>
  <scstep>
   <time name="dav">   37.61   37.61</time>
   <time name="total">   39.15   39.16</time>
   <energy>
    <i name="e_fr_energy">   -854.73255514 </i>
    <i name="e_wo_entrp">   -854.72760484 </i>
    <i name="e_0_energy">   -854.73007999 </i>
   </energy>
  </scstep>
  <scstep>
   <time name="dav">   32.95   32.95</time>
   <time name="total">   33.41   33.42</time>
   <energy>
    <i name="alphaZ">   3473.39795963 </i>
    <i name="ewald"> -52110.85255990 </i>
    <i name="hartreedc"> -15591.54749307 </i>
    <i name="XCdc">   3320.35306464 </i>
    <i name="pawpsdc">  96313.40690179 </i>
    <i name="pawaedc"> -95956.11409604 </i>
    <i name="eentropy">     -0.00493175 </i>
    <i name="bandstr">  -5271.91163473 </i>
    <i name="atom">  64968.54023382 </i>
    <i name="e_fr_energy">   -854.73255560 </i>
    <i name="e_wo_entrp">   -854.72762386 </i>
    <i name="e_0_energy">   -854.73008973 </i>
   </energy>
  </scstep>
  <structure>
   <crystal>
    <varray name="basis" >
     <v>      11.12194768       0.00000000       0.00000000 </v>
     <v>       0.00000000      11.12194768       0.00000000 </v>
     <v>       0.00000000       0.00000000      11.12194768 </v>
    </varray>
    <i name="volume">   1375.75957216 </i>
    <varray name="rec_basis" >
     <v>       0.08991231       0.00000000       0.00000000 </v>
     <v>       0.00000000       0.08991231       0.00000000 </v>
     <v>       0.00000000       0.00000000       0.08991231 </v>
    </varray>
   </crystal>
   <varray name="positions" >
    <v>       0.90692877       0.50888417       0.05836429 </v>
    <v>       0.68250698       0.04872084       0.74492358 </v>
    <v>       0.20801929       0.14308623       0.46574600 </v>
    <v>       0.42802477       0.17931465       0.75395680 </v>
    <v>       0.68495716       0.46957039       0.14544628 </v>
    <v>       0.79951129       0.50270015       0.80581380 </v>
    <v>       0.31427987       0.91979847       0.28440904 </v>
    <v>       0.08673300       0.03032675       0.20456822 </v>
    <v>       0.50369024       0.24079270       0.45374827 </v>
    <v>       0.49236999       0.63826837       0.03024797 </v>
    <v>       0.53566550       0.75137740       0.75185637 </v>
    <v>       0.56636151       0.69269958       0.31809232 </v>
    <v>       0.48420957       0.41513354       0.85252681 </v>
    <v>       0.06568553       0.35494554       0.52642092 </v>
    <v>       0.07688946       0.75006690       0.84856303 </v>
    <v>       0.28220776       0.74275851       0.07336672 </v>
    <v>       0.60291876       0.87558124       0.50603301 </v>
    <v>       0.42413927       0.20967759       0.12635273 </v>
    <v>       0.06754773       0.58933353       0.58798965 </v>
    <v>       0.33330458       0.63309203       0.55765755 </v>
    <v>       0.85046552       0.97383814       0.95981506 </v>
    <v>       0.68168055       0.83694638       0.10599550 </v>
    <v>       0.13409836       0.42755655       0.94957881 </v>
    <v>       0.11920322       0.10471764       0.75240451 </v>
    <v>       0.90454874       0.83036367       0.40867431 </v>
    <v>       0.14954817       0.07307586       0.95463309 </v>
    <v>       0.14203462       0.57491195       0.25946726 </v>
    <v>       0.28131125       0.87143371       0.83095595 </v>
    <v>       0.27004601       0.56795437       0.82081852 </v>
    <v>       0.97215556       0.31181727       0.29126148 </v>
    <v>       0.78593110       0.63326739       0.47228033 </v>
    <v>       0.89002561       0.06309164       0.53200286 </v>
    <v>       0.86256461       0.03315161       0.29272187 </v>
    <v>       0.42979797       0.93165121       0.06973581 </v>
    <v>       0.96786242       0.31249938       0.79806354 </v>
    <v>       0.17214192       0.71393532       0.39113872 </v>
    <v>       0.81665432       0.61989873       0.24563188 </v>
    <v>       0.87400244       0.80614755       0.69803693 </v>
    <v>       0.73613136       0.23635454       0.24480715 </v>
    <v>       0.19131963       0.22934068       0.21689943 </v>
    <v>       0.12917297       0.87257061       0.57329950 </v>
    <v>       0.36041367       0.47572913       0.15613181 </v>
    <v>       0.59018732       0.08121811       0.95458706 </v>
    <v>       0.96493580       0.24174503       0.04856792 </v>
    <v>       0.76594505       0.38929489       0.44113551 </v>
    <v>       0.77418161       0.73181984       0.88006058 </v>
    <v>       0.37685296       0.94855240       0.59779172 </v>
    <v>       0.31515403       0.35640827       0.63675145 </v>
    <v>       0.56937542       0.51870061       0.59767693 </v>
    <v>       0.74808558       0.27463411       0.64321006 </v>
    <v>       0.01992046       0.79445284       0.10239642 </v>
    <v>       0.62000137       0.02128406       0.28072446 </v>
    <v>       0.35583419       0.40541869       0.38450363 </v>
    <v>       0.70529779       0.27419075       0.94435595 </v>
    <v>       0.18695249       0.21415635       0.06321933 </v>
    <v>       0.10297147       0.84561932       0.44344570 </v>
    <v>       0.47206935       0.37152701       0.30377594 </v>
    <v>       0.28605118       0.94457107       0.07391960 </v>
    <v>       0.24920460       0.49575040       0.63885540 </v>
    <v>       0.77191292       0.30368107       0.79063150 </v>
    <v>       0.29888439       0.43531757       0.87007712 </v>
    <v>       0.66684313       0.64422183       0.90794609 </v>
    <v>       0.85151843       0.29377777       0.48676702 </v>
    <v>       0.18470176       0.71140855       0.54033113 </v>
    <v>       0.95540714       0.38615022       0.65586295 </v>
    <v>       0.09988108       0.19544480       0.33778198 </v>
    <v>       0.71605430       0.51624435       0.35570593 </v>
    <v>       0.18590797       0.85768969       0.71354216 </v>
    <v>       0.62865448       0.27107464       0.11839190 </v>
    <v>       0.06258825       0.40369269       0.33799921 </v>
    <v>       0.77651659       0.99651707       0.41051929 </v>
    <v>       0.50913849       0.48159441       0.48479901 </v>
    <v>       0.60644268       0.20912219       0.64636408 </v>
    <v>       0.70217914       0.64212633       0.16501165 </v>
    <v>       0.25152038       0.73595701       0.88197164 </v>
    <v>       0.83460381       0.36873939       0.26505321 </v>
    <v>       0.90126948       0.80127610       0.84451181 </v>
    <v>       0.54717573       0.02842353       0.13118236 </v>
    <v>       0.03697532       0.30792181       0.14923500 </v>
    <v>       0.66410858       0.92144756       0.93477404 </v>
    <v>       0.72722517       0.07865363       0.20534187 </v>
    <v>       0.42876386       0.11287624       0.57223881 </v>
    <v>       0.57812792       0.58532906       0.72171775 </v>
    <v>       0.78714102       0.93620441       0.58942685 </v>
    <v>       0.87995334       0.62662824       0.90934948 </v>
    <v>       0.46082013       0.39919819       0.05107147 </v>
    <v>       0.83890395       0.31068794       0.09653729 </v>
    <v>       0.40864135       0.64919192       0.83875207 </v>
    <v>       0.40626832       0.86662625       0.44443091 </v>
    <v>       0.51521634       0.95674761       0.66913154 </v>
    <v>       0.08576221       0.91317661       0.03183967 </v>
    <v>       0.29292885       0.16549203       0.30335324 </v>
    <v>       0.30099238       0.33108810       0.17954809 </v>
    <v>       0.75079679       0.74701622       0.73245355 </v>
    <v>       0.29472513       0.00559176       0.76575061 </v>
    <v>       0.23987204       0.54409629       0.07649732 </v>
    <v>       0.79838238       0.15214590       0.61540381 </v>
    <v>       0.90567800       0.37221980       0.92816061 </v>
    <v>       0.03574510       0.95283652       0.59561430 </v>
    <v>       0.50724444       0.09538378       0.33864598 </v>
    <v>       0.37139664       0.81366043       0.66731367 </v>
    <v>       0.41275996       0.90640238       0.90757606 </v>
    <v>       0.06292833       0.65584055       0.05278724 </v>
    <v>       0.82875514       0.74733692       0.56111165 </v>
    <v>       0.98216837       0.17588949       0.60841733 </v>
    <v>       0.98026139       0.01339489       0.41220594 </v>
    <v>       0.76426387       0.71166333       0.34146487 </v>
    <v>       0.68996289       0.44654393       0.94116410 </v>
    <v>       0.50108387       0.82426542       0.10640406 </v>
    <v>       0.74160685       0.10253964       0.95677453 </v>
    <v>       0.92831030       0.15252781       0.82267049 </v>
    <v>       0.45658165       0.33995519       0.68570221 </v>
    <v>       0.43079239       0.57922924       0.21202751 </v>
    <v>       0.95245209       0.60053909       0.24893394 </v>
    <v>       0.98617370       0.71904626       0.67933671 </v>
    <v>       0.63608238       0.88249186       0.30195970 </v>
    <v>       0.12157464       0.54859672       0.79083901 </v>
    <v>       0.99352912       0.10756784       0.04976888 </v>
    <v>       0.22255625       0.26792658       0.69454905 </v>
    <v>       0.64798408       0.27137407       0.34418355 </v>
    <v>       0.43695244       0.06496121       0.99347998 </v>
    <v>       0.87205006       0.76679777       0.12822716 </v>
    <v>       0.67590101       0.40884288       0.56544215 </v>
    <v>       0.92130818       0.97416603       0.17472796 </v>
    <v>       0.31323079       0.72278486       0.32084681 </v>
    <v>       0.24815594       0.96859347       0.52598913 </v>
    <v>       0.91314601       0.18280570       0.24361174 </v>
    <v>       0.08910374       0.28858813       0.86834839 </v>
    <v>       0.29433786       0.50770519       0.38356379 </v>
    <v>       0.09600147       0.78705186       0.23526230 </v>
    <v>       0.32946135       0.31992776       0.49262215 </v>
    <v>       0.58535136       0.20669114       0.86421711 </v>
    <v>       0.06184585       0.61913187       0.41107068 </v>
    <v>       0.87327560       0.52693067       0.51149549 </v>
    <v>       0.62124229       0.63851858       0.50509357 </v>
   </varray>
  </structure>
  <varray name="forces" >
   <v>       1.54156056       1.85843645      -0.52359421 </v>
   <v>       0.64279513      -0.68092940      -3.28466009 </v>
   <v>       1.96942354      -1.38244702       5.20909291 </v>
   <v>      -1.40297192      -5.49396245      -0.44426349 </v>
   <v>      -4.59488818      -6.73988136      -1.11754526 </v>
   <v>      -0.55128336       0.42828537      -3.80772566 </v>
   <v>       0.75097020       0.64372723       3.84644580 </v>
   <v>       1.37510799      -1.74453888       1.02092039 </v>
   <v>       1.17835766      -1.42601052       3.22862585 </v>
   <v>       2.11704114      -1.20852278      -2.57856037 </v>
   <v>       0.41370428       5.25599142       1.20202853 </v>
   <v>      -2.72962164      -0.92704654       0.60833159 </v>
   <v>       2.50488496       2.06074215       2.05113779 </v>
   <v>       0.89918064      -2.12724171      -0.53487948 </v>
   <v>      -2.41675726      -2.73147534       0.12914521 </v>
   <v>      -2.72340599      -1.24243021       1.04976596 </v>
   <v>       0.20771869       0.67241936       0.66654408 </v>
   <v>       2.77620137      -0.27043999       1.04813803 </v>
   <v>      -3.00195737      -3.79656035       3.50183592 </v>
   <v>       6.99572228       1.55385545      -1.06084411 </v>
   <v>       6.12022439      -1.60971861       0.51359009 </v>
   <v>       2.61586980       0.27641173       1.23983284 </v>
   <v>       0.43960281       3.45768996       4.16941487 </v>
   <v>      -2.04568674       0.60941701      -5.83782152 </v>
   <v>       2.44202165       0.08485582      -0.32926689 </v>
   <v>       2.29079056      -0.31387476       0.89789257 </v>
   <v>      -0.47715216      -5.20323529      -6.49777347 </v>
   <v>       5.84722895       0.40182914      -4.71572121 </v>
   <v>       0.47422547       1.53392315      -0.99346699 </v>
   <v>      -0.20803188      -1.98912416      -1.49341083 </v>
   <v>      -3.91198992       0.76821783       3.02990937 </v>
   <v>       1.88781959      -0.22952938       4.12936894 </v>
   <v>       1.50949480       2.60354227       0.05940863 </v>
   <v>       0.32022753       7.63915840      -7.79269229 </v>
   <v>      -3.91427817      -3.74254105      -2.22328089 </v>
   <v>       0.02430335       8.08080574       2.74731499 </v>
   <v>       0.79013059       2.83914594       1.90263516 </v>
   <v>       0.40944999       1.22301800      -6.31888213 </v>
   <v>       2.06458755       0.98796809      -7.73753747 </v>
   <v>       1.87568692       4.18403885      -1.00208147 </v>
   <v>      12.66537700      -6.08991571       3.27296092 </v>
   <v>      -0.63757456      -6.59866803      -5.06801148 </v>
   <v>      -1.91070703      -3.25038104       4.33087455 </v>
   <v>      -4.15001758       2.18085182      -3.74671660 </v>
   <v>      -2.45998559       5.88234529      -3.99130600 </v>
   <v>       1.32628094      -2.97645818      -0.07162083 </v>
   <v>       3.26472342       1.70365064      -1.16289356 </v>
   <v>       0.74638343       2.48265344       1.17626308 </v>
   <v>       4.16621994       1.56953044       0.48432406 </v>
   <v>      -5.11195440       1.51688823       0.90885513 </v>
   <v>      -0.34876422      -3.05553389       1.97426790 </v>
   <v>      -6.72678418       0.58307368       0.36436184 </v>
   <v>      13.92563785     -12.73718955      -2.11371281 </v>
   <v>       1.89957038       2.98839123       1.25523511 </v>
   <v>       2.03994331      -2.55560398       2.02050994 </v>
   <v>      -1.37232820      -1.74499062     -10.00682666 </v>
   <v>      -2.40469907       0.19187982      -0.64608984 </v>
   <v>      -0.76672182       0.04081868       4.41639645 </v>
   <v>       1.75842110      -3.25214888       0.14735893 </v>
   <v>      -0.44295972      -0.21020997      -1.18388887 </v>
   <v>       1.20206061       0.08362091      -0.74464937 </v>
   <v>      -3.31270041       2.34950446       2.63814496 </v>
   <v>       1.87190625      -1.64968197      -0.82196956 </v>
   <v>       1.85996569       2.66301594       2.20200796 </v>
   <v>      -1.82012438       0.60729863       7.91999841 </v>
   <v>      -3.55447417       2.28309024      -4.04054857 </v>
   <v>       1.03410899      -0.96263213      -0.27120188 </v>
   <v>      -4.19046868      -1.91021757       1.61120003 </v>
   <v>       1.97083779      -1.56414821      -0.67161449 </v>
   <v>       1.25174808       2.38796006       1.54675570 </v>
   <v>      -0.92767603       3.06800934      -2.55521798 </v>
   <v>      -7.99882955      -2.35798127      -3.80749141 </v>
   <v>       2.73498612       0.96689394      -0.14806247 </v>
   <v>      -2.61128015       1.35106034      -2.96329561 </v>
   <v>      -0.33967569       1.01205320       2.03044276 </v>
   <v>      -0.62006468       1.31862183       4.44701664 </v>
   <v>      -0.75482002       8.02567746       2.46129772 </v>
   <v>       1.76768064      -1.94648116       2.45716683 </v>
   <v>       3.00647575       4.30301682       2.16213789 </v>
   <v>      -1.70528401      -0.04295270      -1.69423103 </v>
   <v>       3.78223643       2.28874748       0.87699159 </v>
   <v>      -4.25392302      -2.24981051      -0.39079234 </v>
   <v>       0.60669181      -6.20379005      -1.20993775 </v>
   <v>       3.59490220       1.45883438       4.32460800 </v>
   <v>       0.16814378      -0.44243502       1.24435441 </v>
   <v>      -1.30660410       3.34149030       1.20709708 </v>
   <v>      -2.69385384      -3.50870337      -4.15431666 </v>
   <v>      -1.53143752      -5.59693106       0.58665936 </v>
   <v>       3.09756017       0.36640158       1.59559732 </v>
   <v>       2.76377356      -0.45434665       0.66056131 </v>
   <v>      -2.36004374      -4.10058405      -0.65964675 </v>
   <v>       1.50884735      -2.73143507      -2.95059926 </v>
   <v>      -3.99909876       5.50467021       2.50279796 </v>
   <v>      -5.29670387      -0.92514793       2.66287876 </v>
   <v>       0.04963335       3.89770867       1.27279139 </v>
   <v>       3.78468437      -1.07762357       2.38903193 </v>
   <v>       0.10080173      -6.29779580      -1.00088370 </v>
   <v>       3.63687190       0.01026313      -1.95977663 </v>
   <v>     -12.69736917       8.89615984       5.52037918 </v>
   <v>       2.31049111      -2.96117119      -1.36824370 </v>
   <v>      -0.40153268      -1.92429829       0.30922530 </v>
   <v>      -0.95921737      -5.84997450      -0.35344033 </v>
   <v>       0.16518085       2.49671143      -0.79834155 </v>
   <v>      -0.79836405      -2.97432349      -5.46045117 </v>
   <v>       4.61114460      -2.24418291      -2.97501484 </v>
   <v>      -2.17035007       2.88195729      -3.00695226 </v>
   <v>       1.94057831       2.19303018       3.68098432 </v>
   <v>      -1.91738435      -4.87971474       2.27541394 </v>
   <v>      -1.33092465      -7.12159751       2.68054910 </v>
   <v>      -3.86529263       7.75763326       0.68889710 </v>
   <v>       0.79335979       0.37258511       0.90612192 </v>
   <v>      -2.79138611       4.53920330      -2.63633926 </v>
   <v>       2.74939727       3.24758462      -0.24968338 </v>
   <v>      -1.66459423      -2.45738249      -1.11522750 </v>
   <v>       1.26317041       1.39279635       0.59400581 </v>
   <v>      -0.51990585      -1.32266002      -0.75582995 </v>
   <v>       1.21134796       2.25219103       2.09362747 </v>
   <v>      -1.18097871      -0.83784032      -1.39116543 </v>
   <v>      -0.05821120      -1.44792844      -1.04348033 </v>
   <v>       3.30823061       1.59668188       2.96079661 </v>
   <v>       1.45310087       5.92002097      -4.62209089 </v>
   <v>       0.69444240       1.08044963      -1.42579782 </v>
   <v>       2.98527257      -1.42388155       1.74381282 </v>
   <v>      -3.07520892      -2.75009321       1.87083978 </v>
   <v>      -4.79414479      -0.52660569       0.43903634 </v>
   <v>      -1.71179088      -0.22573736       1.36702415 </v>
   <v>      -4.15150387      -3.77789222       3.54204448 </v>
   <v>       1.59449228      -4.88736972      -1.55988791 </v>
   <v>     -11.79078154      16.12339484      -0.36358253 </v>
   <v>       0.91872848       1.32132208      -0.62061618 </v>
   <v>      -2.93364838      -1.36966294       1.32565864 </v>
   <v>      -0.23346347       0.20396645       3.13188849 </v>
   <v>       0.29334918       1.19809479      -1.16648717 </v>
   <v>      -0.89114100      -1.32495454      -0.92421347 </v>
   <v>       3.16168445       2.59529423       1.63352475 </v>
  </varray>
  <varray name="stress" >
   <v>     345.11672819     -34.64196808       4.32633509 </v>
   <v>     -34.64196808     359.52897965      37.59075015 </v>
   <v>       4.32633508      37.59075014     290.40838194 </v>
  </varray>
  <energy>
   <i name="e_fr_energy">   -854.73255560 </i>
   <i name="e_wo_entrp">   -854.73008973 </i>
   <i name="e_0_energy">     -0.00493175 </i>
  </energy>
  <time name="totalsc">  745.12  745.58</time>
  <eigenvalues>
   <array>
    <dimension dim="1">band</dimension>
    <dimension dim="2">kpoint</dimension>
    <dimension dim="3">spin</dimension>
    <field>eigene</field>
    <field>occ</field>
    <set>
     <set comment="spin 1">
      <set comment="kpoint 1">
       <r>  -34.4326    1.0000 </r>
       <r>  -34.1248    1.0000 </r>
       <r>  -33.9996    1.0000 </r>
       <r>  -33.8614    1.0000 </r>
       <r>  -33.7763    1.0000 </r>
       <r>  -33.7585    1.0000 </r>
       <r>  -33.6291    1.0000 </r>
       <r>  -33.5656    1.0000 </r>
       <r>  -33.4158    1.0000 </r>
       <r>  -33.3235    1.0000 </r>
       <r>  -33.2640    1.0000 </r>
       <r>  -32.9942    1.0000 </r>
       <r>  -32.9611    1.0000 </r>
       <r>  -32.8427    1.0000 </r>
       <r>  -32.7539    1.0000 </r>
       <r>  -32.6903    1.0000 </r>
       <r>  -32.6303    1.0000 </r>
       <r>  -32.4270    1.0000 </r>
       <r>  -32.4242    1.0000 </r>
       <r>  -32.3423    1.0000 </r>
       <r>  -32.3126    1.0000 </r>
       <r>  -32.1334    1.0000 </r>
       <r>  -32.0325    1.0000 </r>
       <r>  -31.7430    1.0000 </r>
       <r>  -31.6779    1.0000 </r>
       <r>  -31.5917    1.0000 </r>
       <r>  -30.9124    1.0000 </r>
       <r>  -17.3290    1.0000 </r>
       <r>  -17.1755    1.0000 </r>
       <r>  -16.8646    1.0000 </r>
       <r>  -16.7929    1.0000 </r>
       <r>  -16.6680    1.0000 </r>
       <r>  -16.5989    1.0000 </r>
       <r>  -16.4988    1.0000 </r>
       <r>  -16.4460    1.0000 </r>
[...]
       <r>     7.3322     9.8760   865.7083 </r>
       <r>     7.5045     1.7072   866.0025 </r>
       <r>     7.6768    10.9644   867.8919 </r>
       <r>     7.8492     0.7993   868.0296 </r>
       <r>     8.0215    11.0742   869.9380 </r>
       <r>     8.1938     0.3628   870.0005 </r>
       <r>     8.3661     2.3676   870.4085 </r>
       <r>     8.5384     8.0315   871.7925 </r>
       <r>     8.7108    20.3422   875.2979 </r>
       <r>     8.8831    16.3068   878.1079 </r>
       <r>     9.0554    27.4148   882.8321 </r>
       <r>     9.2277    23.0210   886.7992 </r>
       <r>     9.4001    21.0210   890.4216 </r>
       <r>     9.5724    26.8998   895.0570 </r>
       <r>     9.7447    42.5152   902.3833 </r>
       <r>     9.9170    41.5142   909.5372 </r>
       <r>    10.0893    37.7216   916.0375 </r>
       <r>    10.2617    28.2393   920.9038 </r>
       <r>    10.4340    36.6636   927.2217 </r>
       <r>    10.6063    48.1452   935.5182 </r>
       <r>    10.7786    48.5709   943.8881 </r>
       <r>    10.9510    50.3113   952.5579 </r>
       <r>    11.1233    53.9242   961.8503 </r>
       <r>    11.2956    45.9041   969.7606 </r>
       <r>    11.4679    44.0085   977.3443 </r>
       <r>    11.6403    54.7232   986.7743 </r>
       <r>    11.8126    57.7120   996.7194 </r>
       <r>    11.9849    60.4301  1007.1329 </r>
       <r>    12.1572    58.0964  1017.1442 </r>
       <r>    12.3295    59.5848  1027.4121 </r>
       <r>    12.5019    59.5878  1037.6804 </r>
       <r>    12.6742    13.4585  1039.9996 </r>
       <r>    12.8465     0.0023  1040.0000 </r>
       <r>    13.0188     0.0000  1040.0000 </r>
       <r>    13.1912     0.0000  1040.0000 </r>
       <r>    13.3635     0.0000  1040.0000 </r>
       <r>    13.5358     0.0000  1040.0000 </r>
       <r>    13.7081     0.0000  1040.0000 </r>
       <r>    13.8804     0.0000  1040.0000 </r>
       <r>    14.0528     0.0000  1040.0000 </r>
       <r>    14.2251     0.0000  1040.0000 </r>
       <r>    14.3974     0.0000  1040.0000 </r>
       <r>    14.5697     0.0000  1040.0000 </r>
       <r>    14.7421     0.0000  1040.0000 </r>
       <r>    14.9144     0.0000  1040.0000 </r>
      </set>
     </set>
    </array>
   </total>
  </dos>
 </calculation>
 <structure name="finalpos" >
  <crystal>
   <varray name="basis" >
    <v>      11.12194768       0.00000000       0.00000000 </v>
    <v>       0.00000000      11.12194768       0.00000000 </v>
    <v>       0.00000000       0.00000000      11.12194768 </v>
   </varray>
   <i name="volume">   1375.75957216 </i>
   <varray name="rec_basis" >
    <v>       0.08991231       0.00000000       0.00000000 </v>
    <v>       0.00000000       0.08991231       0.00000000 </v>
    <v>       0.00000000       0.00000000       0.08991231 </v>
   </varray>
  </crystal>
  <varray name="positions" >
   <v>       0.90692877       0.50888417       0.05836429 </v>
   <v>       0.68250698       0.04872084       0.74492358 </v>
   <v>       0.20801929       0.14308623       0.46574600 </v>
   <v>       0.42802477       0.17931465       0.75395680 </v>
   <v>       0.68495716       0.46957039       0.14544628 </v>
   <v>       0.79951129       0.50270015       0.80581380 </v>
   <v>       0.31427987       0.91979847       0.28440904 </v>
   <v>       0.08673300       0.03032675       0.20456822 </v>
   <v>       0.50369024       0.24079270       0.45374827 </v>
   <v>       0.49236999       0.63826837       0.03024797 </v>
   <v>       0.53566550       0.75137740       0.75185637 </v>
   <v>       0.56636151       0.69269958       0.31809232 </v>
   <v>       0.48420957       0.41513354       0.85252681 </v>
   <v>       0.06568553       0.35494554       0.52642092 </v>
   <v>       0.07688946       0.75006690       0.84856303 </v>
   <v>       0.28220776       0.74275851       0.07336672 </v>
   <v>       0.60291876       0.87558124       0.50603301 </v>
   <v>       0.42413927       0.20967759       0.12635273 </v>
   <v>       0.06754773       0.58933353       0.58798965 </v>
   <v>       0.33330458       0.63309203       0.55765755 </v>
   <v>       0.85046552       0.97383814       0.95981506 </v>
   <v>       0.68168055       0.83694638       0.10599550 </v>
   <v>       0.13409836       0.42755655       0.94957881 </v>
   <v>       0.11920322       0.10471764       0.75240451 </v>
   <v>       0.90454874       0.83036367       0.40867431 </v>
   <v>       0.14954817       0.07307586       0.95463309 </v>
   <v>       0.14203462       0.57491195       0.25946726 </v>
   <v>       0.28131125       0.87143371       0.83095595 </v>
   <v>       0.27004601       0.56795437       0.82081852 </v>
   <v>       0.97215556       0.31181727       0.29126148 </v>
   <v>       0.78593110       0.63326739       0.47228033 </v>
   <v>       0.89002561       0.06309164       0.53200286 </v>
   <v>       0.86256461       0.03315161       0.29272187 </v>
   <v>       0.42979797       0.93165121       0.06973581 </v>
   <v>       0.96786242       0.31249938       0.79806354 </v>
   <v>       0.17214192       0.71393532       0.39113872 </v>
   <v>       0.81665432       0.61989873       0.24563188 </v>
   <v>       0.87400244       0.80614755       0.69803693 </v>
   <v>       0.73613136       0.23635454       0.24480715 </v>
   <v>       0.19131963       0.22934068       0.21689943 </v>
   <v>       0.12917297       0.87257061       0.57329950 </v>
   <v>       0.36041367       0.47572913       0.15613181 </v>
   <v>       0.59018732       0.08121811       0.95458706 </v>
   <v>       0.96493580       0.24174503       0.04856792 </v>
   <v>       0.76594505       0.38929489       0.44113551 </v>
   <v>       0.77418161       0.73181984       0.88006058 </v>
   <v>       0.37685296       0.94855240       0.59779172 </v>
   <v>       0.31515403       0.35640827       0.63675145 </v>
   <v>       0.56937542       0.51870061       0.59767693 </v>
   <v>       0.74808558       0.27463411       0.64321006 </v>
   <v>       0.01992046       0.79445284       0.10239642 </v>
   <v>       0.62000137       0.02128406       0.28072446 </v>
   <v>       0.35583419       0.40541869       0.38450363 </v>
   <v>       0.70529779       0.27419075       0.94435595 </v>
   <v>       0.18695249       0.21415635       0.06321933 </v>
   <v>       0.10297147       0.84561932       0.44344570 </v>
   <v>       0.47206935       0.37152701       0.30377594 </v>
   <v>       0.28605118       0.94457107       0.07391960 </v>
   <v>       0.24920460       0.49575040       0.63885540 </v>
   <v>       0.77191292       0.30368107       0.79063150 </v>
   <v>       0.29888439       0.43531757       0.87007712 </v>
   <v>       0.66684313       0.64422183       0.90794609 </v>
   <v>       0.85151843       0.29377777       0.48676702 </v>
   <v>       0.18470176       0.71140855       0.54033113 </v>
   <v>       0.95540714       0.38615022       0.65586295 </v>
   <v>       0.09988108       0.19544480       0.33778198 </v>
   <v>       0.71605430       0.51624435       0.35570593 </v>
   <v>       0.18590797       0.85768969       0.71354216 </v>
   <v>       0.62865448       0.27107464       0.11839190 </v>
   <v>       0.06258825       0.40369269       0.33799921 </v>
   <v>       0.77651659       0.99651707       0.41051929 </v>
   <v>       0.50913849       0.48159441       0.48479901 </v>
   <v>       0.60644268       0.20912219       0.64636408 </v>
   <v>       0.70217914       0.64212633       0.16501165 </v>
   <v>       0.25152038       0.73595701       0.88197164 </v>
   <v>       0.83460381       0.36873939       0.26505321 </v>
   <v>       0.90126948       0.80127610       0.84451181 </v>
   <v>       0.54717573       0.02842353       0.13118236 </v>
   <v>       0.03697532       0.30792181       0.14923500 </v>
   <v>       0.66410858       0.92144756       0.93477404 </v>
   <v>       0.72722517       0.07865363       0.20534187 </v>
   <v>       0.42876386       0.11287624       0.57223881 </v>
   <v>       0.57812792       0.58532906       0.72171775 </v>
   <v>       0.78714102       0.93620441       0.58942685 </v>
   <v>       0.87995334       0.62662824       0.90934948 </v>
   <v>       0.46082013       0.39919819       0.05107147 </v>
   <v>       0.83890395       0.31068794       0.09653729 </v>
   <v>       0.40864135       0.64919192       0.83875207 </v>
   <v>       0.40626832       0.86662625       0.44443091 </v>
   <v>       0.51521634       0.95674761       0.66913154 </v>
   <v>       0.08576221       0.91317661       0.03183967 </v>
   <v>       0.29292885       0.16549203       0.30335324 </v>
   <v>       0.30099238       0.33108810       0.17954809 </v>
   <v>       0.75079679       0.74701622       0.73245355 </v>
   <v>       0.29472513       0.00559176       0.76575061 </v>
   <v>       0.23987204       0.54409629       0.07649732 </v>
   <v>       0.79838238       0.15214590       0.61540381 </v>
   <v>       0.90567800       0.37221980       0.92816061 </v>
   <v>       0.03574510       0.95283652       0.59561430 </v>
   <v>       0.50724444       0.09538378       0.33864598 </v>
   <v>       0.37139664       0.81366043       0.66731367 </v>
   <v>       0.41275996       0.90640238       0.90757606 </v>
   <v>       0.06292833       0.65584055       0.05278724 </v>
   <v>       0.82875514       0.74733692       0.56111165 </v>
   <v>       0.98216837       0.17588949       0.60841733 </v>
   <v>       0.98026139       0.01339489       0.41220594 </v>
   <v>       0.76426387       0.71166333       0.34146487 </v>
   <v>       0.68996289       0.44654393       0.94116410 </v>
   <v>       0.50108387       0.82426542       0.10640406 </v>
   <v>       0.74160685       0.10253964       0.95677453 </v>
   <v>       0.92831030       0.15252781       0.82267049 </v>
   <v>       0.45658165       0.33995519       0.68570221 </v>
   <v>       0.43079239       0.57922924       0.21202751 </v>
   <v>       0.95245209       0.60053909       0.24893394 </v>
   <v>       0.98617370       0.71904626       0.67933671 </v>
   <v>       0.63608238       0.88249186       0.30195970 </v>
   <v>       0.12157464       0.54859672       0.79083901 </v>
   <v>       0.99352912       0.10756784       0.04976888 </v>
   <v>       0.22255625       0.26792658       0.69454905 </v>
   <v>       0.64798408       0.27137407       0.34418355 </v>
   <v>       0.43695244       0.06496121       0.99347998 </v>
   <v>       0.87205006       0.76679777       0.12822716 </v>
   <v>       0.67590101       0.40884288       0.56544215 </v>
   <v>       0.92130818       0.97416603       0.17472796 </v>
   <v>       0.31323079       0.72278486       0.32084681 </v>
   <v>       0.24815594       0.96859347       0.52598913 </v>
   <v>       0.91314601       0.18280570       0.24361174 </v>
   <v>       0.08910374       0.28858813       0.86834839 </v>
   <v>       0.29433786       0.50770519       0.38356379 </v>
   <v>       0.09600147       0.78705186       0.23526230 </v>
   <v>       0.32946135       0.31992776       0.49262215 </v>
   <v>       0.58535136       0.20669114       0.86421711 </v>
   <v>       0.06184585       0.61913187       0.41107068 </v>
   <v>       0.87327560       0.52693067       0.51149549 </v>
   <v>       0.62124229       0.63851858       0.50509357 </v>
  </varray>
  <varray name="velocities" >
   <v>       0.00000000       0.00000000       0.00000000 </v>
   <v>       0.00000000       0.00000000       0.00000000 </v>
   <v>       0.00000000       0.00000000       0.00000000 </v>
   <v>       0.00000000       0.00000000       0.00000000 </v>
   <v>       0.00000000       0.00000000       0.00000000 </v>
   <v>       0.00000000       0.00000000       0.00000000 </v>
   <v>       0.00000000       0.00000000       0.00000000 </v>
   <v>       0.00000000       0.00000000       0.00000000 </v>
   <v>       0.00000000       0.00000000       0.00000000 </v>
   <v>       0.00000000       0.00000000       0.00000000 </v>
   <v>       0.00000000       0.00000000       0.00000000 </v>
   <v>       0.00000000       0.00000000       0.00000000 </v>
   <v>       0.00000000       0.00000000       0.00000000 </v>
   <v>       0.00000000       0.00000000       0.00000000 </v>
   <v>       0.00000000       0.00000000       0.00000000 </v>
   <v>       0.00000000       0.00000000       0.00000000 </v>
   <v>       0.00000000       0.00000000       0.00000000 </v>
   <v>       0.00000000       0.00000000       0.00000000 </v>
   <v>       0.00000000       0.00000000       0.00000000 </v>
   <v>       0.00000000       0.00000000       0.00000000 </v>
   <v>       0.00000000       0.00000000       0.00000000 </v>
   <v>       0.00000000       0.00000000       0.00000000 </v>
   <v>       0.00000000       0.00000000       0.00000000 </v>
   <v>       0.00000000       0.00000000       0.00000000 </v>
   <v>       0.00000000       0.00000000       0.00000000 </v>
   <v>       0.00000000       0.00000000       0.00000000 </v>
   <v>       0.00000000       0.00000000       0.00000000 </v>
   <v>       0.00000000       0.00000000       0.00000000 </v>
   <v>       0.00000000       0.00000000       0.00000000 </v>
   <v>       0.00000000       0.00000000       0.00000000 </v>
   <v>       0.00000000       0.00000000       0.00000000 </v>
   <v>       0.00000000       0.00000000       0.00000000 </v>
   <v>       0.00000000       0.00000000       0.00000000 </v>
   <v>       0.00000000       0.00000000       0.00000000 </v>
   <v>       0.00000000       0.00000000       0.00000000 </v>
   <v>       0.00000000       0.00000000       0.00000000 </v>
   <v>       0.00000000       0.00000000       0.00000000 </v>
   <v>       0.00000000       0.00000000       0.00000000 </v>
   <v>       0.00000000       0.00000000       0.00000000 </v>
   <v>       0.00000000       0.00000000       0.00000000 </v>
   <v>       0.00000000       0.00000000       0.00000000 </v>
   <v>       0.00000000       0.00000000       0.00000000 </v>
   <v>       0.00000000       0.00000000       0.00000000 </v>
   <v>       0.00000000       0.00000000       0.00000000 </v>
   <v>       0.00000000       0.00000000       0.00000000 </v>
   <v>       0.00000000       0.00000000       0.00000000 </v>
   <v>       0.00000000       0.00000000       0.00000000 </v>
   <v>       0.00000000       0.00000000       0.00000000 </v>
   <v>       0.00000000       0.00000000       0.00000000 </v>
   <v>       0.00000000       0.00000000       0.00000000 </v>
   <v>       0.00000000       0.00000000       0.00000000 </v>
   <v>       0.00000000       0.00000000       0.00000000 </v>
   <v>       0.00000000       0.00000000       0.00000000 </v>
   <v>       0.00000000       0.00000000       0.00000000 </v>
   <v>       0.00000000       0.00000000       0.00000000 </v>
   <v>       0.00000000       0.00000000       0.00000000 </v>
   <v>       0.00000000       0.00000000       0.00000000 </v>
   <v>       0.00000000       0.00000000       0.00000000 </v>
   <v>       0.00000000       0.00000000       0.00000000 </v>
   <v>       0.00000000       0.00000000       0.00000000 </v>
   <v>       0.00000000       0.00000000       0.00000000 </v>
   <v>       0.00000000       0.00000000       0.00000000 </v>
   <v>       0.00000000       0.00000000       0.00000000 </v>
   <v>       0.00000000       0.00000000       0.00000000 </v>
   <v>       0.00000000       0.00000000       0.00000000 </v>
   <v>       0.00000000       0.00000000       0.00000000 </v>
   <v>       0.00000000       0.00000000       0.00000000 </v>
   <v>       0.00000000       0.00000000       0.00000000 </v>
   <v>       0.00000000       0.00000000       0.00000000 </v>
   <v>       0.00000000       0.00000000       0.00000000 </v>
   <v>       0.00000000       0.00000000       0.00000000 </v>
   <v>       0.00000000       0.00000000       0.00000000 </v>
   <v>       0.00000000       0.00000000       0.00000000 </v>
   <v>       0.00000000       0.00000000       0.00000000 </v>
   <v>       0.00000000       0.00000000       0.00000000 </v>
   <v>       0.00000000       0.00000000       0.00000000 </v>
   <v>       0.00000000       0.00000000       0.00000000 </v>
   <v>       0.00000000       0.00000000       0.00000000 </v>
   <v>       0.00000000       0.00000000       0.00000000 </v>
   <v>       0.00000000       0.00000000       0.00000000 </v>
   <v>       0.00000000       0.00000000       0.00000000 </v>
   <v>       0.00000000       0.00000000       0.00000000 </v>
   <v>       0.00000000       0.00000000       0.00000000 </v>
   <v>       0.00000000       0.00000000       0.00000000 </v>
   <v>       0.00000000       0.00000000       0.00000000 </v>
   <v>       0.00000000       0.00000000       0.00000000 </v>
   <v>       0.00000000       0.00000000       0.00000000 </v>
   <v>       0.00000000       0.00000000       0.00000000 </v>
   <v>       0.00000000       0.00000000       0.00000000 </v>
   <v>       0.00000000       0.00000000       0.00000000 </v>
   <v>       0.00000000       0.00000000       0.00000000 </v>
   <v>       0.00000000       0.00000000       0.00000000 </v>
   <v>       0.00000000       0.00000000       0.00000000 </v>
   <v>       0.00000000       0.00000000       0.00000000 </v>
   <v>       0.00000000       0.00000000       0.00000000 </v>
   <v>       0.00000000       0.00000000       0.00000000 </v>
   <v>       0.00000000       0.00000000       0.00000000 </v>
   <v>       0.00000000       0.00000000       0.00000000 </v>
   <v>       0.00000000       0.00000000       0.00000000 </v>
   <v>       0.00000000       0.00000000       0.00000000 </v>
   <v>       0.00000000       0.00000000       0.00000000 </v>
   <v>       0.00000000       0.00000000       0.00000000 </v>
   <v>       0.00000000       0.00000000       0.00000000 </v>
   <v>       0.00000000       0.00000000       0.00000000 </v>
   <v>       0.00000000       0.00000000       0.00000000 </v>
   <v>       0.00000000       0.00000000       0.00000000 </v>
   <v>       0.00000000       0.00000000       0.00000000 </v>
   <v>       0.00000000       0.00000000       0.00000000 </v>
   <v>       0.00000000       0.00000000       0.00000000 </v>
   <v>       0.00000000       0.00000000       0.00000000 </v>
   <v>       0.00000000       0.00000000       0.00000000 </v>
   <v>       0.00000000       0.00000000       0.00000000 </v>
   <v>       0.00000000       0.00000000       0.00000000 </v>
   <v>       0.00000000       0.00000000       0.00000000 </v>
   <v>       0.00000000       0.00000000       0.00000000 </v>
   <v>       0.00000000       0.00000000       0.00000000 </v>
   <v>       0.00000000       0.00000000       0.00000000 </v>
   <v>       0.00000000       0.00000000       0.00000000 </v>
   <v>       0.00000000       0.00000000       0.00000000 </v>
   <v>       0.00000000       0.00000000       0.00000000 </v>
   <v>       0.00000000       0.00000000       0.00000000 </v>
   <v>       0.00000000       0.00000000       0.00000000 </v>
   <v>       0.00000000       0.00000000       0.00000000 </v>
   <v>       0.00000000       0.00000000       0.00000000 </v>
   <v>       0.00000000       0.00000000       0.00000000 </v>
   <v>       0.00000000       0.00000000       0.00000000 </v>
   <v>       0.00000000       0.00000000       0.00000000 </v>
   <v>       0.00000000       0.00000000       0.00000000 </v>
   <v>       0.00000000       0.00000000       0.00000000 </v>
   <v>       0.00000000       0.00000000       0.00000000 </v>
   <v>       0.00000000       0.00000000       0.00000000 </v>
   <v>       0.00000000       0.00000000       0.00000000 </v>
   <v>       0.00000000       0.00000000       0.00000000 </v>
   <v>       0.00000000       0.00000000       0.00000000 </v>
   <v>       0.00000000       0.00000000       0.00000000 </v>
  </varray>
 </structure>
</modeling>
