  2.7854070e-01   3.0723825e-02
 -7.9164602e-02   1.7128756e-02
  3.9938354e-01   2.6824249e-02
  2.3232518e-01   2.4252575e-02
  1.1782973e+00   1.9021004e-02
  1.5034518e-01   1.4101679e-02
  1.5989290e-01   4.4533327e-02
 -7.8222764e-01   3.4980528e-02
 -1.5295539e+00   3.9798263e-02
 -6.9986570e-01   3.5190485e-02
  3.0631462e-02   4.6658237e-02
 -6.8385851e-01   6.8964846e-02
 -1.0981437e+00   2.6547035e-02
 -1.2683310e-01   9.5167898e-02
 -2.3872818e-01   1.2620042e-01
 -5.5832368e-01   9.8519363e-03
  8.7461621e-01   4.1634623e-02
  7.3145646e-01   2.6487041e-02
  6.3741338e-01   2.9486943e-02
  6.2111016e-02   1.2621748e-02
 -5.2960724e-01   9.3460277e-02
  2.7123541e-01   3.6628999e-02
  1.4318341e+00   1.8556220e-02
 -2.4441597e+00   1.6218826e-02
  7.6181971e-02   1.3551423e-01
  7.6044995e-01   7.1121894e-02
  1.4151199e+00   2.3585755e-02
 -9.9554801e-01   6.0224954e-02
 -1.0269155e-01   5.4858334e-02
 -3.4237169e-02   1.5329279e-02
 -1.2558575e-01   4.9353134e-02
 -4.0022496e-02   3.2978058e-02
 -1.0189289e+00   1.1863953e-03
  3.0673495e-01   6.7386560e-02
 -1.4628489e-01   7.6740474e-02
  1.6229317e+00   1.7353205e-02
 -7.9098827e-01   7.0784174e-02
 -6.6226149e-01   2.6578711e-02
 -7.2883151e-02   2.7293958e-02
  2.6559883e-01   7.7254146e-02
  1.0333806e+00   1.4279769e-02
 -6.6523987e-01   1.6634805e-02
  7.1983016e-01   7.3726021e-02
 -1.3733599e-01   4.3309011e-02
 -9.4955510e-01   7.8518048e-02
 -8.1364274e-01   4.9959444e-02
 -2.8632013e-02   5.4211888e-02
  7.4849856e-01   1.0582918e-01
  1.6219549e-01   5.8038589e-02
 -5.9957117e-01   6.0539555e-02
 -7.3985523e-01   1.1112702e-01
  4.0074551e-01   6.1045431e-02
  3.9358843e-02   6.3523553e-02
  1.2457196e+00   1.6153358e-01
  4.9547204e-01   1.6578626e-02
 -4.8808882e-01   1.9395934e-02
 -5.5765313e-01   1.0265619e-02
 -1.0122350e+00   1.0348354e-02
 -6.7384058e-01   1.3725081e-02
 -5.8007151e-01   2.3096403e-02
 -4.4142906e-02   2.3044756e-02
  1.6309930e+00   5.7846598e-02
  1.5767159e+00   3.3297826e-02
  2.0421073e-01   4.1321993e-02
 -3.3629802e-01   2.6269786e-02
  7.2569346e-01   6.4364091e-02
 -1.7204612e+00   3.2952081e-02
  4.0992913e+00   1.1786390e-02
 -5.7910687e-01   3.5025414e-02
  4.8826420e-01   1.0291060e-01
  5.4219240e-01   1.6570263e-02
  3.9956900e-01   2.0073179e-02
  9.7646719e-01   4.8559975e-02
 -8.7117441e-02   2.8657768e-02
  8.9302026e-03   3.0308256e-02
 -1.6788841e+00   5.2470766e-02
 -3.7746572e-01   3.4084961e-02
 -3.5629466e-01   3.1418130e-02
 -1.9456887e+00   5.3962059e-02
 -4.1616625e-01   3.7371624e-02
 -3.2832727e-01   5.9049845e-02
  1.6498970e+00   8.9841053e-02
  1.3314885e+00   1.0832898e-01
  1.5257341e-01   7.1249418e-02
 -9.2896825e-01   2.0858934e-02
 -8.5096461e-01   4.0452607e-02
 -4.9662653e-01   6.8724610e-02
 -1.5433131e-01   2.2373643e-02
 -3.4662542e-01   4.7180869e-02
 -1.3884299e+00   2.9893429e-03
 -7.3818523e-01   7.8413285e-02
 -2.0980260e-01   3.0880760e-02
  2.1202351e-01   3.9856851e-02
 -1.2013600e+00   8.8868467e-03
 -1.2037663e+00   2.9940780e-02
  1.0242105e-01   2.1464795e-02
 -1.0424174e+00   1.0621085e-02
 -2.8199998e-01   1.1637958e-02
  1.4332228e+00   2.5998926e-02
  8.5176295e-01   7.7174224e-02
 -4.4996369e-01   5.7324473e-02
  7.3154896e-01   1.0079776e-01
  8.5008550e-01   6.0369041e-02
  4.0718452e-03   7.4782739e-03
  6.1328512e-01   1.0897716e-01
  1.3821380e+00   2.4004089e-02
 -6.3662165e-01   2.9026978e-02
  2.0253904e+00   1.0060667e-01
  1.0651824e+00   5.7117371e-03
 -1.2398592e+00   1.2643993e-02
  1.6326394e+00   6.1146840e-03
  1.3235298e+00   1.8252121e-02
  1.5931528e+00   1.1437156e-02
 -4.1026470e-01   1.8685367e-02
 -4.7140220e-01   4.3277748e-02
 -6.6607523e-01   1.4491361e-02
 -5.2044231e-01   1.0623309e-02
  1.2152001e+00   1.0970785e-02
 -1.0721341e+00   5.8051798e-02
  6.7820382e-01   1.7749032e-02
  2.3225775e+00   2.4474882e-02
 -1.0342978e+00   1.8827759e-02
 -2.1844316e-01   1.0565015e-02
 -8.1661671e-01   1.2649636e-02
  7.9875386e-01   2.8692884e-02
  3.6563167e-01   1.8978832e-02
 -9.1213846e-01   2.1318031e-02
  4.0967485e-01   3.0057786e-03
  9.4527267e-02   3.1316873e-02
 -3.8725561e-01   2.3843741e-02
  1.1679690e+00   1.4803923e-02
 -1.2193434e+00   2.3542192e-02
 -5.3242993e-01   1.6989298e-02
  7.1279162e-01   7.6318569e-03
 -1.2404187e+00   1.7314596e-02
  4.1612539e-01   1.2231692e-02
  4.8078805e-02   1.0256265e-02
 -7.2882587e-01   2.7535964e-02
  1.5038803e+00   8.9959241e-03
  1.1298321e+00   1.6773468e-02
  4.1079602e-01   2.4234084e-02
  3.9352345e-01   2.6168623e-03
  3.6417308e+00   2.5198283e-02
  1.6962725e-03   1.2369240e-02
 -1.3230544e+00   1.9202495e-02
  8.4456742e-01   3.8244266e-02
 -1.5096817e+00   3.3271711e-02
 -3.4916165e-01   7.7637280e-03
  3.6659855e-01   3.4297556e-02
 -8.7276977e-01   3.5344623e-02
 -6.4090389e-01   3.2249436e-02
  1.0012635e+00   6.3516987e-03
 -1.6492147e+00   2.6423689e-02
  6.2045497e-01   5.0197210e-02
 -6.2925386e-01   3.0740492e-02
 -2.7050284e-01   1.5327320e-02
  6.8302745e-01   3.4200583e-02
  6.1530745e-01   1.0431860e-01
 -7.3193318e-01   6.9237217e-02
 -1.7393126e-01   1.0054129e-01
  2.0420738e-01   7.2361745e-02
  5.5620778e-01   1.2991589e-01
  3.6340877e-01   1.4314294e-01
 -1.0617592e+00   5.4715477e-02
 -1.7484485e+00   5.5495091e-03
 -3.3407474e+00   1.9333223e-02
 -1.4575961e+00   1.9773407e-02
 -9.5808154e-01   8.1570864e-02
 -1.5797150e-01   1.6940819e-01
 -1.0332891e-01   1.3648730e-02
  1.4542703e-01   2.4413057e-02
  3.9931196e-01   3.1722330e-02
 -2.1517745e-01   4.6426687e-02
  1.0298003e+00   1.1398888e-01
  4.1406131e-01   9.0835020e-02
 -5.0443447e-01   1.3026091e-01
  8.7368834e-01   1.4795931e-01
 -4.5070174e-01   2.2732925e-02
  1.5066547e+00   2.1878448e-03
  4.9665624e-01   9.4987795e-02
 -6.5631169e-01   9.2312582e-02
  4.5587063e-01   4.7731251e-02
 -4.4035241e-01   8.6777888e-02
  3.4208781e-01   9.0274289e-02
 -1.4209111e+00   6.4518057e-02
  3.6575949e-01   1.1056516e-01
  1.6217986e-01   9.9025838e-02
  7.3730344e-01   7.1214043e-02
 -4.8046669e-01   9.7007096e-02
  1.0628831e+00   3.8991056e-02
  9.1189581e-01   1.5714681e-01
  4.1193378e-01   1.0380226e-01
 -7.9535073e-01   9.3521558e-02
  6.3394153e-01   4.6442281e-02
 -1.3935516e+00   1.2748332e-02
 -1.3925586e+00   6.4208366e-02
  1.1159688e+00   6.5508880e-02
  1.2852347e-01   1.1976737e-01
 -7.4238652e-01   3.1392280e-02
 -1.1212361e+00   1.3266040e-01
 -4.7338420e-01   5.9933551e-02
 -1.7355694e+00   4.4834383e-02
  5.0067693e-02   6.9232941e-02
  6.0934488e-02   1.1694256e-02
 -5.3067458e-01   1.7132099e-01
 -1.2640855e+00   5.3153016e-02
 -2.3198204e-01   2.3712644e-02
  1.0967119e-01   1.2740609e-01
  1.1170550e-01   9.6195199e-02
 -1.3888286e+00   1.4533313e-01
 -1.6140956e-01   1.1912939e-01
  6.9833374e-01   6.6563383e-02
 -4.0238649e-01   2.0320825e-01
 -5.0515312e-01   1.4006180e-01
  1.5770155e+00   5.0176922e-02
  4.5966950e-01   1.3132676e-01
 -6.2145043e-02   6.1864164e-02
 -4.9433477e-02   3.3940103e-02
  2.7231678e-01   3.4865301e-02
  1.5714612e+00   6.7521229e-02
 -1.5041826e+00   2.2681882e-03
 -1.1398591e+00   5.2245487e-02
 -4.7193035e-01   5.3212088e-02
  6.6160762e-01   4.2608514e-02
  3.5766831e-01   3.1300236e-02
 -1.6244831e+00   1.0357005e-01
  8.3122909e-01   3.1938907e-02
 -2.1574838e-01   2.1471930e-01
  9.2219532e-01   1.3412723e-02
 -9.4395167e-01   2.3619834e-02
  1.6605025e-05   6.7634068e-02
  1.0219784e+00   3.1283718e-02
 -3.8918012e-01   7.4183874e-02
  9.6018553e-01   7.2024050e-03
 -9.0857106e-01   1.5862626e-01
 -7.4408484e-01   1.0758567e-01
  1.6042501e-02   4.9519219e-02
 -3.4169057e-01   2.0225856e-02
 -3.2731438e-01   9.3837991e-02
 -3.4457248e-01   5.9398461e-02
  1.3973584e+00   4.4840928e-02
 -7.0952183e-01   3.1649616e-02
 -6.5970635e-01   6.5142378e-02
 -5.4558780e-02   2.6690448e-02
  1.5079314e+00   6.4689457e-02
 -7.0872587e-01   8.5954763e-02
  3.4328455e-01   6.7835957e-02
  5.1348376e-01   1.2686607e-01
  2.1188682e-01   1.8766338e-02
 -2.2780209e+00   3.6121279e-02
 -4.0182117e-01   4.2762335e-02
 -1.3012413e+00   2.0099821e-02
 -6.8492636e-02   4.5061417e-02
 -4.2436022e-01   4.7134310e-02
 -3.3760774e-01   3.4194544e-02
 -1.8800800e-01   4.1186698e-02
  1.0614831e-02   8.9912482e-02
 -1.2212033e+00   1.5926210e-02
 -1.8065044e+00   5.5676135e-03
  6.4479023e-01   3.4628581e-02
  1.3197133e-01   1.4767674e-01
 -3.1814098e-01   5.1701885e-02
 -4.0164104e-01   3.5610400e-02
  9.8837845e-02   4.9650460e-02
  7.5498152e-01   2.1102373e-02
 -2.8429586e-01   3.1655397e-02
 -1.0515138e+00   6.6575266e-02
  7.2828871e-01   1.7933945e-01
 -9.9857105e-03   1.7442591e-01
 -7.5188977e-01   2.3969880e-01
  6.8089567e-02   4.8911781e-03
 -8.4900200e-02   1.2064608e-02
  1.3153177e+00   3.3343928e-03
  2.3807929e+00   2.8229814e-03
  5.6445146e-01   4.4448203e-03
 -1.1516491e+00   6.0002003e-03
  2.7501383e+00   2.8509779e-02
 -3.7371662e-02   9.0427874e-03
  2.5096505e+00   1.6280474e-02
 -1.0398159e+00   1.3528507e-02
  9.2192757e-01   1.5695943e-02
 -5.1859218e-01   1.3643674e-02
  3.2194853e-01   1.8660288e-02
  3.1003371e-01   1.6327132e-02
  2.0824203e+00   1.7891059e-02
  1.9886066e-01   4.0829916e-02
  2.4373446e+00   1.3106178e-02
 -1.1421152e+00   1.4209596e-02
  1.0472156e+00   3.1917360e-02
  9.9878512e-02   1.3370595e-02
 -1.4462410e+00   1.5916552e-02
  4.4241998e-01   2.7156249e-02
  2.3969100e+00   1.5479810e-02
  1.7876270e+00   1.9088753e-02
  6.9040738e-02   2.1729641e-02
  1.0622134e+00   1.0631059e-02
 -1.0939051e+00   1.8771557e-02
 -1.4806579e+00   1.9380141e-02
  7.4269396e-01   2.8940672e-02
 -9.2453510e-01   3.5099909e-02
  1.0601213e+00   1.3944203e-02
 -1.0579779e+00   2.2698373e-02
  2.2359245e+00   2.7452137e-02
 -4.1484910e-01   4.7573395e-02
  1.0799624e+00   1.6907681e-02
 -1.6240931e+00   2.0944748e-02
 -1.6735990e+00   1.5199441e-02
  8.2856612e-03   1.3778645e-02
 -8.3662605e-01   1.0744781e-02
  2.8901160e-01   1.0754596e-02
 -1.1848690e-01   1.2486616e-02
  1.5357371e-01   1.4342299e-02
 -6.7838168e-01   3.8682468e-02
  2.4260615e-01   4.6318737e-03
  1.5506707e+00   9.4215972e-03
 -2.3775651e-01   6.8443045e-02
 -2.0610532e-01   7.7412784e-02
  3.0069587e-01   2.2664219e-02
  2.0852700e-02   4.4591729e-02
 -6.1063701e-01   3.1673674e-02
  5.4028898e-01   6.4173549e-02
  2.2517151e-01   6.4563908e-02
 -6.2947345e-01   9.6094675e-02
  4.3306047e-01   4.6875551e-02
 -6.7118371e-01   2.0488538e-02
 -9.6020979e-01   1.5259778e-01
 -2.4874742e+00   1.8603694e-02
  1.0916104e+00   1.3431013e-01
  1.7803112e+00   9.8787425e-03
 -2.5010335e-01   6.7710526e-02
  1.0812132e-01   1.8841948e-01
 -1.6041822e+00   1.8729571e-01
 -1.9010974e-01   8.4570341e-02
  5.1763177e-01   8.1408717e-02
 -1.0413338e+00   1.0709246e-01
  8.3309990e-01   7.7182390e-02
 -7.4412000e-01   3.3341035e-02
  9.1854811e-02   3.0890644e-02
  7.1047115e-01   3.8926039e-02
  7.7352303e-01   1.9076519e-01
 -2.6050478e-02   9.3959212e-02
  1.3656746e+00   9.5832897e-03
  4.9818453e-01   2.2829238e-01
  8.8088250e-01   5.7684677e-03
 -9.6182358e-01   1.2045610e-01
 -2.4149252e-02   1.6027232e-01
 -2.4647591e-01   4.0989883e-02
  4.1473693e-01   7.2410680e-02
 -1.1278598e-01   5.9151433e-02
 -2.0489972e+00   7.2206706e-02
  2.1875812e-01   8.9130402e-02
 -9.5582610e-01   5.1160976e-02
  8.9773077e-01   5.1485188e-02
 -7.9134148e-01   6.3168861e-02
 -4.0260357e-01   8.5711345e-02
 -8.4204251e-01   1.4604431e-01
  2.8000429e-01   1.0711369e-01
  1.2362058e-01   8.2323514e-02
  4.2571056e-01   2.1283476e-01
 -6.8480855e-01   1.6125363e-01
 -1.1930494e+00   6.3369535e-02
  8.1934229e-02   9.7477667e-02
  3.5721850e-01   6.2605329e-02
  1.6612227e-01   1.2571232e-02
  1.5372357e+00   5.2100733e-02
  9.2054293e-02   1.7977795e-01
  7.9001635e-01   2.3562615e-03
 -2.0752466e-01   9.2211012e-03
 -1.5356655e-02   2.7895629e-02
  2.5560179e-01   6.6761345e-02
  7.3317236e-01   4.5525547e-02
  5.4474372e-01   8.8559859e-02
  2.5970197e+00   4.1401582e-03
 -3.0866694e-01   7.2133422e-02
  6.2559955e-02   1.5210307e-01
 -1.1618456e+00   3.3424720e-02
 -7.7707106e-01   9.4091035e-02
 -6.4765388e-01   1.1164062e-01
 -6.0887963e-01   3.0596288e-02
  8.1431675e-01   3.4503020e-02
 -1.1409539e+00   1.2121471e-02
  5.2094173e-01   4.9719613e-02
 -1.2324346e+00   4.6142954e-03
 -9.8939919e-01   9.6366489e-03
 -1.4781957e+00   2.4461490e-01
  1.0917133e+00   3.7628498e-02
  5.6092578e-01   2.1332907e-02
 -5.6776339e-01   4.4712119e-02
 -6.0281301e-01   4.7936991e-02
 -2.1972194e-01   7.0728756e-02
 -1.0503640e+00   1.3708957e-01
  1.1285801e+00   5.2788209e-02
 -9.4194674e-01   6.5376483e-02
  3.4076312e-01   1.7535659e-02
  8.7508011e-01   5.4964337e-02
 -4.8742846e-01   9.2961103e-02
 -8.3664700e-02   2.0683272e-02
 -7.2268891e-01   3.7544657e-02
  4.8247710e-01   9.3873501e-02
 -2.0386941e+00   4.4242935e-03
 -8.7979132e-01   5.6143686e-02
  4.1029564e-01   7.4182719e-02
 -9.5277929e-01   6.3894071e-02
 -1.0675000e+00   4.1226462e-02
 -6.3772649e-01   6.0088616e-02
 -6.4733255e-01   1.2393107e-01
 -6.4694941e-01   3.0375976e-02
  6.1852872e-01   2.1648943e-02
 -1.7703896e+00   1.6019126e-02
  7.6207179e-01   4.9049418e-02
 -3.1090522e-01   4.9293493e-03
  8.3530343e-01   9.5363498e-02
 -3.3359995e-01   3.0857325e-02
 -4.3896905e-01   4.6213962e-02
 -1.4218165e+00   3.5350874e-02
 -1.0031857e-01   3.5711501e-02
 -2.5631461e-01   6.0595300e-02
  2.2261219e-01   1.1621939e-01
 -2.3268664e-01   1.3728850e-02
 -5.5155611e-01   8.9546472e-02
  8.9438841e-02   8.4051803e-02
 -4.6749726e-01   5.1122592e-03
  2.9081976e-01   2.9062705e-02
 -2.0991801e-01   6.0766481e-02
 -5.0106728e-01   8.5905110e-03
 -6.6847229e-01   1.0560589e-01
  3.2506853e-02   8.7916050e-03
 -1.4527377e-01   8.3145574e-02
 -4.8116556e-01   8.0132335e-02
  9.7856849e-01   5.7463400e-02
  1.0133892e+00   1.5565547e-01
 -1.1426422e-01   3.3640973e-02
  1.9984055e-01   3.4216959e-02
 -1.5136620e+00   1.1257624e-01
 -6.7939597e-01   3.0324699e-02
 -1.2187346e+00   2.6721057e-02
 -1.8757987e+00   2.9227266e-02
  9.3891877e-01   3.8587612e-03
  1.2024097e+00   1.1770111e-01
  2.7306654e+00   1.2202595e-02
  8.9628059e-01   1.0538150e-01
  8.8318574e-01   2.6102971e-02
 -4.0512723e-01   1.2353701e-01
  5.2825278e-01   7.2682267e-03
 -1.4034733e-01   2.4949884e-02
 -1.9445917e-01   8.7684728e-02
 -8.2157856e-01   2.3465371e-02
  2.1243413e-01   4.6008319e-02
 -2.7587754e-01   1.0063580e-02
 -3.5500711e-01   4.6429265e-02
  5.0014186e-01   1.5269454e-02
  2.9439792e-01   7.7550434e-02
  4.8921517e-01   2.7138732e-02
  5.7326858e-03   3.7305553e-02
 -3.1694001e-01   5.6824367e-03
  5.0490905e-02   5.8912452e-02
 -1.6492375e+00   8.9755967e-02
  5.0235298e-02   2.9613411e-02
 -3.2473210e-01   1.6036521e-01
 -1.1246450e+00   2.2645505e-02
  9.6951365e-01   5.5933088e-02
 -4.7436288e-01   1.2276876e-02
 -5.5570967e-02   2.7458435e-02
  9.2391759e-01   4.1409709e-02
  9.5934248e-01   7.6967880e-02
 -4.2676881e-01   3.8451076e-02
  8.7672925e-01   1.3411615e-02
  1.0096124e+00   4.3562692e-02
  1.5391395e+00   7.0970520e-02
 -1.5992621e+00   9.0350270e-02
 -9.4170824e-02   2.2694483e-02
 -5.7855403e-01   4.5648642e-02
  9.1186702e-01   8.0385879e-02
  7.1582115e-01   7.7105820e-02
 -3.4122810e-01   2.0309824e-02
  1.3304753e+00   3.9817650e-02
 -6.3836282e-01   6.1528296e-03
 -9.3469626e-01   2.3236686e-02
 -7.7089894e-01   1.4214094e-01
  1.0926424e-01   9.2705771e-02
  2.8547803e-01   1.0648990e-01
 -1.3914218e+00   1.0194638e-01
 -4.4465482e-01   7.7434257e-02
  6.2761027e-01   1.7418393e-01
  1.6095300e+00   8.0638584e-03
  9.8340696e-01   1.4298651e-01
 -3.0472052e+00   7.5534144e-03
 -4.7759438e-01   2.4295904e-02
  4.7563165e-01   2.6719728e-03
  6.6426980e-01   5.5350997e-03
 -6.6413277e-01   1.0390740e-02
  1.4111755e+00   1.7027052e-02
  3.1258813e-01   3.0581878e-02
 -3.9372008e-02   1.5228622e-02
 -2.6800742e+00   1.7343875e-02
 -1.2397552e-01   4.1505814e-02
 -1.2998452e+00   3.2249965e-02
 -1.3630028e-01   1.2914008e-02
 -7.6733428e-01   2.2924047e-02
 -8.8573319e-01   1.3998985e-02
  1.2927835e+00   5.8642253e-02
 -1.7924289e-01   4.5102709e-03
  9.2061687e-01   1.4955729e-02
  1.2539695e-01   1.3682810e-02
 -2.0393250e+00   1.4219878e-02
 -4.9640787e-01   1.4517002e-02
  7.2094107e-01   4.7446411e-02
 -4.6917964e-02   4.6630025e-02
  1.0416769e+00   5.4197083e-03
 -2.0367120e-01   6.3290969e-02
  2.0638912e+00   1.8588912e-02
  4.0866408e-01   4.6673600e-02
  1.9820254e-01   2.8414201e-02
  8.3972380e-02   2.5403537e-02
 -5.9229314e-01   2.3139134e-02
 -3.6269944e-02   3.6360174e-02
 -3.7000781e-01   2.2596927e-02
  1.2725356e+00   1.2785012e-02
 -1.6871612e-01   3.8123786e-02
 -1.2026180e-01   3.9985809e-02
 -1.1523962e+00   7.0289588e-03
  1.8371720e+00   1.0412888e-02
 -5.8184433e-01   2.5509229e-02
  1.4226998e+00   2.0768899e-02
  2.0166025e-01   3.6852054e-02
  1.5566620e-01   2.5220305e-02
  1.2703142e+00   2.4446886e-02
  5.9032822e-01   3.4459643e-02
 -7.3716968e-01   8.6625433e-03
 -7.6523012e-01   1.8320220e-02
 -1.9797023e-01   2.7159426e-02
 -8.2519358e-01   2.0511983e-02
 -2.7702262e+00   1.2521807e-02
 -8.2920933e-01   5.8269612e-02
 -7.1155626e-01   3.7588377e-02
 -1.6723685e+00   5.6467198e-02
 -1.8819208e-01   1.0388462e-01
 -9.3761945e-01   1.5723253e-02
  1.8169253e-01   6.6452876e-02
 -6.6363740e-01   3.5134673e-02
  7.9620814e-01   4.2657298e-03
 -2.6423323e-01   2.6074874e-03
  6.8211430e-01   5.4893020e-04
 -3.7407620e+00   3.0213788e-03
  7.4589616e-01   3.9088130e-03
  4.2284799e+00   1.4560866e-02
 -2.2496264e+00   7.1809939e-03
 -5.8455849e-01   5.2273991e-03
 -4.4074011e+00   7.1150577e-03
 -1.4003705e+00   1.6861774e-02
 -2.0951273e+00   2.4220277e-02
  3.5871872e-01   7.1444265e-03
 -1.9250263e+00   3.6539901e-02
  3.1359818e+00   1.2652853e-02
  4.7274527e-01   1.6367791e-02
  1.2236506e+00   9.6564637e-03
 -6.0756013e-02   8.1152804e-03
  1.5427244e+00   2.4524255e-02
 -8.7467015e-01   1.9058032e-02
 -2.6787463e-01   2.6689705e-02
 -1.1363158e+00   6.5535004e-03
  5.5177387e-02   2.1917356e-02
  3.3519034e+00   7.2567537e-03
 -7.7186263e-01   3.1459149e-02
  3.6781888e+00   2.4070075e-02
  2.0458265e-01   8.0580078e-03
  1.2025907e+00   1.0781792e-02
 -1.2371318e+00   7.5131617e-02
 -8.5914552e-01   1.8070338e-02
 -2.1005239e+00   4.8019968e-02
 -1.2604573e+00   1.1138986e-02
  6.1728950e+00   1.2050781e-02
  1.3738649e+00   8.9316722e-03
 -1.0090864e+00   1.1244967e-02
 -9.3163943e-01   4.3139078e-02
  9.6400589e-01   1.3221797e-02
  2.8850427e-01   2.2761548e-02
 -7.4953422e-02   2.6065195e-02
 -5.7741225e-01   1.0577309e-02
 -3.6665355e-03   2.2573208e-02
  3.2003720e+00   6.0927458e-03
  1.4630232e-02   2.2095412e-02
  4.8136306e-01   7.2684246e-03
 -4.1986009e-01   8.7785777e-03
 -7.3764485e-01   1.1071345e-02
 -1.6143942e+00   2.9284202e-03
 -1.2785193e+00   6.8641514e-02
  7.8752005e-01   8.5981421e-02
  3.6777094e-01   3.2469627e-02
 -7.7207875e-01   2.3475500e-02
  5.7967432e-02   1.3702440e-01
 -1.6902542e-01   2.2225589e-02
 -4.8807222e-01   4.5849971e-02
 -1.8298520e+00   5.7524644e-02
  2.1672447e+00   5.0896183e-03
  5.7562619e-01   3.3306649e-03
 -1.2077262e+00   1.2697962e-03
 -5.8017451e-01   7.3065248e-04
 -2.7715344e+00   6.2907902e-03
 -4.7764963e-01   1.2182170e-02
 -1.2578838e-01   3.1992644e-03
 -1.0775793e+00   4.9496237e-03
  2.2412803e+00   5.1853359e-03
  5.4675025e-01   7.7113123e-03
  8.2998127e-02   1.1886862e-02
 -1.0452896e-01   2.3806656e-02
 -3.4838504e-01   2.3644492e-02
 -2.5724156e+00   7.2560045e-03
  3.4674979e-03   4.6748468e-03
 -3.3281963e+00   1.4864721e-02
 -1.0616357e+00   6.4140060e-03
  2.0733480e-01   6.9428184e-03
  6.6787416e-01   7.6842837e-02
  1.2886291e+00   6.4261388e-03
 -1.1102179e-01   7.6017440e-03
  1.5332631e+00   7.4704490e-03
  3.0686831e-01   7.8540863e-03
  4.6444231e-01   3.1723663e-02
 -4.2951590e-01   1.8080793e-02
 -6.8303472e-01   1.1829033e-02
  1.8241237e+00   3.3187732e-02
  9.5348775e-01   2.7166713e-02
 -1.5001391e+00   2.5026103e-02
  2.9091001e-01   3.8501661e-02
  4.0861464e-01   1.3936254e-02
 -5.9038258e-01   9.0986351e-03
  1.5221384e+00   2.6600279e-02
 -3.3515182e+00   8.4511191e-03
  2.6873189e-01   8.4023867e-03
 -2.2019316e-01   1.8819973e-02
  3.6416774e+00   3.0209827e-03
  2.4199066e+00   1.8466650e-02
  1.3546810e-01   3.3618599e-02
 -6.7657095e-01   7.9088323e-03
 -2.0142539e+00   1.1162800e-02
  2.5185339e+00   3.2002293e-02
  8.1177998e-01   3.0182595e-03
 -1.4464120e+00   6.1289738e-03
  2.8208494e-01   8.2776602e-03
 -1.5471719e-01   6.3245885e-02
  6.0753727e-01   1.3566279e-01
  1.3678219e+00   4.8667349e-02
 -3.3816108e-01   7.8686140e-03
 -2.0971666e-01   1.3234991e-02
 -8.4481031e-01   2.0622002e-02
 -8.3870965e-01   7.6068200e-02
  3.5710222e-01   2.9977815e-02
  1.4856927e+00   4.7479570e-02
 -1.5114483e+00   7.9557265e-04
 -1.7726220e+00   1.2143639e-02
 -7.4066359e-01   1.4882546e-03
  1.7301199e+00   1.4506592e-03
  5.6630504e-01   3.5542299e-03
  4.7482882e+00   1.3726977e-02
 -3.0363986e+00   3.0288149e-03
 -4.1262436e+00   1.9995582e-03
 -5.2519436e+00   1.4012938e-02
  2.0078769e+00   3.2520834e-02
 -3.3874470e-01   2.1094045e-02
 -9.8233688e-01   8.5847326e-02
 -1.1639941e+00   1.9187424e-02
 -4.6929485e-01   7.5481292e-03
 -2.5113848e-01   4.2061817e-02
 -3.8358063e-01   2.0313749e-02
  1.2977399e+00   2.2197725e-02
  6.0594904e-01   3.3915877e-02
 -7.3721755e-01   2.2293575e-02
 -2.2428670e+00   2.2647548e-03
  2.7284342e-01   8.7820282e-03
 -1.6542885e+00   8.8502765e-03
 -7.2668344e-01   3.5044919e-03
  1.5909404e-02   8.0982596e-02
  1.0049379e-01   2.3887245e-02
 -3.9736515e-01   2.3726899e-02
  3.5011482e-01   1.3207319e-02
 -2.5394589e-01   1.9722696e-02
 -3.5333028e-01   3.7652582e-02
 -1.3882380e+00   3.5192017e-02
 -1.1307579e+00   6.4199306e-02
 -3.5496615e-02   6.6872239e-03
 -2.4018115e-01   2.2730691e-02
  3.5140932e-01   1.9913454e-02
  5.8935976e-01   2.5854768e-02
  2.4233244e-01   1.7972197e-02
 -7.3880279e-01   7.8917198e-02
 -1.5865065e+00   5.9820139e-03
 -6.3142359e-01   9.6970253e-02
 -2.2956710e+00   1.6674669e-02
  7.0344269e-02   8.5152648e-03
  2.5839692e-01   1.5686205e-02
  6.7655408e-01   4.5336336e-03
  2.4388399e+00   7.2507504e-03
  5.3543288e-01   7.6769604e-03
 -7.3086536e-01   2.3174945e-02
  7.4448174e-01   6.0315039e-02
  8.3492547e-02   5.0257523e-02
 -1.2719672e+00   8.0133818e-02
  5.2188367e-01   4.5650676e-02
 -1.5810359e+00   3.0527735e-01
  3.2521853e-01   9.4547279e-02
 -3.0071446e-01   6.4830661e-02
 -5.1366901e-01   9.5860496e-02
  4.0903443e-01   5.1841706e-02
 -9.1232395e-01   4.6527412e-02
  5.4453439e-01   2.0572634e-02
  9.4018555e-01   1.6486628e-02
  3.4265745e-01   1.5954494e-02
  3.9437938e-02   2.3307862e-02
  1.4661574e+00   7.8692563e-02
  1.5188064e-01   4.0867735e-02
 -1.4409412e+00   2.0700924e-02
  3.8421190e-01   5.8274221e-02
 -5.8041316e-01   6.0330845e-02
  4.6456170e-01   3.5072640e-02
 -4.9630176e-02   2.6150458e-02
  7.0417899e-01   2.5653633e-01
  1.3197529e+00   1.5078970e-02
 -1.2595519e-01   9.2967339e-02
 -8.7435120e-01   1.8195109e-02
 -2.6578537e-01   1.3600156e-01
 -5.7228237e-01   2.7563628e-02
  9.1421479e-01   3.6988873e-02
 -1.4535092e+00   1.5521628e-01
 -4.5874974e-01   8.6870044e-02
 -5.2801687e-01   3.8339086e-02
  5.6055748e-01   5.2693017e-02
 -1.7260867e-01   4.7606181e-02
 -2.1290691e-01   9.8043665e-02
 -7.4308729e-01   9.5414862e-02
  2.3679413e-01   3.9432151e-03
 -2.1138851e-01   8.5834740e-03
 -5.7129040e-02   7.1445294e-02
 -1.1262505e+00   3.4401055e-02
 -1.0955466e-01   2.4957623e-02
  1.1728654e+00   1.0956732e-01
 -4.6373802e-01   4.8428595e-02
  3.9488930e-01   1.1737353e-01
  1.2770598e+00   8.9923283e-03
 -2.6005483e-01   3.0365212e-02
  1.9566957e+00   8.8445023e-03
 -5.6596154e-01   2.6799034e-02
 -9.0302461e-01   7.6057248e-02
  1.1108254e+00   4.6165381e-02
  1.3757823e+00   5.4865032e-02
  1.0693880e+00   6.9418252e-02
 -3.2178324e-01   6.7110598e-02
  1.0054219e+00   1.7820068e-02
  2.2008877e-02   6.5318629e-02
 -9.0460193e-01   9.6315317e-02
  1.0539368e+00   1.1724153e-02
 -2.6714996e-01   1.9283186e-01
 -6.7203981e-01   6.4002454e-02
 -3.2283461e-01   6.3786410e-02
  1.0197864e+00   1.1370578e-01
 -8.8443369e-01   8.1897639e-02
  5.0787771e-01   7.2908081e-02
 -1.0122448e+00   1.0503641e-02
  4.7695428e-01   1.2854944e-02
  1.9999257e+00   8.2963323e-03
  5.6268281e-01   6.3552461e-03
  4.8492540e-02   4.9077701e-03
 -1.4214057e+00   1.9568935e-02
  3.2325637e-01   7.6058425e-02
  6.4873141e-01   5.4204136e-02
  3.2765952e-01   5.4238047e-02
  4.0989766e-01   1.7365661e-02
  4.5178062e-01   1.0938194e-01
  6.1165370e-02   2.7318850e-02
 -6.1636579e-01   2.4199670e-02
 -3.3377734e-01   3.8754102e-02
  1.1533581e-01   2.0374078e-02
  5.0807029e-01   3.3931687e-02
  1.5487514e+00   1.3149849e-02
 -2.9495609e-01   3.2409202e-02
  1.7803091e+00   3.1052679e-02
 -1.4702955e-01   3.4415793e-02
 -6.6071326e-01   2.2414278e-02
  1.9092467e-01   5.0337892e-02
  5.3542054e-01   4.1519187e-02
  3.4748554e-01   1.5182185e-01
 -7.0603353e-01   6.5222315e-02
  1.4152081e+00   1.5402758e-02
 -6.8200946e-02   3.5927251e-02
  1.0145739e+00   5.0092671e-02
 -1.0960737e-01   2.3617463e-02
  7.8640975e-02   4.2438146e-02
 -6.5649396e-01   3.5734996e-02
  4.9030697e-01   1.4950339e-02
  7.4254774e-02   5.7523329e-02
  2.0640215e-01   1.8525211e-02
  5.1745313e-01   2.5573794e-02
  1.0698179e+00   4.5035928e-02
 -1.0111283e+00   1.7270952e-02
 -3.0662808e+00   1.7688116e-02
 -5.9923339e-01   2.1204701e-02
  3.7074068e-01   2.9313875e-02
 -2.4893324e+00   6.2850202e-03
  1.4565986e+00   3.6978845e-02
  7.3201388e-01   4.5006458e-02
  1.6149323e+00   1.9667825e-02
 -9.4909078e-01   1.5695479e-02
  3.6895505e-01   9.2600770e-02
  5.3866172e-01   2.2743478e-02
 -7.2424799e-01   4.3511208e-02
 -3.9296818e+00   1.3637021e-02
 -5.4550809e-01   1.1056403e-02
  1.9434741e-01   1.0853918e-01
 -2.3611595e-01   1.5186070e-01
  3.0462638e-01   7.1439445e-02
  3.0938223e-01   7.7804491e-02
  7.7691615e-01   1.2187105e-02
  6.1271001e-02   6.0019281e-02
 -1.4782132e+00   2.1956669e-02
 -9.5139486e-01   9.5116850e-03
 -6.8005763e-02   5.1830806e-02
  1.8184984e+00   5.1121406e-02
  2.8820071e-01   3.6945734e-02
 -3.6961338e-01   5.2081916e-02
 -1.5227513e-01   4.2595215e-02
  1.0306901e+00   1.1976846e-01
 -1.4063957e+00   3.1616706e-02
 -6.4561373e-01   4.5063287e-02
  1.6534876e+00   5.2577130e-02
  6.2369362e-02   4.3570887e-02
  5.2629250e-01   1.5444365e-02
 -1.4404259e+00   8.1242159e-02
  9.1724950e-01   2.7585110e-02
  3.1024650e-01   3.9666485e-02
  2.4823451e-01   5.9555765e-02
 -1.1295936e+00   6.8412833e-02
 -4.0189478e-01   1.3174194e-01
 -2.9111230e-01   5.0856549e-02
  6.6860086e-01   7.3044509e-02
  3.0586896e-02   5.8210727e-02
 -1.4349763e+00   7.9329386e-02
  7.4473500e-01   1.4304078e-02
 -3.8089660e-01   4.5861911e-02
  3.7454283e-01   8.6139254e-02
 -1.0023072e-01   2.9158423e-02
  1.3352439e+00   6.9305539e-02
  1.0666525e+00   4.4800222e-02
 -6.5204537e-01   6.0950210e-03
 -6.1266220e-01   2.7872100e-02
 -5.7195734e-02   1.3368452e-01
  1.4965086e-01   1.4451224e-01
  3.9327741e-02   9.8400623e-02
 -7.9124540e-02   8.6929090e-02
 -3.6191171e-01   1.5629360e-01
  9.6593231e-02   1.3970795e-01
  7.0319131e-02   1.1747751e-02
  2.3644227e-01   5.9473474e-02
 -9.3688913e-02   8.4386058e-02
 -8.2539940e-01   1.4950138e-01
  2.6830208e-01   2.6600385e-02
  4.1905972e-01   1.1037761e-01
 -1.9817695e-01   3.8316987e-02
 -2.8073564e-01   1.7222624e-02
 -8.5463417e-01   6.0615692e-02
 -5.6972814e-01   5.7489417e-02
 -1.5514747e+00   4.2308778e-02
 -5.2600235e-01   5.5582490e-02
  1.2954121e+00   1.2457032e-02
  8.3119148e-01   1.4676768e-01
  3.0380476e-01   6.5084279e-02
  6.6439009e-01   8.7401932e-03
 -4.9555650e-01   2.5233597e-02
  2.7711577e+00   5.0690062e-03
  2.2702472e+00   7.1160723e-03
  5.8251566e-01   7.3789805e-03
 -7.4847557e-02   5.6070458e-02
  3.1053793e-01   4.1833024e-02
  1.3134543e+00   1.2361816e-02
 -1.6104014e-01   8.9217359e-03
 -1.5612308e+00   1.4703071e-03
 -3.9609304e-01   7.6412581e-02
  5.0592649e-01   1.8089410e-02
 -1.2680393e+00   1.8138474e-02
 -1.6673913e+00   2.7298111e-02
  8.3271360e-01   8.2541956e-03
 -9.0205425e-01   4.2527720e-02
  1.1176271e+00   1.9852772e-02
 -1.6050730e+00   2.5033444e-02
 -1.7754967e+00   2.1640621e-03
 -1.1176922e+00   2.5248423e-02
  3.9810643e-01   2.1511516e-02
  7.5873685e-01   2.8847842e-02
 -1.2473848e-01   2.1220325e-02
 -1.5854485e+00   2.3284689e-02
 -3.1755173e-01   3.8969390e-02
  8.0582201e-01   4.4833217e-02
  2.3031244e+00   3.5328042e-02
  4.4131029e-01   4.1656744e-02
  1.1094426e+00   1.6640902e-02
  1.3388880e-01   5.9621215e-02
  2.6058108e-01   2.8948706e-02
 -6.4428353e-01   3.9714321e-02
  2.2709000e-01   8.8599697e-02
 -1.2114565e+00   2.5737060e-02
  2.8709576e+00   9.8265260e-03
 -8.2680655e-01   8.2879411e-03
  1.1177272e+00   2.5076538e-02
  8.0669266e-01   4.7598826e-03
  1.1704884e+00   1.0675343e-02
  9.7713552e-02   4.8997909e-02
  8.3281922e-01   3.4773670e-02
  4.7465119e-01   5.2905701e-02
  1.5976987e+00   4.2601660e-02
  3.3698314e-01   1.5606515e-02
 -7.4282877e-02   2.6952693e-02
  8.3826268e-01   3.6932237e-02
  1.4036860e+00   1.3087966e-02
  2.8967714e+00   2.5418929e-03
  1.5839530e-02   2.4698645e-02
 -1.7701349e+00   6.4463221e-02
  1.3941933e+00   2.0935236e-02
 -5.6541377e-01   5.9652831e-02
  5.0430548e-01   1.0820545e-01
  5.1023382e-01   1.1633883e-01
 -2.8576666e-01   6.0113650e-03
  7.7810508e-01   5.3021279e-03
 -7.3373103e-01   3.6782715e-03
 -9.1270930e-01   1.4351576e-03
  8.3050537e-01   2.3251073e-03
  8.9804048e-04   5.3441194e-03
  1.5986713e+00   1.1651067e-02
 -2.6725441e-01   1.2546930e-03
 -1.3127160e+00   9.5518390e-03
 -4.2378074e-01   1.0080718e-02
  3.6079147e-01   1.7645128e-02
  9.8720682e-01   1.4940519e-02
  5.4388130e-01   1.3856410e-02
 -7.6968342e-01   8.0238357e-03
 -4.3257904e+00   1.2388334e-02
 -7.3200159e-02   1.1664167e-02
 -1.4255022e-01   9.0063922e-03
  3.5791011e+00   7.1903197e-03
  9.0567046e-01   1.7670022e-02