135
Config_type=79 Weight=1.0 Lattice="12.093787620 0.000000000 0.000000000 0.000000000 12.093787620 0.000000000 0.000000000 0.000000000 12.093787620" Energy=-929.086318 Virial="21.12006 29.80444 0.08963 29.80444 59.33651 19.22457 0.08963 19.22457 35.67383" Properties=species:S:1:pos:R:3:forces:R:3
Ca	     10.55189     11.51662      0.98980        -1.346136      1.122732     -0.563989
Ca	      0.13567      6.03068      2.40197         1.554907     -1.159816     -0.302682
Ca	      4.55127      7.89095      6.63277         1.447419     -0.029760     -2.800760
Ca	      9.18654      8.85506      4.45997         0.328318      0.064010     -0.633330
Ca	      0.43905      9.35823      3.21996         0.930794      0.077964      2.074176
Ca	      3.69287     11.93932      5.39465         0.088306     -1.181063      1.754955
Ca	      7.75129      6.66938     11.27392         0.367166      0.295135     -0.274488
Ca	      1.40504      8.54556      7.93783         1.208572      5.735099      2.082119
Ca	     11.72237      7.81727      6.20912        -2.944916      0.805122     -2.132716
Ca	      0.36066      1.10494      7.09456         0.109374      0.385735     -0.083452
Ca	      4.37686      1.39565      1.51897         0.910760      0.916701     -0.115416
Ca	      3.29753      5.62610     11.50293         0.839279     -1.288770     -0.807653
Ca	      7.15626     10.92998      5.68024        -0.650325      0.666954      1.502120
Ca	      9.81055      4.79809      8.16117        -0.535348     -0.064852     -0.327795
Ca	      4.41685      4.44138      6.40730         3.416642     -1.691685      0.965815
Ca	     10.80702      9.89393      9.78379         0.918820     -0.528428     -0.158185
Ca	      1.41338      2.62033      0.11442        -0.272184      1.525273      0.913567
Ca	      9.41630      4.33617      1.73452        -1.006378     -0.917553     -1.069346
Ca	      1.47084      8.44621     12.00049        -0.097865      4.662597     -0.684970
Ca	      6.50552      2.98866      3.66316         1.302823     -0.801398     -0.715119
Ca	      1.08471      0.76112      3.90895        -0.203807      4.001250     -4.098564
Ca	      7.15218      0.97329      0.05810         0.612169      0.874465      2.696995
Ca	      1.26487      3.78892      5.75876        -0.024771      2.166655     -3.296416
Ca	      6.89653      3.13036     10.10182        -0.824096      2.788485     -0.391369
Ca	      6.45790      7.59925      2.27564        -1.021163     -0.339168      1.403230
Ca	      6.24276      1.86188      7.08244        -2.481512      0.315176      1.305102
Ca	      5.12942      9.91180     11.21488         0.028316      0.706030      2.212825
Si	      8.07676     11.77970      9.78261         5.592242      2.039585     -3.596762
Si	      6.20905      4.47419      0.89503        -0.116045     -1.168685     -1.685371
Si	      3.42359      2.54557      4.42176         1.660143     -6.041761      0.002046
Si	      1.24715      1.00227      9.78416         3.533528     -0.487500     -3.991432
Si	      5.02312     10.16445      8.14512         0.735881      4.987392     -2.846749
Si	      4.82454      0.59462     10.05839        -0.962844      1.864356     -5.360671
Si	      9.41512      1.48891      6.60989        -1.728644     -2.157161      1.283677
Si	      6.84039      5.87466      8.14282        -2.261655     -1.543719      2.631783
Si	      2.35098      5.97385      7.79381        -3.041512      2.463469      0.422299
Si	     10.15855      1.18395     10.29884        -0.045143      1.381623     -0.669487
Si	      8.37953      9.36366      8.15878        -2.169110     -0.499310     -4.783378
Si	      0.23024      6.62434     10.38527        -0.140452     -4.242591      2.040093
Si	     10.24235      8.40524      1.09779         1.909748     -1.670352     -2.352686
Si	      3.03432      7.41402      2.37746         5.924693      3.408245      1.464456
Si	     10.16183      5.95086      4.66968        -0.567977     -0.030064     -2.515620
Si	      8.07836      9.54117      0.74009        -1.858029     -0.745452     -2.706265
Si	      2.56450      6.97078      5.00685        -5.209815      1.289082     -3.334354
Si	      7.14644      5.81959      5.70665         2.666099      4.671907     -3.299866
Si	     10.25759      2.96300      4.33736         4.116898      1.246599      3.138264
Si	     11.68809     11.02139      6.09648        -2.494294     -5.169815     -0.502490
Si	     10.61862      4.65419     10.99818        -1.192367     -2.251027      2.451914
Si	      6.12598     11.11262      2.87772         1.196358      2.458110     -0.675130
Si	      1.18984     11.54882      0.31254         1.126296     -0.569406     -2.024687
Si	      3.19693      4.39788      2.05373         1.501971     -1.505265     -2.411078
Si	      0.76406      3.88051      8.77720        -1.106192     -1.438481      0.885003
Si	      3.59327      8.17505      9.84850        -4.609135     -0.972721      3.057435
Si	      3.45507     10.39932      2.14544        -0.845273     -1.451804     -0.006642
O	      5.42679      6.77427      7.91680         4.534849     -4.336193      2.506412
O	      2.25098     11.14376      3.13242         3.141178     -2.856610     -1.934418
O	      1.40508      8.42277      5.02790         4.040753     -1.868324      1.847818
O	      6.13324      7.04523      5.46906         0.813943     -0.589789     -1.937850
O	      9.56054     11.70755     10.79345        -1.131338      2.073728     -1.045450
O	      5.14533     11.04787      4.15367         0.339674     -0.845033     -0.606166
O	      0.97811      5.40890      9.38930         0.805832      0.352930      0.275187
O	      7.58818     11.07600      0.72138         2.385194     -2.108317      1.658363
O	      4.84142     11.13621      1.53563        -0.640095     -1.432031      1.017699
O	      2.21036      9.11545      9.94079         1.915878     -1.236185     -0.980689
O	      8.09110      6.33096      7.03337        -1.407439     -2.108383     -0.407269
O	     10.76869      9.53689      2.01899        -0.875429      3.446046      2.231719
O	     10.69681      6.16027     10.35434         1.379202     -1.476957      1.346261
O	      2.43209     10.19229      0.77020        -0.750471      4.192258      0.029173
O	      4.19007     11.34375      9.16434         1.985561      0.921917      4.282943
O	      1.92894      0.47636      8.34112        -1.484246      0.689036      2.902600
O	      1.68880      3.70736      2.09846         1.020746      2.011718      0.547165
O	      3.10960      1.54651      3.16480        -0.829419      1.115339      0.536357
O	      8.47927      6.07195      4.22696         1.201036      0.251050      2.469055
O	      9.01557      2.52485      3.50679        -0.254648      0.240705     -1.930441
O	     11.88043      7.76133      9.51500         1.208308      6.548558     -2.759479
O	      1.71469      7.91761      1.98550        -5.533592      2.260855      0.515383
O	     10.16395     12.03849      6.14615         2.636090      1.766484      0.388182
O	      4.97774      4.40517      1.94064        -1.106020     -1.218741      4.266038
O	     11.36650      3.65384      9.76855        -1.519887      1.533196      0.116868
O	      8.92554      4.76485     10.94515         2.948010     -3.041149      3.057077
O	      3.79001      9.63886      7.22171        -1.437702      1.442074     -0.405585
O	      8.91770      9.59545      6.43439        -1.869406     -1.869345      3.208135
O	     11.09540      9.79282      5.21969         0.378276      0.023478     -2.296951
O	      2.42101      1.67802      5.64860         0.688931      3.608657     -1.324463
O	      9.88301      2.92762      5.97412        -2.070789      0.569504     -0.383529
O	      3.38173      6.12365      1.65868        -0.037249     -5.830221     -2.513773
O	      6.77404     11.63038     10.56735        -3.970001     -2.021226     -0.441578
O	     11.65191      7.53436      0.87266        -5.802459      1.227675      0.373507
O	      4.75289      0.98814     11.59551         0.823024     -1.337833     -1.674804
O	     11.82168     10.06819      7.61220         0.524902      2.086552     -1.535269
O	      6.97939      2.99488      0.88379         0.293290      1.028476      0.685679
O	      4.99591      1.84200      4.79864        -1.635438      2.418553      1.182638
O	     12.02447     10.79752     11.69820         1.339350     -1.259613      0.606170
O	      4.98093      1.97168      9.01198         0.634250     -3.044253      3.063584
O	     11.76139      0.70312      9.80106        -2.723158      0.500562      0.520666
O	      3.72072      7.85147     11.61256         1.440823      0.208231     -4.193451
O	      8.14760      1.33931      9.31706        -1.993820     -3.126449      3.609225
O	      7.77453      1.08504      6.09880         4.996929     -0.199344     -0.215921
O	      3.64739      7.09454      3.78422         2.188373      0.660578      4.799924
O	      7.38770     10.00828      3.54450        -1.354154      0.879740     -2.526428
O	      6.50011      0.59977      2.34848         0.032638     -0.658343      1.431723
O	     10.77443      4.66674      3.71337        -1.506655     -1.861140     -0.004335
O	     11.01893      7.26428      3.96739        -2.121325     -1.079143      1.016700
O	      9.81797      1.89256      8.19588         2.612606     -0.267231     -1.574524
O	      9.93194      2.05503     11.67950         0.202091     -1.309749     -1.713817
O	      0.98352     11.44078      5.17634        -2.892198     -2.192088      5.781382
O	      0.31985      3.14162      7.35700        -0.959684      2.561990      3.818604
O	      7.22112      5.62544      1.60524        -0.127288     -0.876111     -1.609428
O	      1.98073      0.26111     11.10569        -0.431673      1.142176      0.639910
O	      0.50736      0.68309      1.16740         0.651827     -1.230314      0.923389
O	      6.64185      4.41053      5.36713        -1.131398     -2.657074     -0.361164
O	      1.57569      6.01947      4.25697        -2.490695     -2.455097     -0.457383
O	      3.58813      3.46469      0.23730        -3.806394      0.056861      2.484941
O	      1.13093      6.58475     11.79797         0.052981     -5.354898     -4.480821
O	      9.00015     10.84296      8.61729        -2.644654      1.095542      1.609316
O	      6.33115      4.13164      8.05979         0.244661      1.716747     -1.287037
O	      2.58211      4.45973      7.83699        -0.704364     -4.367823      0.305965
O	      1.47490      2.74556      9.65581         1.689057     -3.176618      2.879163
O	      6.67136      9.49150      7.82309        -0.333067      1.357059      0.257684
O	      3.16755      6.02374      6.23998        -0.743476      4.069719      0.277502
O	      5.40026     11.71683      7.15436         0.901863     -1.587413     -0.538751
O	      3.26557      6.77152      8.88385        -0.817714      1.659025      0.958534
O	      5.44749      4.53869     11.54397         2.694210      2.401367     -0.643201
O	     10.65287      5.56340      6.11583        -0.131802      0.980409      1.316228
O	     11.81159      2.40161      4.87172        -0.853122     -0.501830     -3.276115
O	      4.23225      8.70512      2.10021        -2.202566      1.614438      0.351270
O	      7.67078      5.62953      9.52075        -1.771155      0.961240     -3.056385
O	      3.39998      4.12246      4.16579         0.336010      0.135662     -0.059534
O	      9.60822      9.44516     11.76876        -1.946225     -2.366359      4.051526
O	      8.64585      7.96233      1.63416         1.873127      2.171136     -1.116173
O	      0.88706      6.71447      7.31601         4.031095     -4.246083      0.301204
O	      8.61819      8.21476      9.22122         0.824362      0.921117      0.031379
O	     11.45530      4.40529      0.46143        -2.041791      0.457151     -2.092274
O	      4.84533      8.89613      9.24565         1.773475     -0.237999      1.778774
O	      6.62442      8.74792      0.30474         2.229071     -0.100374      0.056473
135
Config_type=89 Weight=1.0 Lattice="12.093787620 0.000000000 0.000000000 0.000000000 12.093787620 0.000000000 0.000000000 0.000000000 12.093787620" Energy=-923.951915 Virial="96.46871 21.94923 -3.74540 21.94923 84.48532 -9.85715 -3.74540 -9.85715 49.72534" Properties=species:S:1:pos:R:3:forces:R:3
Ca	      5.82957      3.30910      7.49274        -1.784184      0.583604     -0.086026
Ca	      7.81030      2.38040      4.01534        -0.219794      1.640361     -0.758029
Ca	      8.24240      0.91406      7.01129        -0.794523      0.481053     -0.764437
Ca	     11.01424      8.90829      5.52092         0.947463      0.748197     -0.787838
Ca	      5.95526     12.06566     10.03345         1.481508     -0.062266     -1.649071
Ca	      2.46769      7.58558     11.13403        -1.790806     -2.300909     -0.977808
Ca	      2.57950      6.45825      6.91349         2.299669      0.756673      2.990920
Ca	      3.41275      0.69642      8.20556         0.686956     -0.614638     -0.721137
Ca	     10.99887      6.05386      3.94721         0.252251     -1.119791     -1.251255
Ca	     10.07296     11.81781      9.00365        -0.812130      0.149166      2.831455
Ca	      3.65202      5.51590      0.86230         1.460229     -1.680582     -0.231842
Ca	      3.89429      1.21227      1.38799         0.472449      1.954953     -0.600643
Ca	      6.57550      6.10061      2.13778         0.726702     -0.159967     -1.386047
Ca	      5.95739     11.17913      3.70813         1.714946     -0.813778     -2.017702
Ca	     11.75352      3.47181     11.14668         2.179935     -1.281005      0.126230
Ca	      0.37233     11.64671      5.93738        -1.582610      1.356316     -0.729743
Ca	      2.18876      8.13042      4.51848        -3.895097     -0.060494      0.169931
Ca	     11.56059      8.42378      8.66894        -0.053679     -1.249754      1.014269
Ca	      4.11563      3.18784     10.67322        -0.329151     -0.739047     -0.138693
Ca	      9.74917      5.52082      9.89594        -0.236642      3.133358     -0.842892
Ca	      3.24746      3.93975      5.28425         0.464418     -0.905673     -0.538621
Ca	      1.04768     11.71922     10.36317        -0.023821      2.445505     -0.111258
Ca	      7.31695      8.88384     11.54299         0.086849     -2.628318     -1.695091
Ca	      7.50183      8.35530      4.40590         1.825973      0.062888     -2.300166
Ca	      8.75377      0.49437      0.70243         0.065248     -0.758899     -0.414391
Ca	      5.29884      9.27553      7.91747         2.281778     -2.181922      0.110666
Ca	     11.63205      1.93135      3.98350        -1.387141      0.679895     -0.207405
Si	     11.82944      6.58175      0.24107        -4.379387     -8.928117     -3.335748
Si	      0.30192     10.66370      3.12635         0.179000      3.215428     -1.753189
Si	      7.02818      5.55675     10.64786        -3.005243      0.795277      3.325487
Si	      6.03738      5.64235      4.96519         9.121905      0.019309     -7.426026
Si	      0.06387      1.09156      1.18808         3.026040      8.483384     -5.755774
Si	      9.23570     11.36945      4.24807        -1.157549      2.381717     -0.093962
Si	      1.83269      3.03140      8.30007         4.967332      2.011769      2.416385
Si	      6.00901     11.23433      0.47258         1.246240     -0.703528      2.267808
Si	      9.88303      4.13629      6.51002         3.886613     -0.497612     -0.498438
Si	     10.79683      9.82252     11.50126        -9.491692      0.170561     -1.459171
Si	      2.36525      9.98514      7.88734        -9.085635     -6.993539      0.790080
Si	      4.68690      5.95413      9.73403         5.239499      3.338487     -5.687241
Si	     11.57836      1.89210      8.00030        -5.129985      0.752406      2.870905
Si	      1.62894      4.06805      1.62241         3.091221      1.752494     -3.552368
Si	      5.33076      0.88266      5.50327        -1.102586      3.055836      2.962995
Si	      2.60422      1.11782      4.00620        -1.116280     -0.913177     -1.694488
Si	      4.30825      9.02153      1.59507        -3.516970     -5.280527     -1.397554
Si	      4.77140      8.32464      4.81382         2.024206      0.574052     -1.782613
Si	      9.21938      7.87300      1.90944         0.334850     -0.444956     -1.966738
Si	      3.72494      9.90665     10.61931        -1.130920      4.660513      1.456055
Si	     10.08736      3.48708      1.66086        -0.457649      0.497682     -0.814890
Si	      8.79934      6.88328      6.64265         0.589557     -4.690525     -2.747855
Si	      0.03846      8.52009      1.80296         0.714046      2.558690      2.207746
Si	      8.83272      9.53340      7.40220        -1.942522      0.090012     -0.822713
Si	      0.45642      5.24429      6.65851        -1.895682      1.343415     -3.660635
Si	      8.02468      2.63930     10.17218        -4.855476     -2.756609     -1.027838
Si	      6.97711      3.32224      0.85720        -5.267512      2.577851     -9.516005
O	      5.52279      6.89923      3.91591        -1.382600      2.059974      2.938192
O	      5.77040      3.17445      1.66592        -5.697973     -2.218131      4.397919
O	      8.75309      1.12464     10.53137        -2.017390      3.919321     -0.943029
O	      5.36267      0.48448      7.11717         0.003638     -0.123650     -1.030903
O	      0.06599     10.03770     10.98285         6.492320     -1.496195     -1.572630
O	      6.51076      2.58750     11.31528         3.707485     -0.558528      1.251675
O	      0.76765      7.61945      0.71306         2.833122      2.288324      0.397059
O	      4.46557      7.41312      1.30641         0.055513      1.242878      0.446106
O	      6.88887      0.53300      5.08981        -1.512218      1.034893     -1.671043
O	     11.64517      6.58931     10.67106         0.685469     -0.580698      2.246397
O	      3.22002      9.22549      0.03099         0.749907      1.816148      2.244575
O	      7.42868      2.67615      8.59472         2.720076     -2.625120      1.422928
O	      4.51206      1.20473      9.83067        -1.438706      3.534819      0.377368
O	      0.86565      1.11157     11.93344        -0.170576     -0.485882      0.099660
O	      8.32380      3.36455      1.46747         7.730404     -0.809334      2.074672
O	     10.19162      3.41140      3.29036         0.217402      0.885201     -1.809061
O	      1.21330      1.37036      5.20772         3.539543     -0.496144     -2.217097
O	      1.46792      4.11710      7.16666        -0.131394     -0.548535     -0.344277
O	      5.35726      5.06094      6.09372        -5.865910     -2.554503      5.323312
O	      1.29144     10.49426      4.29326         0.895681      0.105149      3.783109
O	      0.03565      7.97578      3.32532        -1.405446     -0.222055      0.809212
O	      9.32687      0.70972      3.27547        -0.308679     -0.898038      2.021628
O	      3.20414      2.53158      3.64627        -0.431689      0.589578     -0.047375
O	      3.82518      8.83259      3.40497         2.132413      1.453469     -1.259162
O	      5.26127      9.91462     10.78162         1.789163     -2.871604     -3.446844
O	      8.02369      4.28912     10.33027         3.845236     -1.589013      0.088970
O	      2.16638      0.45184      2.42828        -0.163973     -0.025879      3.351124
O	      2.99755      8.97039      9.53742        -2.161375     -1.801959     -2.188843
O	      0.83047      2.81361      1.94659        -5.573030     -5.077373      2.614913
O	      4.64366     11.68750     12.07417        -3.896603      2.573276      0.371874
O	      5.08461      2.51011      5.45849         0.627845     -1.321068     -0.173050
O	      8.07124      6.61912     11.22842         3.496470      0.269393     -0.562863
O	      1.05717     10.88591      7.58016         1.548361     -1.106734      4.807508
O	      5.65419      9.68878      1.27021         2.267847      2.815539      1.085253
O	     10.63598      9.31548      1.18133         1.386929     -0.312524      0.355616
O	      2.66459      3.34549      0.50776         1.984666      0.464045      0.505782
O	      7.67512      8.13101      1.58030         1.079503      0.607543     -0.890474
O	      3.55784      5.68478     10.69436        -3.217846     -1.074510      3.495290
O	     10.40953      6.83070      1.35314         2.874102      2.640391     -1.940938
O	      7.12125     11.00930     11.45963         3.294474      0.642301      1.714185
O	     10.64122      4.79429      0.83059        -1.048857     -3.743256     -0.563700
O	      9.20386      5.11471      7.48024        -1.747401      4.045279      0.335938
O	      8.89384      7.38192      8.10488         2.123648      2.125961      5.721558
O	      6.86694      4.62412      3.72627        -2.046276      1.678635      2.241021
O	      3.68854     10.42648      7.61482         7.407720      4.127103     -3.562778
O	      2.37399      5.17883      2.51985        -0.853379     -0.249661      1.257463
O	      6.03483      6.88347     10.25221        -2.252305      0.404725      0.043501
O	      0.45579      6.47059      7.68139        -1.558384     -1.068184      0.790546
O	     11.78618      0.00820      2.10148        -1.711524     -6.670425      5.603582
O	      6.56948      0.16677      1.57624         0.152943     -0.033386      1.699655
O	     10.77567      3.31436      7.58080         3.391678     -1.245932      2.809853
O	      3.51327      2.94383      7.86250        -2.785574      0.152287      0.506301
O	      5.81229      4.67381      9.56283        -1.697233      0.134403      0.159596
O	      8.18364      8.37685      6.36069         0.959745      4.175081     -2.018081
O	     10.62056      2.08513      0.66208         0.630406     -0.000272      2.656501
O	     11.40548      4.66902      5.59394        -3.479443     -2.007255      2.107119
O	      1.32826      5.68789      5.23219         1.115436      1.065188      0.679250
O	      3.93548      7.85076      6.07093         1.413593      0.853718     -2.574308
O	      6.49631      5.02620      0.21476         0.198152     -1.145249     -0.929464
O	      7.48530      6.31787      5.54034         1.417173      0.682633      1.657110
O	      1.63345      3.45182      9.85732        -0.580259     -0.413486     -1.570848
O	     10.01095      8.58523     10.36440         1.036383      3.669197      2.690286
O	      1.06132      1.60039      8.01284         1.444255      0.030848     -0.845951
O	      4.19603      6.75119      8.38826         0.177715     -0.894623      1.006292
O	     10.39782     10.26037      7.47749        -1.382749     -3.726957     -0.219917
O	     10.34854      6.99604      5.80771        -2.407200      0.012019      1.086260
O	     10.75144      0.89392      7.07558        -0.161085     -1.630383     -1.103239
O	      8.97924      3.13103      5.84275        -2.846350     -3.285246     -2.636121
O	      5.87648      9.50335      5.18748        -2.333333     -1.494102     -0.373022
O	      8.38731     10.32606      3.45002        -0.948105     -2.434899     -1.775765
O	      4.08587      0.15284      4.35871         0.296932      0.707518      1.662088
O	     10.89973     11.06339      4.33903         1.702103     -1.800357     -1.207617
O	      8.51707     11.12613      5.78738         3.400530     -0.023704     -0.717136
O	      1.33702      9.65128      2.19501        -4.051119      0.132390     -2.975621
O	     10.05214     11.40904     11.31713         1.478082     -3.924512      1.400524
O	      0.90072      5.04542      0.37371        -1.084461      2.655213      0.278570
O	      9.15652      7.10898      3.25031        -0.461426      0.143637      3.443952
O	      7.48721     10.24867      7.85831         0.217304      0.793368      2.611251
O	      1.67236      8.45993      6.81426        -0.208523      3.697526      1.604027
O	     11.07729      1.53932      9.62122         2.237088      1.362372     -2.435958
O	      3.08096     11.31007      9.93191        -0.660274     -1.507196      0.992955
135
Config_type=39 Weight=1.0 Lattice="12.093787620 0.000000000 0.000000000 0.000000000 12.093787620 0.000000000 0.000000000 0.000000000 12.093787620" Energy=-926.929421 Virial="73.70659 -21.47724 -3.87006 -21.47724 65.29962 -25.54600 -3.87006 -25.54600 38.99154" Properties=species:S:1:pos:R:3:forces:R:3
Ca	      9.35731      3.77038      9.88427        -0.131308     -1.313613     -0.425441
Ca	      5.67882      2.91962      8.94461        -1.215329      3.059984     -1.071147
Ca	      9.66250     10.93782      0.46310        -0.044551      1.296069      0.463951
Ca	      5.01809      0.77789      7.13124        -0.473053     -3.373418     -1.332907
Ca	      6.12369      9.21075      0.41065        -0.242945     -0.509704      1.462441
Ca	     10.24375      8.20653      2.00952        -0.708673      0.258916     -0.598737
Ca	      7.57138      5.94606      3.36879        -1.909024      3.435895     -0.303176
Ca	      9.13754      7.40371      7.61175        -1.244811      1.395895     -0.359050
Ca	      5.24696      6.64232      8.81516        -0.855486      1.052521     -0.063758
Ca	      2.84101     10.23624      7.80421         1.321952     -0.725039      1.436144
Ca	      9.80933      1.07799      3.47344        -0.390499     -0.496453     -0.545212
Ca	     11.74707      8.51830      9.52663        -0.568370      1.062942      2.803532
Ca	      0.66297      3.30983     10.00232         0.008310      2.259834     -0.537635
Ca	     11.96646      0.89665      7.36816        -0.777908      1.248042      0.797015
Ca	      8.90210     11.02516      6.28919        -0.358053     -1.618937     -0.369467
Ca	      0.48871     11.84446     10.56088         0.360498     -1.673194      1.179602
Ca	      1.58945      8.72608      0.86316         0.292747     -0.296727      0.205619
Ca	      1.46392      1.95589      1.37301        -1.064923     -0.308635      0.022054
Ca	      3.00108      3.57160      6.55977         1.290451      0.373254      1.601843
Ca	      1.78702      5.77425      4.24486         2.961144     -0.975520     -1.752012
Ca	      7.50748      3.36043      1.79854        -1.596328      0.109176      0.658419
Ca	      3.47120      8.80850      4.16283         1.065977     -0.442977     -0.829493
Ca	      3.58287     11.74023      0.42928         0.107293     -3.705928      1.855389
Ca	      7.67128      4.71228      6.48562        -1.564277      1.159850     -0.483633
Ca	      2.03514     11.79798      4.57540        -0.772355      1.211088     -2.814929
Ca	      3.82657      3.54740      2.21165        -0.385180      0.878939      3.815821
Ca	      6.84106      0.81308     10.41104         1.190915     -3.325894      0.204088
Si	      8.17440      1.46511      7.32977         7.912324      4.835687     -0.849532
Si	      9.16893     11.40226      9.59448         1.551626      0.730286     -4.266139
Si	      7.65101      9.62682      3.14581         0.728935      0.561979      1.634218
Si	      0.16753     10.22522      6.49770        -2.415792      0.210857      0.867188
Si	      6.47254      9.06534      5.81853         4.729209     -4.651425     -1.810476
Si	     10.61522      1.89503      0.30785        -5.644640     -1.397270     -1.291184
Si	      2.78526      1.35512      9.76825         2.341417      4.685908     -0.411422
Si	      7.14982      9.67795      9.14653        -3.010483      4.829377     -8.762704
Si	     10.48171      4.11641      1.99687        -4.805973      3.214721      0.338797
Si	      2.10117      6.40189      9.19336        -1.436772      4.494510      7.076702
Si	      5.12272      3.43954     11.93154         0.912901      2.067722     -4.971918
Si	      6.37452      0.01416      1.58203         1.455650     -0.787691      6.076941
Si	     10.13776      5.38654      5.05521        -5.517730      3.423742     -4.048596
Si	      8.46229      8.13012     10.92399        -0.926972     -0.475427      8.597195
Si	      7.21927      5.54949     10.92032        -3.911879     -4.571649      2.902423
Si	     11.36700      5.79790     11.75597         2.462746      3.909765     -2.546339
Si	      4.33531      0.84780      3.82611         1.893704     -2.713392     -2.277544
Si	      0.07523      7.70257      4.81395         4.195951      1.032964     -2.018097
Si	      0.66415      6.09312      7.00258         1.291948      3.838815      6.347486
Si	      4.34901      6.48826      1.66089         0.150370      1.449750     -0.669520
Si	     11.29492      3.94715      6.55824         6.069159     -1.360251      8.708812
Si	      1.06438      2.55985      4.64386         2.946090     -1.795260     -0.532980
Si	      3.31994      9.07350     10.72457        -1.016779     -3.812174     -3.529225
Si	      2.46827      5.18477      0.01778        -0.247376      5.721325     -1.364471
Si	      5.23619      6.67716      5.59860         0.371741      2.465899      1.182572
Si	      5.41675      3.36333      4.94886        -1.959514      1.216327     -1.909526
Si	      0.48053     11.30221      2.05418        -0.146638      0.719226     -1.786174
O	     10.68209     11.13710      9.92614         0.873917     -0.920994      0.902209
O	      8.62649     10.22280      8.42873         1.063111      2.027912      1.978276
O	      1.58251     10.29712      5.77036         1.120143     -1.697893      2.188396
O	      0.13596      7.53564     11.56466        -3.838022     -1.792037      0.878544
O	      3.40291      2.92395      9.43560        -1.275248     -0.765140     -1.144697
O	      6.30443     11.52643      0.10930        -1.752251      1.987515     -0.766569
O	     11.68430      8.84246      5.79266        -3.274853      0.530989      0.091012
O	      1.08533      4.63856      6.76071         0.816905     -3.564083     -2.275960