 running on   52 total cores
 distrk:  each k-point on   52 cores,    1 groups
 distr:  one band on   13 cores,    4 groups
 using from now: INCAR     
 vasp.5.4.4.18Apr17-6-g9f103f2a35 (build Oct 31 2019 15:01:46) complex          
  
 POSCAR found type information on POSCAR  Sc Cl C 
 POSCAR found :  3 types and      80 ions
 scaLAPACK is switched off
 LDA part: xc-table for Pade appr. of Perdew
 generate k-points for:    3    3    1
 POSCAR, INCAR and KPOINTS ok, starting setup
 FFT: planning ...
 WAVECAR not read
 entering main loop
       N       E                     dE             d eps       ncg     rms          rms(c)
DAV:   1     0.121986674390E+05    0.12199E+05   -0.26808E+05  4416   0.152E+03
DAV:   2     0.170876722590E+04   -0.10490E+05   -0.10226E+05  5232   0.522E+02
DAV:   3    -0.415692700789E+03   -0.21245E+04   -0.20392E+04  6800   0.283E+02
DAV:   4    -0.645561961768E+03   -0.22987E+03   -0.22554E+03  6088   0.980E+01
DAV:   5    -0.655527644564E+03   -0.99657E+01   -0.99170E+01  6080   0.274E+01    0.698E+01
DAV:   6    -0.524752459612E+03    0.13078E+03   -0.69169E+02  5840   0.497E+01    0.305E+01
DAV:   7    -0.529946857206E+03   -0.51944E+01   -0.89772E+01  5880   0.229E+01    0.154E+01
DAV:   8    -0.527628388238E+03    0.23185E+01   -0.99313E+00  5928   0.721E+00    0.944E+00
DAV:   9    -0.527072484298E+03    0.55590E+00   -0.38728E+00  5328   0.389E+00    0.315E+00
DAV:  10    -0.526944414861E+03    0.12807E+00   -0.63694E-01  5664   0.203E+00    0.175E+00
DAV:  11    -0.526923157296E+03    0.21258E-01   -0.16942E-01  5640   0.808E-01    0.823E-01
DAV:  12    -0.526907518571E+03    0.15639E-01   -0.33194E-02  6064   0.484E-01    0.292E-01
DAV:  13    -0.526904375217E+03    0.31434E-02   -0.68426E-03  5248   0.237E-01    0.164E-01
DAV:  14    -0.526902896969E+03    0.14782E-02   -0.65685E-03  5224   0.136E-01    0.169E-01
DAV:  15    -0.526904839232E+03   -0.19423E-02   -0.13653E-03  5720   0.799E-02    0.955E-02
DAV:  16    -0.526907882999E+03   -0.30438E-02   -0.11040E-03  5656   0.532E-02    0.517E-02
DAV:  17    -0.526911567216E+03   -0.36842E-02   -0.60453E-04  4776   0.462E-02    0.283E-02
DAV:  18    -0.526913169982E+03   -0.16028E-02   -0.22563E-04  4832   0.250E-02    0.203E-02
DAV:  19    -0.526914461260E+03   -0.12913E-02   -0.60542E-05  4784   0.158E-02    0.155E-02
DAV:  20    -0.526915470746E+03   -0.10095E-02   -0.31978E-05  4360   0.113E-02    0.107E-02
DAV:  21    -0.526915885483E+03   -0.41474E-03   -0.11704E-05  4192   0.701E-03    0.716E-03
DAV:  22    -0.526916477315E+03   -0.59183E-03   -0.84921E-06  3608   0.546E-03    0.360E-03
DAV:  23    -0.526916892012E+03   -0.41470E-03   -0.12968E-05  3336   0.422E-03    0.318E-03
DAV:  24    -0.526917001131E+03   -0.10912E-03   -0.25396E-06  3360   0.304E-03    0.244E-03
DAV:  25    -0.526917102789E+03   -0.10166E-03   -0.29032E-06  3352   0.240E-03    0.174E-03
DAV:  26    -0.526917138399E+03   -0.35610E-04   -0.63448E-07  2928   0.174E-03    0.148E-03
DAV:  27    -0.526917148108E+03   -0.97092E-05   -0.22827E-07  2616   0.164E-03    0.705E-04
DAV:  28    -0.526917159903E+03   -0.11795E-04   -0.34645E-07  2672   0.112E-03    0.443E-04
DAV:  29    -0.526917170392E+03   -0.10489E-04   -0.27845E-07  2664   0.149E-03    0.450E-04
DAV:  30    -0.526917175913E+03   -0.55211E-05   -0.26798E-07  2672   0.109E-03    0.331E-04
DAV:  31    -0.526917177419E+03   -0.15060E-05   -0.15815E-07  2400   0.109E-03    0.237E-04
DAV:  32    -0.526917178139E+03   -0.71981E-06   -0.10860E-07  2504   0.683E-04
   1 F= -.52691718E+03 E0= -.52691718E+03  d E =-.240705E-18
