 vasp.5.4.4.18Apr17-6-g9f103f2a35 (build Oct 31 2019 15:01:46) complex          
  
 executed on             LinuxIFC date 2024.04.19  00:18:27
 running on   52 total cores
 distrk:  each k-point on   52 cores,    1 groups
 distr:  one band on NCORES_PER_BAND=  13 cores,    4 groups


--------------------------------------------------------------------------------------------------------


 INCAR:
 POTCAR:    PAW_PBE Sc_sv 07Sep2000               
 POTCAR:    PAW_PBE F 08Apr2002                   
 POTCAR:    PAW_PBE C 08Apr2002                   
 POTCAR:    PAW_PBE Sc_sv 07Sep2000               
   VRHFIN =Sc: 3p4s3d                                                           
   LEXCH  = PE                                                                  
   EATOM  =  1273.2868 eV,   93.5839 Ry                                         
                                                                                
   TITEL  = PAW_PBE Sc_sv 07Sep2000                                             
   LULTRA =        F    use ultrasoft PP ?                                      
   IUNSCR =        1    unscreen: 0-lin 1-nonlin 2-no                           
   RPACOR =    2.200    partial core radius                                     
   POMASS =   44.956; ZVAL   =   11.000    mass and valenz                      
   RCORE  =    2.500    outmost cutoff radius                                   
   RWIGS  =    2.700; RWIGS  =    1.429    wigner-seitz radius (au A)           
   ENMAX  =  222.660; ENMIN  =  166.995 eV                                      
   RCLOC  =    1.805    cutoff for local pot                                    
   LCOR   =        T    correct aug charges                                     
   LPAW   =        T    paw PP                                                  
   EAUG   =  443.063                                                            
   RMAX   =    2.551    core radius for proj-oper                               
   RAUG   =    1.300    factor for augmentation sphere                          
   RDEP   =    2.650    radius for radial grids                                 
   RDEPT  =    2.038    core radius for aug-charge                              
                                                                                
   Atomic configuration                                                         
    8 entries                                                                   
     n  l   j            E        occ.                                          
     1  0  0.50     -4394.2533   2.0000                                         
     2  0  0.50      -471.0040   2.0000                                         
     2  1  1.50      -384.9788   6.0000                                         
     3  0  0.50       -52.1410   2.0000                                         
     4  0  0.50        -3.5584   1.0000                                         
     3  1  1.50       -30.8841   6.0000                                         
     3  2  2.50        -1.3655   2.0000                                         
     4  3  2.50        -1.3606   0.0000                                         
   Description                                                                  
     l       E           TYP  RCUT    TYP  RCUT                                 
     0    -52.1409870     23  1.800                                             
     0     -3.5583698     23  2.500                                             
     1    -30.8840697     23  2.300                                             
     1      4.0817478     23  2.300                                             
     2     -1.3655397     23  2.500                                             
     2      0.3564476     23  2.500                                             
  local pseudopotential read in
  partial core-charges read in
  partial kinetic energy density read in
  atomic valenz-charges read in
  non local Contribution for L=           0  read in
    real space projection operators read in
  non local Contribution for L=           0  read in
    real space projection operators read in
  non local Contribution for L=           1  read in
    real space projection operators read in
  non local Contribution for L=           1  read in
    real space projection operators read in
  non local Contribution for L=           2  read in
    real space projection operators read in
  non local Contribution for L=           2  read in
    real space projection operators read in
    PAW grid and wavefunctions read in
 
   number of l-projection  operators is LMAX  =           6
   number of lm-projection operators is LMMAX =          18
 
 POTCAR:    PAW_PBE F 08Apr2002                   
   VRHFIN =F: s2p5                                                              
   LEXCH  = PE                                                                  
   EATOM  =   659.6475 eV,   48.4827 Ry                                         
                                                                                
   TITEL  = PAW_PBE F 08Apr2002                                                 
   LULTRA =        F    use ultrasoft PP ?                                      
   IUNSCR =        1    unscreen: 0-lin 1-nonlin 2-no                           
   RPACOR =    1.200    partial core radius                                     
   POMASS =   18.998; ZVAL   =    7.000    mass and valenz                      
   RCORE  =    1.520    outmost cutoff radius                                   
   RWIGS  =    1.500; RWIGS  =    0.794    wigner-seitz radius (au A)           
   ENMAX  =  400.000; ENMIN  =  300.000 eV                                      
   ICORE  =        2    local potential                                         
   LCOR   =        T    correct aug charges                                     
   LPAW   =        T    paw PP                                                  
   EAUG   =  613.614                                                            
   RMAX   =    1.555    core radius for proj-oper                               
   RAUG   =    1.300    factor for augmentation sphere                          
   RDEP   =    1.539    radius for radial grids                                 
   RDEPT  =    1.299    core radius for aug-charge                              
                                                                                
   Atomic configuration                                                         
    4 entries                                                                   
     n  l   j            E        occ.                                          
     1  0  0.50      -663.3661   2.0000                                         
     2  0  0.50       -29.8995   2.0000                                         
     2  1  0.50       -11.1114   5.0000                                         
     3  2  1.50       -10.8847   0.0000                                         
   Description                                                                  
     l       E           TYP  RCUT    TYP  RCUT                                 
     0    -29.8995018     23  1.200                                             
     0     -9.5240782     23  1.200                                             
     1    -11.1113914     23  1.520                                             
     1      1.3605826     23  1.520                                             
     2    -10.8846608      7  1.500                                             
  local pseudopotential read in
  partial core-charges read in
  partial kinetic energy density read in
  atomic valenz-charges read in
  non local Contribution for L=           0  read in
    real space projection operators read in
  non local Contribution for L=           0  read in
    real space projection operators read in
  non local Contribution for L=           1  read in
    real space projection operators read in
  non local Contribution for L=           1  read in
    real space projection operators read in
    PAW grid and wavefunctions read in
 
   number of l-projection  operators is LMAX  =           4
   number of lm-projection operators is LMMAX =           8
 
 POTCAR:    PAW_PBE C 08Apr2002                   
   VRHFIN =C: s2p2                                                              
   LEXCH  = PE                                                                  
   EATOM  =   147.1560 eV,   10.8157 Ry                                         
                                                                                
   TITEL  = PAW_PBE C 08Apr2002                                                 
   LULTRA =        F    use ultrasoft PP ?                                      
   IUNSCR =        1    unscreen: 0-lin 1-nonlin 2-no                           
   RPACOR =    1.200    partial core radius                                     
   POMASS =   12.011; ZVAL   =    4.000    mass and valenz                      
   RCORE  =    1.500    outmost cutoff radius                                   
   RWIGS  =    1.630; RWIGS  =    0.863    wigner-seitz radius (au A)           
   ENMAX  =  400.000; ENMIN  =  300.000 eV                                      
   ICORE  =        2    local potential                                         
   LCOR   =        T    correct aug charges                                     
   LPAW   =        T    paw PP                                                  
   EAUG   =  644.873                                                            
   DEXC   =    0.000                                                            
   RMAX   =    1.529    core radius for proj-oper                               
   RAUG   =    1.300    factor for augmentation sphere                          
   RDEP   =    1.501    radius for radial grids                                 
   RDEPT  =    1.300    core radius for aug-charge                              
                                                                                
   Atomic configuration                                                         
    4 entries                                                                   
     n  l   j            E        occ.                                          
     1  0  0.50      -273.3789   2.0000                                         
     2  0  0.50       -13.7508   2.0000                                         
     2  1  0.50        -5.2854   2.0000                                         
     3  2  1.50        -5.4423   0.0000                                         
   Description                                                                  
     l       E           TYP  RCUT    TYP  RCUT                                 
     0    -13.7508458     23  1.200                                             
     0     -8.2022199     23  1.200                                             
     1     -5.2854383     23  1.500                                             
     1     34.0145650     23  1.500                                             
     2     -5.4423304      7  1.500                                             
  local pseudopotential read in
  partial core-charges read in
  partial kinetic energy density read in
  atomic valenz-charges read in
  non local Contribution for L=           0  read in
    real space projection operators read in
  non local Contribution for L=           0  read in
    real space projection operators read in
  non local Contribution for L=           1  read in
    real space projection operators read in
  non local Contribution for L=           1  read in
    real space projection operators read in
    PAW grid and wavefunctions read in
 
   number of l-projection  operators is LMAX  =           4
   number of lm-projection operators is LMMAX =           8
 
 Optimization of the real space projectors (new method)

 maximal supplied QI-value         = 15.12
 optimisation between [QCUT,QGAM] = [ 12.55, 25.10] = [ 44.09,176.36] Ry 
 Optimized for a Real-space Cutoff    1.56 Angstroem

   l    n(q)    QCUT    max X(q) W(low)/X(q) W(high)/X(q)  e(spline) 
   0     12    12.548     2.962    0.12E-05    0.11E-06    0.46E-07
   0     12    12.548    26.414    0.30E-04    0.15E-05    0.76E-07
   1     11    12.548     3.969    0.45E-05    0.12E-05    0.60E-07
   1     11    12.548     5.137    0.15E-04    0.18E-04    0.36E-06
   2     11    12.548   143.970    0.20E-03    0.19E-03    0.76E-06
   2     11    12.548   121.201    0.20E-03    0.19E-03    0.76E-06
 Optimization of the real space projectors (new method)

 maximal supplied QI-value         = 24.76
 optimisation between [QCUT,QGAM] = [ 12.38, 25.00] = [ 42.90,175.06] Ry 
 Optimized for a Real-space Cutoff    1.16 Angstroem

   l    n(q)    QCUT    max X(q) W(low)/X(q) W(high)/X(q)  e(spline) 
   0      9    12.378    14.049    0.11E-03    0.38E-05    0.23E-06
   0      9    12.378     8.945    0.15E-03    0.56E-05    0.30E-06
   1      8    12.378     7.086    0.18E-03    0.14E-03    0.29E-06
   1      8    12.378     6.747    0.16E-03    0.13E-03    0.26E-06
 Optimization of the real space projectors (new method)

 maximal supplied QI-value         = 25.13
 optimisation between [QCUT,QGAM] = [ 12.32, 24.88] = [ 42.47,173.37] Ry 
 Optimized for a Real-space Cutoff    1.16 Angstroem

   l    n(q)    QCUT    max X(q) W(low)/X(q) W(high)/X(q)  e(spline) 
   0      9    12.315   115.676    0.19E-03    0.80E-05    0.34E-06
   0      9    12.315    87.132    0.19E-03    0.82E-05    0.34E-06
   1      8    12.315     4.429    0.18E-03    0.13E-03    0.22E-06
   1      8    12.315     2.733    0.14E-03    0.10E-03    0.18E-06
  PAW_PBE Sc_sv 07Sep2000               :
 energy of atom  1       EATOM=-1273.2868
 kinetic energy error for atom=    0.0014 (will be added to EATOM!!)
  PAW_PBE F 08Apr2002                   :
 energy of atom  2       EATOM= -659.6475
 kinetic energy error for atom=    0.0256 (will be added to EATOM!!)
  PAW_PBE C 08Apr2002                   :
 energy of atom  3       EATOM= -147.1560
 kinetic energy error for atom=    0.0057 (will be added to EATOM!!)
 
 
 POSCAR: Sc  F  C                                
  positions in cartesian coordinates
  No initial velocities read in
 exchange correlation table for  LEXCH =        8
   RHO(1)=    0.500       N(1)  =     2000
   RHO(2)=  100.500       N(2)  =     4000
 


--------------------------------------------------------------------------------------------------------


 ion  position               nearest neighbor table
   1  0.079  0.157  0.453-  65 2.17  61 2.23  66 2.29  50 2.35  49 2.36  70 2.41  17 3.14  29 3.16
                            16 3.19   4 3.24   6 3.30  18 3.30   2 3.31  13 3.34   5 3.39
   2  0.081  0.410  0.452-  51 2.09  66 2.19  71 2.24  62 2.29  50 2.33  67 2.34  18 3.12  30 3.15
                            19 3.21  13 3.22   3 3.26   1 3.31   6 3.35   7 3.37  14 3.37
   3  0.081  0.659  0.451-  51 2.20  63 2.22  72 2.24  52 2.27  67 2.28  68 2.29  31 3.16  19 3.18
                            20 3.21   7 3.24   2 3.26  14 3.29   4 3.33  15 3.35   8 3.40
   4  0.091  0.917  0.451-  65 2.22  68 2.23  69 2.24  52 2.25  49 2.25  64 2.37  20 3.14   8 3.18
                            32 3.21  17 3.23   1 3.24   5 3.32   3 3.33  15 3.36  16 3.40
   5  0.343  0.170  0.454-  49 2.04  53 2.16  74 2.25  54 2.30  70 2.34  69 2.38  21 3.09  10 3.15
                             6 3.16   9 3.17   8 3.21  17 3.24  22 3.31   4 3.32   1 3.39
   6  0.333  0.405  0.457-  70 2.12  50 2.15  54 2.25  75 2.26  71 2.34  55 2.37  18 3.05  22 3.08
                            10 3.10  23 3.16   5 3.16   1 3.30   2 3.35  11 3.40
   7  0.334  0.669  0.451-  55 2.16  51 2.25  56 2.29  72 2.32  76 2.32  71 2.36  23 3.18  19 3.18
                            24 3.21  12 3.23   3 3.24  11 3.28   8 3.30   2 3.37
   8  0.336  0.922  0.452-  69 2.21  56 2.22  53 2.25  73 2.30  52 2.32  72 2.37  21 3.15   4 3.18
                             5 3.21  20 3.21  24 3.24   9 3.28   7 3.30  12 3.30   3 3.40
   9  0.585  0.171  0.453-  53 2.17  57 2.17  58 2.17  78 2.20  73 2.33  74 2.35  25 3.11   5 3.17
                            14 3.17  26 3.17  13 3.23  21 3.24   8 3.28  10 3.30  12 3.38
  10  0.575  0.417  0.457-  54 2.10  58 2.17  74 2.19  75 2.22  59 2.22  79 2.25   6 3.10  27 3.12
                             5 3.15  26 3.16  22 3.16  11 3.27   9 3.30  15 3.31  14 3.33
  11  0.584  0.671  0.455-  55 2.12  76 2.15  60 2.20  59 2.24  80 2.29  75 2.43  23 3.07  28 3.13
                            12 3.19  27 3.24  16 3.26  15 3.26  10 3.27   7 3.28   6 3.40
  12  0.582  0.912  0.450-  60 2.14  56 2.23  73 2.27  76 2.28  57 2.31  77 2.33  11 3.19   7 3.23
                            25 3.23  28 3.23  24 3.25  16 3.25   8 3.30  13 3.32   9 3.38
  13  0.831  0.169  0.451-  57 2.14  62 2.20  61 2.21  78 2.26  77 2.26  66 2.36  25 3.16  29 3.18
                            30 3.19   2 3.22   9 3.23  14 3.24  16 3.31  12 3.32   1 3.34
  14  0.826  0.413  0.454-  62 2.08  63 2.19  58 2.25  78 2.29  79 2.31  67 2.40  26 3.08  31 3.13
                             9 3.17  30 3.18  13 3.24   3 3.29  15 3.29  10 3.33   2 3.37
  15  0.830  0.666  0.453-  59 2.23  80 2.24  68 2.30  79 2.32  64 2.33  63 2.37  32 3.07  27 3.12
                            31 3.16  11 3.26  14 3.29  16 3.30  10 3.31   3 3.35   4 3.36
  16  0.833  0.918  0.449-  61 2.14  60 2.19  65 2.24  64 2.24  77 2.30  80 2.35  29 3.16   1 3.19
                            32 3.21  28 3.24  12 3.25  11 3.26  15 3.30  13 3.31   4 3.40
  17  0.165  0.085  0.548-  33 2.03  37 2.12  36 2.19  70 2.28  69 2.38  65 2.40   1 3.14   4 3.23
                            21 3.24   5 3.24  22 3.32  32 3.33  20 3.34  29 3.34  18 3.35
  18  0.171  0.343  0.547-  38 2.16  71 2.16  34 2.22  66 2.30  70 2.32  33 2.39   6 3.05   2 3.12
                            19 3.14  22 3.21  23 3.22  30 3.24   1 3.30  17 3.35
  19  0.169  0.581  0.547-  34 2.21  71 2.23  67 2.24  39 2.24  72 2.27  35 2.27  18 3.14   7 3.18
                             3 3.18   2 3.21  23 3.24  30 3.26  24 3.26  20 3.30  31 3.32
  20  0.163  0.829  0.547-  35 2.17  69 2.23  72 2.24  68 2.24  36 2.26  40 2.27   4 3.14   8 3.21
                             3 3.21  31 3.23  32 3.26  21 3.27  19 3.30  24 3.31  17 3.34
  21  0.410  0.081  0.548-  40 2.18  37 2.18  69 2.23  41 2.32  74 2.35  73 2.41   5 3.09   8 3.15
                            17 3.24   9 3.24  20 3.27  24 3.32  25 3.32  22 3.39  26 3.40
  22  0.414  0.341  0.553-  38 2.12  75 2.15  37 2.21  42 2.25  70 2.27  74 2.37   6 3.08  10 3.16
                            23 3.21  18 3.21   5 3.31  17 3.32  27 3.32  21 3.39  26 3.40
  23  0.418  0.586  0.546-  75 2.19  76 2.23  39 2.24  38 2.26  43 2.31  71 2.35  11 3.07   6 3.16
                             7 3.18  22 3.21  18 3.22  24 3.23  19 3.24  28 3.30  27 3.41
  24  0.416  0.831  0.549-  44 2.14  39 2.15  40 2.21  73 2.32  76 2.35  72 2.39   7 3.21  23 3.23
                             8 3.24  12 3.25  19 3.26  20 3.31  21 3.32  25 3.32  28 3.32
  25  0.666  0.086  0.545-  44 2.14  78 2.16  45 2.18  41 2.21  73 2.22  77 2.31   9 3.11  13 3.16
                            12 3.23  29 3.23  26 3.25  30 3.29  24 3.32  21 3.32  28 3.33
  26  0.671  0.337  0.548-  79 2.21  46 2.21  41 2.23  74 2.26  42 2.28  78 2.30  14 3.08  10 3.16
                             9 3.17  27 3.20  31 3.22  25 3.25  30 3.29  21 3.40  22 3.40
  27  0.676  0.583  0.549-  47 2.02  79 2.14  42 2.18  80 2.31  43 2.34  75 2.37  10 3.12  15 3.12
                            31 3.17  32 3.18  26 3.20  11 3.24  22 3.32  28 3.35  23 3.41
  28  0.671  0.836  0.548-  44 2.17  48 2.17  43 2.18  80 2.29  76 2.32  77 2.35  11 3.13  29 3.15
                            12 3.23  16 3.24  32 3.24  23 3.30  24 3.32  25 3.33  27 3.35
  29  0.908  0.079  0.545-  45 2.12  48 2.15  77 2.17  33 2.27  66 2.34  65 2.45  28 3.15   1 3.16
                            16 3.16  13 3.18  25 3.23  30 3.27  32 3.32  17 3.34
  30  0.920  0.334  0.547-  45 2.14  67 2.22  34 2.26  66 2.30  46 2.33  78 2.36   2 3.15  14 3.18
                            13 3.19  18 3.24  19 3.26  29 3.27  31 3.28  26 3.29  25 3.29
  31  0.917  0.582  0.546-  46 2.21  67 2.24  35 2.27  79 2.31  47 2.32  68 2.35  14 3.13   3 3.16
                            15 3.16  27 3.17  26 3.22  20 3.23  32 3.26  30 3.28  19 3.32
  32  0.914  0.829  0.544-  80 2.16  47 2.25  36 2.29  68 2.30  65 2.31  48 2.34  15 3.07  27 3.18
                             4 3.21  16 3.21  28 3.24  20 3.26  31 3.26  29 3.32  17 3.33
  33  0.082  0.155  0.587-  17 2.03  29 2.27  18 2.39
  34  0.086  0.420  0.593-  19 2.21  18 2.22  30 2.26
  35  0.086  0.669  0.591-  20 2.17  31 2.27  19 2.27
  36  0.083  0.920  0.591-  17 2.19  20 2.26  32 2.29
  37  0.326  0.164  0.588-  17 2.12  21 2.18  22 2.21
  38  0.330  0.420  0.591-  22 2.12  18 2.16  23 2.26
  39  0.337  0.670  0.591-  24 2.15  19 2.24  23 2.24
  40  0.334  0.917  0.591-  21 2.18  24 2.21  20 2.27
  41  0.587  0.169  0.591-  25 2.21  26 2.23  21 2.32
  42  0.588  0.423  0.593-  27 2.18  22 2.25  26 2.28
  43  0.589  0.675  0.592-  28 2.18  23 2.31  27 2.34
  44  0.585  0.921  0.584-  24 2.14  25 2.14  28 2.17
  45  0.835  0.167  0.584-  29 2.12  30 2.14  25 2.18
  46  0.834  0.422  0.593-  31 2.21  26 2.21  30 2.33
  47  0.824  0.664  0.591-  27 2.02  32 2.25  31 2.32
  48  0.834  0.923  0.591-  29 2.15  28 2.17  32 2.34
  49  0.194  0.090  0.412-   5 2.04   4 2.25   1 2.36
  50  0.182  0.335  0.408-   6 2.15   2 2.33   1 2.35
  51  0.159  0.567  0.412-   2 2.09   3 2.20   7 2.25
  52  0.165  0.826  0.405-   4 2.25   3 2.27   8 2.32
  53  0.424  0.092  0.410-   5 2.16   9 2.17   8 2.25
  54  0.430  0.341  0.409-  10 2.10   6 2.25   5 2.30
  55  0.423  0.589  0.415-  11 2.12   7 2.16   6 2.37
  56  0.416  0.840  0.406-   8 2.22  12 2.23   7 2.29
  57  0.669  0.092  0.410-  13 2.14   9 2.17  12 2.31
  58  0.654  0.336  0.413-  10 2.17   9 2.17  14 2.25
  59  0.660  0.580  0.412-  10 2.22  15 2.23  11 2.24
  60  0.664  0.832  0.410-  12 2.14  16 2.19  11 2.20
  61  0.911  0.081  0.410-  16 2.14  13 2.21   1 2.23
  62  0.904  0.338  0.411-  14 2.08  13 2.20   2 2.29
  63  0.915  0.572  0.408-  14 2.19   3 2.22  15 2.37
  64  0.915  0.835  0.404-  16 2.24  15 2.33   4 2.37
  65  0.999  0.992  0.494-   1 2.17   4 2.22  16 2.24  32 2.31  17 2.40  29 2.45
  66  0.005  0.252  0.498-   2 2.19   1 2.29  30 2.30  18 2.30  29 2.34  13 2.36
  67  0.002  0.499  0.503-  30 2.22  19 2.24  31 2.24   3 2.28   2 2.34  14 2.40
  68  0.005  0.752  0.496-   4 2.23  20 2.24   3 2.29  32 2.30  15 2.30  31 2.35
  69  0.250  0.993  0.501-   8 2.21  21 2.23  20 2.23   4 2.24   5 2.38  17 2.38
  70  0.255  0.253  0.502-   6 2.12  22 2.27  17 2.28  18 2.32   5 2.34   1 2.41
  71  0.243  0.496  0.499-  18 2.16  19 2.23   2 2.24   6 2.34  23 2.35   7 2.36
  72  0.241  0.746  0.500-  20 2.24   3 2.24  19 2.27   7 2.32   8 2.37  24 2.39
  73  0.504  0.998  0.499-  25 2.22  12 2.27   8 2.30  24 2.32   9 2.33  21 2.41
  74  0.503  0.258  0.503-  10 2.19   5 2.25  26 2.26  21 2.35   9 2.35  22 2.37
  75  0.494  0.494  0.506-  22 2.15  23 2.19  10 2.22   6 2.26  27 2.37  11 2.43
  76  0.503  0.748  0.499-  11 2.15  23 2.23  12 2.28  28 2.32   7 2.32  24 2.35
  77  0.753  0.005  0.498-  29 2.17  13 2.26  16 2.30  25 2.31  12 2.33  28 2.35
  78  0.744  0.243  0.500-  25 2.16   9 2.20  13 2.26  14 2.29  26 2.30  30 2.36
  79  0.742  0.498  0.502-  27 2.14  26 2.21  10 2.25  14 2.31  31 2.31  15 2.32
  80  0.754  0.752  0.501-  32 2.16  15 2.24  11 2.29  28 2.29  27 2.31  16 2.35
 
  LATTYP: Found a hexagonal cell.
 ALAT       =    13.1286233990
 C/A-ratio  =     2.0434811347
  
  Lattice vectors:
  
 A1 = (  13.1286234000,   0.0000000000,   0.0000000000)
 A2 = (  -6.5643117000,  11.3697213800,   0.0000000000)
 A3 = (   0.0000000000,   0.0000000000,  26.8280942400)


Analysis of symmetry for initial positions (statically):
=====================================================================
 Subroutine PRICEL returns:
 Original cell was already a primitive cell.
 

 Routine SETGRP: Setting up the symmetry group for a 
 hexagonal supercell.


 Subroutine GETGRP returns: Found  1 space group operations
 (whereof  1 operations were pure point group operations)
 out of a pool of 24 trial point group operations.


The static configuration has the point symmetry C_1 .


Analysis of symmetry for dynamics (positions and initial velocities):
=====================================================================
 Subroutine PRICEL returns:
 Original cell was already a primitive cell.
 

 Routine SETGRP: Setting up the symmetry group for a 
 hexagonal supercell.


 Subroutine GETGRP returns: Found  1 space group operations
 (whereof  1 operations were pure point group operations)
 out of a pool of 24 trial point group operations.


The dynamic configuration has the point symmetry C_1 .


 Subroutine INISYM returns: Found  1 space group operations
 (whereof  1 operations are pure point group operations),
 and found     1 'primitive' translations

 
 

Automatic generation of k-mesh.
 generate k-points for:    3    3    1
Space group operators:
 irot       det(A)        alpha          n_x          n_y          n_z        tau_x        tau_y        tau_z
    1     1.000000     0.000000     1.000000     0.000000     0.000000     0.000000     0.000000     0.000000
 
 Subroutine IBZKPT returns following result:
 ===========================================
 
 Found      5 irreducible k-points:
 
 Following reciprocal coordinates:
            Coordinates               Weight
  0.000000  0.000000  0.000000      1.000000
  0.333333 -0.000000  0.000000      2.000000
  0.000000  0.333333  0.000000      2.000000
  0.333333  0.333333  0.000000      2.000000
 -0.333333  0.333333  0.000000      2.000000
 
 Following cartesian coordinates:
            Coordinates               Weight
  0.000000  0.000000  0.000000      1.000000
  0.025390  0.014659  0.000000      2.000000
  0.000000  0.029318  0.000000      2.000000
  0.025390  0.043976  0.000000      2.000000
 -0.025390  0.014659  0.000000      2.000000
 


--------------------------------------------------------------------------------------------------------




 Dimension of arrays:
   k-points           NKPTS =      5   k-points in BZ     NKDIM =      5   number of bands    NBANDS=    384
   number of dos      NEDOS =    301   number of ions     NIONS =     80
   non local maximal  LDIM  =      6   non local SUM 2l+1 LMDIM =     18
   total plane-waves  NPLWV = ******
   max r-space proj   IRMAX =  10060   max aug-charges    IRDMAX= 222480
   dimension x,y,z NGX =   108 NGY =  108 NGZ =  216
   dimension x,y,z NGXF=   216 NGYF=  216 NGZF=  432
   support grid    NGXF=   432 NGYF=  432 NGZF=  864
   ions per type =              32  32  16
   NGX,Y,Z   is equivalent  to a cutoff of  13.68, 13.68, 13.38 a.u.
   NGXF,Y,Z  is equivalent  to a cutoff of  27.35, 27.35, 26.77 a.u.

 SYSTEM =  unknown system                          
 POSCAR =  Sc  F  C                                

 Startparameter for this run:
   NWRITE =      2    write-flag & timer
   PREC   = anorma    normal or accurate (medium, high low for compatibility)
   ISTART =      0    job   : 0-new  1-cont  2-samecut
   ICHARG =      2    charge: 1-file 2-atom 10-const
   ISPIN  =      1    spin polarized calculation?
   LNONCOLLINEAR =      F non collinear calculations
   LSORBIT =      F    spin-orbit coupling
   INIWAV =      1    electr: 0-lowe 1-rand  2-diag
   LASPH  =      F    aspherical Exc in radial PAW
   METAGGA=      F    non-selfconsistent MetaGGA calc.

 Electronic Relaxation 1
   ENCUT  =  600.0 eV  44.10 Ry    6.64 a.u.  26.22 26.22 53.58*2*pi/ulx,y,z
   ENINI  =  600.0     initial cutoff
   ENAUG  =  644.9 eV  augmentation charge cutoff
   NELM   =     60;   NELMIN=  2; NELMDL= -5     # of ELM steps 
   EDIFF  = 0.1E-05   stopping-criterion for ELM
   LREAL  =      T    real-space projection
   NLSPLINE    = F    spline interpolate recip. space projectors
   LCOMPAT=      F    compatible to vasp.4.4
   GGA_COMPAT  = T    GGA compatible to vasp.4.4-vasp.4.6
   LMAXPAW     = -100 max onsite density
   LMAXMIX     =    2 max onsite mixed and CHGCAR
   VOSKOWN=      0    Vosko Wilk Nusair interpolation
   ROPT   =   -0.00025  -0.00025  -0.00025
 Ionic relaxation
   EDIFFG = -.1E-01   stopping-criterion for IOM
   NSW    =      1    number of steps for IOM
   NBLOCK =      1;   KBLOCK =      1    inner block; outer block 
   IBRION =     -1    ionic relax: 0-MD 1-quasi-New 2-CG
   NFREE  =      0    steps in history (QN), initial steepest desc. (CG)
   ISIF   =      2    stress and relaxation
   IWAVPR =     10    prediction:  0-non 1-charg 2-wave 3-comb
   ISYM   =      2    0-nonsym 1-usesym 2-fastsym
   LCORR  =      T    Harris-Foulkes like correction to forces

   POTIM  = 1.0000    time-step for ionic-motion
   TEIN   =    0.0    initial temperature
   TEBEG  =    0.0;   TEEND  =   0.0 temperature during run
   SMASS  =  -3.00    Nose mass-parameter (am)
   estimated Nose-frequenzy (Omega)   =  0.10E-29 period in steps =****** mass=  -0.394E-26a.u.
   SCALEE = 1.0000    scale energy and forces
   NPACO  =    256;   APACO  = 16.0  distance and # of slots for P.C.
   PSTRESS=    0.0 pullay stress

  Mass of Ions in am
   POMASS =  44.96 19.00 12.01
  Ionic Valenz
   ZVAL   =  11.00  7.00  4.00
  Atomic Wigner-Seitz radii
   RWIGS  =  -1.00 -1.00 -1.00
  virtual crystal weights 
   VCA    =   1.00  1.00  1.00
   NELECT =     640.0000    total number of electrons
   NUPDOWN=      -1.0000    fix difference up-down

 DOS related values:
   EMIN   =  10.00;   EMAX   =-10.00  energy-range for DOS
   EFERMI =   0.00
   ISMEAR =     0;   SIGMA  =   0.05  broadening in eV -4-tet -1-fermi 0-gaus

 Electronic relaxation 2 (details)
   IALGO  =     38    algorithm
   LDIAG  =      T    sub-space diagonalisation (order eigenvalues)
   LSUBROT=      F    optimize rotation matrix (better conditioning)
   TURBO    =      0    0=normal 1=particle mesh
   IRESTART =      0    0=no restart 2=restart with 2 vectors
   NREBOOT  =      0    no. of reboots
   NMIN     =      0    reboot dimension
   EREF     =   0.00    reference energy to select bands
   IMIX   =      4    mixing-type and parameters
     AMIX     =   0.40;   BMIX     =  1.00
     AMIX_MAG =   1.60;   BMIX_MAG =  1.00
     AMIN     =   0.10
     WC   =   100.;   INIMIX=   1;  MIXPRE=   1;  MAXMIX= -45

 Intra band minimization:
   WEIMIN = 0.0000     energy-eigenvalue tresh-hold
   EBREAK =  0.65E-09  absolut break condition
   DEPER  =   0.30     relativ break condition  

   TIME   =   0.40     timestep for ELM

  volume/ion in A,a.u.               =      50.06       337.80
  Fermi-wavevector in a.u.,A,eV,Ry     =   0.888414  1.678858 10.738790  0.789279
  Thomas-Fermi vector in A             =   2.009840
 
 Write flags
   LWAVE        =      F    write WAVECAR
   LDOWNSAMPLE  =      F    k-point downsampling of WAVECAR
   LCHARG       =      F    write CHGCAR
   LVTOT        =      F    write LOCPOT, total local potential
   LVHAR        =      F    write LOCPOT, Hartree potential only
   LELF         =      F    write electronic localiz. function (ELF)
   LORBIT       =      0    0 simple, 1 ext, 2 COOP (PROOUT), +10 PAW based schemes


 Dipole corrections
   LMONO  =      F    monopole corrections only (constant potential shift)
   LDIPOL =      F    correct potential (dipole corrections)
   IDIPOL =      0    1-x, 2-y, 3-z, 4-all directions 
   EPSILON=  1.0000000 bulk dielectric constant

 Exchange correlation treatment:
   GGA     =    --    GGA type
   LEXCH   =     8    internal setting for exchange type
   VOSKOWN=      0    Vosko Wilk Nusair interpolation
   LHFCALC =     F    Hartree Fock is set to
   LHFONE  =     F    Hartree Fock one center treatment
   AEXX    =    0.0000 exact exchange contribution

 Linear response parameters
   LEPSILON=     F    determine dielectric tensor
   LRPA    =     F    only Hartree local field effects (RPA)
   LNABLA  =     F    use nabla operator in PAW spheres
   LVEL    =     F    velocity operator in full k-point grid
   LINTERFAST=   F  fast interpolation
   KINTER  =     0    interpolate to denser k-point grid
   CSHIFT  =0.1000    complex shift for real part using Kramers Kronig
   OMEGAMAX=  -1.0    maximum frequency
   DEG_THRESHOLD= 0.2000000E-02 threshold for treating states as degnerate
   RTIME   =   -0.100 relaxation time in fs
  (WPLASMAI=    0.000 imaginary part of plasma frequency in eV, 0.658/RTIME)
   DFIELD  = 0.0000000 0.0000000 0.0000000 field for delta impulse in time
 
 Orbital magnetization related:
   ORBITALMAG=     F  switch on orbital magnetization
   LCHIMAG   =     F  perturbation theory with respect to B field
   DQ        =  0.001000  dq finite difference perturbation B field
   LLRAUG    =     F  two centre corrections for induced B field



--------------------------------------------------------------------------------------------------------


 Static calculation
 charge density and potential will be updated during run
 non-spin polarized calculation
 Variant of blocked Davidson
 Davidson routine will perform the subspace rotation
 perform sub-space diagonalisation
    after iterative eigenvector-optimisation
 modified Broyden-mixing scheme, WC =      100.0
 initial mixing is a Kerker type mixing with AMIX =  0.4000 and BMIX =      1.0000
 Hartree-type preconditioning will be used
 using additional bands           64
 real space projection scheme for non local part
 use partial core corrections
 calculate Harris-corrections to forces 
   (improved forces if not selfconsistent)
 use gradient corrections 
 use of overlap-Matrix (Vanderbilt PP)
 Gauss-broadening in eV      SIGMA  =   0.05


--------------------------------------------------------------------------------------------------------


  energy-cutoff  :      600.00
  volume of cell :     4004.60
      direct lattice vectors                 reciprocal lattice vectors
    13.128623400  0.000000000  0.000000000     0.076169448  0.043976451  0.000000000
    -6.564311700 11.369721380  0.000000000     0.000000000  0.087952903  0.000000000
     0.000000000  0.000000000 26.828094240     0.000000000  0.000000000  0.037274358

  length of vectors
    13.128623400 13.128623399 26.828094240     0.087952903  0.087952903  0.037274358


 
 k-points in units of 2pi/SCALE and weight: read from INCAR                         
   0.00000000  0.00000000  0.00000000       0.111
   0.02538982  0.01465882  0.00000000       0.222
   0.00000000  0.02931763  0.00000000       0.222
   0.02538982  0.04397645  0.00000000       0.222
  -0.02538982  0.01465882  0.00000000       0.222
 
 k-points in reciprocal lattice and weights: read from INCAR                         
   0.00000000  0.00000000  0.00000000       0.111
   0.33333333 -0.00000000  0.00000000       0.222
   0.00000000  0.33333333  0.00000000       0.222
   0.33333333  0.33333333  0.00000000       0.222
  -0.33333333  0.33333333  0.00000000       0.222
 
 position of ions in fractional coordinates (direct lattice) 
   0.07895144  0.15705724  0.45250696
   0.08064509  0.40982178  0.45166194
   0.08126822  0.65853476  0.45122723
   0.09115057  0.91680569  0.45126074
   0.34332013  0.16958209  0.45388380
   0.33292498  0.40499100  0.45660805
   0.33351644  0.66943380  0.45099318
   0.33550154  0.92151644  0.45221114
   0.58533114  0.17097999  0.45292323
   0.57466270  0.41702724  0.45721619
   0.58397605  0.67078385  0.45522088
   0.58200721  0.91221904  0.45036587
   0.83062634  0.16909194  0.45062624
   0.82594466  0.41323461  0.45394417
   0.83003874  0.66587524  0.45303931
   0.83271554  0.91833467  0.44901163
   0.16512263  0.08451702  0.54831738
   0.17124499  0.34304214  0.54695756
   0.16916455  0.58099530  0.54698415
   0.16254533  0.82899674  0.54673134
   0.40981684  0.08050590  0.54826571
   0.41410838  0.34068456  0.55345679
   0.41827948  0.58636165  0.54574909
   0.41595786  0.83107910  0.54886298
   0.66571468  0.08641467  0.54546022
   0.67097629  0.33686764  0.54798710
   0.67602019  0.58320060  0.54909921
   0.67104544  0.83589240  0.54837288
   0.90786433  0.07869871  0.54534226
   0.91961635  0.33360861  0.54697230
   0.91696635  0.58187675  0.54607089
   0.91403449  0.82898634  0.54444637
   0.08162487  0.15499942  0.58675260
   0.08591186  0.41980192  0.59286103
   0.08616285  0.66891307  0.59071611
   0.08326484  0.91956523  0.59066571
   0.32630008  0.16406855  0.58824127
   0.32957648  0.41973350  0.59143930
   0.33653719  0.67045296  0.59096216
   0.33372820  0.91697943  0.59053141
   0.58673119  0.16910923  0.59132760
   0.58776243  0.42270190  0.59344001
   0.58877538  0.67486423  0.59236474
   0.58465606  0.92079869  0.58371907
   0.83450052  0.16740416  0.58402231
   0.83411969  0.42209409  0.59299410
   0.82412458  0.66359486  0.59055011
   0.83358061  0.92325733  0.59075497
   0.19372391  0.09018982  0.41170388
   0.18232401  0.33479537  0.40818400
   0.15913693  0.56748946  0.41169205
   0.16492515  0.82564797  0.40521115
   0.42434875  0.09173681  0.40956702
   0.42967414  0.34085361  0.40854704
   0.42324512  0.58897619  0.41542052
   0.41605032  0.84038595  0.40606759
   0.66859062  0.09212219  0.41023609
   0.65361077  0.33627018  0.41305135
   0.66038651  0.57976254  0.41163330
   0.66373917  0.83192848  0.40994333
   0.91103328  0.08146930  0.40960194
   0.90396115  0.33819038  0.41118642
   0.91491507  0.57221380  0.40781886
   0.91527421  0.83478728  0.40407747
   0.99903522  0.99224989  0.49351456
   0.00459110  0.25227701  0.49846715
   0.00245323  0.49900115  0.50266438
   0.00480989  0.75227452  0.49643038
   0.24951339  0.99258014  0.50083559
   0.25517581  0.25254728  0.50214027
   0.24344448  0.49560519  0.49886337
   0.24124645  0.74573071  0.49953034
   0.50441502  0.99785932  0.49899184
   0.50286539  0.25794123  0.50338469
   0.49394742  0.49364275  0.50610846
   0.50313916  0.74831429  0.49917877
   0.75316566  0.00467708  0.49780108
   0.74404974  0.24314593  0.49984863
   0.74213026  0.49768302  0.50219893
   0.75421583  0.75163407  0.50084820
 
 position of ions in cartesian coordinates  (Angst):
   0.00555105  1.78569711 12.13989924
  -1.63143887  4.65955943 12.11722917
  -3.25588760  7.48735670 12.10556666
  -4.82151679 10.42382531 12.10646564
   3.39413104  1.92810107 12.17683738
   1.71235957  4.60463485 12.24992391
  -0.01576033  7.61127575 12.09928759
  -1.64444781 10.47738522 12.13196305
   6.56222613  1.94399483 12.15106723
   4.80703336  4.74148357 12.26623892
   3.26356738  7.62662546 12.21270876
   1.65286340 10.37167632 12.08245806
   9.79500817  1.92252830 12.08944320
   8.13091562  4.69836242 12.17845700
   6.52625333  7.57081599 12.15418138
   4.90417372 10.44120928 12.04612637
   1.61303677  0.96093492 14.71031037
  -0.00362459  3.90029359 14.67382885
  -1.59293662  6.60575466 14.67454242
  -3.30779656  9.42546201 14.66775980
   4.85186510  0.91532962 14.70892407
   3.20031328  3.87348851 14.84819088
   1.64237309  6.66676861 14.64140814
   0.00549186  9.44913783 14.72494766
   8.17266445  0.98251073 14.63365832
   6.59769078  3.83009121 14.70144966
   5.04690395  6.63082833 14.73128532
   3.32284462  9.50386364 14.71179918
  11.40240601  0.89478235 14.63049345
   9.88338589  3.79303689 14.67422448
   8.21888558  6.61577652 14.65004138
   6.55828993  9.42534367 14.60645854
   0.05415767  1.76230026 15.74145399
  -1.62780627  4.77303092 15.90533170
  -3.25975432  7.60535522 15.84778757
  -4.94316010 10.45520041 15.84643538
   3.20687381  1.86541372 15.78139233
   1.57162405  4.77225290 15.86718940
   0.01720776  7.62286337 15.85438855
  -1.63794694 10.42580065 15.84283222
   6.59288710  1.92272487 15.86419252
   4.94176459  4.80600287 15.92086451
   3.29979103  7.67301825 15.89201707
   1.63131965 10.46922456 15.66007012
   9.85695001  1.90333868 15.66820569
   8.18008612  4.79909223 15.90890162
   6.46357778  7.54488870 15.84333395
   4.88321701 10.49717865 15.84882994
   1.95129419  1.02543312 11.04523042
   0.19596216  3.80653002 10.95079875
  -1.63592888  6.45219700 11.04491324
  -3.25457048  9.38738740 10.87104282
   4.96892597  1.04302197 10.98790255
   3.40356059  3.87541056 10.96053853
   1.69040247  6.69649518 11.14494091
  -0.05438737  9.55495407 10.89401949
   8.17295564  1.04740367 11.00585248
   6.37362745  3.82329821 11.08138065
   4.86422372  6.59173855 11.04333692
   3.25294378  9.45879501 10.99799827
  11.42582292  0.92628327 10.98883952
   9.64777845  3.84513041 11.03134803
   8.25538570  6.50591142 10.94100286
   6.53648648  9.49129875 10.84062851
   6.60251961 11.28160481 13.24005512
  -1.59575008  2.86831926 13.37292378
  -3.24339150  5.67350400 13.48552741
  -4.87501721  8.55315170 13.31828090
  -3.23983810 11.28535964 13.43646436
   1.69230806  2.87139221 13.47146659
  -0.05721614  5.63489298 13.38355347
  -1.72797501  8.47875044 13.40144706
   0.07201526 11.34538247 13.38700006
   4.90872369  2.93271988 13.50485195
   3.24442475  5.61258055 13.57792542
   1.69335634  8.50812500 13.39201510
   9.85732644  0.05317715 13.35505440
   8.17226323  2.76450143 13.40998603
   6.47620226  5.65851726 13.47304030
   4.96785523  8.54587000 13.43680262
 


--------------------------------------------------------------------------------------------------------


 k-point  1 :   0.0000 0.0000 0.0000  plane waves:  133769
 k-point  2 :   0.3333-0.0000 0.0000  plane waves:  133588
 k-point  3 :   0.0000 0.3333 0.0000  plane waves:  133588
 k-point  4 :   0.3333 0.3333 0.0000  plane waves:  133608
 k-point  5 :  -0.3333 0.3333 0.0000  plane waves:  133588

 maximum and minimum number of plane-waves per node :     10323    10242

 maximum number of plane-waves:    133769
 maximum index in each direction: 
   IXMAX=   26   IYMAX=   26   IZMAX=   53
   IXMIN=  -26   IYMIN=  -26   IZMIN=  -53


 real space projection operators:
  total allocation   :      55706.78 KBytes
  max/ min on nodes  :       4721.22       4041.06


 parallel 3D FFT for wavefunctions:
    minimum data exchange during FFTs selected (reduces bandwidth)
 parallel 3D FFT for charge:
    minimum data exchange during FFTs selected (reduces bandwidth)


 total amount of memory used by VASP MPI-rank0   234675. kBytes
=======================================================================

   base      :      30000. kBytes
   nonlr-proj:      19407. kBytes
   fftplans  :      66973. kBytes
   grid      :      38377. kBytes
   one-center:        108. kBytes
   wavefun   :      79810. kBytes
 
     INWAV:  cpu time    0.0001: real time    0.0001
 Broyden mixing: mesh for mixing (old mesh)
   NGX = 53   NGY = 53   NGZ =107
  (NGX  =216   NGY  =216   NGZ  =432)
  gives a total of 300563 points

 initial charge density was supplied:
 charge density of overlapping atoms calculated
 number of electron     640.0000000 magnetization 
 keeping initial charge density in first step


--------------------------------------------------------------------------------------------------------


 Maximum index for non-local projection operator         1104
 Maximum index for augmentation-charges         5634 (set IRDMAX)


--------------------------------------------------------------------------------------------------------


 First call to EWALD:  gamma=   0.112
 Maximum number of real-space cells 4x 4x 2
 Maximum number of reciprocal cells 2x 2x 4

    FEWALD:  cpu time    0.0034: real time    0.0042


--------------------------------------- Iteration      1(   1)  ---------------------------------------


    POTLOK:  cpu time    0.4375: real time    0.4434
    SETDIJ:  cpu time    0.4206: real time    0.4229
     EDDAV:  cpu time   46.1361: real time   46.1424
       DOS:  cpu time    0.0012: real time    0.0012
    --------------------------------------------
      LOOP:  cpu time   46.9955: real time   47.0099

 eigenvalue-minimisations  :  4240
 total energy-change (2. order) : 0.1369672E+05  (-0.2786571E+05)
 number of electron     640.0000000 magnetization 
 augmentation part      640.0000000 magnetization 

 Free energy of the ion-electron system (eV)
  ---------------------------------------------------
  alpha Z        PSCENC =       871.83850952
  Ewald energy   TEWEN  =    287626.72104529
  -Hartree energ DENC   =   -341965.86153502
  -exchange      EXHF   =         0.00000000
  -V(xc)+E(xc)   XCENC  =      3043.62911569
  PAW double counting   =     50525.51240023   -50422.77561733
  entropy T*S    EENTRO =        -0.07337861
  eigenvalues    EBANDS =      -189.70769868
  atomic energy  EATOM  =     64207.43592568
  Solvation  Ediel_sol  =         0.00000000
  ---------------------------------------------------
  free energy    TOTEN  =     13696.71876678 eV

  energy without entropy =    13696.79214539  energy(sigma->0) =    13696.75545608


--------------------------------------------------------------------------------------------------------




--------------------------------------- Iteration      1(   2)  ---------------------------------------


     EDDAV:  cpu time   49.5583: real time   49.5773
       DOS:  cpu time    0.0012: real time    0.0012
    --------------------------------------------
      LOOP:  cpu time   49.5595: real time   49.5785

 eigenvalue-minimisations  :  4632
 total energy-change (2. order) :-0.1120519E+05  (-0.1090592E+05)
 number of electron     640.0000000 magnetization 
 augmentation part      640.0000000 magnetization 

 Free energy of the ion-electron system (eV)
  ---------------------------------------------------
  alpha Z        PSCENC =       871.83850952
  Ewald energy   TEWEN  =    287626.72104529
  -Hartree energ DENC   =   -341965.86153502
  -exchange      EXHF   =         0.00000000
  -V(xc)+E(xc)   XCENC  =      3043.62911569
  PAW double counting   =     50525.51240023   -50422.77561733
  entropy T*S    EENTRO =        -0.05900485
  eigenvalues    EBANDS =    -11394.90836728
  atomic energy  EATOM  =     64207.43592568
  Solvation  Ediel_sol  =         0.00000000
  ---------------------------------------------------
  free energy    TOTEN  =      2491.53247194 eV

  energy without entropy =     2491.59147678  energy(sigma->0) =     2491.56197436


--------------------------------------------------------------------------------------------------------




--------------------------------------- Iteration      1(   3)  ---------------------------------------


     EDDAV:  cpu time   67.9844: real time   67.9889
       DOS:  cpu time    0.0007: real time    0.0006
    --------------------------------------------
      LOOP:  cpu time   67.9851: real time   67.9895

 eigenvalue-minimisations  :  6784
 total energy-change (2. order) :-0.2876320E+04  (-0.2760185E+04)
 number of electron     640.0000000 magnetization 
 augmentation part      640.0000000 magnetization 

 Free energy of the ion-electron system (eV)
  ---------------------------------------------------
  alpha Z        PSCENC =       871.83850952
  Ewald energy   TEWEN  =    287626.72104529
  -Hartree energ DENC   =   -341965.86153502
  -exchange      EXHF   =         0.00000000
  -V(xc)+E(xc)   XCENC  =      3043.62911569
  PAW double counting   =     50525.51240023   -50422.77561733
  entropy T*S    EENTRO =        -0.00000000
  eigenvalues    EBANDS =    -14271.28696700
  atomic energy  EATOM  =     64207.43592568
  Solvation  Ediel_sol  =         0.00000000
  ---------------------------------------------------
  free energy    TOTEN  =      -384.78712294 eV

  energy without entropy =     -384.78712294  energy(sigma->0) =     -384.78712294


--------------------------------------------------------------------------------------------------------




--------------------------------------- Iteration      1(   4)  ---------------------------------------


     EDDAV:  cpu time   62.5893: real time   62.6032
       DOS:  cpu time    0.0006: real time    0.0006
    --------------------------------------------
      LOOP:  cpu time   62.5899: real time   62.6038

 eigenvalue-minimisations  :  6056
 total energy-change (2. order) :-0.3567362E+03  (-0.3526599E+03)
 number of electron     640.0000000 magnetization 
 augmentation part      640.0000000 magnetization 

 Free energy of the ion-electron system (eV)
  ---------------------------------------------------
  alpha Z        PSCENC =       871.83850952
  Ewald energy   TEWEN  =    287626.72104529
  -Hartree energ DENC   =   -341965.86153502
  -exchange      EXHF   =         0.00000000
  -V(xc)+E(xc)   XCENC  =      3043.62911569
  PAW double counting   =     50525.51240023   -50422.77561733
  entropy T*S    EENTRO =        -0.00000000
  eigenvalues    EBANDS =    -14628.02315828
  atomic energy  EATOM  =     64207.43592568
  Solvation  Ediel_sol  =         0.00000000
  ---------------------------------------------------
  free energy    TOTEN  =      -741.52331422 eV

  energy without entropy =     -741.52331422  energy(sigma->0) =     -741.52331422


--------------------------------------------------------------------------------------------------------




--------------------------------------- Iteration      1(   5)  ---------------------------------------


     EDDAV:  cpu time   62.2831: real time   62.2946
       DOS:  cpu time    0.0007: real time    0.0007
    CHARGE:  cpu time    3.6750: real time    3.6750
    MIXING:  cpu time    0.0153: real time    0.0154
    --------------------------------------------
      LOOP:  cpu time   65.9741: real time   65.9857

 eigenvalue-minimisations  :  6080
 total energy-change (2. order) :-0.1429252E+02  (-0.1423401E+02)
 number of electron     640.0000008 magnetization 
 augmentation part      134.5332490 magnetization 

 Broyden mixing:
  rms(total) = 0.76534E+01    rms(broyden)= 0.76531E+01
  rms(prec ) = 0.80589E+01
  weight for this iteration     100.00

 Free energy of the ion-electron system (eV)
  ---------------------------------------------------
  alpha Z        PSCENC =       871.83850952
  Ewald energy   TEWEN  =    287626.72104529
  -Hartree energ DENC   =   -341965.86153502
  -exchange      EXHF   =         0.00000000
  -V(xc)+E(xc)   XCENC  =      3043.62911569
  PAW double counting   =     50525.51240023   -50422.77561733
  entropy T*S    EENTRO =        -0.00000000
  eigenvalues    EBANDS =    -14642.31567846
  atomic energy  EATOM  =     64207.43592568
  Solvation  Ediel_sol  =         0.00000000
  ---------------------------------------------------
  free energy    TOTEN  =      -755.81583439 eV

  energy without entropy =     -755.81583439  energy(sigma->0) =     -755.81583439


--------------------------------------------------------------------------------------------------------




--------------------------------------- Iteration      1(   6)  ---------------------------------------


    POTLOK:  cpu time    0.4172: real time    0.4275
    SETDIJ:  cpu time    0.4374: real time    0.4374
     EDDAV:  cpu time   59.4300: real time   59.4371
       DOS:  cpu time    0.0007: real time    0.0006
    CHARGE:  cpu time    3.6467: real time    3.6466
    MIXING:  cpu time    0.0154: real time    0.0154
    --------------------------------------------
      LOOP:  cpu time   63.9473: real time   63.9647

 eigenvalue-minimisations  :  5736
 total energy-change (2. order) : 0.1557818E+03  (-0.8385091E+02)
 number of electron     640.0000008 magnetization 
 augmentation part      140.5098415 magnetization 

 Broyden mixing:
  rms(total) = 0.24937E+01    rms(broyden)= 0.24930E+01
  rms(prec ) = 0.25455E+01
  weight for this iteration     100.00

 eigenvalues of (default mixing * dielectric matrix)
  average eigenvalue GAMMA=   0.9805
  0.9805

 Free energy of the ion-electron system (eV)
  ---------------------------------------------------
  alpha Z        PSCENC =       871.83850952
  Ewald energy   TEWEN  =    287626.72104529
  -Hartree energ DENC   =   -342142.31253572
  -exchange      EXHF   =         0.00000000
  -V(xc)+E(xc)   XCENC  =      3055.87236484
  PAW double counting   =     56388.74292602   -56355.28176057
  entropy T*S    EENTRO =        -0.00000000
  eigenvalues    EBANDS =    -14253.05048460
  atomic energy  EATOM  =     64207.43592568
  Solvation  Ediel_sol  =         0.00000000
  ---------------------------------------------------
  free energy    TOTEN  =      -600.03400953 eV

  energy without entropy =     -600.03400953  energy(sigma->0) =     -600.03400953


--------------------------------------------------------------------------------------------------------




--------------------------------------- Iteration      1(   7)  ---------------------------------------


    POTLOK:  cpu time    0.3796: real time    0.3899
    SETDIJ:  cpu time    0.4224: real time    0.4224
     EDDAV:  cpu time   61.3243: real time   61.3240
       DOS:  cpu time    0.0006: real time    0.0006
    CHARGE:  cpu time    3.6013: real time    3.6014
    MIXING:  cpu time    0.0166: real time    0.0166
    --------------------------------------------
      LOOP:  cpu time   65.7448: real time   65.7549

 eigenvalue-minimisations  :  5952
 total energy-change (2. order) :-0.3349506E-01  (-0.5283163E+01)
 number of electron     640.0000008 magnetization 
 augmentation part      141.0726883 magnetization 

 Broyden mixing:
  rms(total) = 0.16168E+01    rms(broyden)= 0.16168E+01
  rms(prec ) = 0.16469E+01
  weight for this iteration     100.00

 eigenvalues of (default mixing * dielectric matrix)
  average eigenvalue GAMMA=   1.6588
  0.9666  2.3511

 Free energy of the ion-electron system (eV)
  ---------------------------------------------------
  alpha Z        PSCENC =       871.83850952
  Ewald energy   TEWEN  =    287626.72104529
  -Hartree energ DENC   =   -342289.34092822
  -exchange      EXHF   =         0.00000000
  -V(xc)+E(xc)   XCENC  =      3052.97157334
  PAW double counting   =     60112.58703694   -60086.30388996
  entropy T*S    EENTRO =        -0.00000000
  eigenvalues    EBANDS =    -14095.97677719
  atomic energy  EATOM  =     64207.43592568
  Solvation  Ediel_sol  =         0.00000000
  ---------------------------------------------------
  free energy    TOTEN  =      -600.06750459 eV

  energy without entropy =     -600.06750459  energy(sigma->0) =     -600.06750459


--------------------------------------------------------------------------------------------------------




--------------------------------------- Iteration      1(   8)  ---------------------------------------


    POTLOK:  cpu time    0.3965: real time    0.4051
    SETDIJ:  cpu time    0.4208: real time    0.4208
     EDDAV:  cpu time   57.2299: real time   57.2307
       DOS:  cpu time    0.0006: real time    0.0006
    CHARGE:  cpu time    3.6729: real time    3.6730
    MIXING:  cpu time    0.0160: real time    0.0160
    --------------------------------------------
      LOOP:  cpu time   61.7367: real time   61.7461

 eigenvalue-minimisations  :  5480
 total energy-change (2. order) : 0.1606280E+01  (-0.1039263E+01)
 number of electron     640.0000008 magnetization 
 augmentation part      141.1094625 magnetization 

 Broyden mixing:
  rms(total) = 0.44849E+00    rms(broyden)= 0.44839E+00
  rms(prec ) = 0.48366E+00
  weight for this iteration     100.00

 eigenvalues of (default mixing * dielectric matrix)
  average eigenvalue GAMMA=   1.4288
  2.4792  0.9035  0.9035

 Free energy of the ion-electron system (eV)
  ---------------------------------------------------
  alpha Z        PSCENC =       871.83850952
  Ewald energy   TEWEN  =    287626.72104529
  -Hartree energ DENC   =   -342562.23647758
  -exchange      EXHF   =         0.00000000
  -V(xc)+E(xc)   XCENC  =      3049.41848645
  PAW double counting   =     66518.48278319   -66509.70674533
  entropy T*S    EENTRO =        -0.00000000
  eigenvalues    EBANDS =    -13800.41475210
  atomic energy  EATOM  =     64207.43592568
  Solvation  Ediel_sol  =         0.00000000
  ---------------------------------------------------
  free energy    TOTEN  =      -598.46122488 eV

  energy without entropy =     -598.46122488  energy(sigma->0) =     -598.46122488


--------------------------------------------------------------------------------------------------------




--------------------------------------- Iteration      1(   9)  ---------------------------------------


    POTLOK:  cpu time    0.3608: real time    0.3715
    SETDIJ:  cpu time    0.4214: real time    0.4214
     EDDAV:  cpu time   57.5065: real time   57.5129
       DOS:  cpu time    0.0007: real time    0.0007
    CHARGE:  cpu time    3.6977: real time    3.6977
    MIXING:  cpu time    0.0177: real time    0.0177
    --------------------------------------------
      LOOP:  cpu time   62.0048: real time   62.0220

 eigenvalue-minimisations  :  5512
 total energy-change (2. order) : 0.5268346E+00  (-0.2809298E+00)
 number of electron     640.0000008 magnetization 
 augmentation part      141.5188878 magnetization 

 Broyden mixing:
  rms(total) = 0.21701E+00    rms(broyden)= 0.21700E+00
  rms(prec ) = 0.23529E+00
  weight for this iteration     100.00

 eigenvalues of (default mixing * dielectric matrix)
  average eigenvalue GAMMA=   1.2520
  2.1334  1.1014  0.8865  0.8865

 Free energy of the ion-electron system (eV)
  ---------------------------------------------------
  alpha Z        PSCENC =       871.83850952
  Ewald energy   TEWEN  =    287626.72104529
  -Hartree energ DENC   =   -342669.27413824
  -exchange      EXHF   =         0.00000000
  -V(xc)+E(xc)   XCENC  =      3051.38927783
  PAW double counting   =     66897.20295807   -66891.45338159
  entropy T*S    EENTRO =        -0.00000000
  eigenvalues    EBANDS =    -13691.79458682
  atomic energy  EATOM  =     64207.43592568
  Solvation  Ediel_sol  =         0.00000000
  ---------------------------------------------------
  free energy    TOTEN  =      -597.93439026 eV

  energy without entropy =     -597.93439026  energy(sigma->0) =     -597.93439026


--------------------------------------------------------------------------------------------------------




--------------------------------------- Iteration      1(  10)  ---------------------------------------


    POTLOK:  cpu time    0.4060: real time    0.4190
    SETDIJ:  cpu time    0.4199: real time    0.4199
     EDDAV:  cpu time   60.9590: real time   60.9713
       DOS:  cpu time    0.0007: real time    0.0007
    CHARGE:  cpu time    3.6875: real time    3.6874
    MIXING:  cpu time    0.0166: real time    0.0166
    --------------------------------------------
      LOOP:  cpu time   65.4897: real time   65.5150

 eigenvalue-minimisations  :  5920
 total energy-change (2. order) : 0.3578147E-01  (-0.2584628E-01)
 number of electron     640.0000008 magnetization 
 augmentation part      141.3571982 magnetization 

 Broyden mixing:
  rms(total) = 0.11458E+00    rms(broyden)= 0.11458E+00
  rms(prec ) = 0.13994E+00
  weight for this iteration     100.00

 eigenvalues of (default mixing * dielectric matrix)
  average eigenvalue GAMMA=   1.4672
  2.4240  2.4240  0.9104  0.9104  0.6671

 Free energy of the ion-electron system (eV)
  ---------------------------------------------------
  alpha Z        PSCENC =       871.83850952
  Ewald energy   TEWEN  =    287626.72104529
  -Hartree energ DENC   =   -342730.38448783
  -exchange      EXHF   =         0.00000000
  -V(xc)+E(xc)   XCENC  =      3052.69398101
  PAW double counting   =     66294.60051645   -66287.65036390
  entropy T*S    EENTRO =        -0.00000000
  eigenvalues    EBANDS =    -13633.15373501
  atomic energy  EATOM  =     64207.43592568
  Solvation  Ediel_sol  =         0.00000000
  ---------------------------------------------------
  free energy    TOTEN  =      -597.89860879 eV

  energy without entropy =     -597.89860879  energy(sigma->0) =     -597.89860879


--------------------------------------------------------------------------------------------------------




--------------------------------------- Iteration      1(  11)  ---------------------------------------


    POTLOK:  cpu time    0.3780: real time    0.3870
    SETDIJ:  cpu time    0.4211: real time    0.4210
     EDDAV:  cpu time   57.7309: real time   57.7319
       DOS:  cpu time    0.0006: real time    0.0006
    CHARGE:  cpu time    3.6237: real time    3.6237
    MIXING:  cpu time    0.0177: real time    0.0177
    --------------------------------------------
      LOOP:  cpu time   62.1720: real time   62.1820

 eigenvalue-minimisations  :  5528
 total energy-change (2. order) : 0.1337621E+00  (-0.1797065E-01)
 number of electron     640.0000008 magnetization 
 augmentation part      141.2314322 magnetization 

 Broyden mixing:
  rms(total) = 0.84097E-01    rms(broyden)= 0.84094E-01
  rms(prec ) = 0.97397E-01
  weight for this iteration     100.00

 eigenvalues of (default mixing * dielectric matrix)
  average eigenvalue GAMMA=   1.3867
  2.6166  2.1390  1.0141  0.9255  0.9255  0.6994

 Free energy of the ion-electron system (eV)
  ---------------------------------------------------
  alpha Z        PSCENC =       871.83850952
  Ewald energy   TEWEN  =    287626.72104529
  -Hartree energ DENC   =   -342911.67547728
  -exchange      EXHF   =         0.00000000
  -V(xc)+E(xc)   XCENC  =      3054.47460860
  PAW double counting   =     66181.82832202   -66174.81297355
  entropy T*S    EENTRO =        -0.00000000
  eigenvalues    EBANDS =    -13453.57480702
  atomic energy  EATOM  =     64207.43592568
  Solvation  Ediel_sol  =         0.00000000
  ---------------------------------------------------
  free energy    TOTEN  =      -597.76484673 eV

  energy without entropy =     -597.76484673  energy(sigma->0) =     -597.76484673


--------------------------------------------------------------------------------------------------------




--------------------------------------- Iteration      1(  12)  ---------------------------------------


    POTLOK:  cpu time    0.3970: real time    0.4060
    SETDIJ:  cpu time    0.4183: real time    0.4220
     EDDAV:  cpu time   62.5414: real time   62.5418
       DOS:  cpu time    0.0006: real time    0.0006
    CHARGE:  cpu time    3.6683: real time    3.6683
    MIXING:  cpu time    0.0193: real time    0.0193
    --------------------------------------------
      LOOP:  cpu time   67.0450: real time   67.0581

 eigenvalue-minimisations  :  6104
 total energy-change (2. order) : 0.2472092E-01  (-0.5296278E-02)
 number of electron     640.0000008 magnetization 
 augmentation part      141.3209947 magnetization 

 Broyden mixing:
  rms(total) = 0.34173E-01    rms(broyden)= 0.34172E-01
  rms(prec ) = 0.51244E-01
  weight for this iteration     100.00

 eigenvalues of (default mixing * dielectric matrix)
  average eigenvalue GAMMA=   1.4215
  2.5597  2.5597  1.1745  1.1745  0.9070  0.9070  0.6682

 Free energy of the ion-electron system (eV)
  ---------------------------------------------------
  alpha Z        PSCENC =       871.83850952
  Ewald energy   TEWEN  =    287626.72104529
  -Hartree energ DENC   =   -342959.71226053
  -exchange      EXHF   =         0.00000000
  -V(xc)+E(xc)   XCENC  =      3054.42663910
  PAW double counting   =     66388.85508394   -66382.35617957
  entropy T*S    EENTRO =        -0.00000000
  eigenvalues    EBANDS =    -13404.94888925
  atomic energy  EATOM  =     64207.43592568
  Solvation  Ediel_sol  =         0.00000000
  ---------------------------------------------------
  free energy    TOTEN  =      -597.74012581 eV

  energy without entropy =     -597.74012581  energy(sigma->0) =     -597.74012581


--------------------------------------------------------------------------------------------------------




--------------------------------------- Iteration      1(  13)  ---------------------------------------


    POTLOK:  cpu time    0.3982: real time    0.4083
    SETDIJ:  cpu time    0.4200: real time    0.4200
     EDDAV:  cpu time   58.5095: real time   58.5112
       DOS:  cpu time    0.0006: real time    0.0006
    CHARGE:  cpu time    3.6685: real time    3.6684
    MIXING:  cpu time    0.0197: real time    0.0197
    --------------------------------------------
      LOOP:  cpu time   63.0165: real time   63.0283

 eigenvalue-minimisations  :  5632
 total energy-change (2. order) : 0.7898597E-02  (-0.4321732E-02)
 number of electron     640.0000008 magnetization 
 augmentation part      141.2566245 magnetization 

 Broyden mixing:
  rms(total) = 0.33917E-01    rms(broyden)= 0.33915E-01
  rms(prec ) = 0.44226E-01
  weight for this iteration     100.00

 eigenvalues of (default mixing * dielectric matrix)
  average eigenvalue GAMMA=   1.3947
  2.6948  2.6948  1.2847  1.2847  0.9141  0.9141  0.6953  0.6755

 Free energy of the ion-electron system (eV)
  ---------------------------------------------------
  alpha Z        PSCENC =       871.83850952
  Ewald energy   TEWEN  =    287626.72104529
  -Hartree energ DENC   =   -343029.40521255
  -exchange      EXHF   =         0.00000000
  -V(xc)+E(xc)   XCENC  =      3054.63550569
  PAW double counting   =     66299.58715810   -66292.64681690
  entropy T*S    EENTRO =        -0.00000000
  eigenvalues    EBANDS =    -13335.89834204
  atomic energy  EATOM  =     64207.43592568
  Solvation  Ediel_sol  =         0.00000000
  ---------------------------------------------------
  free energy    TOTEN  =      -597.73222721 eV

  energy without entropy =     -597.73222721  energy(sigma->0) =     -597.73222721


--------------------------------------------------------------------------------------------------------




--------------------------------------- Iteration      1(  14)  ---------------------------------------


    POTLOK:  cpu time    0.3965: real time    0.4062
    SETDIJ:  cpu time    0.4189: real time    0.4211
     EDDAV:  cpu time   59.8098: real time   59.8145
       DOS:  cpu time    0.0007: real time    0.0007
    CHARGE:  cpu time    3.6502: real time    3.6527
    MIXING:  cpu time    0.0203: real time    0.0203
    --------------------------------------------
      LOOP:  cpu time   64.2965: real time   64.3154

 eigenvalue-minimisations  :  5784
 total energy-change (2. order) : 0.3520609E-02  (-0.1283278E-02)
 number of electron     640.0000008 magnetization 
 augmentation part      141.2894712 magnetization 

 Broyden mixing:
  rms(total) = 0.15758E-01    rms(broyden)= 0.15757E-01
  rms(prec ) = 0.24989E-01
  weight for this iteration     100.00

 eigenvalues of (default mixing * dielectric matrix)
  average eigenvalue GAMMA=   1.4886
  2.9841  2.9841  1.5667  1.5667  0.9820  0.9820  0.8321  0.8321  0.6674

 Free energy of the ion-electron system (eV)
  ---------------------------------------------------
  alpha Z        PSCENC =       871.83850952
  Ewald energy   TEWEN  =    287626.72104529
  -Hartree energ DENC   =   -343077.73753433
  -exchange      EXHF   =         0.00000000
  -V(xc)+E(xc)   XCENC  =      3054.74621078
  PAW double counting   =     66330.54392961   -66323.76784550
  entropy T*S    EENTRO =        -0.00000000
  eigenvalues    EBANDS =    -13287.50894765
  atomic energy  EATOM  =     64207.43592568
  Solvation  Ediel_sol  =         0.00000000
  ---------------------------------------------------
  free energy    TOTEN  =      -597.72870660 eV

  energy without entropy =     -597.72870660  energy(sigma->0) =     -597.72870660


--------------------------------------------------------------------------------------------------------




--------------------------------------- Iteration      1(  15)  ---------------------------------------


    POTLOK:  cpu time    0.4035: real time    0.4149
    SETDIJ:  cpu time    0.4192: real time    0.4192
     EDDAV:  cpu time   60.4946: real time   60.5013
       DOS:  cpu time    0.0006: real time    0.0006
    CHARGE:  cpu time    3.6604: real time    3.6604
    MIXING:  cpu time    0.0280: real time    0.0280
    --------------------------------------------
      LOOP:  cpu time   65.0064: real time   65.0245

 eigenvalue-minimisations  :  5864
 total energy-change (2. order) :-0.5796056E-02  (-0.9753681E-03)
 number of electron     640.0000008 magnetization 
 augmentation part      141.2916722 magnetization 

 Broyden mixing:
  rms(total) = 0.11769E-01    rms(broyden)= 0.11765E-01
  rms(prec ) = 0.16239E-01
  weight for this iteration     100.00

 eigenvalues of (default mixing * dielectric matrix)
  average eigenvalue GAMMA=   1.5290
  4.2354  2.6484  2.0509  1.0704  1.0704  0.8772  0.8772  0.9671  0.8337  0.6591

 Free energy of the ion-electron system (eV)
  ---------------------------------------------------
  alpha Z        PSCENC =       871.83850952
  Ewald energy   TEWEN  =    287626.72104529
  -Hartree energ DENC   =   -343133.18453588
  -exchange      EXHF   =         0.00000000
  -V(xc)+E(xc)   XCENC  =      3054.87772927
  PAW double counting   =     66297.53414436   -66290.74384883
  entropy T*S    EENTRO =        -0.00000000
  eigenvalues    EBANDS =    -13232.21347208
  atomic energy  EATOM  =     64207.43592568
  Solvation  Ediel_sol  =         0.00000000
  ---------------------------------------------------
  free energy    TOTEN  =      -597.73450266 eV

  energy without entropy =     -597.73450266  energy(sigma->0) =     -597.73450266


--------------------------------------------------------------------------------------------------------




--------------------------------------- Iteration      1(  16)  ---------------------------------------


    POTLOK:  cpu time    0.3623: real time    0.3712
    SETDIJ:  cpu time    0.4201: real time    0.4200
     EDDAV:  cpu time   56.1980: real time   56.2011
       DOS:  cpu time    0.0006: real time    0.0006
    CHARGE:  cpu time    3.6665: real time    3.6665
    MIXING:  cpu time    0.0236: real time    0.0236
    --------------------------------------------
      LOOP:  cpu time   60.6711: real time   60.6830

 eigenvalue-minimisations  :  5344
 total energy-change (2. order) :-0.3707686E-02  (-0.2024328E-03)
 number of electron     640.0000008 magnetization 
 augmentation part      141.2996381 magnetization 

 Broyden mixing:
  rms(total) = 0.86213E-02    rms(broyden)= 0.86210E-02
  rms(prec ) = 0.11313E-01
  weight for this iteration     100.00

 eigenvalues of (default mixing * dielectric matrix)
  average eigenvalue GAMMA=   1.5341
  4.3648  2.7421  2.1450  1.1747  1.1747  1.0393  1.0393  0.8937  0.8937  0.6606
  0.7478

 Free energy of the ion-electron system (eV)
  ---------------------------------------------------
  alpha Z        PSCENC =       871.83850952
  Ewald energy   TEWEN  =    287626.72104529
  -Hartree energ DENC   =   -343162.68543713
  -exchange      EXHF   =         0.00000000
  -V(xc)+E(xc)   XCENC  =      3054.91167525
  PAW double counting   =     66319.58392322   -66312.88487262
  entropy T*S    EENTRO =        -0.00000000
  eigenvalues    EBANDS =    -13202.65897955
  atomic energy  EATOM  =     64207.43592568
  Solvation  Ediel_sol  =         0.00000000
  ---------------------------------------------------
  free energy    TOTEN  =      -597.73821035 eV

  energy without entropy =     -597.73821035  energy(sigma->0) =     -597.73821035


--------------------------------------------------------------------------------------------------------




--------------------------------------- Iteration      1(  17)  ---------------------------------------


    POTLOK:  cpu time    0.4175: real time    0.4273
    SETDIJ:  cpu time    0.4187: real time    0.4187
     EDDAV:  cpu time   60.5356: real time   60.5363
       DOS:  cpu time    0.0007: real time    0.0007
    CHARGE:  cpu time    3.6613: real time    3.6613
    MIXING:  cpu time    0.0247: real time    0.0247
    --------------------------------------------
      LOOP:  cpu time   65.0586: real time   65.0690

 eigenvalue-minimisations  :  5864
 total energy-change (2. order) :-0.5027837E-02  (-0.2186239E-03)
 number of electron     640.0000008 magnetization 
 augmentation part      141.3012792 magnetization 

 Broyden mixing:
  rms(total) = 0.83806E-02    rms(broyden)= 0.83787E-02
  rms(prec ) = 0.99551E-02
  weight for this iteration     100.00

 eigenvalues of (default mixing * dielectric matrix)
  average eigenvalue GAMMA=   1.6463
  5.5838  2.9437  2.1077  2.1077  1.0069  1.0069  1.0035  1.0035  0.8430  0.8430
  0.6823  0.6231

 Free energy of the ion-electron system (eV)
  ---------------------------------------------------
  alpha Z        PSCENC =       871.83850952
  Ewald energy   TEWEN  =    287626.72104529
  -Hartree energ DENC   =   -343178.23864043
  -exchange      EXHF   =         0.00000000
  -V(xc)+E(xc)   XCENC  =      3054.94435982
  PAW double counting   =     66319.01144506   -66312.34977675
  entropy T*S    EENTRO =        -0.00000000
  eigenvalues    EBANDS =    -13187.10610637
  atomic energy  EATOM  =     64207.43592568
  Solvation  Ediel_sol  =         0.00000000
  ---------------------------------------------------
  free energy    TOTEN  =      -597.74323818 eV

  energy without entropy =     -597.74323818  energy(sigma->0) =     -597.74323818


--------------------------------------------------------------------------------------------------------




--------------------------------------- Iteration      1(  18)  ---------------------------------------


    POTLOK:  cpu time    0.3829: real time    0.3944
    SETDIJ:  cpu time    0.4193: real time    0.4192
     EDDAV:  cpu time   57.5143: real time   57.5148
       DOS:  cpu time    0.0005: real time    0.0005
    CHARGE:  cpu time    3.6650: real time    3.6650
    MIXING:  cpu time    0.0236: real time    0.0235
    --------------------------------------------
      LOOP:  cpu time   62.0056: real time   62.0175

 eigenvalue-minimisations  :  5504
 total energy-change (2. order) :-0.3555273E-02  (-0.9727239E-04)
 number of electron     640.0000008 magnetization 
 augmentation part      141.2891339 magnetization 

 Broyden mixing:
  rms(total) = 0.52728E-02    rms(broyden)= 0.52725E-02
  rms(prec ) = 0.61598E-02
  weight for this iteration     100.00

 eigenvalues of (default mixing * dielectric matrix)
  average eigenvalue GAMMA=   1.6480
  6.2447  2.7024  2.7024  1.6381  1.2697  0.9538  0.9538  0.9742  0.9742  0.8277
  0.8277  0.6956  0.6595

 Free energy of the ion-electron system (eV)
  ---------------------------------------------------
  alpha Z        PSCENC =       871.83850952
  Ewald energy   TEWEN  =    287626.72104529
  -Hartree energ DENC   =   -343194.58619380
  -exchange      EXHF   =         0.00000000
  -V(xc)+E(xc)   XCENC  =      3054.99067552
  PAW double counting   =     66308.65842902   -66301.98117278
  entropy T*S    EENTRO =        -0.00000000
  eigenvalues    EBANDS =    -13170.82401190
  atomic energy  EATOM  =     64207.43592568
  Solvation  Ediel_sol  =         0.00000000
  ---------------------------------------------------
  free energy    TOTEN  =      -597.74679346 eV

  energy without entropy =     -597.74679346  energy(sigma->0) =     -597.74679346


--------------------------------------------------------------------------------------------------------




--------------------------------------- Iteration      1(  19)  ---------------------------------------


    POTLOK:  cpu time    0.3912: real time    0.4111
    SETDIJ:  cpu time    0.4184: real time    0.4205
     EDDAV:  cpu time   59.3213: real time   59.3225
       DOS:  cpu time    0.0006: real time    0.0006
    CHARGE:  cpu time    3.6662: real time    3.6662
    MIXING:  cpu time    0.0226: real time    0.0226
    --------------------------------------------
      LOOP:  cpu time   63.8203: real time   63.8433

 eigenvalue-minimisations  :  5720
 total energy-change (2. order) :-0.1647645E-02  (-0.3613245E-04)
 number of electron     640.0000008 magnetization 
 augmentation part      141.2930915 magnetization 

 Broyden mixing:
  rms(total) = 0.23466E-02    rms(broyden)= 0.23450E-02
  rms(prec ) = 0.33259E-02
  weight for this iteration     100.00

 eigenvalues of (default mixing * dielectric matrix)
  average eigenvalue GAMMA=   1.6893
  6.7406  3.2169  2.2573  2.2573  1.0023  1.0023  1.1732  1.1732  0.9301  0.9301
  0.8160  0.8160  0.6845  0.6513

 Free energy of the ion-electron system (eV)
  ---------------------------------------------------
  alpha Z        PSCENC =       871.83850952
  Ewald energy   TEWEN  =    287626.72104529
  -Hartree energ DENC   =   -343198.85429583
  -exchange      EXHF   =         0.00000000
  -V(xc)+E(xc)   XCENC  =      3054.98665091
  PAW double counting   =     66315.57646843   -66308.92319656
  entropy T*S    EENTRO =        -0.00000000
  eigenvalues    EBANDS =    -13166.52954853
  atomic energy  EATOM  =     64207.43592568
  Solvation  Ediel_sol  =         0.00000000
  ---------------------------------------------------
  free energy    TOTEN  =      -597.74844110 eV

  energy without entropy =     -597.74844110  energy(sigma->0) =     -597.74844110


--------------------------------------------------------------------------------------------------------




--------------------------------------- Iteration      1(  20)  ---------------------------------------


    POTLOK:  cpu time    0.4080: real time    0.4209
    SETDIJ:  cpu time    0.4380: real time    0.4380
     EDDAV:  cpu time   58.6094: real time   58.6095
       DOS:  cpu time    0.0007: real time    0.0007
    CHARGE:  cpu time    3.6613: real time    3.6613
    MIXING:  cpu time    0.0253: real time    0.0253
    --------------------------------------------
      LOOP:  cpu time   63.1427: real time   63.1558

 eigenvalue-minimisations  :  5640
 total energy-change (2. order) :-0.3384501E-02  (-0.2444511E-04)
 number of electron     640.0000008 magnetization 
 augmentation part      141.2914688 magnetization 

 Broyden mixing:
  rms(total) = 0.27003E-02    rms(broyden)= 0.26997E-02
  rms(prec ) = 0.30844E-02
  weight for this iteration     100.00

 eigenvalues of (default mixing * dielectric matrix)
  average eigenvalue GAMMA=   1.7149
  7.0728  3.5246  2.4128  2.4128  1.3576  1.3030  0.9667  0.9667  0.9817  0.9817
  0.8393  0.8393  0.7378  0.6633  0.6633

 Free energy of the ion-electron system (eV)
  ---------------------------------------------------
  alpha Z        PSCENC =       871.83850952
  Ewald energy   TEWEN  =    287626.72104529
  -Hartree energ DENC   =   -343202.66994750
  -exchange      EXHF   =         0.00000000
  -V(xc)+E(xc)   XCENC  =      3054.98255760
  PAW double counting   =     66307.38777611   -66300.70075147
  entropy T*S    EENTRO =        -0.00000000
  eigenvalues    EBANDS =    -13162.74694083
  atomic energy  EATOM  =     64207.43592568
  Solvation  Ediel_sol  =         0.00000000
  ---------------------------------------------------
  free energy    TOTEN  =      -597.75182560 eV

  energy without entropy =     -597.75182560  energy(sigma->0) =     -597.75182560


--------------------------------------------------------------------------------------------------------




--------------------------------------- Iteration      1(  21)  ---------------------------------------


    POTLOK:  cpu time    0.4131: real time    0.4229
    SETDIJ:  cpu time    0.4547: real time    0.4547
     EDDAV:  cpu time   55.0037: real time   55.0054
       DOS:  cpu time    0.0006: real time    0.0006
    CHARGE:  cpu time    3.6605: real time    3.6604
    MIXING:  cpu time    0.0281: real time    0.0281
    --------------------------------------------
      LOOP:  cpu time   59.5608: real time   59.5722

 eigenvalue-minimisations  :  5200
 total energy-change (2. order) :-0.2006953E-02  (-0.1036876E-04)
 number of electron     640.0000008 magnetization 
[...]
    -6.564311700 11.369721380  0.000000000     0.000000000  0.087952903  0.000000000
     0.000000000  0.000000000 26.828094240     0.000000000  0.000000000  0.037274358

  length of vectors
    13.128623400 13.128623399 26.828094240     0.087952903  0.087952903  0.037274358


 FORCES acting on ions
    electron-ion (+dipol)            ewald-force                    non-local-force                 convergence-correction
 -----------------------------------------------------------------------------------------------
   -.119E+02 -.167E+02 0.130E+04   0.119E+02 0.175E+02 -.129E+04   0.475E+00 0.269E+00 -.672E+01   -.252E-05 -.540E-05 0.316E-04
   -.156E+02 0.507E+02 0.132E+04   0.166E+02 -.499E+02 -.131E+04   -.671E+00 -.619E+00 -.640E+01   -.108E-04 0.197E-05 0.202E-04
   0.118E+02 -.290E+02 0.130E+04   -.123E+02 0.300E+02 -.130E+04   0.207E+00 -.402E+00 -.584E+01   0.403E-05 -.117E-04 0.206E-04
   0.338E+02 0.141E+02 0.132E+04   -.343E+02 -.149E+02 -.131E+04   0.549E-01 0.466E+00 -.614E+01   -.992E-05 0.808E-06 0.361E-04
   0.229E+02 -.363E+01 0.119E+04   -.236E+02 0.353E+01 -.118E+04   0.351E+00 0.428E+00 -.485E+01   0.243E-04 0.169E-04 0.380E-04
   0.330E+02 -.330E+02 0.120E+04   -.344E+02 0.333E+02 -.119E+04   0.845E+00 0.941E+00 -.565E+01   -.295E-05 -.176E-04 0.655E-05
   0.291E+02 -.142E+02 0.132E+04   -.290E+02 0.131E+02 -.131E+04   -.246E+00 0.613E+00 -.613E+01   0.188E-04 0.186E-04 0.262E-04
   0.367E+01 0.346E+02 0.126E+04   -.307E+01 -.355E+02 -.126E+04   -.307E+00 0.196E+00 -.597E+01   0.337E-05 0.692E-05 0.212E-04
   0.562E+01 0.301E+02 0.123E+04   -.570E+01 -.305E+02 -.122E+04   -.290E+00 0.115E+00 -.530E+01   -.399E-04 0.109E-04 0.279E-04
   -.104E+02 -.422E+02 0.113E+04   0.110E+02 0.417E+02 -.112E+04   0.120E+00 0.645E+00 -.486E+01   0.844E-05 -.456E-04 0.111E-04
   -.338E+02 0.948E+01 0.119E+04   0.336E+02 -.104E+02 -.119E+04   0.697E+00 0.267E-01 -.523E+01   -.188E-04 0.357E-04 0.410E-04
   0.244E+02 -.107E+02 0.132E+04   -.250E+02 0.116E+02 -.131E+04   0.656E-01 0.256E-01 -.621E+01   -.196E-04 -.450E-04 0.296E-04
   -.584E+02 -.110E+02 0.132E+04   0.581E+02 0.102E+02 -.131E+04   0.539E+00 0.503E+00 -.585E+01   0.227E-04 0.236E-04 0.508E-05
   0.709E+01 -.353E+02 0.121E+04   -.670E+01 0.357E+02 -.120E+04   -.386E+00 0.916E-01 -.482E+01   0.120E-04 0.246E-05 0.208E-04
   -.417E+02 -.223E+02 0.129E+04   0.417E+02 0.230E+02 -.129E+04   0.260E+00 -.581E+00 -.601E+01   -.111E-04 0.165E-04 0.319E-04
   -.303E+02 0.210E+02 0.134E+04   0.318E+02 -.208E+02 -.134E+04   -.880E+00 -.534E+00 -.537E+01   0.255E-04 -.146E-04 0.183E-04
   0.827E+01 0.361E+02 -.124E+04   -.827E+01 -.357E+02 0.123E+04   0.221E+00 -.828E+00 0.452E+01   0.168E-06 0.508E-05 -.236E-04
   0.335E+02 0.746E+02 -.126E+04   -.335E+02 -.750E+02 0.126E+04   -.169E+00 -.860E+00 0.632E+01   0.370E-05 -.466E-05 -.365E-04
   0.960E+01 -.238E+02 -.125E+04   -.106E+02 0.240E+02 0.125E+04   0.420E+00 0.248E+00 0.593E+01   -.744E-05 0.826E-06 -.286E-04
   0.774E+01 -.779E+01 -.125E+04   -.733E+01 0.752E+01 0.125E+04   -.191E+00 0.387E+00 0.596E+01   -.635E-05 -.306E-05 -.204E-04
   -.351E+02 -.656E+01 -.130E+04   0.355E+02 0.692E+01 0.129E+04   0.404E+00 0.117E+00 0.584E+01   -.155E-05 0.278E-04 -.256E-04
   -.318E+02 0.392E+02 -.145E+04   0.328E+02 -.392E+02 0.144E+04   0.417E-01 -.698E+00 0.628E+01   0.127E-04 -.382E-04 -.159E-04
   0.584E+01 -.220E+02 -.123E+04   -.474E+01 0.216E+02 0.122E+04   -.908E+00 0.264E+00 0.610E+01   -.124E-04 0.401E-04 -.323E-04
   0.291E+02 -.354E+01 -.127E+04   -.294E+02 0.417E+01 0.127E+04   -.532E-01 -.137E+00 0.545E+01   0.260E-04 -.987E-05 -.296E-04
   0.164E+02 0.794E+01 -.124E+04   -.174E+02 -.822E+01 0.123E+04   0.714E+00 -.122E+00 0.607E+01   -.293E-04 -.158E-04 -.405E-05
   -.264E+01 0.332E+02 -.130E+04   0.119E+01 -.340E+02 0.130E+04   0.687E+00 0.169E+00 0.562E+01   -.308E-04 -.121E-04 -.223E-04
   0.683E+02 -.195E+02 -.128E+04   -.696E+02 0.187E+02 0.128E+04   -.716E+00 0.569E+00 0.472E+01   0.826E-05 0.242E-04 -.121E-04
   -.151E+01 0.103E+01 -.128E+04   0.162E+01 -.197E+01 0.127E+04   -.261E+00 0.622E+00 0.518E+01   -.133E-04 -.326E-04 -.190E-04
   -.633E+02 -.211E+02 -.120E+04   0.635E+02 0.218E+02 0.120E+04   0.718E+00 -.117E+00 0.557E+01   0.314E-04 0.581E-05 -.204E-04
   -.165E+01 -.145E+02 -.127E+04   0.191E+01 0.151E+02 0.127E+04   -.311E+00 -.358E+00 0.607E+01   0.998E-05 0.157E-04 -.391E-04
   -.202E+02 -.391E+02 -.123E+04   0.214E+02 0.384E+02 0.122E+04   -.707E+00 0.826E+00 0.572E+01   0.111E-04 -.182E-06 -.282E-04
   -.273E+02 -.376E+02 -.120E+04   0.279E+02 0.382E+02 0.120E+04   0.104E-01 0.209E+00 0.680E+01   -.108E-04 -.359E-05 -.392E-04
   0.485E+02 -.284E+02 -.154E+04   -.524E+02 0.314E+02 0.156E+04   0.324E+01 -.255E+01 -.147E+02   0.838E-05 -.933E-05 -.269E-04
   0.129E+02 0.194E+02 -.163E+04   -.139E+02 -.193E+02 0.164E+04   0.995E+00 -.327E+00 -.176E+02   -.178E-05 0.819E-05 -.273E-04
   0.498E+01 0.382E+01 -.159E+04   -.423E+01 -.533E+01 0.161E+04   -.986E+00 0.137E+01 -.163E+02   0.322E-05 0.947E-05 -.292E-04
   0.899E+01 0.206E+02 -.158E+04   -.931E+01 -.215E+02 0.160E+04   0.224E+00 0.623E+00 -.163E+02   0.796E-05 0.145E-05 -.352E-04
   -.179E+02 0.892E+00 -.157E+04   0.188E+02 0.208E+00 0.159E+04   -.671E+00 -.123E+01 -.147E+02   0.119E-05 0.410E-05 -.173E-04
   0.185E+02 -.120E+02 -.163E+04   -.199E+02 0.143E+02 0.164E+04   0.121E+01 -.219E+01 -.166E+02   0.625E-05 -.658E-05 -.152E-04
   0.313E+01 0.352E+01 -.160E+04   -.317E+01 -.530E+01 0.162E+04   0.394E-01 0.165E+01 -.173E+02   -.936E-06 0.264E-05 -.221E-04
   0.306E+01 0.570E+01 -.159E+04   -.413E+01 -.669E+01 0.160E+04   0.115E+01 0.868E+00 -.160E+02   -.867E-05 -.255E-05 -.212E-04
   0.138E+02 0.136E+02 -.160E+04   -.151E+02 -.137E+02 0.162E+04   0.120E+01 -.762E-01 -.156E+02   -.677E-05 -.542E-05 -.218E-04
   0.302E+01 0.270E+02 -.163E+04   -.251E+01 -.281E+02 0.165E+04   -.444E+00 0.974E+00 -.156E+02   -.126E-05 -.818E-05 -.129E-04
   0.942E+01 0.104E+02 -.160E+04   -.885E+01 -.130E+02 0.162E+04   -.723E+00 0.264E+01 -.157E+02   0.116E-05 0.715E-05 -.226E-04
   0.146E+01 -.545E+01 -.152E+04   -.121E+01 0.649E+01 0.154E+04   -.964E-01 -.131E+01 -.137E+02   -.263E-05 0.142E-05 -.178E-04
   -.422E+01 -.570E+01 -.154E+04   0.300E+01 0.570E+01 0.156E+04   0.127E+01 -.913E-01 -.150E+02   -.243E-05 -.483E-05 -.254E-04
   -.278E+02 0.104E+02 -.162E+04   0.288E+02 -.107E+02 0.164E+04   -.869E+00 0.152E+00 -.174E+02   -.212E-05 0.363E-05 -.110E-04
   -.526E+02 -.442E+02 -.161E+04   0.559E+02 0.460E+02 0.163E+04   -.239E+01 -.128E+01 -.181E+02   -.785E-05 0.220E-05 -.207E-04
   -.329E+02 0.236E+01 -.160E+04   0.358E+02 -.335E+01 0.162E+04   -.276E+01 0.787E+00 -.179E+02   0.582E-05 -.555E-05 -.178E-04
   0.577E+02 0.102E+02 0.157E+04   -.599E+02 -.106E+02 -.158E+04   0.121E+01 -.106E+00 0.156E+02   -.416E-05 -.392E-05 0.166E-04
   0.240E+02 0.136E+02 0.160E+04   -.244E+02 -.137E+02 -.162E+04   -.193E+00 -.134E+00 0.159E+02   -.143E-05 0.251E-05 0.142E-04
   -.207E+02 -.178E+02 0.157E+04   0.216E+02 0.186E+02 -.159E+04   -.840E+00 0.100E-01 0.154E+02   -.734E-05 -.207E-05 0.997E-05
   -.175E+01 0.911E+01 0.162E+04   0.241E+01 -.998E+01 -.164E+04   -.576E+00 0.109E+01 0.164E+02   -.140E-05 -.436E-05 0.199E-04
   -.252E+01 0.275E+02 0.160E+04   0.288E+01 -.282E+02 -.162E+04   -.452E+00 0.518E+00 0.180E+02   0.134E-05 0.348E-05 -.229E-06
   0.366E+02 0.223E+01 0.163E+04   -.373E+02 -.286E+01 -.165E+04   0.160E+00 0.263E+00 0.199E+02   0.273E-05 -.115E-05 0.198E-07
   0.171E+02 0.370E+02 0.153E+04   -.171E+02 -.414E+02 -.154E+04   -.212E+00 0.413E+01 0.140E+02   -.250E-05 0.337E-05 0.770E-05
   0.676E+01 0.167E+02 0.162E+04   -.767E+01 -.163E+02 -.163E+04   0.116E+01 -.744E+00 0.171E+02   0.427E-05 -.219E-05 0.245E-04
   0.322E+01 0.284E+02 0.159E+04   -.459E+01 -.304E+02 -.161E+04   0.144E+01 0.168E+01 0.153E+02   0.168E-05 -.824E-06 0.166E-04
   -.148E+02 -.211E+02 0.157E+04   0.131E+02 0.226E+02 -.159E+04   0.236E+01 -.151E+01 0.165E+02   -.102E-04 -.121E-05 0.172E-05
   -.671E+01 -.145E+02 0.158E+04   0.622E+01 0.133E+02 -.159E+04   0.550E+00 0.152E+01 0.169E+02   0.442E-06 -.104E-06 -.206E-06
   -.853E+01 0.114E+02 0.160E+04   0.937E+01 -.128E+02 -.162E+04   -.718E+00 0.124E+01 0.170E+02   -.275E-05 -.505E-05 0.186E-04
   -.214E+02 -.324E+02 0.160E+04   0.212E+02 0.340E+02 -.161E+04   0.409E+00 -.125E+01 0.155E+02   0.600E-06 0.463E-05 0.889E-05
   -.419E+02 -.152E+01 0.158E+04   0.433E+02 0.275E+01 -.160E+04   -.735E+00 -.152E+01 0.163E+02   0.594E-05 0.439E-06 0.169E-04
   0.208E+02 -.279E+02 0.160E+04   -.217E+02 0.289E+02 -.162E+04   0.657E+00 -.871E+00 0.171E+02   0.962E-05 0.177E-05 0.172E-04
   -.246E+02 0.573E+01 0.163E+04   0.266E+02 -.585E+01 -.164E+04   -.202E+01 -.151E+00 0.156E+02   -.434E-06 0.377E-05 0.205E-04
   -.296E+01 0.184E+01 0.468E+02   0.309E+01 -.211E+01 -.471E+02   -.410E+00 0.878E+00 0.130E+01   0.430E-05 -.211E-05 0.376E-05
   -.104E+02 0.142E+02 0.129E+02   0.106E+02 -.141E+02 -.129E+02   -.655E+00 -.671E+00 0.438E-01   -.474E-06 0.116E-05 -.264E-05
   0.198E+01 -.214E+00 -.181E+02   -.183E+01 0.327E+00 0.183E+02   -.101E+01 -.473E+00 -.863E+00   0.366E-05 0.282E-05 -.116E-05
   0.338E+01 0.364E+01 0.401E+02   -.328E+01 -.348E+01 -.404E+02   -.840E+00 -.991E+00 0.107E+01   0.426E-05 0.547E-05 0.546E-05
   0.126E+02 -.305E+01 -.121E+02   -.126E+02 0.276E+01 0.123E+02   0.809E-01 0.127E+01 -.399E+00   -.272E-05 -.282E-05 0.491E-05
   0.159E+02 0.296E+02 -.185E+02   -.159E+02 -.297E+02 0.185E+02   -.433E+00 -.668E+00 -.103E-01   0.216E-05 -.241E-05 0.233E-05
   -.640E+01 -.162E+02 0.333E+02   0.633E+01 0.161E+02 -.337E+02   0.746E+00 0.783E+00 0.676E+00   -.332E-05 0.975E-06 0.357E-05
   -.114E+02 -.126E+02 0.105E+02   0.111E+02 0.125E+02 -.105E+02   0.170E+01 0.378E+00 -.246E+00   -.486E-05 -.126E-05 0.546E-05
   0.152E+02 0.802E+01 0.600E+01   -.149E+02 -.809E+01 -.607E+01   -.129E+01 -.360E-01 -.944E-02   0.198E-06 0.400E-06 0.493E-05
   0.629E+00 0.187E+02 -.592E+02   -.665E+00 -.185E+02 0.594E+02   0.188E+00 -.130E+01 -.199E+00   -.178E-05 -.344E-05 0.995E-06
   -.452E+01 -.278E+02 -.538E+02   0.452E+01 0.277E+02 0.540E+02   0.358E-01 0.114E+01 -.917E+00   -.782E-06 -.250E-05 0.248E-06
   0.194E+02 -.134E+02 -.229E+00   -.193E+02 0.133E+02 0.315E+00   -.865E+00 0.599E+00 0.199E+00   -.114E-05 0.216E-05 0.191E-05
   0.543E+01 0.128E+02 0.268E+02   -.546E+01 -.127E+02 -.269E+02   0.182E-01 -.849E+00 -.106E-01   -.742E-06 -.320E-07 0.341E-05
   -.101E+02 -.147E+02 -.105E+02   0.100E+02 0.145E+02 0.106E+02   0.390E+00 0.169E+01 -.166E+00   -.721E-06 -.222E-05 0.190E-05
   -.193E+02 -.964E+01 -.115E+01   0.192E+02 0.941E+01 0.101E+01   0.156E+01 0.872E+00 -.273E+00   -.879E-06 0.445E-06 0.367E-05
   0.805E+01 -.719E+01 0.169E+01   -.800E+01 0.717E+01 -.170E+01   -.445E+00 -.985E-01 -.372E+00   0.110E-05 0.209E-05 0.353E-05
 -----------------------------------------------------------------------------------------------
   -.209E+01 -.916E+01 -.469E+01   0.192E-12 0.158E-12 -.441E-11   0.209E+01 0.916E+01 0.469E+01   -.111E-04 -.104E-04 -.120E-03
 
 
 POSITION                                       TOTAL-FORCE (eV/Angst)
 -----------------------------------------------------------------------------------
      0.00555      1.78570     12.13990         0.472074      1.117514     -0.101947
     -1.63144      4.65956     12.11723         0.370991      0.181720      0.173959
     -3.25589      7.48736     12.10557        -0.263424      0.580010     -0.085325
     -4.82152     10.42383     12.10647        -0.462417     -0.348172     -0.583689
      3.39413      1.92810     12.17684        -0.376595      0.334114      0.633383
      1.71236      4.60463     12.24992        -0.598930      1.159602     -1.059968
     -0.01576      7.61128     12.09929        -0.111722     -0.538925      0.344812
     -1.64445     10.47739     12.13196         0.292268     -0.718545      0.055442
      6.56223      1.94399     12.15107        -0.366264     -0.303663      0.324362
      4.80703      4.74148     12.26624         0.748304      0.158106     -0.308193
      3.26357      7.62663     12.21271         0.491194     -0.879645     -0.344104
      1.65286     10.37168     12.08246        -0.539573      0.923624      0.572419
      9.79501      1.92253     12.08944         0.223945     -0.266426      0.407566
      8.13092      4.69836     12.17846         0.006894      0.472304     -0.116242
      6.52625      7.57082     12.15418         0.306090      0.116831     -0.836869
      4.90417     10.44121     12.04613         0.586632     -0.328434      0.393099
      1.61304      0.96093     14.71031         0.217790     -0.469754     -0.684045
     -0.00362      3.90029     14.67383        -0.189536     -1.315130     -0.004850
     -1.59294      6.60575     14.67454        -0.620884      0.391158      0.058418
     -3.30780      9.42546     14.66776         0.224936      0.110631      0.106649
      4.85187      0.91533     14.70892         0.834176      0.472221     -0.055296
      3.20031      3.87349     14.84819         1.044898     -0.669552     -0.469921
      1.64237      6.66677     14.64141         0.183543     -0.151426      0.695165
      0.00549      9.44914     14.72495        -0.371331      0.498651     -0.921607
      8.17266      0.98251     14.63366        -0.204882     -0.396275      0.036218
      6.59769      3.83009     14.70145        -0.756429     -0.710431      0.751010
      5.04690      6.63083     14.73129        -2.040379     -0.199144      0.300377
      3.32284      9.50386     14.71180        -0.150920     -0.317979     -0.398062
     11.40241      0.89478     14.63049         0.899979      0.556221     -0.362018
      9.88339      3.79304     14.67422        -0.056385      0.247222     -0.036011
      8.21889      6.61578     14.65004         0.478663      0.040015      0.356014
      6.55829      9.42534     14.60646         0.579004      0.786098      0.204688
      0.05416      1.76230     15.74145        -0.647860      0.387952      0.438838
     -1.62781      4.77303     15.90533         0.016296     -0.236427     -0.318182
     -3.25975      7.60536     15.84779        -0.234110     -0.141910     -0.121146
     -4.94316     10.45520     15.84644        -0.095146     -0.236414     -0.301478
      3.20687      1.86541     15.78139         0.229466     -0.126187      0.598345
      1.57162      4.77225     15.86719        -0.162309      0.181907      0.360348
      0.01721      7.62286     15.85439         0.005353     -0.129323     -0.107709
     -1.63795     10.42580     15.84283         0.085420     -0.121019     -0.034221
      6.59289      1.92272     15.86419        -0.049447     -0.158788     -0.205075
      4.94176      4.80600     15.92086         0.073241     -0.146474     -0.022640
      3.29979      7.67302     15.89202        -0.156714     -0.000200     -0.356360
      1.63132     10.46922     15.66007         0.148349     -0.280039      1.004440
      9.85695      1.90334     15.66821         0.051813     -0.091268      0.894667
      8.18009      4.79909     15.90890         0.190779     -0.133398     -0.468004
      6.46358      7.54489     15.84333         0.972609      0.537916      0.282219
      4.88322     10.49718     15.84883         0.153323     -0.200500     -0.256728
      1.95129      1.02543     11.04523        -1.052376     -0.424169     -0.481055
      0.19596      3.80653     10.95080        -0.531143     -0.301026      0.267667
     -1.63593      6.45220     11.04491         0.066148      0.773312     -0.565100
     -3.25457      9.38739     10.87104         0.085216      0.216708      0.526912
      4.96893      1.04302     10.98790        -0.093726     -0.260258      0.088942
      3.40356      3.87541     10.96054        -0.564935     -0.367980      0.457717
      1.69040      6.69650     11.14494        -0.181890     -0.262714     -0.571201
     -0.05439      9.55495     10.89402         0.241808     -0.369957      0.429208
      8.17296      1.04740     11.00585         0.067168     -0.297909     -0.357478
      6.37363      3.82330     11.08138         0.707040     -0.026071     -0.194848
      4.86422      6.59174     11.04334         0.066578      0.278065      0.235486
      3.25294      9.45880     10.99800         0.118757     -0.130283     -0.254554
     11.42582      0.92628     10.98884         0.214421      0.292438     -0.369998
      9.64778      3.84513     11.03135         0.666908     -0.284649     -0.340535
      8.25539      6.50591     10.94100        -0.280983      0.115056      0.493850
      6.53649      9.49130     10.84063        -0.041638     -0.262705      0.596429
      6.60252     11.28160     13.24006        -0.278702      0.610280      1.017708
     -1.59575      2.86832     13.37292        -0.460561     -0.582176      0.083054
     -3.24339      5.67350     13.48553        -0.862480     -0.360344     -0.589443
     -4.87502      8.55315     13.31828        -0.738619     -0.832712      0.723602
     -3.23984     11.28536     13.43646         0.105108      0.975696     -0.253756
      1.69231      2.87139     13.47147        -0.426311     -0.760053      0.011824
     -0.05722      5.63489     13.38355         0.683400      0.712964      0.355745
     -1.72798      8.47875     13.40145         1.365224      0.248197     -0.242525
      0.07202     11.34538     13.38700        -1.007791     -0.103137     -0.079171
      4.90872      2.93272     13.50485         0.151985     -1.136048      0.011186
      3.24442      5.61258     13.57793         0.042575      1.091608     -0.703697
      1.69336      8.50813     13.39202        -0.745398      0.495334      0.284343
      9.85733      0.05318     13.35505        -0.014790     -0.716088     -0.094520
      8.17226      2.76450     13.40999         0.275771      1.506115     -0.120908
      6.47620      5.65852     13.47304         1.388289      0.641827     -0.418643
      4.96786      8.54587     13.43680        -0.397822     -0.117691     -0.378989
 -----------------------------------------------------------------------------------
    total drift:                               -0.000459      0.000630     -0.003120


--------------------------------------------------------------------------------------------------------



  FREE ENERGIE OF THE ION-ELECTRON SYSTEM (eV)
  ---------------------------------------------------
  free  energy   TOTEN  =      -597.75608484 eV

  energy  without entropy=     -597.75608484  energy(sigma->0) =     -597.75608484
 


--------------------------------------------------------------------------------------------------------


    POTLOK:  cpu time    0.7848: real time    0.7848


--------------------------------------------------------------------------------------------------------


     LOOP+:  cpu time 1968.2587: real time 1968.7536
    4ORBIT:  cpu time    0.0000: real time    0.0000

 total amount of memory used by VASP MPI-rank0   234675. kBytes
=======================================================================

   base      :      30000. kBytes
   nonlr-proj:      19407. kBytes
   fftplans  :      66973. kBytes
   grid      :      38377. kBytes
   one-center:        108. kBytes
   wavefun   :      79810. kBytes
 
  
  
 General timing and accounting informations for this job:
 ========================================================
  
                  Total CPU time used (sec):     2000.008
                            User time (sec):     1990.407
                          System time (sec):        9.601
                         Elapsed time (sec):     2000.708
  
                   Maximum memory used (kb):      436880.
                   Average memory used (kb):           0.
  
                          Minor page faults:       250667
                          Major page faults:            0
                 Voluntary context switches:         2593
