 vasp.5.4.4.18Apr17-6-g9f103f2a35 (build Oct 31 2019 15:01:46) complex          
  
 executed on             LinuxIFC date 2024.04.30  22:07:25
 running on   52 total cores
 distrk:  each k-point on   52 cores,    1 groups
 distr:  one band on NCORES_PER_BAND=  13 cores,    4 groups


--------------------------------------------------------------------------------------------------------


 INCAR:
 POTCAR:    PAW_PBE Sc_sv 07Sep2000               
 POTCAR:    PAW_PBE Cl 06Sep2000                  
 POTCAR:    PAW_PBE C 08Apr2002                   
 POTCAR:    PAW_PBE Sc_sv 07Sep2000               
   VRHFIN =Sc: 3p4s3d                                                           
   LEXCH  = PE                                                                  
   EATOM  =  1273.2868 eV,   93.5839 Ry                                         
                                                                                
   TITEL  = PAW_PBE Sc_sv 07Sep2000                                             
   LULTRA =        F    use ultrasoft PP ?                                      
   IUNSCR =        1    unscreen: 0-lin 1-nonlin 2-no                           
   RPACOR =    2.200    partial core radius                                     
   POMASS =   44.956; ZVAL   =   11.000    mass and valenz                      
   RCORE  =    2.500    outmost cutoff radius                                   
   RWIGS  =    2.700; RWIGS  =    1.429    wigner-seitz radius (au A)           
   ENMAX  =  222.660; ENMIN  =  166.995 eV                                      
   RCLOC  =    1.805    cutoff for local pot                                    
   LCOR   =        T    correct aug charges                                     
   LPAW   =        T    paw PP                                                  
   EAUG   =  443.063                                                            
   RMAX   =    2.551    core radius for proj-oper                               
   RAUG   =    1.300    factor for augmentation sphere                          
   RDEP   =    2.650    radius for radial grids                                 
   RDEPT  =    2.038    core radius for aug-charge                              
                                                                                
   Atomic configuration                                                         
    8 entries                                                                   
     n  l   j            E        occ.                                          
     1  0  0.50     -4394.2533   2.0000                                         
     2  0  0.50      -471.0040   2.0000                                         
     2  1  1.50      -384.9788   6.0000                                         
     3  0  0.50       -52.1410   2.0000                                         
     4  0  0.50        -3.5584   1.0000                                         
     3  1  1.50       -30.8841   6.0000                                         
     3  2  2.50        -1.3655   2.0000                                         
     4  3  2.50        -1.3606   0.0000                                         
   Description                                                                  
     l       E           TYP  RCUT    TYP  RCUT                                 
     0    -52.1409870     23  1.800                                             
     0     -3.5583698     23  2.500                                             
     1    -30.8840697     23  2.300                                             
     1      4.0817478     23  2.300                                             
     2     -1.3655397     23  2.500                                             
     2      0.3564476     23  2.500                                             
  local pseudopotential read in
  partial core-charges read in
  partial kinetic energy density read in
  atomic valenz-charges read in
  non local Contribution for L=           0  read in
    real space projection operators read in
  non local Contribution for L=           0  read in
    real space projection operators read in
  non local Contribution for L=           1  read in
    real space projection operators read in
  non local Contribution for L=           1  read in
    real space projection operators read in
  non local Contribution for L=           2  read in
    real space projection operators read in
  non local Contribution for L=           2  read in
    real space projection operators read in
    PAW grid and wavefunctions read in
 
   number of l-projection  operators is LMAX  =           6
   number of lm-projection operators is LMMAX =          18
 
 POTCAR:    PAW_PBE Cl 06Sep2000                  
   VRHFIN =Cl: s2p5                                                             
   LEXCH  = PE                                                                  
   EATOM  =   409.7259 eV,   30.1140 Ry                                         
                                                                                
   TITEL  = PAW_PBE Cl 06Sep2000                                                
   LULTRA =        F    use ultrasoft PP ?                                      
   IUNSCR =        1    unscreen: 0-lin 1-nonlin 2-no                           
   RPACOR =    1.500    partial core radius                                     
   POMASS =   35.453; ZVAL   =    7.000    mass and valenz                      
   RCORE  =    1.900    outmost cutoff radius                                   
   RWIGS  =    2.100; RWIGS  =    1.111    wigner-seitz radius (au A)           
   ENMAX  =  262.472; ENMIN  =  196.854 eV                                      
   ICORE  =        2    local potential                                         
   LCOR   =        T    correct aug charges                                     
   LPAW   =        T    paw PP                                                  
   EAUG   =  356.192                                                            
   DEXC   =    0.000                                                            
   RMAX   =    1.945    core radius for proj-oper                               
   RAUG   =    1.300    factor for augmentation sphere                          
   RDEP   =    2.020    radius for radial grids                                 
   RDEPT  =    1.678    core radius for aug-charge                              
                                                                                
   Atomic configuration                                                         
    6 entries                                                                   
     n  l   j            E        occ.                                          
     1  0  0.50     -2751.1850   2.0000                                         
     2  0  0.50      -252.6861   2.0000                                         
     2  1  1.50      -191.6157   6.0000                                         
     3  0  0.50       -20.6916   2.0000                                         
     3  1  0.50        -8.5949   5.0000                                         
     3  2  1.50        -8.1635   0.0000                                         
   Description                                                                  
     l       E           TYP  RCUT    TYP  RCUT                                 
     0    -20.6915656     23  1.900                                             
     0    -22.0521482     23  1.900                                             
     1     -8.5948577     23  1.900                                             
     1     -5.3847331     23  1.900                                             
     2     -8.1634956     23  1.900                                             
  local pseudopotential read in
  partial core-charges read in
  partial kinetic energy density read in
  atomic valenz-charges read in
  non local Contribution for L=           0  read in
    real space projection operators read in
  non local Contribution for L=           0  read in
    real space projection operators read in
  non local Contribution for L=           1  read in
    real space projection operators read in
  non local Contribution for L=           1  read in
    real space projection operators read in
    PAW grid and wavefunctions read in
 
   number of l-projection  operators is LMAX  =           4
   number of lm-projection operators is LMMAX =           8
 
 POTCAR:    PAW_PBE C 08Apr2002                   
   VRHFIN =C: s2p2                                                              
   LEXCH  = PE                                                                  
   EATOM  =   147.1560 eV,   10.8157 Ry                                         
                                                                                
   TITEL  = PAW_PBE C 08Apr2002                                                 
   LULTRA =        F    use ultrasoft PP ?                                      
   IUNSCR =        1    unscreen: 0-lin 1-nonlin 2-no                           
   RPACOR =    1.200    partial core radius                                     
   POMASS =   12.011; ZVAL   =    4.000    mass and valenz                      
   RCORE  =    1.500    outmost cutoff radius                                   
   RWIGS  =    1.630; RWIGS  =    0.863    wigner-seitz radius (au A)           
   ENMAX  =  400.000; ENMIN  =  300.000 eV                                      
   ICORE  =        2    local potential                                         
   LCOR   =        T    correct aug charges                                     
   LPAW   =        T    paw PP                                                  
   EAUG   =  644.873                                                            
   DEXC   =    0.000                                                            
   RMAX   =    1.529    core radius for proj-oper                               
   RAUG   =    1.300    factor for augmentation sphere                          
   RDEP   =    1.501    radius for radial grids                                 
   RDEPT  =    1.300    core radius for aug-charge                              
                                                                                
   Atomic configuration                                                         
    4 entries                                                                   
     n  l   j            E        occ.                                          
     1  0  0.50      -273.3789   2.0000                                         
     2  0  0.50       -13.7508   2.0000                                         
     2  1  0.50        -5.2854   2.0000                                         
     3  2  1.50        -5.4423   0.0000                                         
   Description                                                                  
     l       E           TYP  RCUT    TYP  RCUT                                 
     0    -13.7508458     23  1.200                                             
     0     -8.2022199     23  1.200                                             
     1     -5.2854383     23  1.500                                             
     1     34.0145650     23  1.500                                             
     2     -5.4423304      7  1.500                                             
  local pseudopotential read in
  partial core-charges read in
  partial kinetic energy density read in
  atomic valenz-charges read in
  non local Contribution for L=           0  read in
    real space projection operators read in
  non local Contribution for L=           0  read in
    real space projection operators read in
  non local Contribution for L=           1  read in
    real space projection operators read in
  non local Contribution for L=           1  read in
    real space projection operators read in
    PAW grid and wavefunctions read in
 
   number of l-projection  operators is LMAX  =           4
   number of lm-projection operators is LMMAX =           8
 
 Optimization of the real space projectors (new method)

 maximal supplied QI-value         = 15.12
 optimisation between [QCUT,QGAM] = [ 12.55, 25.10] = [ 44.09,176.36] Ry 
 Optimized for a Real-space Cutoff    1.56 Angstroem

   l    n(q)    QCUT    max X(q) W(low)/X(q) W(high)/X(q)  e(spline) 
   0     12    12.548     2.962    0.12E-05    0.11E-06    0.46E-07
   0     12    12.548    26.414    0.30E-04    0.15E-05    0.76E-07
   1     11    12.548     3.969    0.45E-05    0.12E-05    0.60E-07
   1     11    12.548     5.137    0.15E-04    0.18E-04    0.36E-06
   2     11    12.548   143.970    0.20E-03    0.19E-03    0.76E-06
   2     11    12.548   121.201    0.20E-03    0.19E-03    0.76E-06
 Optimization of the real space projectors (new method)

 maximal supplied QI-value         = 19.84
 optimisation between [QCUT,QGAM] = [ 12.50, 25.00] = [ 43.76,175.03] Ry 
 Optimized for a Real-space Cutoff    1.20 Angstroem

   l    n(q)    QCUT    max X(q) W(low)/X(q) W(high)/X(q)  e(spline) 
   0      9    12.501   168.010    0.44E-04    0.61E-04    0.77E-07
   0      9    12.501   164.674    0.43E-04    0.60E-04    0.75E-07
   1      8    12.501    69.222    0.11E-03    0.13E-03    0.91E-07
   1      8    12.501    56.786    0.11E-03    0.13E-03    0.90E-07
 Optimization of the real space projectors (new method)

 maximal supplied QI-value         = 25.13
 optimisation between [QCUT,QGAM] = [ 12.32, 24.88] = [ 42.47,173.37] Ry 
 Optimized for a Real-space Cutoff    1.16 Angstroem

   l    n(q)    QCUT    max X(q) W(low)/X(q) W(high)/X(q)  e(spline) 
   0      9    12.315   115.676    0.19E-03    0.80E-05    0.34E-06
   0      9    12.315    87.132    0.19E-03    0.82E-05    0.34E-06
   1      8    12.315     4.429    0.18E-03    0.13E-03    0.22E-06
   1      8    12.315     2.733    0.14E-03    0.10E-03    0.18E-06
  PAW_PBE Sc_sv 07Sep2000               :
 energy of atom  1       EATOM=-1273.2868
 kinetic energy error for atom=    0.0014 (will be added to EATOM!!)
  PAW_PBE Cl 06Sep2000                  :
 energy of atom  2       EATOM= -409.7259
 kinetic energy error for atom=    0.0013 (will be added to EATOM!!)
  PAW_PBE C 08Apr2002                   :
 energy of atom  3       EATOM= -147.1560
 kinetic energy error for atom=    0.0057 (will be added to EATOM!!)
 
 
 POSCAR: Sc Cl  C                                
  positions in cartesian coordinates
  No initial velocities read in
 exchange correlation table for  LEXCH =        8
   RHO(1)=    0.500       N(1)  =     2000
   RHO(2)=  100.500       N(2)  =     4000
 


--------------------------------------------------------------------------------------------------------


 ion  position               nearest neighbor table
   1  0.087  0.174  0.543-  66 2.24  70 2.25  65 2.42  49 2.61  61 2.67  50 2.68  18 3.14  29 3.17
                            17 3.21   6 3.32   4 3.43
   2  0.086  0.423  0.549-  71 2.30  67 2.35  51 2.43  66 2.43  50 2.64  62 2.66  18 3.17  19 3.21
                            30 3.25   6 3.36
   3  0.085  0.671  0.545-  72 2.35  68 2.37  67 2.40  51 2.66  52 2.67  63 2.69  31 3.16  20 3.21
                            19 3.23   8 3.42
   4  0.076  0.920  0.544-  65 2.20  68 2.38  69 2.40  64 2.45  49 2.61  52 2.81  32 3.02  17 3.16
                            16 3.27  20 3.34   1 3.43
   5  0.333  0.164  0.543-  69 2.28  74 2.34  70 2.35  54 2.61  49 2.72  53 2.75  17 3.04  22 3.12
                            21 3.14  10 3.37
   6  0.326  0.416  0.547-  71 2.30  70 2.39  50 2.44  75 2.46  55 2.72  54 2.73  18 3.17  23 3.25
                            22 3.27   1 3.32   2 3.36
   7  0.337  0.672  0.545-  76 2.28  71 2.30  72 2.40  56 2.60  55 2.60  51 2.60  23 3.11  19 3.19
                            24 3.24  12 3.37   8 3.39
   8  0.336  0.916  0.542-  72 2.27  73 2.32  69 2.34  52 2.56  53 2.60  56 2.64  20 3.14  21 3.18
                            24 3.24   7 3.39  12 3.40   9 3.42   3 3.42
   9  0.587  0.161  0.542-  73 2.29  78 2.34  57 2.44  74 2.48  53 2.59  58 2.59  21 3.06  26 3.17
                            25 3.18  13 3.35  12 3.36  14 3.41   8 3.42
  10  0.580  0.406  0.548-  74 2.29  79 2.37  75 2.41  58 2.43  54 2.55  59 2.69  26 3.10  22 3.26
                            27 3.28   5 3.37  14 3.40
  11  0.582  0.661  0.544-  75 2.27  80 2.35  76 2.37  55 2.63  59 2.83  60 2.85  23 3.13  27 3.14
                            28 3.26  15 3.39
  12  0.582  0.915  0.545-  76 2.33  77 2.35  73 2.39  56 2.48  57 2.60  60 2.66  28 3.24  25 3.28
                             9 3.36   7 3.37  24 3.37   8 3.40
  13  0.831  0.163  0.541-  78 2.28  77 2.35  66 2.44  61 2.53  62 2.64  57 2.64  29 3.10  30 3.12
                            25 3.17   9 3.35
  14  0.829  0.412  0.544-  78 2.30  79 2.37  67 2.42  63 2.63  58 2.66  62 2.72  31 3.14  30 3.16
                            26 3.20  10 3.40   9 3.41
  15  0.829  0.663  0.543-  79 2.26  80 2.33  68 2.42  64 2.60  59 2.66  63 2.68  27 3.07  31 3.12
                            32 3.13  11 3.39
  16  0.838  0.917  0.547-  80 2.30  65 2.34  77 2.47  60 2.53  64 2.61  61 2.62  32 3.11  29 3.16
                             4 3.27  28 3.29
  17  0.177  0.087  0.456-  69 2.26  70 2.29  65 2.42  37 2.62  36 2.65  33 2.74   5 3.04   4 3.16
                             1 3.21  22 3.30  21 3.42
  18  0.163  0.343  0.457-  66 2.18  71 2.33  70 2.44  38 2.53  34 2.57  33 2.64   1 3.14   2 3.17
                             6 3.17  19 3.27  30 3.29
  19  0.169  0.582  0.456-  67 2.32  71 2.33  72 2.38  34 2.49  39 2.57  35 2.59   7 3.19   2 3.21
                             3 3.23  18 3.27  24 3.34  23 3.37
  20  0.173  0.834  0.453-  72 2.26  69 2.38  68 2.40  35 2.62  40 2.62  36 2.74   8 3.14   3 3.21
                            24 3.32   4 3.34
  21  0.427  0.092  0.455-  74 2.28  73 2.28  69 2.46  41 2.49  37 2.52  40 2.82   9 3.06   5 3.14
                             8 3.18  26 3.27  22 3.40  25 3.42  17 3.42
  22  0.411  0.330  0.456-  74 2.28  70 2.33  75 2.39  42 2.56  38 2.60  37 2.68   5 3.12  10 3.26
                             6 3.27  17 3.30  26 3.34  21 3.40
  23  0.417  0.589  0.457-  76 2.27  71 2.40  75 2.43  39 2.53  38 2.65  43 2.67   7 3.11  11 3.13
                             6 3.25  24 3.33  19 3.37  28 3.42
  24  0.409  0.826  0.449-  72 2.36  76 2.46  73 2.47  44 2.53  39 2.63  40 2.65   7 3.24   8 3.24
                            20 3.32  23 3.33  19 3.34  12 3.37
  25  0.669  0.081  0.451-  77 2.31  73 2.40  78 2.42  44 2.53  45 2.59  41 2.62  13 3.17   9 3.18
                            12 3.28  28 3.41  29 3.41  21 3.42
  26  0.657  0.336  0.456-  74 2.21  79 2.35  78 2.50  46 2.54  41 2.64  42 2.67  10 3.10   9 3.17
                            14 3.20  21 3.27  27 3.31  22 3.34
  27  0.669  0.581  0.457-  79 2.25  75 2.35  80 2.43  47 2.53  42 2.59  43 2.70  15 3.07  11 3.14
                            10 3.28  26 3.31  31 3.40
  28  0.668  0.834  0.453-  77 2.29  80 2.36  76 2.41  44 2.46  48 2.64  43 2.66  12 3.24  11 3.26
                            16 3.29  29 3.40  25 3.41  23 3.42
  29  0.915  0.079  0.457-  77 2.33  65 2.34  66 2.43  33 2.58  48 2.64  45 2.77  13 3.10  16 3.16
                             1 3.17  32 3.38  28 3.40  25 3.41
  30  0.920  0.334  0.456-  78 2.29  67 2.33  66 2.36  45 2.59  34 2.60  46 2.77  13 3.12  14 3.16
                             2 3.25  18 3.29
  31  0.916  0.582  0.458-  68 2.32  67 2.33  79 2.37  47 2.57  35 2.58  46 2.72  15 3.12  14 3.14
                             3 3.16  27 3.40
  32  0.920  0.836  0.459-  68 2.24  65 2.25  80 2.33  47 2.61  36 2.71  48 2.81   4 3.02  16 3.11
                            15 3.13  29 3.38
  33  0.079  0.172  0.397-  29 2.58  18 2.64  17 2.74
  34  0.086  0.427  0.396-  19 2.49  18 2.57  30 2.60
  35  0.079  0.659  0.397-  31 2.58  19 2.59  20 2.62
  36  0.083  0.924  0.392-  17 2.65  32 2.71  20 2.74
  37  0.340  0.159  0.394-  21 2.52  17 2.62  22 2.68
  38  0.324  0.415  0.398-  18 2.53  22 2.60  23 2.65
  39  0.327  0.648  0.393-  23 2.53  19 2.57  24 2.63
  40  0.331  0.917  0.388-  20 2.62  24 2.65  21 2.82
  41  0.579  0.167  0.395-  21 2.49  25 2.62  26 2.64
  42  0.571  0.422  0.395-  22 2.56  27 2.59  26 2.67
  43  0.581  0.662  0.392-  28 2.66  23 2.67  27 2.70
  44  0.584  0.910  0.398-  28 2.46  24 2.53  25 2.53
  45  0.837  0.177  0.392-  30 2.59  25 2.59  29 2.77
  46  0.814  0.409  0.395-  26 2.54  31 2.72  30 2.77
  47  0.833  0.667  0.400-  27 2.53  31 2.57  32 2.61
  48  0.832  0.920  0.390-  28 2.64  29 2.64  32 2.81
  49  0.160  0.085  0.606-   1 2.61   4 2.61   5 2.72
  50  0.177  0.341  0.608-   6 2.44   2 2.64   1 2.68
  51  0.170  0.580  0.604-   2 2.43   7 2.60   3 2.66
  52  0.184  0.843  0.606-   8 2.56   3 2.67   4 2.81
  53  0.427  0.078  0.604-   9 2.59   8 2.60   5 2.75
  54  0.416  0.324  0.607-  10 2.55   5 2.61   6 2.73
  55  0.420  0.594  0.608-   7 2.60  11 2.63   6 2.72
  56  0.426  0.840  0.604-  12 2.48   7 2.60   8 2.64
  57  0.661  0.087  0.602-   9 2.44  12 2.60  13 2.64
  58  0.654  0.323  0.603-  10 2.43   9 2.59  14 2.66
  59  0.673  0.575  0.612-  15 2.66  10 2.69  11 2.83
  60  0.681  0.848  0.608-  16 2.53  12 2.66  11 2.85
  61  0.913  0.091  0.604-  13 2.53  16 2.62   1 2.67
  62  0.911  0.322  0.608-  13 2.64   2 2.66  14 2.72
  63  0.911  0.576  0.607-  14 2.63  15 2.68   3 2.69
  64  0.925  0.830  0.603-   4 2.45  15 2.60  16 2.61
  65  0.002  0.998  0.500-   4 2.20  32 2.25  29 2.34  16 2.34   1 2.42  17 2.42
  66  0.011  0.255  0.500-  18 2.18   1 2.24  30 2.36  29 2.43   2 2.43  13 2.44
  67  0.004  0.501  0.500-  19 2.32  31 2.33  30 2.33   2 2.35   3 2.40  14 2.42
  68  0.001  0.753  0.498-  32 2.24  31 2.32   3 2.37   4 2.38  20 2.40  15 2.42
  69  0.249  0.001  0.500-  17 2.26   5 2.28   8 2.34  20 2.38   4 2.40  21 2.46
  70  0.246  0.248  0.501-   1 2.25  17 2.29  22 2.33   5 2.35   6 2.39  18 2.44
  71  0.249  0.503  0.504-   6 2.30   7 2.30   2 2.30  18 2.33  19 2.33  23 2.40
  72  0.250  0.755  0.499-  20 2.26   8 2.27   3 2.35  24 2.36  19 2.38   7 2.40
  73  0.500  0.000  0.497-  21 2.28   9 2.29   8 2.32  12 2.39  25 2.40  24 2.47
  74  0.499  0.254  0.498-  26 2.21  21 2.28  22 2.28  10 2.29   5 2.34   9 2.48
  75  0.502  0.499  0.502-  11 2.27  27 2.35  22 2.39  10 2.41  23 2.43   6 2.46
  76  0.499  0.749  0.501-  23 2.27   7 2.28  12 2.33  11 2.37  28 2.41  24 2.46
  77  0.745  0.996  0.497-  28 2.29  25 2.31  29 2.33  13 2.35  12 2.35  16 2.47
  78  0.756  0.251  0.499-  13 2.28  30 2.29  14 2.30   9 2.34  25 2.42  26 2.50
  79  0.746  0.501  0.501-  27 2.25  15 2.26  26 2.35  14 2.37  31 2.37  10 2.37
  80  0.752  0.756  0.502-  16 2.30  32 2.33  15 2.33  11 2.35  28 2.36  27 2.43
 
  LATTYP: Found a hexagonal cell.
 ALAT       =    13.7939866762
 C/A-ratio  =     2.0161119278
  
  Lattice vectors:
  
 A1 = (  13.7939866800,   0.0000000000,   0.0000000000)
 A2 = (  -6.8969933400,  11.9459428800,   0.0000000000)
 A3 = (   0.0000000000,   0.0000000000,  27.8102210700)


Analysis of symmetry for initial positions (statically):
=====================================================================
 Subroutine PRICEL returns:
 Original cell was already a primitive cell.
 

 Routine SETGRP: Setting up the symmetry group for a 
 hexagonal supercell.


 Subroutine GETGRP returns: Found  1 space group operations
 (whereof  1 operations were pure point group operations)
 out of a pool of 24 trial point group operations.


The static configuration has the point symmetry C_1 .


Analysis of symmetry for dynamics (positions and initial velocities):
=====================================================================
 Subroutine PRICEL returns:
 Original cell was already a primitive cell.
 

 Routine SETGRP: Setting up the symmetry group for a 
 hexagonal supercell.


 Subroutine GETGRP returns: Found  1 space group operations
 (whereof  1 operations were pure point group operations)
 out of a pool of 24 trial point group operations.


The dynamic configuration has the point symmetry C_1 .


 Subroutine INISYM returns: Found  1 space group operations
 (whereof  1 operations are pure point group operations),
 and found     1 'primitive' translations

 
 

Automatic generation of k-mesh.
 generate k-points for:    3    3    1
Space group operators:
 irot       det(A)        alpha          n_x          n_y          n_z        tau_x        tau_y        tau_z
    1     1.000000     0.000000     1.000000     0.000000     0.000000     0.000000     0.000000     0.000000
 
 Subroutine IBZKPT returns following result:
 ===========================================
 
 Found      5 irreducible k-points:
 
 Following reciprocal coordinates:
            Coordinates               Weight
  0.000000  0.000000  0.000000      1.000000
  0.333333 -0.000000  0.000000      2.000000
  0.000000  0.333333  0.000000      2.000000
  0.333333  0.333333  0.000000      2.000000
 -0.333333  0.333333  0.000000      2.000000
 
 Following cartesian coordinates:
            Coordinates               Weight
  0.000000  0.000000  0.000000      1.000000
  0.024165  0.013952  0.000000      2.000000
  0.000000  0.027903  0.000000      2.000000
  0.024165  0.041855  0.000000      2.000000
 -0.024165  0.013952  0.000000      2.000000
 


--------------------------------------------------------------------------------------------------------




 Dimension of arrays:
   k-points           NKPTS =      5   k-points in BZ     NKDIM =      5   number of bands    NBANDS=    384
   number of dos      NEDOS =    301   number of ions     NIONS =     80
   non local maximal  LDIM  =      6   non local SUM 2l+1 LMDIM =     18
   total plane-waves  NPLWV = ******
   max r-space proj   IRMAX =   9806   max aug-charges    IRDMAX= 216835
   dimension x,y,z NGX =   112 NGY =  112 NGZ =  224
   dimension x,y,z NGXF=   224 NGYF=  224 NGZF=  448
   support grid    NGXF=   448 NGYF=  448 NGZF=  896
   ions per type =              32  32  16
   NGX,Y,Z   is equivalent  to a cutoff of  13.50, 13.50, 13.39 a.u.
   NGXF,Y,Z  is equivalent  to a cutoff of  27.00, 27.00, 26.78 a.u.

 SYSTEM =  unknown system                          
 POSCAR =  Sc Cl  C                                

 Startparameter for this run:
   NWRITE =      2    write-flag & timer
   PREC   = anorma    normal or accurate (medium, high low for compatibility)
   ISTART =      0    job   : 0-new  1-cont  2-samecut
   ICHARG =      2    charge: 1-file 2-atom 10-const
   ISPIN  =      1    spin polarized calculation?
   LNONCOLLINEAR =      F non collinear calculations
   LSORBIT =      F    spin-orbit coupling
   INIWAV =      1    electr: 0-lowe 1-rand  2-diag
   LASPH  =      F    aspherical Exc in radial PAW
   METAGGA=      F    non-selfconsistent MetaGGA calc.

 Electronic Relaxation 1
   ENCUT  =  600.0 eV  44.10 Ry    6.64 a.u.  27.55 27.55 55.54*2*pi/ulx,y,z
   ENINI  =  600.0     initial cutoff
   ENAUG  =  644.9 eV  augmentation charge cutoff
   NELM   =     60;   NELMIN=  2; NELMDL= -5     # of ELM steps 
   EDIFF  = 0.1E-05   stopping-criterion for ELM
   LREAL  =      T    real-space projection
   NLSPLINE    = F    spline interpolate recip. space projectors
   LCOMPAT=      F    compatible to vasp.4.4
   GGA_COMPAT  = T    GGA compatible to vasp.4.4-vasp.4.6
   LMAXPAW     = -100 max onsite density
   LMAXMIX     =    2 max onsite mixed and CHGCAR
   VOSKOWN=      0    Vosko Wilk Nusair interpolation
   ROPT   =   -0.00025  -0.00025  -0.00025
 Ionic relaxation
   EDIFFG = -.1E-01   stopping-criterion for IOM
   NSW    =      1    number of steps for IOM
   NBLOCK =      1;   KBLOCK =      1    inner block; outer block 
   IBRION =     -1    ionic relax: 0-MD 1-quasi-New 2-CG
   NFREE  =      0    steps in history (QN), initial steepest desc. (CG)
   ISIF   =      2    stress and relaxation
   IWAVPR =     10    prediction:  0-non 1-charg 2-wave 3-comb
   ISYM   =      2    0-nonsym 1-usesym 2-fastsym
   LCORR  =      T    Harris-Foulkes like correction to forces

   POTIM  = 1.0000    time-step for ionic-motion
   TEIN   =    0.0    initial temperature
   TEBEG  =    0.0;   TEEND  =   0.0 temperature during run
   SMASS  =  -3.00    Nose mass-parameter (am)
   estimated Nose-frequenzy (Omega)   =  0.10E-29 period in steps =****** mass=  -0.435E-26a.u.
   SCALEE = 1.0000    scale energy and forces
   NPACO  =    256;   APACO  = 16.0  distance and # of slots for P.C.
   PSTRESS=    0.0 pullay stress

  Mass of Ions in am
   POMASS =  44.96 35.45 12.01
  Ionic Valenz
   ZVAL   =  11.00  7.00  4.00
  Atomic Wigner-Seitz radii
   RWIGS  =  -1.00 -1.00 -1.00
  virtual crystal weights 
   VCA    =   1.00  1.00  1.00
   NELECT =     640.0000    total number of electrons
   NUPDOWN=      -1.0000    fix difference up-down

 DOS related values:
   EMIN   =  10.00;   EMAX   =-10.00  energy-range for DOS
   EFERMI =   0.00
   ISMEAR =     0;   SIGMA  =   0.05  broadening in eV -4-tet -1-fermi 0-gaus

 Electronic relaxation 2 (details)
   IALGO  =     38    algorithm
   LDIAG  =      T    sub-space diagonalisation (order eigenvalues)
   LSUBROT=      F    optimize rotation matrix (better conditioning)
   TURBO    =      0    0=normal 1=particle mesh
   IRESTART =      0    0=no restart 2=restart with 2 vectors
   NREBOOT  =      0    no. of reboots
   NMIN     =      0    reboot dimension
   EREF     =   0.00    reference energy to select bands
   IMIX   =      4    mixing-type and parameters
     AMIX     =   0.40;   BMIX     =  1.00
     AMIX_MAG =   1.60;   BMIX_MAG =  1.00
     AMIN     =   0.10
     WC   =   100.;   INIMIX=   1;  MIXPRE=   1;  MAXMIX= -45

 Intra band minimization:
   WEIMIN = 0.0000     energy-eigenvalue tresh-hold
   EBREAK =  0.65E-09  absolut break condition
   DEPER  =   0.30     relativ break condition  

   TIME   =   0.40     timestep for ELM

  volume/ion in A,a.u.               =      57.28       386.56
  Fermi-wavevector in a.u.,A,eV,Ry     =   0.849369  1.605075  9.815628  0.721428
  Thomas-Fermi vector in A             =   1.965179
 
 Write flags
   LWAVE        =      F    write WAVECAR
   LDOWNSAMPLE  =      F    k-point downsampling of WAVECAR
   LCHARG       =      F    write CHGCAR
   LVTOT        =      F    write LOCPOT, total local potential
   LVHAR        =      F    write LOCPOT, Hartree potential only
   LELF         =      F    write electronic localiz. function (ELF)
   LORBIT       =      0    0 simple, 1 ext, 2 COOP (PROOUT), +10 PAW based schemes


 Dipole corrections
   LMONO  =      F    monopole corrections only (constant potential shift)
   LDIPOL =      F    correct potential (dipole corrections)
   IDIPOL =      0    1-x, 2-y, 3-z, 4-all directions 
   EPSILON=  1.0000000 bulk dielectric constant

 Exchange correlation treatment:
   GGA     =    --    GGA type
   LEXCH   =     8    internal setting for exchange type
   VOSKOWN=      0    Vosko Wilk Nusair interpolation
   LHFCALC =     F    Hartree Fock is set to
   LHFONE  =     F    Hartree Fock one center treatment
   AEXX    =    0.0000 exact exchange contribution

 Linear response parameters
   LEPSILON=     F    determine dielectric tensor
   LRPA    =     F    only Hartree local field effects (RPA)
   LNABLA  =     F    use nabla operator in PAW spheres
   LVEL    =     F    velocity operator in full k-point grid
   LINTERFAST=   F  fast interpolation
   KINTER  =     0    interpolate to denser k-point grid
   CSHIFT  =0.1000    complex shift for real part using Kramers Kronig
   OMEGAMAX=  -1.0    maximum frequency
   DEG_THRESHOLD= 0.2000000E-02 threshold for treating states as degnerate
   RTIME   =   -0.100 relaxation time in fs
  (WPLASMAI=    0.000 imaginary part of plasma frequency in eV, 0.658/RTIME)
   DFIELD  = 0.0000000 0.0000000 0.0000000 field for delta impulse in time
 
 Orbital magnetization related:
   ORBITALMAG=     F  switch on orbital magnetization
   LCHIMAG   =     F  perturbation theory with respect to B field
   DQ        =  0.001000  dq finite difference perturbation B field
   LLRAUG    =     F  two centre corrections for induced B field



--------------------------------------------------------------------------------------------------------


 Static calculation
 charge density and potential will be updated during run
 non-spin polarized calculation
 Variant of blocked Davidson
 Davidson routine will perform the subspace rotation
 perform sub-space diagonalisation
    after iterative eigenvector-optimisation
 modified Broyden-mixing scheme, WC =      100.0
 initial mixing is a Kerker type mixing with AMIX =  0.4000 and BMIX =      1.0000
 Hartree-type preconditioning will be used
 using additional bands           64
 real space projection scheme for non local part
 use partial core corrections
 calculate Harris-corrections to forces 
   (improved forces if not selfconsistent)
 use gradient corrections 
 use of overlap-Matrix (Vanderbilt PP)
 Gauss-broadening in eV      SIGMA  =   0.05


--------------------------------------------------------------------------------------------------------


  energy-cutoff  :      600.00
  volume of cell :     4582.63
      direct lattice vectors                 reciprocal lattice vectors
    13.793986680  0.000000000  0.000000000     0.072495358  0.041855214  0.000000000
    -6.896993340 11.945942880  0.000000000     0.000000000  0.083710429  0.000000000
     0.000000000  0.000000000 27.810221070     0.000000000  0.000000000  0.035958003

  length of vectors
    13.793986680 13.793986676 27.810221070     0.083710429  0.083710429  0.035958003


 
 k-points in units of 2pi/SCALE and weight: read from INCAR                         
   0.00000000  0.00000000  0.00000000       0.111
   0.02416512  0.01395174  0.00000000       0.222
   0.00000000  0.02790348  0.00000000       0.222
   0.02416512  0.04185521  0.00000000       0.222
  -0.02416512  0.01395174  0.00000000       0.222
 
 k-points in reciprocal lattice and weights: read from INCAR                         
   0.00000000  0.00000000  0.00000000       0.111
   0.33333333 -0.00000000  0.00000000       0.222
   0.00000000  0.33333333  0.00000000       0.222
   0.33333333  0.33333333  0.00000000       0.222
  -0.33333333  0.33333333  0.00000000       0.222
 
 position of ions in fractional coordinates (direct lattice) 
   0.08712133  0.17357518  0.54345139
   0.08617884  0.42343277  0.54885647
   0.08503162  0.67137907  0.54518970
   0.07613290  0.91974648  0.54418311
   0.33310780  0.16444955  0.54260851
   0.32555304  0.41583869  0.54742224
   0.33744218  0.67153658  0.54474130
   0.33570699  0.91646935  0.54184373
   0.58684488  0.16112121  0.54155048
   0.57973749  0.40610366  0.54775668
   0.58186540  0.66096488  0.54402809
   0.58187586  0.91543653  0.54475936
   0.83112460  0.16326856  0.54139343
   0.82934166  0.41224928  0.54367870
   0.82856794  0.66303558  0.54349155
   0.83793837  0.91731038  0.54650609
   0.17669979  0.08696747  0.45637018
   0.16300435  0.34270030  0.45722689
   0.16899341  0.58237468  0.45591514
   0.17294755  0.83424482  0.45340018
   0.42702454  0.09151715  0.45549728
   0.41149850  0.33007450  0.45568051
   0.41666434  0.58874853  0.45702624
   0.40929084  0.82600538  0.44899834
   0.66945664  0.08147572  0.45104290
   0.65651217  0.33553032  0.45603887
   0.66884014  0.58130558  0.45695475
   0.66783257  0.83356291  0.45341625
   0.91506026  0.07880412  0.45662636
   0.92023694  0.33369314  0.45639292
   0.91613417  0.58239543  0.45764874
   0.91969944  0.83604294  0.45911718
   0.07911697  0.17189333  0.39678823
   0.08582700  0.42709416  0.39598799
   0.07923233  0.65943253  0.39661244
   0.08338209  0.92403286  0.39184060
   0.34002650  0.15926772  0.39385815
   0.32437353  0.41462734  0.39824109
   0.32653800  0.64819565  0.39308668
   0.33050100  0.91671166  0.38763849
   0.57941903  0.16721536  0.39455989
   0.57139491  0.42199880  0.39451680
   0.58126581  0.66226012  0.39205363
   0.58382229  0.90980950  0.39778613
   0.83730408  0.17716003  0.39218495
   0.81416297  0.40914736  0.39460230
   0.83335808  0.66664925  0.39963617
   0.83246405  0.92046417  0.39026893
   0.16031114  0.08454627  0.60594848
   0.17738798  0.34062676  0.60761005
   0.16950887  0.58026116  0.60425615
   0.18350232  0.84251217  0.60638563
   0.42661273  0.07793035  0.60407130
   0.41640111  0.32439969  0.60660392
   0.42020175  0.59419270  0.60795339
   0.42640001  0.83960754  0.60391305
   0.66071657  0.08698387  0.60192391
   0.65449647  0.32326566  0.60285811
   0.67291369  0.57486640  0.61182277
   0.68105853  0.84763777  0.60770810
   0.91343728  0.09124092  0.60355199
   0.91126912  0.32187690  0.60755962
   0.91129626  0.57628104  0.60668227
   0.92471860  0.82985247  0.60330637
   0.00165088  0.99809832  0.50029903
   0.01103397  0.25477884  0.49993524
   0.00373104  0.50105497  0.49960084
   0.00097586  0.75263213  0.49781679
   0.24926530  0.00071719  0.50047567
   0.24641790  0.24822076  0.50053772
   0.24887132  0.50342095  0.50432460
   0.24982774  0.75454211  0.49902016
   0.49984296  0.00017362  0.49715392
   0.49895073  0.25403673  0.49792270
   0.50167301  0.49856874  0.50171298
   0.49897190  0.74930543  0.50086820
   0.74462265  0.99557033  0.49716471
   0.75575698  0.25075176  0.49898103
   0.74595473  0.50094723  0.50146250
   0.75184625  0.75557702  0.50180001
 
 position of ions in cartesian coordinates  (Angst):
   0.00460361  2.07351920 15.11350342
  -1.73166328  5.05830369 15.26381979
  -3.45757191  8.02025598 15.16184599
  -5.29330909 10.98723890 15.13385272
   3.46067716  1.96450491 15.09006256
   1.62263762  4.96758522 15.22393365
   0.02308963  8.02213759 15.14937607
  -1.69014519 10.94809046 15.06879391
   6.98367848  1.92474483 15.06063870
   5.19599690  4.85129114 15.23323449
   3.46757319  7.89584872 15.12954145
   1.71262816 10.93575247 15.14987825
  10.33845950  1.95039691 15.05627097
   8.59664728  4.92470639 15.11982475
   6.85630312  7.92058522 15.11462014
   5.23182714 10.95813741 15.19845516
   1.83758049  1.03890837 12.69175570
  -0.11512180  4.09387820 12.71558085
  -1.68554140  6.95701462 12.67910091
  -3.36814480  9.96584101 12.60915915
   5.25917757  1.09325869 12.66748017
   3.39968325  3.94305113 12.67257581
   1.68686765  7.03315626 12.71000079
  -0.05120125  9.86741304 12.48674302
   8.67253850  0.97330429 12.54360286
   6.74176976  4.00822605 12.68254193
   5.21671121  6.94424330 12.70801274
   3.46299581  9.95769486 12.60960609
  12.07881754  0.94138957 12.69888013
  10.39225674  3.98627920 12.69238807
   8.62036515  6.95726252 12.72731257
   6.92013928  9.98732123 12.76815033
  -0.09420875  2.05342791 11.03476828
  -1.76176903  5.10204244 11.01251355
  -3.45517205  7.87754335 11.02987953
  -5.22287708 11.03844381 10.89717371
   3.59185264  1.90260314 10.95328209
   1.61472220  4.95311447 11.07517280
   0.03365978  7.74330823 10.93182737
  -1.76362776 10.95098507 10.78031205
   6.83921510  1.99754512 10.97279767
   4.97129090  5.04117352 10.97159946
   3.45036922  7.91132154 10.90309822
   1.77828676 10.86853237 11.06252031
  10.32788973  2.11634364 10.90675011
   8.40866650  4.88765099 10.97397732
   6.89745479  7.96375382 11.11397024
   5.13456278 10.99581236 10.85346523
   1.62821472  1.00998490 16.85156114
   0.09758696  4.06910785 16.89776983
  -1.66385424  6.93176668 16.80449704
  -3.27957226 10.06460227 16.86371846
   5.34720529  0.93095148 16.79935643
   3.50644886  3.87526018 16.86978909
   1.69811429  7.09819202 16.90731819
   0.09098842 10.02990374 16.79495541
   8.51398837  1.03910433 16.73963713
   6.79855451  3.86171312 16.76561722
   5.31731275  6.86732113 17.01492640
   3.54836022 10.12583239 16.90049668
  11.97065361  1.08995880 16.78491420
  10.35005125  3.84512301 16.89636725
   8.59580194  6.88422036 16.87196794
   7.03206908  9.91337023 16.77808358
  -6.86110529 11.92322556 13.91342654
  -1.60500555  3.04357342 13.90330957
  -3.40430692  5.98557408 13.89400970
  -5.17743774  8.99090045 13.84439486
   3.43341570  0.00856754 13.91833905
   1.68710825  2.96523101 13.92006471
  -0.03916334  6.01383795 14.02537858
  -1.75795136  9.01371698 13.87786102
   6.89362961  0.00207409 13.82596055
   5.13043010  3.03470826 13.84734036
   3.48144547  5.95587370 13.95274887
   1.71485718  8.95115992 13.92925539
   3.40487298 11.89302630 13.82626045
   8.69546848  2.99546616 13.87677281
   6.83465986  5.98428700 13.94578293
   5.15974748  9.02607987 13.95516932
 


--------------------------------------------------------------------------------------------------------


 k-point  1 :   0.0000 0.0000 0.0000  plane waves:  153003
 k-point  2 :   0.3333-0.0000 0.0000  plane waves:  152954
 k-point  3 :   0.0000 0.3333 0.0000  plane waves:  152954
 k-point  4 :   0.3333 0.3333 0.0000  plane waves:  152898
 k-point  5 :  -0.3333 0.3333 0.0000  plane waves:  152954

 maximum and minimum number of plane-waves per node :     11814    11730

 maximum number of plane-waves:    153003
 maximum index in each direction: 
   IXMAX=   27   IYMAX=   27   IZMAX=   55
   IXMIN=  -27   IYMIN=  -27   IZMIN=  -55


 real space projection operators:
  total allocation   :      55010.84 KBytes
  max/ min on nodes  :       4462.55       3871.11


 parallel 3D FFT for wavefunctions:
    minimum data exchange during FFTs selected (reduces bandwidth)
 parallel 3D FFT for charge:
    minimum data exchange during FFTs selected (reduces bandwidth)


 total amount of memory used by VASP MPI-rank0   253918. kBytes
=======================================================================

   base      :      30000. kBytes
   nonlr-proj:      18734. kBytes
   fftplans  :      72602. kBytes
   grid      :      41267. kBytes
   one-center:        108. kBytes
   wavefun   :      91207. kBytes
 
     INWAV:  cpu time    0.0000: real time    0.0000
 Broyden mixing: mesh for mixing (old mesh)
   NGX = 55   NGY = 55   NGZ =111
  (NGX  =224   NGY  =224   NGZ  =448)
  gives a total of 335775 points

 initial charge density was supplied:
 charge density of overlapping atoms calculated
 number of electron     640.0000000 magnetization 
 keeping initial charge density in first step


--------------------------------------------------------------------------------------------------------


 Maximum index for non-local projection operator          945
 Maximum index for augmentation-charges         4730 (set IRDMAX)


--------------------------------------------------------------------------------------------------------


 First call to EWALD:  gamma=   0.107
 Maximum number of real-space cells 4x 4x 2
 Maximum number of reciprocal cells 2x 2x 4

    FEWALD:  cpu time    0.0093: real time    0.0092


--------------------------------------- Iteration      1(   1)  ---------------------------------------


    POTLOK:  cpu time    1.0905: real time    1.0998
    SETDIJ:  cpu time    1.1335: real time    1.1336
     EDDAV:  cpu time  139.5717: real time  139.5729
       DOS:  cpu time    0.0027: real time    0.0027
    --------------------------------------------
      LOOP:  cpu time  141.7985: real time  141.8090

 eigenvalue-minimisations  :  4416
 total energy-change (2. order) : 0.1217918E+05  (-0.2679180E+05)
 number of electron     640.0000000 magnetization 
 augmentation part      640.0000000 magnetization 

 Free energy of the ion-electron system (eV)
  ---------------------------------------------------
  alpha Z        PSCENC =       784.57699423
  Ewald energy   TEWEN  =    251981.20916021
  -Hartree energ DENC   =   -299648.88329270
  -exchange      EXHF   =         0.00000000
  -V(xc)+E(xc)   XCENC  =      2502.14371968
  PAW double counting   =     43679.68029659   -43417.33247688
  entropy T*S    EENTRO =        -0.05985733
  eigenvalues    EBANDS =        87.12371380
  atomic energy  EATOM  =     56210.72393729
  Solvation  Ediel_sol  =         0.00000000
  ---------------------------------------------------
  free energy    TOTEN  =     12179.18219489 eV

  energy without entropy =    12179.24205222  energy(sigma->0) =    12179.21212355


--------------------------------------------------------------------------------------------------------




--------------------------------------- Iteration      1(   2)  ---------------------------------------


     EDDAV:  cpu time  171.0780: real time  171.0926
       DOS:  cpu time    0.0020: real time    0.0020
    --------------------------------------------
      LOOP:  cpu time  171.0800: real time  171.0946

 eigenvalue-minimisations  :  5232
 total energy-change (2. order) :-0.1046741E+05  (-0.1020473E+05)
 number of electron     640.0000000 magnetization 
 augmentation part      640.0000000 magnetization 

 Free energy of the ion-electron system (eV)
  ---------------------------------------------------
  alpha Z        PSCENC =       784.57699423
  Ewald energy   TEWEN  =    251981.20916021
  -Hartree energ DENC   =   -299648.88329270
  -exchange      EXHF   =         0.00000000
  -V(xc)+E(xc)   XCENC  =      2502.14371968
  PAW double counting   =     43679.68029659   -43417.33247688
  entropy T*S    EENTRO =        -0.04393782
  eigenvalues    EBANDS =    -10380.30190261
  atomic energy  EATOM  =     56210.72393729
  Solvation  Ediel_sol  =         0.00000000
  ---------------------------------------------------
  free energy    TOTEN  =      1711.77249798 eV

  energy without entropy =     1711.81643580  energy(sigma->0) =     1711.79446689


--------------------------------------------------------------------------------------------------------




--------------------------------------- Iteration      1(   3)  ---------------------------------------


     EDDAV:  cpu time  213.6495: real time  213.6601
       DOS:  cpu time    0.0016: real time    0.0016
    --------------------------------------------
      LOOP:  cpu time  213.6511: real time  213.6617

 eigenvalue-minimisations  :  6800
 total energy-change (2. order) :-0.2124601E+04  (-0.2039912E+04)
 number of electron     640.0000000 magnetization 
 augmentation part      640.0000000 magnetization 

 Free energy of the ion-electron system (eV)
  ---------------------------------------------------
  alpha Z        PSCENC =       784.57699423
  Ewald energy   TEWEN  =    251981.20916021
  -Hartree energ DENC   =   -299648.88329270
  -exchange      EXHF   =         0.00000000
  -V(xc)+E(xc)   XCENC  =      2502.14371968
  PAW double counting   =     43679.68029659   -43417.33247688
  entropy T*S    EENTRO =        -0.00004987
  eigenvalues    EBANDS =    -12504.94722801
  atomic energy  EATOM  =     56210.72393729
  Solvation  Ediel_sol  =         0.00000000
  ---------------------------------------------------
  free energy    TOTEN  =      -412.82893946 eV

  energy without entropy =     -412.82888960  energy(sigma->0) =     -412.82891453


--------------------------------------------------------------------------------------------------------




--------------------------------------- Iteration      1(   4)  ---------------------------------------


     EDDAV:  cpu time  194.4638: real time  194.4739
       DOS:  cpu time    0.0009: real time    0.0009
    --------------------------------------------
      LOOP:  cpu time  194.4647: real time  194.4748

 eigenvalue-minimisations  :  6088
 total energy-change (2. order) :-0.2324131E+03  (-0.2278630E+03)
 number of electron     640.0000000 magnetization 
 augmentation part      640.0000000 magnetization 

 Free energy of the ion-electron system (eV)
  ---------------------------------------------------
  alpha Z        PSCENC =       784.57699423
  Ewald energy   TEWEN  =    251981.20916021
  -Hartree energ DENC   =   -299648.88329270
  -exchange      EXHF   =         0.00000000
  -V(xc)+E(xc)   XCENC  =      2502.14371968
  PAW double counting   =     43679.68029659   -43417.33247688
  entropy T*S    EENTRO =        -0.00000000
  eigenvalues    EBANDS =    -12737.36040107
  atomic energy  EATOM  =     56210.72393729
  Solvation  Ediel_sol  =         0.00000000
  ---------------------------------------------------
  free energy    TOTEN  =      -645.24206265 eV

  energy without entropy =     -645.24206265  energy(sigma->0) =     -645.24206265


--------------------------------------------------------------------------------------------------------




--------------------------------------- Iteration      1(   5)  ---------------------------------------


     EDDAV:  cpu time  194.2603: real time  194.2704
       DOS:  cpu time    0.0011: real time    0.0011
    CHARGE:  cpu time   11.5781: real time   11.5782
    MIXING:  cpu time    0.1995: real time    0.1997
    --------------------------------------------
      LOOP:  cpu time  206.0391: real time  206.0494

 eigenvalue-minimisations  :  6080
 total energy-change (2. order) :-0.1012434E+02  (-0.1007485E+02)
 number of electron     640.0000003 magnetization 
 augmentation part       59.1258323 magnetization 

 Broyden mixing:
  rms(total) = 0.68699E+01    rms(broyden)= 0.68697E+01
  rms(prec ) = 0.72344E+01
  weight for this iteration     100.00

 Free energy of the ion-electron system (eV)
  ---------------------------------------------------
  alpha Z        PSCENC =       784.57699423
  Ewald energy   TEWEN  =    251981.20916021
  -Hartree energ DENC   =   -299648.88329270
  -exchange      EXHF   =         0.00000000
  -V(xc)+E(xc)   XCENC  =      2502.14371968
  PAW double counting   =     43679.68029659   -43417.33247688
  entropy T*S    EENTRO =        -0.00000000
  eigenvalues    EBANDS =    -12747.48473774
  atomic energy  EATOM  =     56210.72393729
  Solvation  Ediel_sol  =         0.00000000
  ---------------------------------------------------
  free energy    TOTEN  =      -655.36639933 eV

  energy without entropy =     -655.36639933  energy(sigma->0) =     -655.36639933


--------------------------------------------------------------------------------------------------------




--------------------------------------- Iteration      1(   6)  ---------------------------------------


    POTLOK:  cpu time    1.0571: real time    1.0650
    SETDIJ:  cpu time    1.1299: real time    1.1300
     EDDAV:  cpu time  185.7997: real time  185.8028
       DOS:  cpu time    0.0013: real time    0.0012
    CHARGE:  cpu time   11.9284: real time   11.9285
    MIXING:  cpu time    0.1993: real time    0.1993
    --------------------------------------------
      LOOP:  cpu time  200.1157: real time  200.1268

 eigenvalue-minimisations  :  5832
 total energy-change (2. order) : 0.1298878E+03  (-0.7011850E+02)
 number of electron     640.0000004 magnetization 
 augmentation part       69.9783346 magnetization 

 Broyden mixing:
  rms(total) = 0.29656E+01    rms(broyden)= 0.29655E+01
  rms(prec ) = 0.29984E+01
  weight for this iteration     100.00

 eigenvalues of (default mixing * dielectric matrix)
  average eigenvalue GAMMA=   0.9498
  0.9498

 Free energy of the ion-electron system (eV)
  ---------------------------------------------------
  alpha Z        PSCENC =       784.57699423
  Ewald energy   TEWEN  =    251981.20916021
  -Hartree energ DENC   =   -299442.90918585
  -exchange      EXHF   =         0.00000000
  -V(xc)+E(xc)   XCENC  =      2491.55617344
  PAW double counting   =     49050.95459566   -48843.12133159
  entropy T*S    EENTRO =        -0.00000000
  eigenvalues    EBANDS =    -12758.46893527
  atomic energy  EATOM  =     56210.72393729
  Solvation  Ediel_sol  =         0.00000000
  ---------------------------------------------------
  free energy    TOTEN  =      -525.47859188 eV

  energy without entropy =     -525.47859188  energy(sigma->0) =     -525.47859188


--------------------------------------------------------------------------------------------------------




--------------------------------------- Iteration      1(   7)  ---------------------------------------


    POTLOK:  cpu time    1.0616: real time    1.0729
    SETDIJ:  cpu time    1.1317: real time    1.1317
     EDDAV:  cpu time  188.1434: real time  188.1453
       DOS:  cpu time    0.0014: real time    0.0014
    CHARGE:  cpu time   11.9001: real time   11.9002
    MIXING:  cpu time    0.1958: real time    0.1958
    --------------------------------------------
      LOOP:  cpu time  202.4340: real time  202.4474

 eigenvalue-minimisations  :  5928
 total energy-change (2. order) :-0.4401539E+01  (-0.8242632E+01)
 number of electron     640.0000004 magnetization 
 augmentation part       69.4743368 magnetization 

 Broyden mixing:
  rms(total) = 0.15019E+01    rms(broyden)= 0.15018E+01
  rms(prec ) = 0.15365E+01
  weight for this iteration     100.00

 eigenvalues of (default mixing * dielectric matrix)
  average eigenvalue GAMMA=   1.0112
  1.0112  1.0112

 Free energy of the ion-electron system (eV)
  ---------------------------------------------------
  alpha Z        PSCENC =       784.57699423
  Ewald energy   TEWEN  =    251981.20916021
  -Hartree energ DENC   =   -299536.41961820
  -exchange      EXHF   =         0.00000000
  -V(xc)+E(xc)   XCENC  =      2487.45010450
  PAW double counting   =     53905.26726000   -53711.96711928
  entropy T*S    EENTRO =        -0.00000000
  eigenvalues    EBANDS =    -12650.72084994
  atomic energy  EATOM  =     56210.72393729
  Solvation  Ediel_sol  =         0.00000000
  ---------------------------------------------------
  free energy    TOTEN  =      -529.88013120 eV

  energy without entropy =     -529.88013120  energy(sigma->0) =     -529.88013120


--------------------------------------------------------------------------------------------------------




--------------------------------------- Iteration      1(   8)  ---------------------------------------


    POTLOK:  cpu time    1.0576: real time    1.0656
    SETDIJ:  cpu time    1.1290: real time    1.1290
     EDDAV:  cpu time  188.4226: real time  188.4240
       DOS:  cpu time    0.0014: real time    0.0014
    CHARGE:  cpu time   11.8943: real time   11.8944
    MIXING:  cpu time    0.1987: real time    0.1987
    --------------------------------------------
      LOOP:  cpu time  202.7035: real time  202.7130

 eigenvalue-minimisations  :  5936
 total energy-change (2. order) : 0.2125271E+01  (-0.9235365E+00)
 number of electron     640.0000004 magnetization 
 augmentation part       69.2312071 magnetization 

 Broyden mixing:
  rms(total) = 0.90047E+00    rms(broyden)= 0.90047E+00
  rms(prec ) = 0.91618E+00
  weight for this iteration     100.00

 eigenvalues of (default mixing * dielectric matrix)
  average eigenvalue GAMMA=   1.4287
  2.5426  0.8718  0.8718

 Free energy of the ion-electron system (eV)
  ---------------------------------------------------
  alpha Z        PSCENC =       784.57699423
  Ewald energy   TEWEN  =    251981.20916021
  -Hartree energ DENC   =   -299604.08849413
  -exchange      EXHF   =         0.00000000
  -V(xc)+E(xc)   XCENC  =      2487.37394168
  PAW double counting   =     55875.53770872   -55693.17661647
  entropy T*S    EENTRO =        -0.00000000
  eigenvalues    EBANDS =    -12569.91149187
  atomic energy  EATOM  =     56210.72393729
  Solvation  Ediel_sol  =         0.00000000
  ---------------------------------------------------
  free energy    TOTEN  =      -527.75486035 eV

  energy without entropy =     -527.75486035  energy(sigma->0) =     -527.75486035


--------------------------------------------------------------------------------------------------------




--------------------------------------- Iteration      1(   9)  ---------------------------------------


    POTLOK:  cpu time    1.0579: real time    1.0657
    SETDIJ:  cpu time    1.1286: real time    1.1286
     EDDAV:  cpu time  173.1064: real time  173.1089
       DOS:  cpu time    0.0012: real time    0.0012
    CHARGE:  cpu time   12.1453: real time   12.1456
    MIXING:  cpu time    0.1973: real time    0.1973
    --------------------------------------------
      LOOP:  cpu time  187.6366: real time  187.6473

 eigenvalue-minimisations  :  5352
 total energy-change (2. order) : 0.5053299E+00  (-0.3371684E+00)
 number of electron     640.0000004 magnetization 
 augmentation part       69.9559359 magnetization 

 Broyden mixing:
  rms(total) = 0.29159E+00    rms(broyden)= 0.29157E+00
  rms(prec ) = 0.30367E+00
  weight for this iteration     100.00

 eigenvalues of (default mixing * dielectric matrix)
  average eigenvalue GAMMA=   1.2294
  2.1099  0.8724  0.8724  1.0629

 Free energy of the ion-electron system (eV)
  ---------------------------------------------------
  alpha Z        PSCENC =       784.57699423
  Ewald energy   TEWEN  =    251981.20916021
  -Hartree energ DENC   =   -299725.74800794
  -exchange      EXHF   =         0.00000000
  -V(xc)+E(xc)   XCENC  =      2486.74355101
  PAW double counting   =     59525.12013612   -59359.62281339
  entropy T*S    EENTRO =        -0.00000000
  eigenvalues    EBANDS =    -12430.25248799
  atomic energy  EATOM  =     56210.72393729
  Solvation  Ediel_sol  =         0.00000000
  ---------------------------------------------------
  free energy    TOTEN  =      -527.24953047 eV

  energy without entropy =     -527.24953047  energy(sigma->0) =     -527.24953047


--------------------------------------------------------------------------------------------------------




--------------------------------------- Iteration      1(  10)  ---------------------------------------


    POTLOK:  cpu time    1.0562: real time    1.0677
    SETDIJ:  cpu time    1.1252: real time    1.1252
     EDDAV:  cpu time  180.2761: real time  180.2783
       DOS:  cpu time    0.0010: real time    0.0010
    CHARGE:  cpu time   12.1511: real time   12.1511
    MIXING:  cpu time    0.1998: real time    0.1998
    --------------------------------------------
      LOOP:  cpu time  194.8094: real time  194.8232

 eigenvalue-minimisations  :  5592
 total energy-change (2. order) : 0.1148268E+00  (-0.5638934E-01)
 number of electron     640.0000004 magnetization 
 augmentation part       69.7507521 magnetization 

 Broyden mixing:
  rms(total) = 0.16906E+00    rms(broyden)= 0.16906E+00
  rms(prec ) = 0.17523E+00
  weight for this iteration     100.00

 eigenvalues of (default mixing * dielectric matrix)
  average eigenvalue GAMMA=   1.2401
  1.9781  1.7647  0.9036  0.9036  0.6504

 Free energy of the ion-electron system (eV)
  ---------------------------------------------------
  alpha Z        PSCENC =       784.57699423
  Ewald energy   TEWEN  =    251981.20916021
  -Hartree energ DENC   =   -299753.96217457
  -exchange      EXHF   =         0.00000000
  -V(xc)+E(xc)   XCENC  =      2487.41969406
  PAW double counting   =     58951.83610362   -58783.75135760
  entropy T*S    EENTRO =        -0.00000000
  eigenvalues    EBANDS =    -12405.18706086
  atomic energy  EATOM  =     56210.72393729
  Solvation  Ediel_sol  =         0.00000000
  ---------------------------------------------------
  free energy    TOTEN  =      -527.13470362 eV

  energy without entropy =     -527.13470362  energy(sigma->0) =     -527.13470362


--------------------------------------------------------------------------------------------------------




--------------------------------------- Iteration      1(  11)  ---------------------------------------


    POTLOK:  cpu time    1.0558: real time    1.0700
    SETDIJ:  cpu time    1.1159: real time    1.1159
     EDDAV:  cpu time  182.0037: real time  182.0074
       DOS:  cpu time    0.0012: real time    0.0012
    CHARGE:  cpu time   11.3919: real time   11.3920
    MIXING:  cpu time    0.1970: real time    0.1970
    --------------------------------------------
      LOOP:  cpu time  195.7656: real time  195.7835

 eigenvalue-minimisations  :  5736
 total energy-change (2. order) : 0.1832026E-01  (-0.1752806E-01)
 number of electron     640.0000004 magnetization 
 augmentation part       69.6763056 magnetization 

 Broyden mixing:
  rms(total) = 0.74676E-01    rms(broyden)= 0.74675E-01
  rms(prec ) = 0.80409E-01
  weight for this iteration     100.00

 eigenvalues of (default mixing * dielectric matrix)
  average eigenvalue GAMMA=   1.2705
  2.4933  1.6822  0.8884  0.8884  0.9087  0.7621

 Free energy of the ion-electron system (eV)
  ---------------------------------------------------
  alpha Z        PSCENC =       784.57699423
  Ewald energy   TEWEN  =    251981.20916021
  -Hartree energ DENC   =   -299804.24349686
  -exchange      EXHF   =         0.00000000
  -V(xc)+E(xc)   XCENC  =      2488.03772832
  PAW double counting   =     59079.85846685   -58912.01321417
  entropy T*S    EENTRO =        -0.00000000
  eigenvalues    EBANDS =    -12355.26595922
  atomic energy  EATOM  =     56210.72393729
  Solvation  Ediel_sol  =         0.00000000
  ---------------------------------------------------
  free energy    TOTEN  =      -527.11638336 eV

  energy without entropy =     -527.11638336  energy(sigma->0) =     -527.11638336


--------------------------------------------------------------------------------------------------------




--------------------------------------- Iteration      1(  12)  ---------------------------------------


    POTLOK:  cpu time    1.0541: real time    1.0624
    SETDIJ:  cpu time    1.1061: real time    1.1061
     EDDAV:  cpu time  190.9867: real time  190.9879
       DOS:  cpu time    0.0014: real time    0.0014
    CHARGE:  cpu time   11.1388: real time   11.1388
    MIXING:  cpu time    0.2026: real time    0.2026
    --------------------------------------------
      LOOP:  cpu time  204.4896: real time  204.4991

 eigenvalue-minimisations  :  6120
 total energy-change (2. order) : 0.1291865E-01  (-0.3046052E-02)
 number of electron     640.0000004 magnetization 
 augmentation part       69.6959627 magnetization 

 Broyden mixing:
  rms(total) = 0.29090E-01    rms(broyden)= 0.29090E-01
  rms(prec ) = 0.35771E-01
  weight for this iteration     100.00

 eigenvalues of (default mixing * dielectric matrix)
  average eigenvalue GAMMA=   1.2816
  2.2434  2.2434  0.9433  0.9433  0.9508  0.9508  0.6960

 Free energy of the ion-electron system (eV)
  ---------------------------------------------------
  alpha Z        PSCENC =       784.57699423
  Ewald energy   TEWEN  =    251981.20916021
  -Hartree energ DENC   =   -299834.66658543
  -exchange      EXHF   =         0.00000000
  -V(xc)+E(xc)   XCENC  =      2488.35515454
  PAW double counting   =     59204.93784488   -59037.50087502
  entropy T*S    EENTRO =        -0.00000000
  eigenvalues    EBANDS =    -12324.73909539
  atomic energy  EATOM  =     56210.72393729
  Solvation  Ediel_sol  =         0.00000000
  ---------------------------------------------------
  free energy    TOTEN  =      -527.10346471 eV

  energy without entropy =     -527.10346471  energy(sigma->0) =     -527.10346471


--------------------------------------------------------------------------------------------------------




--------------------------------------- Iteration      1(  13)  ---------------------------------------


    POTLOK:  cpu time    1.0546: real time    1.0631
    SETDIJ:  cpu time    1.1091: real time    1.1104
     EDDAV:  cpu time  171.1539: real time  171.1550
       DOS:  cpu time    0.0016: real time    0.0016
    CHARGE:  cpu time   11.6342: real time   11.6472
    MIXING:  cpu time    0.1996: real time    0.1996
    --------------------------------------------
      LOOP:  cpu time  185.1530: real time  185.1768

 eigenvalue-minimisations  :  5344
 total energy-change (2. order) : 0.2795072E-02  (-0.8495291E-03)
 number of electron     640.0000004 magnetization 
 augmentation part       69.7016683 magnetization 

 Broyden mixing:
  rms(total) = 0.16805E-01    rms(broyden)= 0.16804E-01
  rms(prec ) = 0.23327E-01
  weight for this iteration     100.00

 eigenvalues of (default mixing * dielectric matrix)
  average eigenvalue GAMMA=   1.3353
  2.8035  2.0187  1.5793  0.9052  0.9052  0.9009  0.9009  0.6688

 Free energy of the ion-electron system (eV)
  ---------------------------------------------------
  alpha Z        PSCENC =       784.57699423
  Ewald energy   TEWEN  =    251981.20916021
  -Hartree energ DENC   =   -299856.46656429
  -exchange      EXHF   =         0.00000000
  -V(xc)+E(xc)   XCENC  =      2488.54926024
  PAW double counting   =     59164.74701317   -58997.12286956
  entropy T*S    EENTRO =        -0.00000000
  eigenvalues    EBANDS =    -12303.31760094
  atomic energy  EATOM  =     56210.72393729
  Solvation  Ediel_sol  =         0.00000000
  ---------------------------------------------------
  free energy    TOTEN  =      -527.10066964 eV

  energy without entropy =     -527.10066964  energy(sigma->0) =     -527.10066964


--------------------------------------------------------------------------------------------------------




--------------------------------------- Iteration      1(  14)  ---------------------------------------


    POTLOK:  cpu time    1.0553: real time    1.0665
    SETDIJ:  cpu time    1.1096: real time    1.1096
     EDDAV:  cpu time  170.6453: real time  170.6688
       DOS:  cpu time    0.0014: real time    0.0014
    CHARGE:  cpu time   11.6341: real time   11.6342
    MIXING:  cpu time    0.2108: real time    0.2108
    --------------------------------------------
      LOOP:  cpu time  184.6566: real time  184.6913

 eigenvalue-minimisations  :  5312
 total energy-change (2. order) : 0.1570156E-02  (-0.5976210E-03)
 number of electron     640.0000004 magnetization 
 augmentation part       69.7101073 magnetization 

 Broyden mixing:
  rms(total) = 0.16301E-01    rms(broyden)= 0.16301E-01
  rms(prec ) = 0.19618E-01
  weight for this iteration     100.00

 eigenvalues of (default mixing * dielectric matrix)
  average eigenvalue GAMMA=   1.3397
  2.6236  2.6236  1.6926  0.9506  0.9506  0.9082  0.9082  0.7001  0.7001

 Free energy of the ion-electron system (eV)
  ---------------------------------------------------
  alpha Z        PSCENC =       784.57699423
  Ewald energy   TEWEN  =    251981.20916021
  -Hartree energ DENC   =   -299882.68637301
  -exchange      EXHF   =         0.00000000
  -V(xc)+E(xc)   XCENC  =      2488.71579580
  PAW double counting   =     59170.76632432   -59003.16843681
  entropy T*S    EENTRO =        -0.00000000
  eigenvalues    EBANDS =    -12277.23650151
  atomic energy  EATOM  =     56210.72393729
  Solvation  Ediel_sol  =         0.00000000
  ---------------------------------------------------
  free energy    TOTEN  =      -527.09909949 eV

  energy without entropy =     -527.09909949  energy(sigma->0) =     -527.09909949


--------------------------------------------------------------------------------------------------------




--------------------------------------- Iteration      1(  15)  ---------------------------------------


    POTLOK:  cpu time    1.0597: real time    1.0719
    SETDIJ:  cpu time    1.1093: real time    1.1093
     EDDAV:  cpu time  176.9609: real time  176.9639
       DOS:  cpu time    0.0013: real time    0.0013
    CHARGE:  cpu time   11.0040: real time   11.0041
    MIXING:  cpu time    0.2049: real time    0.2049
    --------------------------------------------
      LOOP:  cpu time  190.3402: real time  190.3555

 eigenvalue-minimisations  :  5584
 total energy-change (2. order) :-0.1574953E-02  (-0.1788211E-03)
 number of electron     640.0000004 magnetization 
 augmentation part       69.7115164 magnetization 

 Broyden mixing:
  rms(total) = 0.99496E-02    rms(broyden)= 0.99495E-02
  rms(prec ) = 0.12750E-01
  weight for this iteration     100.00

 eigenvalues of (default mixing * dielectric matrix)
  average eigenvalue GAMMA=   1.3574
  2.8111  2.8111  1.3818  1.3818  0.9714  0.9714  0.8725  0.8725  0.8510  0.6489

 Free energy of the ion-electron system (eV)
  ---------------------------------------------------
  alpha Z        PSCENC =       784.57699423
  Ewald energy   TEWEN  =    251981.20916021
  -Hartree energ DENC   =   -299897.56985764
  -exchange      EXHF   =         0.00000000
  -V(xc)+E(xc)   XCENC  =      2488.78131598
  PAW double counting   =     59138.81973186   -58971.11519959
  entropy T*S    EENTRO =        -0.00000000
  eigenvalues    EBANDS =    -12262.52675676
  atomic energy  EATOM  =     56210.72393729
  Solvation  Ediel_sol  =         0.00000000
  ---------------------------------------------------
  free energy    TOTEN  =      -527.10067444 eV

  energy without entropy =     -527.10067444  energy(sigma->0) =     -527.10067444


--------------------------------------------------------------------------------------------------------




--------------------------------------- Iteration      1(  16)  ---------------------------------------


    POTLOK:  cpu time    1.0453: real time    1.0582
    SETDIJ:  cpu time    1.1131: real time    1.1131
     EDDAV:  cpu time  181.6236: real time  181.6247
       DOS:  cpu time    0.0015: real time    0.0015
    CHARGE:  cpu time   11.1534: real time   11.1535
    MIXING:  cpu time    0.2088: real time    0.2088
    --------------------------------------------
      LOOP:  cpu time  195.1458: real time  195.1598

 eigenvalue-minimisations  :  5960
 total energy-change (2. order) :-0.2159188E-02  (-0.1044804E-03)
 number of electron     640.0000004 magnetization 
 augmentation part       69.7099232 magnetization 

 Broyden mixing:
  rms(total) = 0.54594E-02    rms(broyden)= 0.54594E-02
  rms(prec ) = 0.76594E-02
  weight for this iteration     100.00

 eigenvalues of (default mixing * dielectric matrix)
  average eigenvalue GAMMA=   1.4415
  3.6653  2.3738  2.3738  1.2929  1.0467  0.9583  0.9583  0.8913  0.8913  0.6605
  0.7446

 Free energy of the ion-electron system (eV)
  ---------------------------------------------------
  alpha Z        PSCENC =       784.57699423
  Ewald energy   TEWEN  =    251981.20916021
  -Hartree energ DENC   =   -299910.15869880
  -exchange      EXHF   =         0.00000000
  -V(xc)+E(xc)   XCENC  =      2488.83875586
  PAW double counting   =     59127.56830792   -58959.85705481
  entropy T*S    EENTRO =        -0.00000000
  eigenvalues    EBANDS =    -12250.00423552
  atomic energy  EATOM  =     56210.72393729
  Solvation  Ediel_sol  =         0.00000000
  ---------------------------------------------------
  free energy    TOTEN  =      -527.10283363 eV

  energy without entropy =     -527.10283363  energy(sigma->0) =     -527.10283363


--------------------------------------------------------------------------------------------------------




--------------------------------------- Iteration      1(  17)  ---------------------------------------


    POTLOK:  cpu time    1.0510: real time    1.0590
    SETDIJ:  cpu time    1.1128: real time    1.1129
     EDDAV:  cpu time  152.2725: real time  152.2750
       DOS:  cpu time    0.0016: real time    0.0016
    CHARGE:  cpu time   11.0179: real time   11.0180
    MIXING:  cpu time    0.2080: real time    0.2080
    --------------------------------------------
      LOOP:  cpu time  165.6639: real time  165.6745

 eigenvalue-minimisations  :  4792
 total energy-change (2. order) :-0.3703865E-02  (-0.6795316E-04)
 number of electron     640.0000004 magnetization 
 augmentation part       69.7106034 magnetization 

 Broyden mixing:
  rms(total) = 0.29680E-02    rms(broyden)= 0.29679E-02
  rms(prec ) = 0.42072E-02
  weight for this iteration     100.00

 eigenvalues of (default mixing * dielectric matrix)
  average eigenvalue GAMMA=   1.4797
  4.2687  2.7406  2.2995  1.4441  0.9503  0.9503  0.9035  0.9035  0.9618  0.8396
  0.8396  0.6548

 Free energy of the ion-electron system (eV)
  ---------------------------------------------------
  alpha Z        PSCENC =       784.57699423
  Ewald energy   TEWEN  =    251981.20916021
  -Hartree energ DENC   =   -299924.20335100
  -exchange      EXHF   =         0.00000000
  -V(xc)+E(xc)   XCENC  =      2488.87995041
  PAW double counting   =     59125.75206445   -58958.08989834
  entropy T*S    EENTRO =        -0.00000000
  eigenvalues    EBANDS =    -12235.95539474
  atomic energy  EATOM  =     56210.72393729
  Solvation  Ediel_sol  =         0.00000000
  ---------------------------------------------------
  free energy    TOTEN  =      -527.10653749 eV

  energy without entropy =     -527.10653749  energy(sigma->0) =     -527.10653749


--------------------------------------------------------------------------------------------------------




--------------------------------------- Iteration      1(  18)  ---------------------------------------


    POTLOK:  cpu time    1.0501: real time    1.0625
    SETDIJ:  cpu time    1.1131: real time    1.1131
     EDDAV:  cpu time  151.2733: real time  151.2744
       DOS:  cpu time    0.0016: real time    0.0016
    CHARGE:  cpu time   11.1342: real time   11.1343
    MIXING:  cpu time    0.2107: real time    0.2107
    --------------------------------------------
      LOOP:  cpu time  164.7830: real time  164.7965

 eigenvalue-minimisations  :  4752
 total energy-change (2. order) :-0.1762719E-02  (-0.1929753E-04)
 number of electron     640.0000004 magnetization 
 augmentation part       69.7107698 magnetization 

 Broyden mixing:
  rms(total) = 0.21733E-02    rms(broyden)= 0.21732E-02
  rms(prec ) = 0.29037E-02
  weight for this iteration     100.00

 eigenvalues of (default mixing * dielectric matrix)
  average eigenvalue GAMMA=   1.5260
  4.8067  2.7460  2.2380  1.7817  1.1379  1.1379  0.9663  0.9663  0.8952  0.8952
  0.6610  0.8027  0.8027

 Free energy of the ion-electron system (eV)
  ---------------------------------------------------
  alpha Z        PSCENC =       784.57699423
  Ewald energy   TEWEN  =    251981.20916021
  -Hartree energ DENC   =   -299930.64848216
  -exchange      EXHF   =         0.00000000
  -V(xc)+E(xc)   XCENC  =      2488.89864163
  PAW double counting   =     59121.85321018   -58954.19418869
  entropy T*S    EENTRO =        -0.00000000
  eigenvalues    EBANDS =    -12229.52757290
  atomic energy  EATOM  =     56210.72393729
  Solvation  Ediel_sol  =         0.00000000
  ---------------------------------------------------
  free energy    TOTEN  =      -527.10830021 eV

  energy without entropy =     -527.10830021  energy(sigma->0) =     -527.10830021


--------------------------------------------------------------------------------------------------------




--------------------------------------- Iteration      1(  19)  ---------------------------------------


    POTLOK:  cpu time    1.0514: real time    1.0628
    SETDIJ:  cpu time    1.1150: real time    1.1150
     EDDAV:  cpu time  148.1877: real time  148.1886
       DOS:  cpu time    0.0016: real time    0.0015
    CHARGE:  cpu time   11.0512: real time   11.0513
    MIXING:  cpu time    0.2095: real time    0.2095
    --------------------------------------------
      LOOP:  cpu time  161.6164: real time  161.6287

 eigenvalue-minimisations  :  4624
 total energy-change (2. order) :-0.1307193E-02  (-0.1221421E-04)
 number of electron     640.0000004 magnetization 
 augmentation part       69.7104808 magnetization 

 Broyden mixing:
  rms(total) = 0.14758E-02    rms(broyden)= 0.14757E-02
  rms(prec ) = 0.19464E-02
  weight for this iteration     100.00

 eigenvalues of (default mixing * dielectric matrix)
  average eigenvalue GAMMA=   1.5956
  5.5999  3.0055  2.2210  2.2210  1.2056  1.2056  0.9971  0.9971  0.8877  0.8877
  0.8623  0.8623  0.6579  0.7282

 Free energy of the ion-electron system (eV)
  ---------------------------------------------------
  alpha Z        PSCENC =       784.57699423
  Ewald energy   TEWEN  =    251981.20916021
  -Hartree energ DENC   =   -299934.64238432
  -exchange      EXHF   =         0.00000000
  -V(xc)+E(xc)   XCENC  =      2488.90983194
  PAW double counting   =     59121.63628190   -58953.97696587
  entropy T*S    EENTRO =        -0.00000000
  eigenvalues    EBANDS =    -12225.54646278
  atomic energy  EATOM  =     56210.72393729
  Solvation  Ediel_sol  =         0.00000000
  ---------------------------------------------------
  free energy    TOTEN  =      -527.10960740 eV

  energy without entropy =     -527.10960740  energy(sigma->0) =     -527.10960740


--------------------------------------------------------------------------------------------------------




--------------------------------------- Iteration      1(  20)  ---------------------------------------


    POTLOK:  cpu time    1.0515: real time    1.0606
    SETDIJ:  cpu time    1.1118: real time    1.1118
     EDDAV:  cpu time  143.3165: real time  143.3175
       DOS:  cpu time    0.0007: real time    0.0007
    CHARGE:  cpu time   10.7980: real time   10.7980
    MIXING:  cpu time    0.2125: real time    0.2125
    --------------------------------------------
      LOOP:  cpu time  156.4910: real time  156.5011

 eigenvalue-minimisations  :  4480
 total energy-change (2. order) :-0.8577717E-03  (-0.3113932E-05)
 number of electron     640.0000004 magnetization 
 augmentation part       69.7103390 magnetization 

 Broyden mixing:
  rms(total) = 0.10702E-02    rms(broyden)= 0.10700E-02
  rms(prec ) = 0.13398E-02
  weight for this iteration     100.00

 eigenvalues of (default mixing * dielectric matrix)
  average eigenvalue GAMMA=   1.5928
  6.1104  3.0199  2.4414  1.9896  1.3519  1.0900  1.0900  0.9785  0.9785  0.8793
  0.8793  0.9014  0.6564  0.7626  0.7626

 Free energy of the ion-electron system (eV)
  ---------------------------------------------------
  alpha Z        PSCENC =       784.57699423
  Ewald energy   TEWEN  =    251981.20916021
  -Hartree energ DENC   =   -299937.02692629
  -exchange      EXHF   =         0.00000000
  -V(xc)+E(xc)   XCENC  =      2488.91222730
  PAW double counting   =     59121.70830746   -58954.04978973
  entropy T*S    EENTRO =        -0.00000000
  eigenvalues    EBANDS =    -12223.16437564
  atomic energy  EATOM  =     56210.72393729
  Solvation  Ediel_sol  =         0.00000000
  ---------------------------------------------------
  free energy    TOTEN  =      -527.11046518 eV

  energy without entropy =     -527.11046518  energy(sigma->0) =     -527.11046518


--------------------------------------------------------------------------------------------------------




--------------------------------------- Iteration      1(  21)  ---------------------------------------


    POTLOK:  cpu time    1.0374: real time    1.0489
    SETDIJ:  cpu time    1.1145: real time    1.1145
     EDDAV:  cpu time  136.8950: real time  136.8960
       DOS:  cpu time    0.0012: real time    0.0012
    CHARGE:  cpu time   11.4506: real time   11.4507
    MIXING:  cpu time    0.2116: real time    0.2116
    --------------------------------------------
      LOOP:  cpu time  150.7103: real time  150.7228

 eigenvalue-minimisations  :  4240
 total energy-change (2. order) :-0.3636429E-03  (-0.1336031E-05)
 number of electron     640.0000004 magnetization 
 augmentation part       69.7105203 magnetization 

 Broyden mixing:
  rms(total) = 0.73033E-03    rms(broyden)= 0.73015E-03
  rms(prec ) = 0.95990E-03
  weight for this iteration     100.00

 eigenvalues of (default mixing * dielectric matrix)
  average eigenvalue GAMMA=   1.6009
  6.4849  2.9789  2.4587  1.6777  1.6777  1.2774  1.2774  1.0302  1.0302  0.8815
  0.8815  0.8717  0.8717  0.8567  0.6566  0.7013

 Free energy of the ion-electron system (eV)
  ---------------------------------------------------
  alpha Z        PSCENC =       784.57699423
  Ewald energy   TEWEN  =    251981.20916021
  -Hartree energ DENC   =   -299937.89830106
  -exchange      EXHF   =         0.00000000
  -V(xc)+E(xc)   XCENC  =      2488.91191453
  PAW double counting   =     59122.45828808   -58954.80214452
  entropy T*S    EENTRO =        -0.00000000
[...]
    -6.896993340 11.945942880  0.000000000     0.000000000  0.083710429  0.000000000
     0.000000000  0.000000000 27.810221070     0.000000000  0.000000000  0.035958003

  length of vectors
    13.793986680 13.793986676 27.810221070     0.083710429  0.083710429  0.035958003


 FORCES acting on ions
    electron-ion (+dipol)            ewald-force                    non-local-force                 convergence-correction
 -----------------------------------------------------------------------------------------------
   0.677E+01 0.241E+02 -.106E+04   -.636E+01 -.243E+02 0.106E+04   -.374E+00 -.253E+00 0.481E+01   0.957E-06 -.973E-04 -.102E-04
   0.454E+02 0.278E+02 -.117E+04   -.456E+02 -.278E+02 0.116E+04   -.817E-01 -.744E+00 0.414E+01   0.790E-04 0.169E-04 -.119E-04
   0.270E+02 -.759E+01 -.111E+04   -.274E+02 0.784E+01 0.110E+04   0.251E+00 -.224E+00 0.465E+01   0.936E-05 0.168E-04 0.232E-04
   -.634E+02 0.150E+02 -.108E+04   0.643E+02 -.146E+02 0.107E+04   0.897E+00 -.299E+00 0.431E+01   -.131E-03 0.577E-04 -.113E-04
   0.600E+01 0.161E+02 -.107E+04   -.643E+01 -.164E+02 0.107E+04   0.249E+00 0.112E+00 0.461E+01   0.393E-04 0.402E-04 0.102E-04
   -.651E+02 -.173E+02 -.112E+04   0.658E+02 0.176E+02 0.112E+04   0.604E+00 0.117E+00 0.409E+01   -.574E-04 0.268E-04 -.369E-04
   0.740E+01 -.193E+02 -.108E+04   -.674E+01 0.189E+02 0.108E+04   -.664E+00 0.384E+00 0.425E+01   -.976E-05 -.644E-04 -.360E-04
   0.221E+02 0.781E+01 -.101E+04   -.229E+02 -.719E+01 0.100E+04   0.636E+00 -.220E+00 0.398E+01   0.288E-04 0.837E-05 0.205E-04
   0.736E+01 -.152E+02 -.983E+03   -.723E+01 0.147E+02 0.980E+03   -.575E+00 0.644E+00 0.330E+01   -.326E-04 0.898E-05 0.324E-04
   0.352E+02 -.508E+02 -.113E+04   -.361E+02 0.519E+02 0.113E+04   0.732E-02 0.144E+00 0.367E+01   0.474E-04 -.569E-04 -.148E-04
   -.200E+02 -.133E+02 -.109E+04   0.201E+02 0.129E+02 0.109E+04   0.653E-01 0.701E+00 0.495E+01   0.173E-05 0.157E-04 0.542E-05
   -.316E+02 0.188E+02 -.105E+04   0.319E+02 -.191E+02 0.105E+04   0.170E+00 0.345E+00 0.407E+01   -.214E-04 0.397E-05 0.343E-04
   -.137E+02 -.327E+01 -.996E+03   0.136E+02 0.384E+01 0.992E+03   0.798E-01 -.235E+00 0.381E+01   0.210E-04 0.170E-05 0.430E-04
   -.231E+02 -.202E+02 -.106E+04   0.236E+02 0.203E+02 0.106E+04   -.764E-01 -.305E-01 0.430E+01   -.598E-04 0.429E-05 0.180E-04
   -.586E+01 -.408E+01 -.107E+04   0.559E+01 0.380E+01 0.106E+04   0.486E+00 0.397E+00 0.417E+01   -.827E-05 -.201E-04 0.890E-05
   0.230E+02 0.350E+01 -.112E+04   -.237E+02 -.435E+01 0.111E+04   0.105E+00 0.685E+00 0.396E+01   0.880E-04 0.408E-04 -.143E-04
   0.362E+02 0.116E+02 0.109E+04   -.366E+02 -.124E+02 -.108E+04   -.462E+00 0.317E+00 -.445E+01   -.756E-04 -.149E-04 0.251E-05
   -.309E+02 0.261E+02 0.105E+04   0.314E+02 -.275E+02 -.104E+04   0.317E+00 0.599E+00 -.406E+01   0.178E-04 0.564E-04 0.976E-05
   0.279E+02 -.265E+02 0.104E+04   -.292E+02 0.264E+02 -.103E+04   0.496E+00 0.337E+00 -.409E+01   0.759E-04 -.218E-04 0.301E-04
   0.382E+02 -.909E+01 0.112E+04   -.391E+02 0.932E+01 -.112E+04   -.152E+00 -.883E-02 -.436E+01   -.767E-05 -.136E-04 -.131E-05
   0.151E+02 0.549E+02 0.106E+04   -.154E+02 -.553E+02 -.106E+04   -.353E+00 -.624E+00 -.396E+01   -.980E-05 0.656E-04 0.163E-04
   0.346E+02 -.271E+02 0.107E+04   -.347E+02 0.282E+02 -.106E+04   -.121E+00 -.304E+00 -.431E+01   0.278E-04 -.453E-04 0.973E-05
   -.495E+02 0.155E+02 0.102E+04   0.506E+02 -.158E+02 -.102E+04   -.185E+00 -.471E+00 -.425E+01   -.472E-04 -.411E-04 0.431E-04
   0.538E+00 -.158E+02 0.120E+04   -.889E+00 0.169E+02 -.119E+04   0.366E+00 -.394E+00 -.426E+01   -.202E-06 -.588E-05 0.321E-04
   -.151E+01 -.101E+02 0.117E+04   0.161E+01 0.103E+02 -.116E+04   -.270E+00 0.179E-03 -.434E+01   -.209E-04 0.882E-05 0.223E-05
   -.417E+02 -.178E+02 0.107E+04   0.424E+02 0.184E+02 -.107E+04   0.242E+00 -.339E+00 -.388E+01   -.464E-04 -.432E-05 0.539E-04
   0.285E+02 -.235E+02 0.104E+04   -.292E+02 0.232E+02 -.104E+04   -.230E+00 0.331E+00 -.410E+01   0.506E-04 0.142E-04 0.618E-05
   -.286E+02 0.312E+02 0.109E+04   0.294E+02 -.311E+02 -.109E+04   -.193E+00 -.491E+00 -.412E+01   0.106E-04 -.243E-04 0.464E-06
   -.643E+01 0.154E+01 0.106E+04   0.737E+01 -.170E+01 -.105E+04   -.591E+00 0.512E+00 -.374E+01   0.104E-03 -.192E-04 0.518E-04
   0.251E+02 -.841E+01 0.106E+04   -.256E+02 0.838E+01 -.106E+04   0.984E-01 0.296E+00 -.446E+01   0.134E-04 -.229E-04 -.116E-04
   -.106E+02 0.972E+01 0.103E+04   0.109E+02 -.913E+01 -.103E+04   -.165E+00 -.543E+00 -.402E+01   -.670E-04 0.479E-05 -.194E-04
   0.678E+01 -.117E+01 0.104E+04   -.622E+01 0.994E+00 -.104E+04   -.616E+00 0.610E-01 -.474E+01   -.155E-04 0.858E-04 0.232E-04
   -.162E+02 0.623E+01 0.143E+04   0.161E+02 -.628E+01 -.143E+04   0.355E+00 -.329E-02 0.238E+01   0.798E-05 -.647E-05 0.350E-04
   0.187E+02 0.187E+02 0.147E+04   -.186E+02 -.186E+02 -.147E+04   -.138E+00 -.623E+00 0.180E+01   0.113E-04 -.209E-05 0.249E-04
   0.231E+02 -.436E+01 0.144E+04   -.231E+02 0.426E+01 -.144E+04   0.259E-01 0.387E+00 0.208E+01   -.824E-05 0.137E-06 0.187E-04
   0.120E+02 0.117E+02 0.145E+04   -.122E+02 -.115E+02 -.146E+04   0.290E+00 -.341E+00 0.291E+01   -.113E-04 0.843E-05 0.331E-04
   0.282E+02 -.716E+01 0.147E+04   -.281E+02 0.696E+01 -.147E+04   -.802E+00 0.655E+00 0.224E+01   -.119E-05 0.693E-05 0.258E-04
   -.157E+02 0.107E+02 0.143E+04   0.156E+02 -.107E+02 -.143E+04   0.445E+00 0.277E-01 0.202E+01   -.522E-05 -.217E-05 0.210E-04
   -.166E+01 -.103E+02 0.148E+04   0.177E+01 0.984E+01 -.148E+04   -.218E+00 0.126E+01 0.207E+01   0.327E-05 -.163E-04 0.242E-04
   0.365E+01 -.341E+01 0.149E+04   -.393E+01 0.366E+01 -.149E+04   0.586E+00 -.540E+00 0.288E+01   -.660E-05 0.676E-05 0.215E-04
   -.212E+02 -.678E+01 0.147E+04   0.210E+02 0.687E+01 -.147E+04   0.516E+00 -.162E-01 0.196E+01   -.944E-05 0.614E-05 0.210E-04
   -.191E+01 -.966E+01 0.146E+04   0.174E+01 0.983E+01 -.146E+04   0.690E+00 -.411E+00 0.228E+01   -.116E-05 -.198E-05 0.143E-04
   -.118E+02 0.296E+01 0.146E+04   0.119E+02 -.312E+01 -.146E+04   -.176E+00 0.354E+00 0.286E+01   0.517E-05 -.333E-05 0.149E-04
   0.443E+01 -.266E+01 0.144E+04   -.424E+01 0.261E+01 -.145E+04   -.644E+00 0.273E+00 0.105E+01   0.577E-05 -.387E-05 0.171E-04
   -.115E+02 -.196E+00 0.147E+04   0.116E+02 0.387E+00 -.147E+04   -.331E-01 -.539E+00 0.249E+01   0.392E-05 0.690E-05 0.280E-04
   -.167E+02 -.139E+02 0.144E+04   0.166E+02 0.137E+02 -.144E+04   0.693E+00 0.579E+00 0.253E+01   -.667E-05 0.829E-05 0.184E-04
   -.598E+01 -.146E+02 0.143E+04   0.597E+01 0.147E+02 -.143E+04   0.314E-01 0.706E-01 0.177E+01   0.595E-07 -.586E-05 0.230E-04
   -.209E+02 0.819E+01 0.147E+04   0.210E+02 -.814E+01 -.147E+04   -.682E-01 -.144E+00 0.295E+01   0.137E-04 -.257E-05 0.321E-04
   -.133E+02 0.479E+01 -.146E+04   0.132E+02 -.479E+01 0.146E+04   0.365E+00 -.189E-01 -.243E+01   -.130E-04 0.910E-06 -.191E-04
   0.108E+02 0.208E+02 -.149E+04   -.105E+02 -.208E+02 0.149E+04   -.772E+00 -.435E+00 -.181E+01   -.138E-06 -.645E-05 -.320E-04
   0.207E+02 -.280E+02 -.146E+04   -.207E+02 0.278E+02 0.146E+04   -.390E+00 0.841E+00 -.154E+01   0.360E-05 -.512E-05 -.377E-04
   0.222E+02 0.396E+01 -.145E+04   -.221E+02 -.370E+01 0.145E+04   -.646E+00 -.740E+00 -.252E+01   0.331E-06 0.492E-05 -.148E-04
   0.305E+02 -.117E+01 -.145E+04   -.303E+02 0.109E+01 0.145E+04   -.822E+00 0.338E+00 -.250E+01   -.106E-05 0.652E-05 -.245E-04
   0.181E+02 -.342E+01 -.146E+04   -.180E+02 0.326E+01 0.146E+04   -.456E+00 0.288E+00 -.232E+01   0.561E-05 -.205E-04 -.293E-04
   -.248E+02 -.155E+01 -.147E+04   0.248E+02 0.174E+01 0.147E+04   0.326E+00 -.477E+00 -.256E+01   -.350E-05 -.369E-05 -.432E-04
   0.104E+02 0.100E+02 -.145E+04   -.104E+02 -.991E+01 0.146E+04   -.360E+00 -.463E+00 -.189E+01   -.107E-05 0.147E-04 -.328E-04
   -.259E+02 0.357E+01 -.145E+04   0.257E+02 -.346E+01 0.145E+04   0.100E+01 -.359E+00 -.174E+01   -.570E-06 0.221E-06 -.204E-04
   -.254E+02 -.229E+01 -.145E+04   0.252E+02 0.225E+01 0.145E+04   0.107E+01 0.779E-01 -.171E+01   -.563E-05 -.243E-05 -.292E-04
   0.190E+02 -.184E+02 -.147E+04   -.188E+02 0.183E+02 0.148E+04   -.711E+00 0.361E+00 -.314E+01   0.145E-04 0.236E-05 -.309E-04
   0.157E+01 0.248E+02 -.146E+04   -.150E+01 -.247E+02 0.146E+04   -.352E+00 -.595E+00 -.251E+01   0.694E-05 0.973E-05 -.264E-04
   -.122E+02 0.376E+01 -.144E+04   0.120E+02 -.362E+01 0.144E+04   0.683E+00 -.375E+00 -.214E+01   0.103E-04 -.256E-05 -.266E-04
   0.806E+01 -.968E+01 -.146E+04   -.806E+01 0.942E+01 0.146E+04   -.135E+00 0.760E+00 -.273E+01   0.115E-06 -.142E-04 -.224E-04
   -.144E+02 -.897E+01 -.145E+04   0.142E+02 0.890E+01 0.145E+04   0.501E+00 0.256E+00 -.275E+01   -.110E-04 0.255E-05 -.281E-04
   0.186E+01 0.147E+02 -.146E+04   -.164E+01 -.148E+02 0.146E+04   -.747E+00 -.127E-01 -.158E+01   -.405E-05 0.108E-04 -.189E-04
   0.430E+01 -.220E+02 0.109E+02   -.418E+01 0.219E+02 -.111E+02   -.714E+00 0.525E+00 0.303E+00   -.484E-05 0.716E-05 0.621E-05
   0.227E+02 0.101E+02 -.596E+01   -.223E+02 -.100E+02 0.583E+01   -.185E+01 -.502E+00 0.314E+00   0.331E-05 -.595E-05 0.707E-05
   0.125E+02 -.226E+01 -.525E+01   -.124E+02 0.228E+01 0.503E+01   -.496E+00 -.657E-01 0.748E+00   0.248E-05 -.563E-06 0.617E-05
   -.161E+02 0.760E+00 0.142E+02   0.161E+02 -.633E+00 -.146E+02   0.198E+00 -.572E+00 0.112E+01   -.440E-05 -.407E-05 0.341E-05
   -.195E+01 0.210E+02 -.710E+01   0.179E+01 -.210E+02 0.731E+01   0.526E+00 0.262E+00 -.523E+00   -.148E-06 0.106E-04 0.420E-05
   0.287E+00 -.125E+02 0.203E+01   -.425E+00 0.123E+02 -.207E+01   0.593E+00 0.604E+00 0.147E+00   -.260E-06 -.544E-05 0.677E-05
   -.107E+02 -.344E+01 -.375E+02   0.106E+02 0.347E+01 0.377E+02   0.261E+00 0.441E-01 -.740E+00   0.328E-05 -.510E-06 0.536E-05
   0.783E-01 0.773E+01 0.186E+01   -.304E+00 -.757E+01 -.174E+01   0.722E+00 -.525E+00 -.445E+00   0.131E-05 -.160E-05 0.808E-05
   -.104E+02 0.233E+02 0.372E+02   0.102E+02 -.232E+02 -.371E+02   0.467E+00 -.125E+00 -.201E+00   -.341E-05 0.141E-05 0.127E-04
   0.418E+01 0.372E+01 0.285E+01   -.434E+01 -.348E+01 -.301E+01   0.394E+00 -.835E+00 0.494E+00   -.575E-05 -.232E-05 0.103E-04
   0.685E+01 0.691E+01 -.171E+02   -.667E+01 -.690E+01 0.171E+02   -.655E+00 0.160E+00 0.645E-01   -.458E-05 0.425E-05 0.533E-05
   -.126E+02 -.152E+02 -.777E+01   0.127E+02 0.152E+02 0.809E+01   -.165E+00 -.106E+00 -.790E+00   0.235E-05 -.688E-05 0.818E-05
   -.635E+01 0.848E+01 0.144E+02   0.612E+01 -.866E+01 -.146E+02   0.661E+00 0.771E+00 0.365E+00   0.665E-05 0.208E-05 0.111E-04
   0.835E+01 -.611E+01 0.261E+02   -.805E+01 0.622E+01 -.260E+02   -.789E+00 -.248E+00 -.130E-01   0.187E-05 0.105E-05 0.107E-04
   -.962E+01 0.401E+01 -.166E+02   0.944E+01 -.387E+01 0.166E+02   0.673E+00 -.640E+00 -.154E+00   0.211E-05 0.242E-05 0.805E-05
   0.135E+02 0.470E+01 -.123E+02   -.136E+02 -.444E+01 0.124E+02   0.230E+00 -.845E+00 -.171E+00   0.945E-06 0.103E-05 0.884E-05
 -----------------------------------------------------------------------------------------------
   -.116E+00 0.859E+00 -.831E+00   0.483E-12 0.977E-13 -.115E-11   0.119E+00 -.860E+00 0.834E+00   0.886E-05 0.251E-04 0.369E-03
 
 
 POSITION                                       TOTAL-FORCE (eV/Angst)
 -----------------------------------------------------------------------------------
      0.00460      2.07352     15.11350         0.038745     -0.480056      0.404231
     -1.73166      5.05830     15.26382        -0.276037     -0.721925     -0.740629
     -3.45757      8.02026     15.16185        -0.163160      0.018259     -0.006159
     -5.29331     10.98724     15.13385         1.739356      0.114308      0.058861
      3.46068      1.96450     15.09006        -0.177606     -0.215121      0.969006
      1.62264      4.96759     15.22393         1.287387      0.419191     -0.506841
      0.02309      8.02214     15.14938         0.004288     -0.022920      0.090941
     -1.69015     10.94809     15.06879        -0.207319      0.400559      0.169595
      6.98368      1.92474     15.06064        -0.442466      0.168923     -0.082143
      5.19600      4.85129     15.23323        -0.916096      1.236276     -0.542210
      3.46757      7.89585     15.12954         0.097229      0.325696      0.619108
      1.71263     10.93575     15.14988         0.422442      0.017726     -0.785058
     10.33846      1.95040     15.05627        -0.034338      0.331484      0.419138
      8.59665      4.92471     15.11982         0.340002      0.068199      0.409038
      6.85630      7.92059     15.11462         0.223209      0.114732      0.859255
      5.23183     10.95814     15.19846        -0.616647     -0.160719     -0.256283
      1.83758      1.03891     12.69176        -0.904825     -0.439547     -0.751754
     -0.11512      4.09388     12.71558         0.866871     -0.841018     -0.197925
     -1.68554      6.95701     12.67910        -0.778723      0.220098      0.642573
     -3.36814      9.96584     12.60916        -1.049212      0.224089     -0.044801
      5.25918      1.09326     12.66748        -0.563268     -1.035360     -0.255738
      3.39968      3.94305     12.67258        -0.220775      0.740383      0.143947
      1.68687      7.03316     12.71000         0.867656     -0.796858      0.067903
     -0.05120      9.86741     12.48674         0.014860      0.650021      1.074880
      8.67254      0.97330     12.54360        -0.167206      0.191847      0.572190
      6.74177      4.00823     12.68254         0.947625      0.212339     -0.547389
      5.21671      6.94424     12.70801        -0.914244      0.069243     -0.116121
      3.46300      9.95769     12.60961         0.593870     -0.398767      0.690112
     12.07882      0.94139     12.69888         0.352187      0.343363     -0.778762
     10.39226      3.98628     12.69239        -0.435389      0.265790     -0.257155
      8.62037      6.95726     12.72731         0.114264      0.041964     -0.533157
      6.92014      9.98732     12.76815        -0.061708     -0.112725     -1.465191
     -0.09421      2.05343     11.03477         0.291259     -0.060088      0.158738
     -1.76177      5.10204     11.01251        -0.086927     -0.561445     -0.213148
     -3.45517      7.87754     11.02988        -0.058588      0.282177     -0.096446
     -5.22288     11.03844     10.89717         0.129712     -0.222518      0.684296
      3.59185      1.90260     10.95328        -0.683617      0.449768      0.122656
      1.61472      4.95311     11.07517         0.362192      0.028596     -0.122392
      0.03366      7.74331     10.93183        -0.113841      0.850350      0.018954
     -1.76363     10.95099     10.78031         0.304955     -0.290484      0.712232
      6.83922      1.99755     10.97280         0.352889      0.069761     -0.124039
      4.97129      5.04117     10.97160         0.522360     -0.238334      0.169157
      3.45037      7.91132     10.90310        -0.095476      0.198174      0.629973
      1.77829     10.86853     11.06252        -0.454358      0.222966     -1.020225
     10.32789      2.11634     10.90675         0.070748     -0.347690      0.346127
      8.40867      4.88765     10.97398         0.535299      0.430281      0.328592
      6.89745      7.96375     11.11397         0.015086      0.107089     -0.340976
      5.13456     10.99581     10.85347         0.079772     -0.093443      0.773285
      1.62821      1.00998     16.85156         0.306500     -0.010530     -0.268899
      0.09759      4.06911     16.89777        -0.522483     -0.416944      0.178594
     -1.66385      6.93177     16.80450        -0.344273      0.709903      0.511173
     -3.27957     10.06460     16.86372        -0.494824     -0.486617     -0.362683
      5.34721      0.93095     16.79936        -0.667281      0.255800     -0.329055
      3.50645      3.87526     16.86979        -0.335716      0.127915     -0.176110
      1.69811      7.09819     16.90732         0.299496     -0.295218     -0.359065
      0.09099     10.02990     16.79496        -0.325867     -0.322882      0.138173
      8.51399      1.03910     16.73964         0.802963     -0.248576      0.273107
      6.79855      3.86171     16.76562         0.863023      0.040351      0.342101
      5.31731      6.86732     17.01493        -0.489250      0.307683     -0.877571
      3.54836     10.12583     16.90050        -0.286467     -0.473071     -0.348863
     11.97065      1.08996     16.78491         0.481807     -0.239307     -0.011446
     10.35005      3.84512     16.89637        -0.141007      0.504944     -0.516656
      8.59580      6.88422     16.87197         0.322688      0.194275     -0.518279
      7.03207      9.91337     16.77808        -0.526919     -0.060103      0.474911
     -6.86111     11.92323     13.91343        -0.595215      0.412134      0.135938
     -1.60501      3.04357     13.90331        -1.399372     -0.414042      0.186793
     -3.40431      5.98557     13.89401        -0.346293     -0.047204      0.522192
     -5.17744      8.99090     13.84439         0.214957     -0.444777      0.730733
      3.43342      0.00857     13.91834         0.364606      0.216094     -0.309644
      1.68711      2.96523     13.92006         0.453791      0.395042      0.112478
     -0.03916      6.01384     14.02538         0.192032      0.075707     -0.510710
     -1.75795      9.01372     13.87786         0.496097     -0.363426     -0.331874
      6.89363      0.00207     13.82596         0.292617     -0.015096     -0.112925
      5.13043      3.03471     13.84734         0.240870     -0.597720      0.338154
      3.48145      5.95587     13.95275        -0.477633      0.179718      0.091308
      1.71486      8.95116     13.92926        -0.107910     -0.119497     -0.471408
      3.40487     11.89303     13.82626         0.433579      0.588867      0.222546
      8.69547      2.99547     13.87677        -0.489411     -0.144640      0.070798
      6.83466      5.98429     13.94578         0.498410     -0.495272     -0.117655
      5.15975      9.02608     13.95517         0.134052     -0.588147     -0.056400
 -----------------------------------------------------------------------------------
    total drift:                                0.002067     -0.000038      0.002455


--------------------------------------------------------------------------------------------------------



  FREE ENERGIE OF THE ION-ELECTRON SYSTEM (eV)
  ---------------------------------------------------
  free  energy   TOTEN  =      -527.11208641 eV

  energy  without entropy=     -527.11208641  energy(sigma->0) =     -527.11208641
 


--------------------------------------------------------------------------------------------------------


    POTLOK:  cpu time    2.1880: real time    2.1881


--------------------------------------------------------------------------------------------------------


     LOOP+:  cpu time 5452.6372: real time 5453.0849
    4ORBIT:  cpu time    0.0000: real time    0.0000

 total amount of memory used by VASP MPI-rank0   253918. kBytes
=======================================================================

   base      :      30000. kBytes
   nonlr-proj:      18734. kBytes
   fftplans  :      72602. kBytes
   grid      :      41267. kBytes
   one-center:        108. kBytes
   wavefun   :      91207. kBytes
 
  
  
 General timing and accounting informations for this job:
 ========================================================
  
                  Total CPU time used (sec):     5502.245
                            User time (sec):     5429.584
                          System time (sec):       72.661
                         Elapsed time (sec):     5502.810
  
                   Maximum memory used (kb):      452936.
                   Average memory used (kb):           0.
  
                          Minor page faults:       403423
                          Major page faults:            0
                 Voluntary context switches:         1993
