 running on   52 total cores
 distrk:  each k-point on   52 cores,    1 groups
 distr:  one band on   13 cores,    4 groups
 using from now: INCAR     
 vasp.5.4.4.18Apr17-6-g9f103f2a35 (build Oct 31 2019 15:01:46) complex          
  
 POSCAR found type information on POSCAR  Sc Cl C 
 POSCAR found :  3 types and      80 ions
 scaLAPACK is switched off
 LDA part: xc-table for Pade appr. of Perdew
 generate k-points for:    3    3    1
 POSCAR, INCAR and KPOINTS ok, starting setup
 FFT: planning ...
 WAVECAR not read
 entering main loop
       N       E                     dE             d eps       ncg     rms          rms(c)
DAV:   1     0.121869866309E+05    0.12187E+05   -0.26825E+05  4432   0.152E+03
DAV:   2     0.173185183843E+04   -0.10455E+05   -0.10189E+05  5184   0.522E+02
DAV:   3    -0.408312267212E+03   -0.21402E+04   -0.20553E+04  6800   0.284E+02
DAV:   4    -0.644375847099E+03   -0.23606E+03   -0.23124E+03  6088   0.992E+01
DAV:   5    -0.654822685736E+03   -0.10447E+02   -0.10392E+02  6072   0.280E+01    0.697E+01
DAV:   6    -0.524401928244E+03    0.13042E+03   -0.69761E+02  5840   0.496E+01    0.299E+01
DAV:   7    -0.529018153759E+03   -0.46162E+01   -0.84319E+01  5904   0.224E+01    0.152E+01
DAV:   8    -0.526858033067E+03    0.21601E+01   -0.93528E+00  5936   0.705E+00    0.917E+00
DAV:   9    -0.526357563547E+03    0.50047E+00   -0.34843E+00  5368   0.381E+00    0.295E+00
DAV:  10    -0.526237357163E+03    0.12021E+00   -0.57171E-01  5704   0.202E+00    0.168E+00
DAV:  11    -0.526218002383E+03    0.19355E-01   -0.18549E-01  5664   0.852E-01    0.747E-01
DAV:  12    -0.526204433682E+03    0.13569E-01   -0.31935E-02  6096   0.496E-01    0.287E-01
DAV:  13    -0.526202096094E+03    0.23376E-02   -0.78937E-03  5392   0.260E-01    0.179E-01
DAV:  14    -0.526200404321E+03    0.16918E-02   -0.65163E-03  5352   0.155E-01    0.165E-01
DAV:  15    -0.526201883295E+03   -0.14790E-02   -0.18080E-03  5400   0.899E-02    0.104E-01
DAV:  16    -0.526204078138E+03   -0.21948E-02   -0.10347E-03  5936   0.532E-02    0.538E-02
DAV:  17    -0.526207575506E+03   -0.34974E-02   -0.69801E-04  4928   0.501E-02    0.336E-02
DAV:  18    -0.526209601492E+03   -0.20260E-02   -0.23400E-04  4888   0.261E-02    0.245E-02
DAV:  19    -0.526210778783E+03   -0.11773E-02   -0.12854E-04  4928   0.187E-02    0.158E-02
DAV:  20    -0.526211918848E+03   -0.11401E-02   -0.49050E-05  4392   0.134E-02    0.111E-02
DAV:  21    -0.526212329604E+03   -0.41076E-03   -0.16991E-05  4224   0.771E-03    0.827E-03
DAV:  22    -0.526212691113E+03   -0.36151E-03   -0.42658E-06  3768   0.465E-03    0.514E-03
DAV:  23    -0.526213303376E+03   -0.61226E-03   -0.16815E-05  3560   0.497E-03    0.396E-03
DAV:  24    -0.526213473833E+03   -0.17046E-03   -0.41643E-06  3832   0.334E-03    0.371E-03
DAV:  25    -0.526213552361E+03   -0.78528E-04   -0.14704E-06  2992   0.241E-03    0.211E-03
DAV:  26    -0.526213640165E+03   -0.87804E-04   -0.27031E-06  3216   0.238E-03    0.257E-03
DAV:  27    -0.526213655719E+03   -0.15554E-04   -0.28999E-07  2656   0.177E-03    0.186E-03
DAV:  28    -0.526213670462E+03   -0.14744E-04   -0.32405E-07  2696   0.143E-03    0.684E-04
DAV:  29    -0.526213680533E+03   -0.10070E-04   -0.31849E-07  2664   0.143E-03    0.652E-04
DAV:  30    -0.526213689612E+03   -0.90799E-05   -0.33302E-07  2680   0.139E-03    0.688E-04
DAV:  31    -0.526213693381E+03   -0.37689E-05   -0.22091E-07  2552   0.124E-03    0.295E-04
DAV:  32    -0.526213695517E+03   -0.21351E-05   -0.16792E-07  2464   0.866E-04    0.373E-04
DAV:  33    -0.526213696406E+03   -0.88920E-06   -0.10662E-07  2472   0.916E-04
   1 F= -.52621370E+03 E0= -.52621370E+03  d E =-.149113E-22
