 vasp.5.4.4.18Apr17-6-g9f103f2a35 (build Oct 31 2019 15:01:46) complex          
  
 executed on             LinuxIFC date 2024.04.29  20:49:33
 running on   52 total cores
 distrk:  each k-point on   52 cores,    1 groups
 distr:  one band on NCORES_PER_BAND=  13 cores,    4 groups


--------------------------------------------------------------------------------------------------------


 INCAR:
 POTCAR:    PAW_PBE Ca_sv 06Sep2000               
 POTCAR:    PAW_PBE Si 05Jan2001                  
 POTCAR:    PAW_PBE O 08Apr2002                   
 POTCAR:    PAW_PBE Ca_sv 06Sep2000               
   SHA256 =  a47365830e737f14e0e6c5cf1ed81b94e081eecf0a33df105380881bc9da05d5 Ca
   COPYR  = (c) Copyright 06Sep2000 Georg Kresse                                
   COPYR  = This file is part of the software VASP. Any use, copying, and all ot
   COPYR  = If you do not have a valid VASP license, you may not use, copy or di
   VRHFIN =Ca: 3s3p4s                                                           
   LEXCH  = PE                                                                  
   EATOM  =  1006.0909 eV,   73.9456 Ry                                         
                                                                                
   TITEL  = PAW_PBE Ca_sv 06Sep2000                                             
   LULTRA =        F    use ultrasoft PP ?                                      
   IUNSCR =        1    unscreen: 0-lin 1-nonlin 2-no                           
   RPACOR =    2.000    partial core radius                                     
   POMASS =   40.078; ZVAL   =   10.000    mass and valenz                      
   RCORE  =    2.300    outmost cutoff radius                                   
   RWIGS  =    2.500; RWIGS  =    1.323    wigner-seitz radius (au A)           
   ENMAX  =  266.622; ENMIN  =  199.967 eV                                      
   RCLOC  =    1.808    cutoff for local pot                                    
   LCOR   =        T    correct aug charges                                     
   LPAW   =        T    paw PP                                                  
   EAUG   =  420.852                                                            
   RMAX   =    2.359    core radius for proj-oper                               
   RAUG   =    1.300    factor for augmentation sphere                          
   RDEP   =    2.392    radius for radial grids                                 
   RDEPT  =    1.987    core radius for aug-charge                              
                                                                                
   Atomic configuration                                                         
    7 entries                                                                   
     n  l   j            E        occ.                                          
     1  0  0.50     -3949.1705   2.0000                                         
     2  0  0.50      -414.3434   2.0000                                         
     2  1  1.50      -334.7047   6.0000                                         
     3  0  0.50       -47.0896   2.0000                                         
     4  0  0.50        -3.7663   2.0000                                         
     3  1  1.50       -28.0061   6.0000                                         
     3  2  1.50        -4.0817   0.0000                                         
   Description                                                                  
     l       E           TYP  RCUT    TYP  RCUT                                 
     0    -47.0896403     23  2.300                                             
     0     -3.7663320     23  2.300                                             
     1    -28.0060855     23  2.300                                             
     1      6.8029130     23  2.300                                             
     2     -4.0817478     23  2.300                                             
     2      0.4464412     23  2.300                                             
  local pseudopotential read in
  partial core-charges read in
  partial kinetic energy density read in
  atomic valenz-charges read in
  non local Contribution for L=           0  read in
    real space projection operators read in
  non local Contribution for L=           0  read in
    real space projection operators read in
  non local Contribution for L=           1  read in
    real space projection operators read in
  non local Contribution for L=           1  read in
    real space projection operators read in
  non local Contribution for L=           2  read in
    real space projection operators read in
  non local Contribution for L=           2  read in
    real space projection operators read in
    PAW grid and wavefunctions read in
 
   number of l-projection  operators is LMAX  =           6
   number of lm-projection operators is LMMAX =          18
 
 POTCAR:    PAW_PBE Si 05Jan2001                  
   SHA256 =  79d9987ad8750f624c4d6acb2a16d13abf6a777132adc04dc6c8399be72b42bb Si
   COPYR  = (c) Copyright 05Jan2001 Georg Kresse                                
   COPYR  = This file is part of the software VASP. Any use, copying, and all ot
   COPYR  = If you do not have a valid VASP license, you may not use, copy or di
   VRHFIN =Si: s2p2                                                             
   LEXCH  = PE                                                                  
   EATOM  =   103.0669 eV,    7.5752 Ry                                         
                                                                                
   TITEL  = PAW_PBE Si 05Jan2001                                                
   LULTRA =        F    use ultrasoft PP ?                                      
   IUNSCR =        1    unscreen: 0-lin 1-nonlin 2-no                           
   RPACOR =    1.500    partial core radius                                     
   POMASS =   28.085; ZVAL   =    4.000    mass and valenz                      
   RCORE  =    1.900    outmost cutoff radius                                   
   RWIGS  =    2.480; RWIGS  =    1.312    wigner-seitz radius (au A)           
   ENMAX  =  245.345; ENMIN  =  184.009 eV                                      
   ICORE  =        2    local potential                                         
   LCOR   =        T    correct aug charges                                     
   LPAW   =        T    paw PP                                                  
   EAUG   =  322.069                                                            
   DEXC   =    0.000                                                            
   RMAX   =    1.950    core radius for proj-oper                               
   RAUG   =    1.300    factor for augmentation sphere                          
   RDEP   =    1.993    radius for radial grids                                 
   RDEPT  =    1.837    core radius for aug-charge                              
                                                                                
   Atomic configuration                                                         
    6 entries                                                                   
     n  l   j            E        occ.                                          
     1  0  0.50     -1785.8828   2.0000                                         
     2  0  0.50      -139.4969   2.0000                                         
     2  1  1.50       -95.5546   6.0000                                         
     3  0  0.50       -10.8127   2.0000                                         
     3  1  0.50        -4.0811   2.0000                                         
     3  2  1.50        -4.0817   0.0000                                         
   Description                                                                  
     l       E           TYP  RCUT    TYP  RCUT                                 
     0    -10.8127223     23  1.900                                             
     0     -7.6451159     23  1.900                                             
     1     -4.0811372     23  1.900                                             
     1      2.4879257     23  1.900                                             
     2     -4.0817478      7  1.900                                             
  local pseudopotential read in
  partial core-charges read in
  partial kinetic energy density read in
  atomic valenz-charges read in
  non local Contribution for L=           0  read in
    real space projection operators read in
  non local Contribution for L=           0  read in
    real space projection operators read in
  non local Contribution for L=           1  read in
    real space projection operators read in
  non local Contribution for L=           1  read in
    real space projection operators read in
    PAW grid and wavefunctions read in
 
   number of l-projection  operators is LMAX  =           4
   number of lm-projection operators is LMMAX =           8
 
 POTCAR:    PAW_PBE O 08Apr2002                   
   SHA256 =  818f92134a0a090dccd8ba1447fa70422a3b330e708bb4f08108d8ae51209ddf O/
   COPYR  = (c) Copyright 08Apr2002 Georg Kresse                                
   COPYR  = This file is part of the software VASP. Any use, copying, and all ot
   COPYR  = If you do not have a valid VASP license, you may not use, copy or di
   VRHFIN =O: s2p4                                                              
   LEXCH  = PE                                                                  
   EATOM  =   432.3788 eV,   31.7789 Ry                                         
                                                                                
   TITEL  = PAW_PBE O 08Apr2002                                                 
   LULTRA =        F    use ultrasoft PP ?                                      
   IUNSCR =        1    unscreen: 0-lin 1-nonlin 2-no                           
   RPACOR =    1.200    partial core radius                                     
   POMASS =   16.000; ZVAL   =    6.000    mass and valenz                      
   RCORE  =    1.520    outmost cutoff radius                                   
   RWIGS  =    1.550; RWIGS  =    0.820    wigner-seitz radius (au A)           
   ENMAX  =  400.000; ENMIN  =  300.000 eV                                      
   ICORE  =        2    local potential                                         
   LCOR   =        T    correct aug charges                                     
   LPAW   =        T    paw PP                                                  
   EAUG   =  605.392                                                            
   DEXC   =    0.000                                                            
   RMAX   =    1.553    core radius for proj-oper                               
   RAUG   =    1.300    factor for augmentation sphere                          
   RDEP   =    1.550    radius for radial grids                                 
   RDEPT  =    1.329    core radius for aug-charge                              
                                                                                
   Atomic configuration                                                         
    4 entries                                                                   
     n  l   j            E        occ.                                          
     1  0  0.50      -514.6923   2.0000                                         
     2  0  0.50       -23.9615   2.0000                                         
     2  1  0.50        -9.0305   4.0000                                         
     3  2  1.50        -9.5241   0.0000                                         
   Description                                                                  
     l       E           TYP  RCUT    TYP  RCUT                                 
     0    -23.9615318     23  1.200                                             
     0     -9.5240782     23  1.200                                             
     1     -9.0304911     23  1.520                                             
     1      8.1634956     23  1.520                                             
     2     -9.5240782      7  1.500                                             
  local pseudopotential read in
  partial core-charges read in
  partial kinetic energy density read in
  kinetic energy density of atom read in
  atomic valenz-charges read in
  non local Contribution for L=           0  read in
    real space projection operators read in
  non local Contribution for L=           0  read in
    real space projection operators read in
  non local Contribution for L=           1  read in
    real space projection operators read in
  non local Contribution for L=           1  read in
    real space projection operators read in
    PAW grid and wavefunctions read in
 
   number of l-projection  operators is LMAX  =           4
   number of lm-projection operators is LMMAX =           8
 
 Optimization of the real space projectors (new method)

 maximal supplied QI-value         = 16.25
 optimisation between [QCUT,QGAM] = [ 12.51, 25.03] = [ 43.85,175.40] Ry 
 Optimized for a Real-space Cutoff    1.47 Angstroem

   l    n(q)    QCUT    max X(q) W(low)/X(q) W(high)/X(q)  e(spline) 
   0     11    12.514    11.817    0.25E-04    0.32E-05    0.87E-07
   0     11    12.514     8.461    0.39E-04    0.59E-05    0.18E-06
   1     11    12.514     3.957    0.97E-05    0.57E-05    0.28E-07
   1     11    12.514     4.314    0.42E-04    0.14E-04    0.23E-06
   2     10    12.514    14.565    0.79E-04    0.50E-03    0.16E-05
   2     10    12.514    14.552    0.75E-04    0.48E-03    0.15E-05
 Optimization of the real space projectors (new method)

 maximal supplied QI-value         = 19.84
 optimisation between [QCUT,QGAM] = [ 12.50, 25.00] = [ 43.76,175.03] Ry 
 Optimized for a Real-space Cutoff    1.16 Angstroem

   l    n(q)    QCUT    max X(q) W(low)/X(q) W(high)/X(q)  e(spline) 
   0      9    12.501   159.560    0.10E-03    0.83E-04    0.71E-07
   0      9    12.501   115.863    0.99E-04    0.81E-04    0.70E-07
   1      8    12.501    88.339    0.20E-03    0.25E-03    0.76E-07
   1      8    12.501    48.592    0.20E-03    0.24E-03    0.75E-07
 Optimization of the real space projectors (new method)

 maximal supplied QI-value         = 24.76
 optimisation between [QCUT,QGAM] = [ 12.38, 25.00] = [ 42.90,175.06] Ry 
 Optimized for a Real-space Cutoff    1.16 Angstroem

   l    n(q)    QCUT    max X(q) W(low)/X(q) W(high)/X(q)  e(spline) 
   0      9    12.378    20.381    0.16E-03    0.67E-05    0.31E-06
   0      9    12.378    15.268    0.17E-03    0.81E-05    0.33E-06
   1      8    12.378     5.964    0.20E-03    0.16E-03    0.30E-06
   1      8    12.378     5.382    0.18E-03    0.14E-03    0.26E-06
  PAW_PBE Ca_sv 06Sep2000               :
 energy of atom  1       EATOM=-1006.0909
 kinetic energy error for atom=    0.0012 (will be added to EATOM!!)
  PAW_PBE Si 05Jan2001                  :
 energy of atom  2       EATOM= -103.0669
 kinetic energy error for atom=    0.0003 (will be added to EATOM!!)
  PAW_PBE O 08Apr2002                   :
 energy of atom  3       EATOM= -432.3788
 kinetic energy error for atom=    0.0168 (will be added to EATOM!!)
 
 
 POSCAR: Ca Si  O                                
  positions in direct lattice
  No initial velocities read in
 exchange correlation table for  LEXCH =        8
   RHO(1)=    0.500       N(1)  =     2000
   RHO(2)=  100.500       N(2)  =     4000
 


--------------------------------------------------------------------------------------------------------


 ion  position               nearest neighbor table
   1  0.650  0.545  0.011-  82 1.87  71 2.16  56 2.28 128 2.34  46 2.90   6 3.12  29 3.14
   2  0.439  0.702  0.075-  68 1.79  84 2.14  86 2.54
   3  0.631  0.303  0.779- 103 1.82  72 2.15 115 2.33  53 3.03  36 3.10
   4  0.488  0.007  0.315-  59 2.18  77 2.19  86 2.41  94 2.49  80 2.51  30 2.94
   5  0.073  0.516  0.913-  61 2.03 125 2.07 135 2.10  62 2.22  83 2.49  31 2.50  15 3.09
   6  0.827  0.670  0.871- 110 2.09 101 2.42 109 2.45  82 2.51  25 2.96   1 3.12
   7  0.283  0.517  0.391- 130 2.21 111 2.27  69 2.36  70 2.51
   8  0.383  0.438  0.669- 104 2.01  70 2.24  69 2.33 102 2.49 107 2.51  33 2.70  38 2.85  32 2.92

   9  0.910  0.295  0.649- 103 2.13 126 2.28  60 2.42  58 2.53  42 2.78  23 3.15
  10  0.738  0.915  0.297- 122 2.15  77 2.16 106 2.35  46 2.92
  11  0.961  0.727  0.160- 106 2.02  88 2.14 129 2.43 133 2.49  61 2.53  46 2.87  14 3.06
  12  0.041  0.466  0.196-  95 2.05  61 2.10  89 2.14  31 2.89
  13  0.626  0.643  0.452-  74 2.06  81 2.22 111 2.31 120 2.45  19 2.83
  14  0.961  0.980  0.169- 116 1.97  92 2.37  88 2.44 106 2.54  11 3.06
  15  0.191  0.294  0.866- 104 2.02  73 2.15 125 2.31  58 2.36 131 2.45  20 2.81  48 2.93   5 3.09

  16  0.729  0.094  0.521-  77 2.34  67 2.48 127 2.57  37 2.87
  17  0.648  0.931  0.988- 117 2.05  57 2.16 128 2.35  46 3.13
  18  0.404  0.437  0.999-  72 2.05  68 2.37 125 2.44  71 2.57 132 2.57  53 2.81  31 2.94
  19  0.592  0.414  0.486- 105 1.97 120 2.19  70 2.23 112 2.38  38 2.80  13 2.83  34 3.13
  20  0.093  0.226  0.065- 131 1.83  91 2.12  92 2.50  15 2.81
  21  0.887  0.062  0.848-  60 2.17 117 2.23  91 2.42  49 2.87
  22  0.316  0.909  0.842-  90 1.92 134 2.07  85 2.55  47 2.93  51 3.00
  23  0.150  0.320  0.553- 130 2.07 126 2.16  58 2.22  96 2.40  44 2.81   9 3.15
  24  0.007  0.773  0.539-  65 1.89  64 1.99 124 2.19  98 2.56  52 2.88  28 3.07  27 3.14
  25  0.772  0.780  0.659- 110 2.26  74 2.56   6 2.96
  26  0.767  0.409  0.216-  55 2.12  63 2.18  66 2.21 120 2.39 133 2.54  34 3.05  30 3.16
  27  0.227  0.911  0.546- 124 2.08  65 2.13  80 2.27  93 2.36  87 2.45  43 3.01  24 3.14
  28  0.071  0.794  0.784- 134 1.58 101 1.60 124 1.70  83 2.08  47 2.89  24 3.07
  29  0.600  0.586  0.760- 110 1.57 112 1.69  71 1.81 102 2.08  32 2.37   1 3.14
  30  0.647  0.189  0.288-  66 1.56  77 1.63 121 1.70  59 1.82   4 2.94  26 3.16
  31  0.209  0.569  0.060-  95 1.40 135 1.52  68 1.73 125 1.80   5 2.50  12 2.89  47 2.91  18 2.94

  32  0.416  0.637  0.802-  85 1.46 123 1.49 102 1.65  71 1.85  29 2.37  33 2.82   8 2.92
  33  0.215  0.582  0.697-  83 1.52  69 1.59 123 1.79 104 2.35   8 2.70  32 2.82
  34  0.524  0.472  0.242-  84 1.48 120 1.51  78 1.71  56 2.04  26 3.05  19 3.13  54 3.14
  35  0.220  0.013  0.270-  80 1.71  92 1.73 119 1.83  75 2.24  43 2.95  44 3.02
  36  0.845  0.374  0.901-  62 1.63  82 1.74 103 1.92  55 2.23 115 2.32  49 2.79   3 3.10
  37  0.961  0.052  0.546-  98 1.45  87 1.52  60 1.74 127 1.82  16 2.87  50 2.91  48 3.04
  38  0.412  0.270  0.507-  70 1.44 107 1.57 105 1.67 114 1.83  19 2.80   8 2.85  45 3.01
  39  0.410  0.758  0.351- 118 1.57  86 1.72 111 1.95  93 1.99  43 2.82  41 2.95
  40  0.577  0.019  0.734-  67 1.57 113 1.61  99 1.69  57 1.76  45 3.05  41 3.07
  41  0.501  0.855  0.555-  74 1.49  93 1.53  94 1.62 113 1.77  39 2.95  40 3.07
  42  0.910  0.516  0.585- 109 1.63 126 1.64  64 1.81  81 1.92  52 2.53   9 2.78
  43  0.178  0.783  0.338-  65 1.52 118 1.53 129 1.60 119 1.65  39 2.82  35 2.95  27 3.01
  44  0.205  0.253  0.338- 130 1.54  76 1.62  96 1.65 114 1.76  50 2.75  23 2.81  54 2.95  35 3.02

  45  0.369  0.160  0.727-  99 1.70 107 1.74  73 1.74  79 1.79  38 3.01  40 3.05  48 3.06
  46  0.725  0.734  0.138- 122 1.55 106 1.61 133 1.70 128 1.73  11 2.87   1 2.90  10 2.92  17 3.13

  47  0.170  0.798  0.001-  97 1.42 134 1.73  88 1.80 135 1.82  28 2.89  31 2.91  22 2.93
  48  0.122  0.105  0.732-  58 1.58  79 1.85 108 1.86  87 2.10  60 2.41  15 2.93  37 3.04  45 3.06

  49  0.811  0.189  0.033-  91 1.60  55 1.69 115 1.79 117 2.01 121 2.17  36 2.79  21 2.87  53 3.03

  50  0.985  0.199  0.358- 127 1.54  96 1.65  89 1.80 116 1.82  44 2.75  37 2.91
  51  0.329  0.093  0.008- 131 1.57  90 1.71  75 1.75 132 2.30  22 3.00  54 3.09
  52  0.893  0.616  0.401- 100 1.44  63 1.52  64 1.59  81 1.90  42 2.53  24 2.88
  53  0.581  0.288  0.024-  56 1.62 115 1.81 132 1.83  72 1.83 121 2.19  18 2.81   3 3.03  54 3.03
                            49 3.03
  54  0.404  0.248  0.196-  78 1.66  76 1.68  59 1.71 132 1.74  75 2.32  44 2.95  53 3.03  51 3.09
                            34 3.14
  55  0.824  0.321  0.076-  49 1.69  26 2.12  36 2.23
  56  0.585  0.395  0.105-  53 1.62  34 2.04   1 2.28
  57  0.630  0.058  0.864-  40 1.76  17 2.16
  58  0.100  0.231  0.705-  48 1.58  23 2.22  15 2.36   9 2.53
  59  0.496  0.184  0.282-  54 1.71  30 1.82   4 2.18
  60  0.931  0.099  0.678-  37 1.74  21 2.17  48 2.41   9 2.42
  61  0.987  0.548  0.053-   5 2.03  12 2.10  11 2.53
  62  0.971  0.375  0.854-  36 1.63   5 2.22
  63  0.853  0.525  0.324-  52 1.52  26 2.18
  64  0.981  0.616  0.499-  52 1.59  42 1.81  24 1.99
  65  0.117  0.825  0.440-  43 1.52  24 1.89  27 2.13
  66  0.702  0.293  0.341-  30 1.56  26 2.21
  67  0.698  0.992  0.696-  40 1.57  16 2.48
  68  0.334  0.619  0.011-  31 1.73   2 1.79  18 2.37
  69  0.236  0.525  0.580-  33 1.59   8 2.33   7 2.36
  70  0.409  0.388  0.493-  38 1.44  19 2.23   8 2.24   7 2.51
  71  0.524  0.571  0.887-  29 1.81  32 1.85   1 2.16  18 2.57
  72  0.534  0.376  0.910-  53 1.83  18 2.05   3 2.15
  73  0.361  0.248  0.841-  45 1.74  15 2.15
  74  0.584  0.764  0.564-  41 1.49  13 2.06  25 2.56
  75  0.349  0.070  0.149-  51 1.75  35 2.24  54 2.32
  76  0.267  0.262  0.219-  44 1.62  54 1.68
  77  0.656  0.067  0.343-  30 1.63  10 2.16   4 2.19  16 2.34
  78  0.429  0.368  0.256-  54 1.66  34 1.71
  79  0.264  0.062  0.693-  45 1.79  48 1.85
  80  0.295  0.984  0.387-  35 1.71  27 2.27   4 2.51
  81  0.792  0.600  0.520-  52 1.90  42 1.92  13 2.22
  82  0.749  0.482  0.910-  36 1.74   1 1.87   6 2.51
  83  0.111  0.631  0.747-  33 1.52  28 2.08   5 2.49
  84  0.505  0.571  0.172-  34 1.48   2 2.14
  85  0.448  0.744  0.846-  32 1.46  22 2.55
  86  0.478  0.821  0.243-  39 1.72   4 2.41   2 2.54
  87  0.084  0.053  0.571-  37 1.52  48 2.10  27 2.45
  88  0.034  0.839  0.044-  47 1.80  11 2.14  14 2.44
  89  0.978  0.317  0.268-  50 1.80  12 2.14
  90  0.406  0.995  0.940-  51 1.71  22 1.92
  91  0.938  0.160  0.015-  49 1.60  20 2.12  21 2.42
  92  0.112  0.093  0.222-  35 1.73  14 2.37  20 2.50
  93  0.392  0.816  0.504-  41 1.53  39 1.99  27 2.36
  94  0.540  0.976  0.512-  41 1.62   4 2.49
  95  0.180  0.560  0.172-  31 1.40  12 2.05
  96  0.110  0.187  0.411-  50 1.65  44 1.65  23 2.40
  97  0.239  0.824  0.093-  47 1.42
  98  0.917  0.958  0.485-  37 1.45  24 2.56
  99  0.507  0.138  0.716-  40 1.69  45 1.70
 100  0.831  0.706  0.356-  52 1.44
 101  0.946  0.821  0.816-  28 1.60   6 2.42
 102  0.459  0.630  0.672-  32 1.65  29 2.08   8 2.49
 103  0.780  0.314  0.768-   3 1.82  36 1.92   9 2.13
 104  0.240  0.395  0.741-   8 2.01  15 2.02  33 2.35
 105  0.550  0.259  0.513-  38 1.67  19 1.97
 106  0.824  0.822  0.150-  46 1.61  11 2.02  10 2.35  14 2.54
 107  0.340  0.243  0.612-  38 1.57  45 1.74   8 2.51
 108  0.096  0.998  0.840-  48 1.86
 109  0.887  0.594  0.692-  42 1.63   6 2.45
 110  0.675  0.688  0.789-  29 1.57   6 2.09  25 2.26
 111  0.439  0.616  0.423-  39 1.95   7 2.27  13 2.31
 112  0.639  0.502  0.655-  29 1.69  19 2.38
 113  0.487  0.943  0.672-  40 1.61  41 1.77
 114  0.332  0.209  0.395-  44 1.76  38 1.83
 115  0.705  0.252  0.950-  49 1.79  53 1.81  36 2.32   3 2.33
 116  0.928  0.073  0.298-  50 1.82  14 1.97
 117  0.786  0.028  0.999-  49 2.01  17 2.05  21 2.23
 118  0.289  0.722  0.322-  43 1.53  39 1.57
 119  0.160  0.877  0.241-  43 1.65  35 1.83
 120  0.619  0.487  0.322-  34 1.51  19 2.19  26 2.39  13 2.45
 121  0.684  0.221  0.156-  30 1.70  49 2.17  53 2.19
 122  0.656  0.768  0.240-  46 1.55  10 2.15
 123  0.301  0.595  0.816-  32 1.49  33 1.79
 124  0.120  0.844  0.662-  28 1.70  27 2.08  24 2.19
 125  0.202  0.436  0.992-  31 1.80   5 2.07  15 2.31  18 2.44
 126  0.005  0.425  0.551-  42 1.64  23 2.16   9 2.28
 127  0.919  0.169  0.462-  50 1.54  37 1.82  16 2.57
 128  0.663  0.739  0.010-  46 1.73   1 2.34  17 2.35
 129  0.102  0.684  0.297-  43 1.60  11 2.43
 130  0.180  0.366  0.391-  44 1.54  23 2.07   7 2.21
 131  0.228  0.173  0.024-  51 1.57  20 1.83  15 2.45
 132  0.443  0.237  0.058-  54 1.74  53 1.83  51 2.30  18 2.57
 133  0.790  0.613  0.168-  46 1.70  11 2.49  26 2.54
 134  0.177  0.810  0.859-  28 1.58  47 1.73  22 2.07
 135  0.136  0.652  0.001-  31 1.52  47 1.82   5 2.10
 

IMPORTANT INFORMATION: All symmetrisations will be switched off!
NOSYMM: (Re-)initialisation of all symmetry stuff for point group C_1.

 
 

Automatic generation of k-mesh.
 generate k-points for:    2    2    2
Space group operators:
 irot       det(A)        alpha          n_x          n_y          n_z        tau_x        tau_y        tau_z
    1     1.000000     0.000000     1.000000     0.000000     0.000000     0.000000     0.000000     0.000000
 
 Subroutine IBZKPT returns following result:
 ===========================================
 
 Found      8 irreducible k-points:
 
 Following reciprocal coordinates:
            Coordinates               Weight
  0.000000  0.000000  0.000000      1.000000
  0.500000  0.000000  0.000000      1.000000
  0.000000  0.500000  0.000000      1.000000
  0.500000  0.500000  0.000000      1.000000
  0.000000  0.000000  0.500000      1.000000
  0.500000  0.000000  0.500000      1.000000
  0.000000  0.500000  0.500000      1.000000
  0.500000  0.500000  0.500000      1.000000
 
 Following cartesian coordinates:
            Coordinates               Weight
  0.000000  0.000000  0.000000      1.000000
  0.041344  0.000000  0.000000      1.000000
  0.000000  0.041344  0.000000      1.000000
  0.041344  0.041344  0.000000      1.000000
  0.000000  0.000000  0.041344      1.000000
  0.041344  0.000000  0.041344      1.000000
  0.000000  0.041344  0.041344      1.000000
  0.041344  0.041344  0.041344      1.000000
 


--------------------------------------------------------------------------------------------------------




 Dimension of arrays:
   k-points           NKPTS =      8   k-points in BZ     NKDIM =      8   number of bands    NBANDS=    520
   number of dos      NEDOS =    301   number of ions     NIONS =    135
   non local maximal  LDIM  =      6   non local SUM 2l+1 LMDIM =     18
   total plane-waves  NPLWV = 941192
   max r-space proj   IRMAX =   7140   max aug-charges    IRDMAX= 203274
   dimension x,y,z NGX =    98 NGY =   98 NGZ =   98
   dimension x,y,z NGXF=   196 NGYF=  196 NGZF=  196
   support grid    NGXF=   392 NGYF=  392 NGZF=  392
   ions per type =              27  27  81
   NGX,Y,Z   is equivalent  to a cutoff of  13.47, 13.47, 13.47 a.u.
   NGXF,Y,Z  is equivalent  to a cutoff of  26.94, 26.94, 26.94 a.u.

 SYSTEM =  unknown system                          
 POSCAR =  Ca Si  O                                

 Startparameter for this run:
   NWRITE =      2    write-flag & timer
   PREC   = a         normal or accurate (medium, high low for compatibility)
   ISTART =      0    job   : 0-new  1-cont  2-samecut
   ICHARG =      2    charge: 1-file 2-atom 10-const
   ISPIN  =      1    spin polarized calculation?
   LNONCOLLINEAR =      F non collinear calculations
   LSORBIT =      F    spin-orbit coupling
   INIWAV =      1    electr: 0-lowe 1-rand  2-diag
   LASPH  =      F    aspherical Exc in radial PAW
   METAGGA=      F    non-selfconsistent MetaGGA calc.

 Electronic Relaxation 1
   ENCUT  =  600.0 eV  44.10 Ry    6.64 a.u.  24.15 24.15 24.15*2*pi/ulx,y,z
   ENINI  =  600.0     initial cutoff
   ENAUG  =  605.4 eV  augmentation charge cutoff
   NELM   =     60;   NELMIN=  2; NELMDL= -5     # of ELM steps 
   EDIFF  = 0.1E-05   stopping-criterion for ELM
   LREAL  =      T    real-space projection
   NLSPLINE    = F    spline interpolate recip. space projectors
   LCOMPAT=      F    compatible to vasp.4.4
   GGA_COMPAT  = T    GGA compatible to vasp.4.4-vasp.4.6
   LMAXPAW     = -100 max onsite density
   LMAXMIX     =    2 max onsite mixed and CHGCAR
   VOSKOWN=      0    Vosko Wilk Nusair interpolation
   ROPT   =   -0.00025  -0.00025  -0.00025
 Ionic relaxation
   EDIFFG = -.1E-01   stopping-criterion for IOM
   NSW    =      1    number of steps for IOM
   NBLOCK =      1;   KBLOCK =      1    inner block; outer block 
   IBRION =     -1    ionic relax: 0-MD 1-quasi-New 2-CG
   NFREE  =      0    steps in history (QN), initial steepest desc. (CG)
   ISIF   =      2    stress and relaxation
   IWAVPR =     10    prediction:  0-non 1-charg 2-wave 3-comb
   ISYM   =      0    0-nonsym 1-usesym 2-fastsym
   LCORR  =      T    Harris-Foulkes like correction to forces

   POTIM  = 1.0000    time-step for ionic-motion
   TEIN   =    0.0    initial temperature
   TEBEG  =    0.0;   TEEND  =   0.0 temperature during run
   SMASS  =  -3.00    Nose mass-parameter (am)
   estimated Nose-frequenzy (Omega)   =  0.10E-29 period in steps =****** mass=  -0.334E-26a.u.
   SCALEE = 1.0000    scale energy and forces
   NPACO  =    256;   APACO  = 16.0  distance and # of slots for P.C.
   PSTRESS=    0.0 pullay stress

  Mass of Ions in am
   POMASS =  40.08 28.09 16.00
  Ionic Valenz
   ZVAL   =  10.00  4.00  6.00
  Atomic Wigner-Seitz radii
   RWIGS  =  -1.00 -1.00 -1.00
  virtual crystal weights 
   VCA    =   1.00  1.00  1.00
   NELECT =     864.0000    total number of electrons
   NUPDOWN=      -1.0000    fix difference up-down

 DOS related values:
   EMIN   =  10.00;   EMAX   =-10.00  energy-range for DOS
   EFERMI =   0.00
   ISMEAR =     0;   SIGMA  =   0.05  broadening in eV -4-tet -1-fermi 0-gaus

 Electronic relaxation 2 (details)
   IALGO  =     38    algorithm
   LDIAG  =      T    sub-space diagonalisation (order eigenvalues)
   LSUBROT=      F    optimize rotation matrix (better conditioning)
   TURBO    =      0    0=normal 1=particle mesh
   IRESTART =      0    0=no restart 2=restart with 2 vectors
   NREBOOT  =      0    no. of reboots
   NMIN     =      0    reboot dimension
   EREF     =   0.00    reference energy to select bands
   IMIX   =      4    mixing-type and parameters
     AMIX     =   0.40;   BMIX     =  1.00
     AMIX_MAG =   1.60;   BMIX_MAG =  1.00
     AMIN     =   0.10
     WC   =   100.;   INIMIX=   1;  MIXPRE=   1;  MAXMIX= -45

 Intra band minimization:
   WEIMIN = 0.0000     energy-eigenvalue tresh-hold
   EBREAK =  0.48E-09  absolut break condition
   DEPER  =   0.30     relativ break condition  

   TIME   =   0.40     timestep for ELM

  volume/ion in A,a.u.               =      13.10        88.42
  Fermi-wavevector in a.u.,A,eV,Ry     =   1.289289  2.436404 22.616517  1.662267
  Thomas-Fermi vector in A             =   2.421191
 
 Write flags
   LWAVE        =      F    write WAVECAR
   LDOWNSAMPLE  =      F    k-point downsampling of WAVECAR
   LCHARG       =      F    write CHGCAR
   LVTOT        =      F    write LOCPOT, total local potential
   LVHAR        =      F    write LOCPOT, Hartree potential only
   LELF         =      F    write electronic localiz. function (ELF)
   LORBIT       =      0    0 simple, 1 ext, 2 COOP (PROOUT), +10 PAW based schemes


 Dipole corrections
   LMONO  =      F    monopole corrections only (constant potential shift)
   LDIPOL =      F    correct potential (dipole corrections)
   IDIPOL =      0    1-x, 2-y, 3-z, 4-all directions 
   EPSILON=  1.0000000 bulk dielectric constant

 Exchange correlation treatment:
   GGA     =    --    GGA type
   LEXCH   =     8    internal setting for exchange type
   VOSKOWN=      0    Vosko Wilk Nusair interpolation
   LHFCALC =     F    Hartree Fock is set to
   LHFONE  =     F    Hartree Fock one center treatment
   AEXX    =    0.0000 exact exchange contribution

 Linear response parameters
   LEPSILON=     F    determine dielectric tensor
   LRPA    =     F    only Hartree local field effects (RPA)
   LNABLA  =     F    use nabla operator in PAW spheres
   LVEL    =     F    velocity operator in full k-point grid
   LINTERFAST=   F  fast interpolation
   KINTER  =     0    interpolate to denser k-point grid
   CSHIFT  =0.1000    complex shift for real part using Kramers Kronig
   OMEGAMAX=  -1.0    maximum frequency
   DEG_THRESHOLD= 0.2000000E-02 threshold for treating states as degnerate
   RTIME   =   -0.100 relaxation time in fs
  (WPLASMAI=    0.000 imaginary part of plasma frequency in eV, 0.658/RTIME)
   DFIELD  = 0.0000000 0.0000000 0.0000000 field for delta impulse in time
 
 Orbital magnetization related:
   ORBITALMAG=     F  switch on orbital magnetization
   LCHIMAG   =     F  perturbation theory with respect to B field
   DQ        =  0.001000  dq finite difference perturbation B field
   LLRAUG    =     F  two centre corrections for induced B field



--------------------------------------------------------------------------------------------------------


 Static calculation
 charge density and potential will be updated during run
 non-spin polarized calculation
 Variant of blocked Davidson
 Davidson routine will perform the subspace rotation
 perform sub-space diagonalisation
    after iterative eigenvector-optimisation
 modified Broyden-mixing scheme, WC =      100.0
 initial mixing is a Kerker type mixing with AMIX =  0.4000 and BMIX =      1.0000
 Hartree-type preconditioning will be used
 using additional bands           88
 real space projection scheme for non local part
 use partial core corrections
 calculate Harris-corrections to forces 
   (improved forces if not selfconsistent)
 use gradient corrections 
 use of overlap-Matrix (Vanderbilt PP)
 Gauss-broadening in eV      SIGMA  =   0.05


--------------------------------------------------------------------------------------------------------


  energy-cutoff  :      600.00
  volume of cell :     1768.83
      direct lattice vectors                 reciprocal lattice vectors
    12.093787620  0.000000000  0.000000000     0.082687081  0.000000000  0.000000000
     0.000000000 12.093787620  0.000000000     0.000000000  0.082687081  0.000000000
     0.000000000  0.000000000 12.093787620     0.000000000  0.000000000  0.082687081

  length of vectors
    12.093787620 12.093787620 12.093787620     0.082687081  0.082687081  0.082687081


 
 k-points in units of 2pi/SCALE and weight: read from INCAR                         
   0.00000000  0.00000000  0.00000000       0.125
   0.04134354  0.00000000  0.00000000       0.125
   0.00000000  0.04134354  0.00000000       0.125
   0.04134354  0.04134354  0.00000000       0.125
   0.00000000  0.00000000  0.04134354       0.125
   0.04134354  0.00000000  0.04134354       0.125
   0.00000000  0.04134354  0.04134354       0.125
   0.04134354  0.04134354  0.04134354       0.125
 
 k-points in reciprocal lattice and weights: read from INCAR                         
   0.00000000  0.00000000  0.00000000       0.125
   0.50000000  0.00000000  0.00000000       0.125
   0.00000000  0.50000000  0.00000000       0.125
   0.50000000  0.50000000  0.00000000       0.125
   0.00000000  0.00000000  0.50000000       0.125
   0.50000000  0.00000000  0.50000000       0.125
   0.00000000  0.50000000  0.50000000       0.125
   0.50000000  0.50000000  0.50000000       0.125
 
 position of ions in fractional coordinates (direct lattice) 
   0.65017332  0.54514822  0.01069012
   0.43864895  0.70213451  0.07450176
   0.63054751  0.30337086  0.77934035
   0.48839990  0.00667447  0.31527843
   0.07304996  0.51601379  0.91309858
   0.82723564  0.66980667  0.87055765
   0.28261743  0.51711167  0.39080218
   0.38320789  0.43785534  0.66909467
   0.90950722  0.29545738  0.64939284
   0.73785536  0.91500602  0.29724840
   0.96138782  0.72659947  0.15987849
   0.04128912  0.46633055  0.19626971
   0.62634306  0.64273905  0.45188743
   0.96096151  0.97974155  0.16911797
   0.19066561  0.29417842  0.86577360
   0.72872168  0.09411254  0.52056329
   0.64803777  0.93108365  0.98846969
   0.40383418  0.43654808  0.99907057
   0.59152115  0.41407710  0.48576608
   0.09254242  0.22556628  0.06467333
   0.88669487  0.06167136  0.84754123
   0.31591821  0.90870229  0.84175730
   0.14975901  0.32001768  0.55279807
   0.00710997  0.77346201  0.53891108
   0.77235146  0.77971492  0.65895953
   0.76702957  0.40946718  0.21606505
   0.22686028  0.91122921  0.54612205
   0.07064077  0.79410377  0.78412794
   0.60041760  0.58622843  0.75951649
   0.64660149  0.18915634  0.28806136
   0.20934164  0.56855679  0.05994469
   0.41565225  0.63685243  0.80156456
   0.21470968  0.58219133  0.69673310
   0.52445148  0.47237174  0.24229233
   0.22032125  0.01311719  0.26954843
   0.84452007  0.37443187  0.90054633
   0.96100457  0.05155865  0.54575874
   0.41213126  0.26953738  0.50727786
   0.41011920  0.75799199  0.35117689
   0.57746315  0.01925949  0.73377688
   0.50088496  0.85539411  0.55548548
   0.90982584  0.51595911  0.58470330
   0.17841611  0.78286082  0.33842962
   0.20537179  0.25273939  0.33783871
   0.36886485  0.16047466  0.72677321
   0.72501313  0.73407153  0.13815261
   0.17033343  0.79847667  0.00098671
   0.12199085  0.10462562  0.73190802
   0.81056134  0.18906969  0.03302539
   0.98535564  0.19904538  0.35763786
   0.32893918  0.09276133  0.00752346
   0.89338597  0.61551854  0.40133957
   0.58064613  0.28806019  0.02403102
   0.40362259  0.24755318  0.19643090
   0.82439583  0.32137856  0.07602026
   0.58484251  0.39491263  0.10469017
   0.62997413  0.05799865  0.86418381
   0.10028476  0.23073689  0.70503835
   0.49626971  0.18383631  0.28220033
   0.93061201  0.09862783  0.67794529
   0.98678571  0.54803059  0.05333199
   0.97108675  0.37538538  0.85436780
   0.85295253  0.52490468  0.32421237
   0.98145140  0.61614511  0.49925871
   0.11681090  0.82479677  0.43977416
   0.70183287  0.29272528  0.34097988
   0.69834341  0.99156891  0.69582301
   0.33394333  0.61903138  0.01104670
   0.23643407  0.52500526  0.58010865
   0.40916159  0.38795076  0.49267358
   0.52416055  0.57082885  0.88730891
   0.53430973  0.37578663  0.90973449
   0.36051548  0.24775188  0.84106771
   0.58394649  0.76438823  0.56395089
   0.34899874  0.06955671  0.14919374
   0.26702453  0.26166273  0.21940130
   0.65642373  0.06698389  0.34327409
   0.42937349  0.36841939  0.25645250
   0.26401284  0.06188152  0.69310545
   0.29479542  0.98418871  0.38664443
   0.79150029  0.60028768  0.51983242
   0.74860159  0.48176596  0.91029840
   0.11083619  0.63126196  0.74686703
   0.50485118  0.57076202  0.17220288
   0.44750167  0.74417833  0.84566081
   0.47832746  0.82100831  0.24321500
   0.08424281  0.05280748  0.57062648
   0.03361477  0.83885621  0.04402466
   0.97795732  0.31742930  0.26830032
   0.40597378  0.99506897  0.93988336
   0.93815993  0.15979560  0.01453658
   0.11202560  0.09332278  0.22208506
   0.39170486  0.81594221  0.50426564
   0.53990356  0.97648005  0.51238271
   0.18022742  0.56007569  0.17163544
   0.11045312  0.18679355  0.41064214
   0.23925236  0.82384276  0.09260495
   0.91727460  0.95773403  0.48509700
   0.50736861  0.13835079  0.71573355
   0.83105584  0.70645772  0.35596591
   0.94566237  0.82135319  0.81645346
   0.45898115  0.62951668  0.67199894
   0.78020030  0.31384291  0.76816554
   0.24010494  0.39471198  0.74149836
   0.54994910  0.25867460  0.51348165
   0.82408319  0.82168010  0.15002712
   0.34006284  0.24281197  0.61217946
   0.09616425  0.99841074  0.83998065
   0.88707194  0.59441825  0.69199017
   0.67543716  0.68756374  0.78942061
   0.43902367  0.61645990  0.42276843
   0.63855107  0.50245116  0.65481872
   0.48741296  0.94302707  0.67205523
   0.33153059  0.20906117  0.39474694
   0.70534866  0.25163010  0.94955424
   0.92812632  0.07336039  0.29811905
   0.78643320  0.02789902  0.99884428
   0.28857201  0.72215825  0.32224225
   0.15981157  0.87712141  0.24136209
   0.61941310  0.48709575  0.32196915
   0.68440736  0.22137527  0.15630365
   0.65567144  0.76788341  0.24023116
   0.30099102  0.59454484  0.81596752
   0.11954314  0.84390025  0.66213634
   0.20189531  0.43646785  0.99220472
   0.00493922  0.42499854  0.55111299
   0.91857737  0.16903121  0.46183976
   0.66296718  0.73860232  0.00954431
   0.10170027  0.68355347  0.29709379
   0.18036233  0.36588479  0.39072092
   0.22841542  0.17347115  0.02435189
   0.44280885  0.23660681  0.05829872
   0.78965282  0.61285150  0.16796763
   0.17672730  0.81024122  0.85889042
   0.13611455  0.65189626  0.00060861
 
 position of ions in cartesian coordinates  (Angst):
   7.86305808  6.59290684  0.12928404
   5.30492724  8.49146560  0.90100852
   7.62570769  3.66890281  9.42517664
   5.90660471  0.08071965  3.81291040
   0.88345072  6.24056124 11.04282026
  10.00441212  8.10049965 10.52833935
   3.41791521  6.25383870  4.72627859
   4.63443479  5.29532944  8.09188880
  10.99938718  3.57319877  7.85361904
   8.92346604 11.06588850  3.59485906
  11.62682009  8.78733963  1.93353651
   0.49934184  5.63970264  2.37364414
   7.57485993  7.77314960  5.46503056
  11.62166438 11.84878620  2.04527685
   2.30586945  3.55773137 10.47048200
   8.81300518  1.13817703  6.29558184
   7.83723118 11.26032796 11.95434245
   4.88388477  5.27951980 12.08254734
   7.15373113  5.00776055  5.87475180
   1.11918837  2.72795073  0.78214554
  10.72349948  0.74584027 10.24998361
   3.82064773 10.98965246 10.18003400
   1.81115370  3.87022581  6.68542247
   0.08598648  9.35408532  6.51747618
   9.34065456  9.42970666  7.96931664
   9.27629267  4.95200916  2.61304487
   2.74360004 11.02021257  6.60468406
   0.85431450  9.60372230  9.48307675
   7.26132293  7.08972218  9.18543114
   7.81986106  2.28761662  3.48375286
   2.53173338  6.87600508  0.72495831
   5.02680998  7.70195805  9.69395150
   2.59665328  7.04089832  8.42614210
   6.34260483  5.71276352  2.93023201
   2.66451846  0.15863655  3.25986143
  10.21344640  4.52829954 10.89101606
  11.62218519  0.62353934  6.60029034
   4.98422794  3.25972778  6.13491065
   4.95989447  9.16699414  4.24705873
   6.98371670  0.23292018  8.87414169
   6.05759634 10.34495474  6.71792340
  11.00324048  6.23989985  7.07127757
   2.15772657  9.46775245  4.09289595
   2.48372284  3.05657650  4.08574962
   4.46097318  1.94074641  8.78944082
   8.76815481  8.87770523  1.67078834
   2.05997637  9.65660722  0.01193302
   1.47533140  1.26532004  8.85154017
   9.80275666  2.28656872  0.39940203
  11.91668185  2.40721251  4.32519629
   3.97812060  1.12183588  0.09098711
  10.80442019  7.44395054  4.85371556
   7.02221099  3.48373876  0.29062604
   4.88132588  2.99385561  2.37559353
   9.97006805  3.88668400  0.91937284
   7.07296116  4.77598952  1.26610064
   7.61877333  0.70142330 10.45125549
   1.21282263  2.79048300  8.52658410
   6.00178042  2.22327729  3.41287081
  11.25462397  1.19278407  8.19892634
  11.93397679  6.62776560  0.64498582
  11.74411692  4.53983102 10.33254270
  10.31542678  6.34808572  3.92095555
  11.86946475  7.45152805  6.03792884
   1.41268616  9.97491696  5.31853527
   8.48781771  3.54015736  4.12373825
   8.44561684 11.99182383  8.41513567
   4.03863968  7.48643407  0.13359647
   2.85938346  6.34930206  7.01571075
   4.94831335  4.69179414  5.95828965
   6.33908640  6.90348284 10.73092557
   6.46182844  4.54468375 11.00213566
   4.35999760  2.99625862 10.17169421
   7.06212485  9.24434892  6.82030230
   4.22071659  0.84120402  1.80431739
   3.22933795  3.16449349  2.65339274
   7.93864921  0.81008890  4.15148391
   5.19275178  4.45558582  3.10148203
   3.19291520  0.74838192  8.38227016
   3.56519324 11.90256927  4.67599559
   9.57223644  7.25975172  6.28674291
   9.05342865  5.82637521 11.00895557
   1.34042932  7.63434804  9.03245124
   6.10556299  6.90267461  2.08258507
   5.41199020  8.99993463 10.22724222
   5.78479076  9.92910017  2.94139051
   1.01881467  0.63864242  6.90103547
   0.40652984 10.14494890  0.53242490
  11.82720817  3.83892255  3.24476709
   4.90976065 12.03415285 11.36674970
  11.34590697  1.93253410  0.17580235
   1.35481386  1.12862593  2.68584960
   4.73719535  9.86783181  6.09848158
   6.52947903 11.80934235  6.19664773
   2.17963217  6.77343649  2.07572258
   1.33579653  2.25904151  4.96621881
   2.89346726  9.96337939  1.11994457
  11.09332421 11.58263199  5.86666007
   6.13600824  1.67318503  8.65592951
  10.05061281  8.54374961  4.30497606
  11.43663986  9.93327104  9.87401470
   5.55082060  7.61324106  8.12701252
   9.43557675  3.79554952  9.29003092
   2.90377814  4.77356283  8.96752373
   6.65096760  3.12835562  6.20993800
   9.96628703  9.93722466  1.81439613
   4.11264781  2.93651634  7.40356842
   1.16298998 12.07456745 10.15854760
  10.72805959  7.18876805  8.36878210
   8.16859354  8.31524987  9.54708524
   5.30945898  7.45533510  5.11287161
   7.72250099  6.07653758  7.91923850
   5.89466877 11.40476916  8.12769321
   4.00946057  2.52834136  4.77398566
   8.53033688  3.04316102 11.48370736
  11.22456258  0.88720494  3.60538846
   9.51095608  0.33740488 12.07981053
   3.48992859  8.73362848  3.89712929
   1.93272718 10.60772003  2.91898183
   7.49105049  5.89083256  3.89382653
   8.27707730  2.67726550  1.89030310
   7.92955115  9.28661883  2.90530458
   3.64012153  7.19029903  9.86813795
   1.44572929 10.20595035  8.00773627
   2.44167905  5.27854944 11.99951316
   0.05973392  5.13984203  6.66504348
  11.10907961  2.04422761  5.58539203
   8.01778424  8.93249962  0.11542689
   1.22994141  8.26675044  3.59298915
   2.18126366  4.42493299  4.72529578
   2.76240757  2.09792324  0.29450655
   5.35523616  2.86147248  0.70505239
   9.54989347  7.41169589  2.03136480
   2.13730239  9.79888529 10.38723837
   1.64614047  7.88389489  0.00736038
 


--------------------------------------------------------------------------------------------------------


 k-point  1 :   0.0000 0.0000 0.0000  plane waves:   58893
 k-point  2 :   0.5000 0.0000 0.0000  plane waves:   59080
 k-point  3 :   0.0000 0.5000 0.0000  plane waves:   59080
 k-point  4 :   0.5000 0.5000 0.0000  plane waves:   58996
 k-point  5 :   0.0000 0.0000 0.5000  plane waves:   59080
 k-point  6 :   0.5000 0.0000 0.5000  plane waves:   58996
 k-point  7 :   0.0000 0.5000 0.5000  plane waves:   58996
 k-point  8 :   0.5000 0.5000 0.5000  plane waves:   59152

 maximum and minimum number of plane-waves per node :      4596     4500

 maximum number of plane-waves:     59152
 maximum index in each direction: 
   IXMAX=   24   IYMAX=   24   IZMAX=   24
   IXMIN=  -24   IYMIN=  -24   IZMIN=  -24


 real space projection operators:
  total allocation   :      48965.72 KBytes
  max/ min on nodes  :       4070.56       3401.80


 parallel 3D FFT for wavefunctions:
    minimum data exchange during FFTs selected (reduces bandwidth)
 parallel 3D FFT for charge:
    minimum data exchange during FFTs selected (reduces bandwidth)


 total amount of memory used by VASP MPI-rank0   166846. kBytes
=======================================================================

   base      :      30000. kBytes
   nonlr-proj:      21357. kBytes
   fftplans  :      24448. kBytes
   grid      :      12995. kBytes
   one-center:        171. kBytes
   wavefun   :      77875. kBytes
 
     INWAV:  cpu time    0.0000: real time    0.0000
 Broyden mixing: mesh for mixing (old mesh)
   NGX = 49   NGY = 49   NGZ = 49
  (NGX  =196   NGY  =196   NGZ  =196)
  gives a total of 117649 points

 initial charge density was supplied:
 charge density of overlapping atoms calculated
 number of electron     864.0000000 magnetization 
 keeping initial charge density in first step


--------------------------------------------------------------------------------------------------------


 Maximum index for non-local projection operator          800
 Maximum index for augmentation-charges         6947 (set IRDMAX)


--------------------------------------------------------------------------------------------------------


 First call to EWALD:  gamma=   0.147
 Maximum number of real-space cells 3x 3x 3
 Maximum number of reciprocal cells 3x 3x 3

    FEWALD:  cpu time    0.0108: real time    0.0129


--------------------------------------- Iteration      1(   1)  ---------------------------------------


    POTLOK:  cpu time    0.1386: real time    0.1493
    SETDIJ:  cpu time    0.3634: real time    0.3638
     EDDAV:  cpu time   36.0787: real time   36.0801
       DOS:  cpu time    0.0024: real time    0.0024
    --------------------------------------------
      LOOP:  cpu time   36.5831: real time   36.5955

 eigenvalue-minimisations  :  8320
 total energy-change (2. order) : 0.9597151E+04  (-0.4783941E+05)
 number of electron     864.0000000 magnetization 
 augmentation part      864.0000000 magnetization 

 Free energy of the ion-electron system (eV)
  ---------------------------------------------------
  alpha Z        PSCENC =      2701.53174423
  Ewald energy   TEWEN  =    -44946.00104095
  -Hartree energ DENC   =    -18399.39077533
  -exchange      EXHF   =         0.00000000
  -V(xc)+E(xc)   XCENC  =      3170.39424349
  PAW double counting   =     50594.51003143   -49994.65612350
  entropy T*S    EENTRO =        -0.04082051
  eigenvalues    EBANDS =      1502.26318702
  atomic energy  EATOM  =     64968.54023382
  Solvation  Ediel_sol  =         0.00000000
  ---------------------------------------------------
  free energy    TOTEN  =      9597.15067971 eV

  energy without entropy =     9597.19150022  energy(sigma->0) =     9597.17108997


--------------------------------------------------------------------------------------------------------




--------------------------------------- Iteration      1(   2)  ---------------------------------------


     EDDAV:  cpu time   40.9228: real time   40.9420
       DOS:  cpu time    0.0011: real time    0.0011
    --------------------------------------------
      LOOP:  cpu time   40.9239: real time   40.9430

 eigenvalue-minimisations  :  9832
 total energy-change (2. order) :-0.9553494E+04  (-0.9250560E+04)
 number of electron     864.0000000 magnetization 
 augmentation part      864.0000000 magnetization 

 Free energy of the ion-electron system (eV)
  ---------------------------------------------------
  alpha Z        PSCENC =      2701.53174423
  Ewald energy   TEWEN  =    -44946.00104095
  -Hartree energ DENC   =    -18399.39077533
  -exchange      EXHF   =         0.00000000
  -V(xc)+E(xc)   XCENC  =      3170.39424349
  PAW double counting   =     50594.51003143   -49994.65612350
  entropy T*S    EENTRO =        -0.00000000
  eigenvalues    EBANDS =     -8051.27197528
  atomic energy  EATOM  =     64968.54023382
  Solvation  Ediel_sol  =         0.00000000
  ---------------------------------------------------
  free energy    TOTEN  =        43.65633792 eV

  energy without entropy =       43.65633792  energy(sigma->0) =       43.65633792


--------------------------------------------------------------------------------------------------------




--------------------------------------- Iteration      1(   3)  ---------------------------------------


     EDDAV:  cpu time   42.3564: real time   42.3626
       DOS:  cpu time    0.0009: real time    0.0009
    --------------------------------------------
      LOOP:  cpu time   42.3573: real time   42.3634

 eigenvalue-minimisations  : 10256
 total energy-change (2. order) :-0.1045803E+04  (-0.1038232E+04)
 number of electron     864.0000000 magnetization 
 augmentation part      864.0000000 magnetization 

 Free energy of the ion-electron system (eV)
  ---------------------------------------------------
  alpha Z        PSCENC =      2701.53174423
  Ewald energy   TEWEN  =    -44946.00104095
  -Hartree energ DENC   =    -18399.39077533
  -exchange      EXHF   =         0.00000000
  -V(xc)+E(xc)   XCENC  =      3170.39424349
  PAW double counting   =     50594.51003143   -49994.65612350
  entropy T*S    EENTRO =        -0.00000000
  eigenvalues    EBANDS =     -9097.07513655
  atomic energy  EATOM  =     64968.54023382
  Solvation  Ediel_sol  =         0.00000000
  ---------------------------------------------------
  free energy    TOTEN  =     -1002.14682335 eV

  energy without entropy =    -1002.14682335  energy(sigma->0) =    -1002.14682335


--------------------------------------------------------------------------------------------------------




--------------------------------------- Iteration      1(   4)  ---------------------------------------


     EDDAV:  cpu time   46.2997: real time   46.3208
       DOS:  cpu time    0.0009: real time    0.0009
    --------------------------------------------
      LOOP:  cpu time   46.3007: real time   46.3217

 eigenvalue-minimisations  : 11496
 total energy-change (2. order) :-0.5156269E+02  (-0.5137915E+02)
 number of electron     864.0000000 magnetization 
 augmentation part      864.0000000 magnetization 

 Free energy of the ion-electron system (eV)
  ---------------------------------------------------
  alpha Z        PSCENC =      2701.53174423
  Ewald energy   TEWEN  =    -44946.00104095
  -Hartree energ DENC   =    -18399.39077533
  -exchange      EXHF   =         0.00000000
  -V(xc)+E(xc)   XCENC  =      3170.39424349
  PAW double counting   =     50594.51003143   -49994.65612350
  entropy T*S    EENTRO =        -0.00000000
  eigenvalues    EBANDS =     -9148.63782267
  atomic energy  EATOM  =     64968.54023382
  Solvation  Ediel_sol  =         0.00000000
  ---------------------------------------------------
  free energy    TOTEN  =     -1053.70950947 eV

  energy without entropy =    -1053.70950947  energy(sigma->0) =    -1053.70950947


--------------------------------------------------------------------------------------------------------




--------------------------------------- Iteration      1(   5)  ---------------------------------------


     EDDAV:  cpu time   55.9901: real time   55.9970
       DOS:  cpu time    0.0009: real time    0.0009
    CHARGE:  cpu time    1.3887: real time    1.3888
    MIXING:  cpu time    0.0088: real time    0.0090
    --------------------------------------------
      LOOP:  cpu time   57.3885: real time   57.3957

 eigenvalue-minimisations  : 14536
 total energy-change (2. order) :-0.5479796E+01  (-0.5476799E+01)
 number of electron     864.0000007 magnetization 
 augmentation part      133.9390171 magnetization 

 Broyden mixing:
  rms(total) = 0.87944E+01    rms(broyden)= 0.87938E+01
  rms(prec ) = 0.10434E+02
  weight for this iteration     100.00

 Free energy of the ion-electron system (eV)
  ---------------------------------------------------
  alpha Z        PSCENC =      2701.53174423
  Ewald energy   TEWEN  =    -44946.00104095
  -Hartree energ DENC   =    -18399.39077533
  -exchange      EXHF   =         0.00000000
  -V(xc)+E(xc)   XCENC  =      3170.39424349
  PAW double counting   =     50594.51003143   -49994.65612350
  entropy T*S    EENTRO =        -0.00000000
  eigenvalues    EBANDS =     -9154.11761867
  atomic energy  EATOM  =     64968.54023382
  Solvation  Ediel_sol  =         0.00000000
  ---------------------------------------------------
  free energy    TOTEN  =     -1059.18930547 eV

  energy without entropy =    -1059.18930547  energy(sigma->0) =    -1059.18930547


--------------------------------------------------------------------------------------------------------




--------------------------------------- Iteration      1(   6)  ---------------------------------------


    POTLOK:  cpu time    0.1284: real time    0.1455
    SETDIJ:  cpu time    0.3559: real time    0.3559
     EDDAV:  cpu time   40.7328: real time   40.7338
       DOS:  cpu time    0.0009: real time    0.0009
    CHARGE:  cpu time    1.3601: real time    1.3602
    MIXING:  cpu time    0.0078: real time    0.0078
    --------------------------------------------
      LOOP:  cpu time   42.5860: real time   42.6041

 eigenvalue-minimisations  :  9792
 total energy-change (2. order) : 0.1603304E+03  (-0.7304896E+02)
 number of electron     864.0000006 magnetization 
 augmentation part      119.6278167 magnetization 

 Broyden mixing:
  rms(total) = 0.38018E+01    rms(broyden)= 0.38008E+01
  rms(prec ) = 0.40344E+01
  weight for this iteration     100.00

 eigenvalues of (default mixing * dielectric matrix)
  average eigenvalue GAMMA=   0.9987
  0.9987

 Free energy of the ion-electron system (eV)
  ---------------------------------------------------
  alpha Z        PSCENC =      2701.53174423
  Ewald energy   TEWEN  =    -44946.00104095
  -Hartree energ DENC   =    -19881.29654077
  -exchange      EXHF   =         0.00000000
  -V(xc)+E(xc)   XCENC  =      3266.07037612
  PAW double counting   =     66178.77017679   -65718.91787602
  entropy T*S    EENTRO =        -0.00000000
  eigenvalues    EBANDS =     -7467.55592873
  atomic energy  EATOM  =     64968.54023382
  Solvation  Ediel_sol  =         0.00000000
  ---------------------------------------------------
  free energy    TOTEN  =      -898.85885550 eV

  energy without entropy =     -898.85885550  energy(sigma->0) =     -898.85885550


--------------------------------------------------------------------------------------------------------




--------------------------------------- Iteration      1(   7)  ---------------------------------------


    POTLOK:  cpu time    0.1363: real time    0.1454
    SETDIJ:  cpu time    0.3652: real time    0.3652
     EDDAV:  cpu time   42.8957: real time   42.8968
       DOS:  cpu time    0.0009: real time    0.0009
    CHARGE:  cpu time    1.3750: real time    1.3750
    MIXING:  cpu time    0.0081: real time    0.0081
    --------------------------------------------
      LOOP:  cpu time   44.7811: real time   44.7914

 eigenvalue-minimisations  : 10400
 total energy-change (2. order) :-0.6960251E+00  (-0.7529367E+01)
 number of electron     864.0000006 magnetization 
 augmentation part      118.9366000 magnetization 

 Broyden mixing:
  rms(total) = 0.18546E+01    rms(broyden)= 0.18545E+01
  rms(prec ) = 0.20317E+01
  weight for this iteration     100.00

 eigenvalues of (default mixing * dielectric matrix)
  average eigenvalue GAMMA=   1.1914
  1.1914  1.1914

 Free energy of the ion-electron system (eV)
  ---------------------------------------------------
  alpha Z        PSCENC =      2701.53174423
  Ewald energy   TEWEN  =    -44946.00104095
  -Hartree energ DENC   =    -19951.31933551
  -exchange      EXHF   =         0.00000000
  -V(xc)+E(xc)   XCENC  =      3268.22620128
  PAW double counting   =     79515.95238213   -79108.57292468
  entropy T*S    EENTRO =        -0.00000000
  eigenvalues    EBANDS =     -7347.91214093
  atomic energy  EATOM  =     64968.54023382
  Solvation  Ediel_sol  =         0.00000000
  ---------------------------------------------------
  free energy    TOTEN  =      -899.55488060 eV

  energy without entropy =     -899.55488060  energy(sigma->0) =     -899.55488060


--------------------------------------------------------------------------------------------------------




--------------------------------------- Iteration      1(   8)  ---------------------------------------


    POTLOK:  cpu time    0.1257: real time    0.1435
    SETDIJ:  cpu time    0.3607: real time    0.3607
     EDDAV:  cpu time   45.8948: real time   45.8960
       DOS:  cpu time    0.0009: real time    0.0009
    CHARGE:  cpu time    1.3766: real time    1.3766
    MIXING:  cpu time    0.0063: real time    0.0063
    --------------------------------------------
      LOOP:  cpu time   47.7649: real time   47.7841

 eigenvalue-minimisations  : 11416
 total energy-change (2. order) : 0.1523751E+01  (-0.1046124E+01)
 number of electron     864.0000006 magnetization 
 augmentation part      118.7647977 magnetization 

 Broyden mixing:
  rms(total) = 0.83400E+00    rms(broyden)= 0.83394E+00
  rms(prec ) = 0.95121E+00
  weight for this iteration     100.00

 eigenvalues of (default mixing * dielectric matrix)
  average eigenvalue GAMMA=   1.3349
  2.1020  0.9514  0.9514

 Free energy of the ion-electron system (eV)
  ---------------------------------------------------
  alpha Z        PSCENC =      2701.53174423
  Ewald energy   TEWEN  =    -44946.00104095
  -Hartree energ DENC   =    -19981.03017293
  -exchange      EXHF   =         0.00000000
  -V(xc)+E(xc)   XCENC  =      3268.43168645
  PAW double counting   =     87871.71960243   -87503.69377442
  entropy T*S    EENTRO =        -0.00000000
  eigenvalues    EBANDS =     -7277.52940832
  atomic energy  EATOM  =     64968.54023382
  Solvation  Ediel_sol  =         0.00000000
  ---------------------------------------------------
  free energy    TOTEN  =      -898.03112969 eV

  energy without entropy =     -898.03112969  energy(sigma->0) =     -898.03112969


--------------------------------------------------------------------------------------------------------




--------------------------------------- Iteration      1(   9)  ---------------------------------------


    POTLOK:  cpu time    0.1243: real time    0.1269
    SETDIJ:  cpu time    0.3615: real time    0.3615
     EDDAV:  cpu time   44.9284: real time   44.9296
       DOS:  cpu time    0.0022: real time    0.0022
    CHARGE:  cpu time    1.3779: real time    1.3780
    MIXING:  cpu time    0.0069: real time    0.0069
    --------------------------------------------
      LOOP:  cpu time   46.8012: real time   46.8051

 eigenvalue-minimisations  : 11112
 total energy-change (2. order) : 0.3046552E+00  (-0.2500743E+00)
 number of electron     864.0000006 magnetization 
 augmentation part      118.2333452 magnetization 

 Broyden mixing:
  rms(total) = 0.25706E+00    rms(broyden)= 0.25703E+00
  rms(prec ) = 0.30473E+00
  weight for this iteration     100.00

 eigenvalues of (default mixing * dielectric matrix)
  average eigenvalue GAMMA=   1.3009
  2.3503  1.0385  0.9073  0.9073

 Free energy of the ion-electron system (eV)
  ---------------------------------------------------
  alpha Z        PSCENC =      2701.53174423
  Ewald energy   TEWEN  =    -44946.00104095
  -Hartree energ DENC   =    -20057.94867098
  -exchange      EXHF   =         0.00000000
  -V(xc)+E(xc)   XCENC  =      3272.56065797
  PAW double counting   =     94393.20295460   -94047.95101972
  entropy T*S    EENTRO =        -0.00381789
  eigenvalues    EBANDS =     -7181.65751559
  atomic energy  EATOM  =     64968.54023382
  Solvation  Ediel_sol  =         0.00000000
  ---------------------------------------------------
  free energy    TOTEN  =      -897.72647450 eV

  energy without entropy =     -897.72265661  energy(sigma->0) =     -897.72456555


--------------------------------------------------------------------------------------------------------




--------------------------------------- Iteration      1(  10)  ---------------------------------------


    POTLOK:  cpu time    0.1436: real time    0.1590
    SETDIJ:  cpu time    0.3645: real time    0.3645
     EDDAV:  cpu time   47.1021: real time   47.1032
       DOS:  cpu time    0.0017: real time    0.0017
    CHARGE:  cpu time    1.3779: real time    1.3779
    MIXING:  cpu time    0.0068: real time    0.0068
    --------------------------------------------
      LOOP:  cpu time   48.9966: real time   49.0132

 eigenvalue-minimisations  : 11776
 total energy-change (2. order) :-0.7547473E-01  (-0.8434245E-01)
 number of electron     864.0000006 magnetization 
 augmentation part      118.2063939 magnetization 

 Broyden mixing:
  rms(total) = 0.14636E+00    rms(broyden)= 0.14634E+00
  rms(prec ) = 0.17570E+00
  weight for this iteration     100.00

 eigenvalues of (default mixing * dielectric matrix)
  average eigenvalue GAMMA=   1.2341
  2.4225  1.1850  1.0284  0.7674  0.7674

 Free energy of the ion-electron system (eV)
  ---------------------------------------------------
  alpha Z        PSCENC =      2701.53174423
  Ewald energy   TEWEN  =    -44946.00104095
  -Hartree energ DENC   =    -20075.91057076
  -exchange      EXHF   =         0.00000000
  -V(xc)+E(xc)   XCENC  =      3273.48025288
  PAW double counting   =     95765.59727014   -95423.12980833
  entropy T*S    EENTRO =        -0.00000101
  eigenvalues    EBANDS =     -7161.91002925
  atomic energy  EATOM  =     64968.54023382
  Solvation  Ediel_sol  =         0.00000000
  ---------------------------------------------------
  free energy    TOTEN  =      -897.80194923 eV

  energy without entropy =     -897.80194821  energy(sigma->0) =     -897.80194872


--------------------------------------------------------------------------------------------------------




--------------------------------------- Iteration      1(  11)  ---------------------------------------


    POTLOK:  cpu time    0.1224: real time    0.1311
    SETDIJ:  cpu time    0.3574: real time    0.3574
     EDDAV:  cpu time   42.6476: real time   42.6486
       DOS:  cpu time    0.0021: real time    0.0021
    CHARGE:  cpu time    1.3835: real time    1.3835
    MIXING:  cpu time    0.0075: real time    0.0075
    --------------------------------------------
      LOOP:  cpu time   44.5205: real time   44.5303

 eigenvalue-minimisations  : 10368
 total energy-change (2. order) :-0.1425829E-01  (-0.1353950E-01)
 number of electron     864.0000006 magnetization 
 augmentation part      118.1587373 magnetization 

 Broyden mixing:
  rms(total) = 0.87872E-01    rms(broyden)= 0.87867E-01
  rms(prec ) = 0.10309E+00
  weight for this iteration     100.00

 eigenvalues of (default mixing * dielectric matrix)
  average eigenvalue GAMMA=   1.2532
  2.4872  1.6286  0.8639  0.8639  0.9297  0.7456

 Free energy of the ion-electron system (eV)
  ---------------------------------------------------
  alpha Z        PSCENC =      2701.53174423
  Ewald energy   TEWEN  =    -44946.00104095
  -Hartree energ DENC   =    -20086.80302234
  -exchange      EXHF   =         0.00000000
  -V(xc)+E(xc)   XCENC  =      3274.03790822
  PAW double counting   =     95932.71049699   -95589.62299238
  entropy T*S    EENTRO =        -0.00119649
  eigenvalues    EBANDS =     -7152.20833863
  atomic energy  EATOM  =     64968.54023382
  Solvation  Ediel_sol  =         0.00000000
  ---------------------------------------------------
  free energy    TOTEN  =      -897.81620752 eV

  energy without entropy =     -897.81501103  energy(sigma->0) =     -897.81560928


--------------------------------------------------------------------------------------------------------




--------------------------------------- Iteration      1(  12)  ---------------------------------------


    POTLOK:  cpu time    0.1235: real time    0.1458
    SETDIJ:  cpu time    0.3571: real time    0.3610
     EDDAV:  cpu time   48.4740: real time   48.4753
       DOS:  cpu time    0.0020: real time    0.0020
    CHARGE:  cpu time    1.3807: real time    1.3808
    MIXING:  cpu time    0.0085: real time    0.0085
    --------------------------------------------
      LOOP:  cpu time   50.3456: real time   50.3733

 eigenvalue-minimisations  : 12224
 total energy-change (2. order) :-0.1230848E-01  (-0.5045854E-02)
 number of electron     864.0000006 magnetization 
 augmentation part      118.1601287 magnetization 

 Broyden mixing:
  rms(total) = 0.41369E-01    rms(broyden)= 0.41364E-01
  rms(prec ) = 0.53751E-01
  weight for this iteration     100.00

 eigenvalues of (default mixing * dielectric matrix)
  average eigenvalue GAMMA=   1.2959
  2.5326  2.2963  0.9647  0.9647  0.8217  0.8217  0.6699

 Free energy of the ion-electron system (eV)
  ---------------------------------------------------
  alpha Z        PSCENC =      2701.53174423
  Ewald energy   TEWEN  =    -44946.00104095
  -Hartree energ DENC   =    -20092.65689126
  -exchange      EXHF   =         0.00000000
  -V(xc)+E(xc)   XCENC  =      3274.28779662
  PAW double counting   =     95859.93706752   -95515.39078284
  entropy T*S    EENTRO =        -0.00032703
  eigenvalues    EBANDS =     -7148.07631612
  atomic energy  EATOM  =     64968.54023382
  Solvation  Ediel_sol  =         0.00000000
  ---------------------------------------------------
  free energy    TOTEN  =      -897.82851600 eV

  energy without entropy =     -897.82818897  energy(sigma->0) =     -897.82835249


--------------------------------------------------------------------------------------------------------




--------------------------------------- Iteration      1(  13)  ---------------------------------------


    POTLOK:  cpu time    0.1289: real time    0.1321
    SETDIJ:  cpu time    0.3588: real time    0.3589
     EDDAV:  cpu time   42.4438: real time   42.4496
       DOS:  cpu time    0.0020: real time    0.0020
    CHARGE:  cpu time    1.3761: real time    1.3762
    MIXING:  cpu time    0.0095: real time    0.0095
    --------------------------------------------
      LOOP:  cpu time   44.3192: real time   44.3282

 eigenvalue-minimisations  : 10328
 total energy-change (2. order) :-0.5132092E-02  (-0.1286591E-02)
 number of electron     864.0000006 magnetization 
 augmentation part      118.1566309 magnetization 

 Broyden mixing:
  rms(total) = 0.16448E-01    rms(broyden)= 0.16445E-01
  rms(prec ) = 0.22292E-01
  weight for this iteration     100.00

 eigenvalues of (default mixing * dielectric matrix)
  average eigenvalue GAMMA=   1.2773
  2.5384  2.5384  1.0206  1.0206  0.8325  0.8325  0.8301  0.6056

 Free energy of the ion-electron system (eV)
  ---------------------------------------------------
  alpha Z        PSCENC =      2701.53174423
  Ewald energy   TEWEN  =    -44946.00104095
  -Hartree energ DENC   =    -20096.98658854
  -exchange      EXHF   =         0.00000000
  -V(xc)+E(xc)   XCENC  =      3274.44604712
  PAW double counting   =     95736.16300007   -95390.38105029
  entropy T*S    EENTRO =        -0.00120297
  eigenvalues    EBANDS =     -7145.14479061
  atomic energy  EATOM  =     64968.54023382
  Solvation  Ediel_sol  =         0.00000000
  ---------------------------------------------------
  free energy    TOTEN  =      -897.83364810 eV

  energy without entropy =     -897.83244513  energy(sigma->0) =     -897.83304661


--------------------------------------------------------------------------------------------------------




--------------------------------------- Iteration      1(  14)  ---------------------------------------


    POTLOK:  cpu time    0.1415: real time    0.1590
    SETDIJ:  cpu time    0.3654: real time    0.3655
     EDDAV:  cpu time   47.0873: real time   47.0887
       DOS:  cpu time    0.0020: real time    0.0020
    CHARGE:  cpu time    1.3702: real time    1.3703
    MIXING:  cpu time    0.0073: real time    0.0073
    --------------------------------------------
      LOOP:  cpu time   48.9738: real time   48.9927

 eigenvalue-minimisations  : 11728
 total energy-change (2. order) :-0.1372698E-02  (-0.6464866E-03)
 number of electron     864.0000006 magnetization 
 augmentation part      118.1652705 magnetization 

 Broyden mixing:
  rms(total) = 0.11256E-01    rms(broyden)= 0.11255E-01
  rms(prec ) = 0.14591E-01
  weight for this iteration     100.00

 eigenvalues of (default mixing * dielectric matrix)
  average eigenvalue GAMMA=   1.2334
  2.6334  2.5170  1.0493  1.0493  0.8517  0.8517  0.7636  0.7636  0.6208

 Free energy of the ion-electron system (eV)
  ---------------------------------------------------
  alpha Z        PSCENC =      2701.53174423
  Ewald energy   TEWEN  =    -44946.00104095
  -Hartree energ DENC   =    -20098.22834202
  -exchange      EXHF   =         0.00000000
  -V(xc)+E(xc)   XCENC  =      3274.47464669
  PAW double counting   =     95664.88596415   -95318.71978410
  entropy T*S    EENTRO =        -0.00095281
  eigenvalues    EBANDS =     -7144.31748981
  atomic energy  EATOM  =     64968.54023382
  Solvation  Ediel_sol  =         0.00000000
  ---------------------------------------------------
  free energy    TOTEN  =      -897.83502079 eV

  energy without entropy =     -897.83406798  energy(sigma->0) =     -897.83454439


--------------------------------------------------------------------------------------------------------




--------------------------------------- Iteration      1(  15)  ---------------------------------------


    POTLOK:  cpu time    0.1402: real time    0.1441
    SETDIJ:  cpu time    0.3709: real time    0.3710
     EDDAV:  cpu time   43.7636: real time   43.7670
       DOS:  cpu time    0.0020: real time    0.0020
    CHARGE:  cpu time    1.3765: real time    1.3766
    MIXING:  cpu time    0.0090: real time    0.0090
    --------------------------------------------
      LOOP:  cpu time   45.6623: real time   45.6697

 eigenvalue-minimisations  : 10712
 total energy-change (2. order) :-0.2436770E-03  (-0.1112204E-03)
 number of electron     864.0000006 magnetization 
 augmentation part      118.1628084 magnetization 

 Broyden mixing:
  rms(total) = 0.63429E-02    rms(broyden)= 0.63421E-02
  rms(prec ) = 0.85242E-02
  weight for this iteration     100.00

 eigenvalues of (default mixing * dielectric matrix)
  average eigenvalue GAMMA=   1.3275
  3.0460  2.4028  1.9632  0.9289  0.9289  0.8568  0.8568  0.8437  0.8437  0.6041

 Free energy of the ion-electron system (eV)
  ---------------------------------------------------
  alpha Z        PSCENC =      2701.53174423
  Ewald energy   TEWEN  =    -44946.00104095
  -Hartree energ DENC   =    -20099.09677312
  -exchange      EXHF   =         0.00000000
  -V(xc)+E(xc)   XCENC  =      3274.50732651
  PAW double counting   =     95665.24001696   -95319.08893258
  entropy T*S    EENTRO =        -0.00108061
  eigenvalues    EBANDS =     -7143.46675874
  atomic energy  EATOM  =     64968.54023382
  Solvation  Ediel_sol  =         0.00000000
  ---------------------------------------------------
  free energy    TOTEN  =      -897.83526447 eV

  energy without entropy =     -897.83418386  energy(sigma->0) =     -897.83472417


--------------------------------------------------------------------------------------------------------




--------------------------------------- Iteration      1(  16)  ---------------------------------------


    POTLOK:  cpu time    0.1343: real time    0.1527
    SETDIJ:  cpu time    0.3609: real time    0.3609
     EDDAV:  cpu time   40.0236: real time   40.0246
       DOS:  cpu time    0.0020: real time    0.0020
    CHARGE:  cpu time    1.3620: real time    1.3620
    MIXING:  cpu time    0.0089: real time    0.0089
    --------------------------------------------
      LOOP:  cpu time   41.8918: real time   41.9112

 eigenvalue-minimisations  :  9560
 total energy-change (2. order) :-0.1603776E-03  (-0.4761541E-04)
 number of electron     864.0000006 magnetization 
 augmentation part      118.1628017 magnetization 

 Broyden mixing:
  rms(total) = 0.28059E-02    rms(broyden)= 0.28051E-02
  rms(prec ) = 0.37367E-02
  weight for this iteration     100.00

 eigenvalues of (default mixing * dielectric matrix)
  average eigenvalue GAMMA=   1.3316
  3.0708  2.3982  2.3982  0.9952  0.9952  0.8442  0.8442  0.8826  0.8088  0.8088
  0.6018

 Free energy of the ion-electron system (eV)
  ---------------------------------------------------
  alpha Z        PSCENC =      2701.53174423
  Ewald energy   TEWEN  =    -44946.00104095
  -Hartree energ DENC   =    -20099.84232438
  -exchange      EXHF   =         0.00000000
  -V(xc)+E(xc)   XCENC  =      3274.52536619
  PAW double counting   =     95663.15457660   -95317.05741490
  entropy T*S    EENTRO =        -0.00109507
  eigenvalues    EBANDS =     -7142.68547040
  atomic energy  EATOM  =     64968.54023382
  Solvation  Ediel_sol  =         0.00000000
  ---------------------------------------------------
  free energy    TOTEN  =      -897.83542485 eV

  energy without entropy =     -897.83432978  energy(sigma->0) =     -897.83487731


--------------------------------------------------------------------------------------------------------




--------------------------------------- Iteration      1(  17)  ---------------------------------------


    POTLOK:  cpu time    0.1244: real time    0.1286
    SETDIJ:  cpu time    0.3588: real time    0.3589
     EDDAV:  cpu time   47.2129: real time   47.2141
       DOS:  cpu time    0.0020: real time    0.0020
    CHARGE:  cpu time    1.3850: real time    1.3850
    MIXING:  cpu time    0.0081: real time    0.0080
    --------------------------------------------
      LOOP:  cpu time   49.0912: real time   49.0967

 eigenvalue-minimisations  : 11832
 total energy-change (2. order) :-0.2856893E-04  (-0.2837419E-04)
 number of electron     864.0000006 magnetization 
 augmentation part      118.1637119 magnetization 

 Broyden mixing:
  rms(total) = 0.17832E-02    rms(broyden)= 0.17823E-02
  rms(prec ) = 0.21982E-02
  weight for this iteration     100.00

 eigenvalues of (default mixing * dielectric matrix)
  average eigenvalue GAMMA=   1.2872
  3.2601  2.3504  2.3504  1.0255  1.0255  0.8681  0.8681  0.8074  0.8074  0.8347
  0.6583  0.5904

 Free energy of the ion-electron system (eV)
  ---------------------------------------------------
  alpha Z        PSCENC =      2701.53174423
  Ewald energy   TEWEN  =    -44946.00104095
  -Hartree energ DENC   =    -20099.98401407
  -exchange      EXHF   =         0.00000000
  -V(xc)+E(xc)   XCENC  =      3274.52839196
  PAW double counting   =     95668.00593745   -95321.97252537
  entropy T*S    EENTRO =        -0.00111558
  eigenvalues    EBANDS =     -7142.48306490
  atomic energy  EATOM  =     64968.54023382
  Solvation  Ediel_sol  =         0.00000000
  ---------------------------------------------------
  free energy    TOTEN  =      -897.83545342 eV

  energy without entropy =     -897.83433783  energy(sigma->0) =     -897.83489562


--------------------------------------------------------------------------------------------------------




--------------------------------------- Iteration      1(  18)  ---------------------------------------


    POTLOK:  cpu time    0.1233: real time    0.1373
    SETDIJ:  cpu time    0.3604: real time    0.3604
     EDDAV:  cpu time   42.3429: real time   42.3440
       DOS:  cpu time    0.0021: real time    0.0021
    CHARGE:  cpu time    1.3634: real time    1.3635
    MIXING:  cpu time    0.0076: real time    0.0076
    --------------------------------------------
      LOOP:  cpu time   44.1996: real time   44.2149

 eigenvalue-minimisations  : 10304
 total energy-change (2. order) :-0.4681977E-05  (-0.5791223E-05)
 number of electron     864.0000006 magnetization 
 augmentation part      118.1642009 magnetization 

 Broyden mixing:
  rms(total) = 0.12696E-02    rms(broyden)= 0.12685E-02
  rms(prec ) = 0.15397E-02
  weight for this iteration     100.00

 eigenvalues of (default mixing * dielectric matrix)
  average eigenvalue GAMMA=   1.3021
  3.3221  2.3992  2.3992  1.1067  1.1067  0.9240  0.9240  0.9357  0.5991  0.8003
  0.8003  0.8050  0.8050

 Free energy of the ion-electron system (eV)
  ---------------------------------------------------
  alpha Z        PSCENC =      2701.53174423
  Ewald energy   TEWEN  =    -44946.00104095
  -Hartree energ DENC   =    -20099.98939370
  -exchange      EXHF   =         0.00000000
  -V(xc)+E(xc)   XCENC  =      3274.52839689
  PAW double counting   =     95670.21888136   -95324.19189511
  entropy T*S    EENTRO =        -0.00110610
  eigenvalues    EBANDS =     -7142.47127853
  atomic energy  EATOM  =     64968.54023382
  Solvation  Ediel_sol  =         0.00000000
  ---------------------------------------------------
  free energy    TOTEN  =      -897.83545810 eV

  energy without entropy =     -897.83435200  energy(sigma->0) =     -897.83490505


--------------------------------------------------------------------------------------------------------




--------------------------------------- Iteration      1(  19)  ---------------------------------------


    POTLOK:  cpu time    0.1053: real time    0.1090
[...]
   0.536E+02 -.150E+03 0.116E+03   -.692E+02 0.156E+03 -.115E+03   0.182E+02 -.621E+01 -.291E+01   -.306E-03 0.582E-03 0.381E-03
   0.696E+02 0.468E+02 -.348E+02   -.745E+02 -.323E+02 0.255E+02   0.522E+01 -.191E+02 0.118E+02   -.707E-03 -.650E-03 0.112E-03
   -.138E+03 0.679E+01 -.864E+02   0.159E+03 -.186E+02 0.815E+02   -.218E+02 0.169E+02 0.836E+01   0.462E-03 0.921E-03 0.207E-03
   -.421E+02 0.845E+02 0.179E+02   0.649E+02 -.918E+02 -.201E+02   -.218E+02 0.681E+01 0.879E+00   -.102E-02 -.231E-03 0.101E-03
   0.383E+01 0.377E+02 0.438E+02   -.213E+02 -.278E+02 -.481E+02   0.212E+02 -.106E+02 0.461E+01   0.123E-04 -.448E-03 0.336E-03
   0.494E+02 0.261E+02 -.409E+02   -.774E+02 -.364E+02 0.387E+02   0.243E+02 0.885E+01 -.124E+01   0.815E-03 0.705E-03 -.888E-03
   -.514E+02 -.638E+02 0.294E+02   0.562E+02 0.885E+02 -.319E+02   -.306E+01 -.244E+02 -.269E+01   0.446E-03 0.561E-03 -.267E-03
   -.983E+02 -.360E+01 -.171E+03   0.890E+02 0.862E+01 0.217E+03   0.101E+02 -.720E+01 -.338E+02   0.167E-03 0.308E-03 0.104E-03
   0.193E+02 0.118E+03 -.183E+02   -.137E+02 -.137E+03 0.417E+02   -.541E+01 0.187E+02 -.240E+02   -.527E-03 -.739E-04 -.331E-03
   -.139E+03 -.145E+03 -.346E+02   0.161E+03 0.157E+03 0.758E+02   -.138E+02 -.969E+01 -.375E+02   -.120E-03 0.142E-03 0.278E-03
   0.127E+03 0.117E+03 0.419E+02   -.138E+03 -.148E+03 -.685E+02   0.645E+01 0.241E+02 0.244E+02   -.545E-03 0.544E-03 -.531E-03
   -.569E+02 0.213E+02 0.184E+02   0.690E+02 -.546E+01 -.226E+02   -.141E+02 -.149E+02 0.380E+01   0.329E-03 -.101E-03 0.147E-03
   0.256E+02 -.197E+03 -.405E+02   -.505E+02 0.223E+03 0.203E+02   0.220E+02 -.155E+02 0.183E+02   -.959E-03 0.551E-03 -.536E-03
   0.110E+03 -.100E+03 -.239E+02   -.134E+03 0.112E+03 0.351E+02   0.235E+02 -.135E+02 -.122E+02   -.226E-03 0.678E-03 0.636E-03
   0.768E+01 -.122E+03 0.125E+03   -.473E+01 0.130E+03 -.158E+03   -.180E+01 -.950E+01 0.348E+02   0.738E-03 0.802E-04 0.544E-04
   -.876E+02 0.452E+02 0.109E+03   0.883E+02 -.475E+02 -.117E+03   0.653E+01 0.298E+01 0.890E+01   0.518E-03 0.538E-04 0.112E-03
   0.921E+02 -.336E+02 0.491E+00   -.944E+02 0.301E+02 -.896E+00   0.499E+00 0.618E+01 0.159E+00   -.149E-03 -.638E-03 0.142E-03
   -.146E+03 0.200E+03 -.759E+02   0.168E+03 -.208E+03 0.761E+02   -.230E+02 0.451E+01 0.101E+01   0.532E-03 -.908E-03 -.164E-03
   0.158E+02 -.175E+03 0.854E+02   -.551E+00 0.191E+03 -.863E+02   -.153E+02 -.114E+02 -.696E-01   -.152E-03 0.102E-02 -.170E-04
   -.529E+01 0.150E+03 -.159E+02   -.170E+02 -.146E+03 0.225E+02   0.218E+02 -.562E+01 -.313E+01   0.131E-03 -.579E-03 0.146E-03
   0.337E+02 -.109E+02 -.102E+03   -.360E+02 -.410E+01 0.116E+03   0.279E+01 0.201E+02 -.176E+02   -.146E-03 0.384E-03 0.391E-03
   -.219E+02 0.156E+02 -.641E+02   0.178E+02 -.267E+01 0.815E+02   0.492E+01 -.135E+02 -.154E+02   -.930E-03 -.157E-02 -.113E-02
   0.216E+02 -.175E+03 0.271E+02   -.150E+02 0.200E+03 -.169E+02   -.569E+01 -.232E+02 -.112E+02   -.431E-04 -.911E-04 0.185E-03
   0.104E+02 -.528E+02 -.257E+02   -.105E+02 0.424E+02 0.363E+02   0.754E+00 0.130E+02 -.130E+02   0.682E-03 0.394E-03 -.693E-03
   -.969E+02 0.514E+02 0.253E+02   0.109E+03 -.618E+02 -.430E+02   -.136E+02 0.103E+02 0.203E+02   0.695E-03 -.166E-03 0.589E-04
   0.533E+02 0.551E+02 -.896E+02   -.720E+02 -.550E+02 0.866E+02   0.159E+02 -.332E+01 0.670E+01   0.287E-03 0.729E-03 0.861E-04
   -.350E+02 0.156E+03 -.437E+02   0.447E+02 -.171E+03 0.360E+02   -.965E+01 0.158E+02 0.105E+02   0.323E-03 -.433E-03 -.690E-04
   -.103E+02 0.167E+03 0.450E+02   0.108E+02 -.166E+03 -.623E+02   -.207E+01 -.242E+01 0.177E+02   -.103E-03 -.177E-03 0.570E-03
   0.116E+03 0.595E+01 -.162E+02   -.122E+03 -.169E+02 0.168E+02   0.554E+01 0.142E+02 0.185E+00   -.654E-03 0.300E-03 0.671E-04
   -.979E+01 0.677E+02 -.587E+02   0.117E+02 -.771E+02 0.589E+02   -.883E+00 0.127E+02 0.190E+01   -.101E-03 0.374E-03 0.551E-03
   -.493E+02 0.123E+02 0.246E+02   0.468E+02 -.381E+02 -.397E+02   0.558E+01 0.244E+02 0.151E+02   0.624E-03 0.811E-03 -.414E-03
   0.134E+02 -.874E+02 0.514E+02   -.243E+02 0.854E+02 -.773E+02   0.116E+02 0.669E+01 0.278E+02   0.331E-03 0.548E-03 -.379E-03
   -.617E+02 -.539E+02 -.564E+02   0.905E+02 0.611E+02 0.737E+02   -.269E+02 -.703E+01 -.147E+02   0.258E-03 -.120E-03 -.391E-03
   -.227E+02 0.225E+03 0.105E+02   0.301E+02 -.216E+03 -.220E+02   -.856E+01 -.123E+02 0.102E+02   0.972E-04 -.909E-04 -.527E-03
   0.114E+03 -.570E+02 -.644E+02   -.134E+03 0.586E+02 0.885E+02   0.181E+02 -.609E+00 -.221E+02   -.983E-04 0.435E-03 0.287E-03
   0.656E+02 -.695E+02 0.283E+02   -.930E+02 0.605E+02 -.269E+01   0.209E+02 0.605E+01 -.281E+02   0.214E-03 -.223E-03 0.647E-03
   -.534E+01 0.192E+01 -.641E+02   0.128E+02 0.867E+01 0.505E+02   -.893E+01 -.127E+02 0.168E+02   -.431E-04 0.962E-03 -.532E-04
   -.220E+02 0.119E+03 -.731E+02   0.241E+02 -.134E+03 0.695E+02   -.824E+00 0.140E+02 0.517E+01   0.450E-03 -.295E-03 -.178E-03
   0.657E+02 -.352E+02 0.546E+02   -.466E+02 0.276E+02 -.676E+02   -.219E+02 0.690E+01 0.148E+02   -.237E-02 -.608E-03 0.715E-03
   0.148E+03 -.735E+02 -.192E+02   -.168E+03 0.762E+02 0.304E+02   0.171E+02 -.220E+01 -.394E+01   -.420E-03 0.860E-04 -.262E-03
   0.195E+02 -.172E+03 0.760E+02   -.298E+02 0.173E+03 -.958E+02   0.112E+02 -.775E+00 0.213E+02   -.805E-04 0.557E-03 0.434E-03
   0.580E+02 0.592E+02 -.598E+02   -.693E+02 -.817E+02 0.498E+02   0.861E+01 0.215E+02 0.103E+02   0.408E-04 0.299E-03 -.658E-03
   0.975E+02 -.120E+03 0.809E+02   -.107E+03 0.146E+03 -.726E+02   0.969E+01 -.225E+02 -.932E+01   -.156E-03 -.671E-03 0.532E-04
   -.332E+02 0.142E+03 0.486E+02   0.214E+02 -.129E+03 -.411E+02   0.155E+02 -.153E+02 -.118E+02   0.719E-03 -.506E-03 -.170E-03
   -.163E+02 0.185E+03 0.612E+02   0.726E+01 -.192E+03 -.792E+02   0.988E+01 0.670E+01 0.189E+02   0.844E-03 -.313E-03 -.366E-03
   -.200E+02 0.140E+02 0.273E+02   0.330E+02 -.326E+02 -.163E+02   -.153E+02 0.195E+02 -.147E+02   -.185E-03 -.288E-03 -.289E-03
   -.750E+01 -.373E+02 0.103E+02   0.284E+02 0.392E+02 -.156E+02   -.205E+02 -.321E+01 0.840E+01   -.147E-03 0.678E-03 0.817E-03
   0.556E+02 -.168E+03 0.491E+02   -.803E+02 0.179E+03 -.592E+02   0.237E+02 -.398E+01 0.687E+01   0.678E-03 0.631E-03 0.376E-03
 -----------------------------------------------------------------------------------------------
   0.821E+01 0.266E+03 0.823E+02   0.412E-12 0.426E-12 -.171E-12   -.821E+01 -.266E+03 -.823E+02   -.717E-03 -.450E-02 -.377E-03
 
 
 POSITION                                       TOTAL-FORCE (eV/Angst)
 -----------------------------------------------------------------------------------
      7.86306      6.59291      0.12928        -2.196099      1.763786      4.338975
      5.30493      8.49147      0.90101         4.359571      6.099338      2.368594
      7.62571      3.66890      9.42518        -6.020326     -1.202723     -0.404569
      5.90660      0.08072      3.81291        -2.471753     -1.181890      1.173171
      0.88345      6.24056     11.04282        -2.664679      0.193382     -3.668786
     10.00441      8.10050     10.52834         1.740183     -0.971084      1.688536
      3.41792      6.25384      4.72628         0.076271      1.015198     -0.378655
      4.63443      5.29533      8.09189         1.533225     -0.252111     -0.133617
     10.99939      3.57320      7.85362         0.979995     -1.682253      0.925333
      8.92347     11.06589      3.59486         1.908553     -2.302265      0.383852
     11.62682      8.78734      1.93354         2.258020     -3.664922      0.658349
      0.49934      5.63970      2.37364        -1.767570      0.564156      1.591175
      7.57486      7.77315      5.46503         0.826456     -0.109321     -2.352677
     11.62166     11.84879      2.04528         1.134380     -1.191455     -2.860574
      2.30587      3.55773     10.47048        -0.477993      1.073301     -0.364652
      8.81301      1.13818      6.29558        -1.739667     -0.699261      0.028018
      7.83723     11.26033     11.95434        -1.082524     -0.195931     -0.430541
      4.88388      5.27952     12.08255        -1.527940      0.930724      0.264473
      7.15373      5.00776      5.87475         1.856539      1.196613     -0.411617
      1.11919      2.72795      0.78215        -5.071316      2.043076      4.326697
     10.72350      0.74584     10.24998        -0.014731     -1.608095      0.348254
      3.82065     10.98965     10.18003         0.554710     -1.926024     -3.972108
      1.81115      3.87023      6.68542         1.048160      0.434287      2.013898
      0.08599      9.35409      6.51748        -2.474173      1.881670      1.626731
      9.34065      9.42971      7.96932        -1.434187      0.098820     -0.927103
      9.27629      4.95201      2.61304         0.779851      1.166354      1.138086
      2.74360     11.02021      6.60468         1.355787      2.389038     -0.096784
      0.85431      9.60372      9.48308         0.517663      0.952577     -3.756321
      7.26132      7.08972      9.18543        -0.935525     -1.331973     -2.539754
      7.81986      2.28762      3.48375        -1.792844      0.896197     -2.052377
      2.53173      6.87601      0.72496         7.216103     -1.013942     -8.682722
      5.02681      7.70196      9.69395         4.539958     -0.184524     -0.879537
      2.59665      7.04090      8.42614         2.054147     -4.334635      1.078704
      6.34260      5.71276      2.93023        -1.548276     -5.174602     -0.986694
      2.66452      0.15864      3.25986        -1.605224     -2.722341     -1.140191
     10.21345      4.52830     10.89102        -2.919056      1.185472     -0.525953
     11.62219      0.62354      6.60029         0.711815      6.714040      4.075064
      4.98423      3.25973      6.13491         1.543537     -9.523396     -4.577587
      4.95989      9.16699      4.24706         3.372417     -1.829519      1.416755
      6.98372      0.23292      8.87414         0.298498      1.284508      3.753367
      6.05760     10.34495      6.71792         1.291056      7.514134      2.531594
     11.00324      6.23990      7.07128        -0.040752      6.141157     -1.297191
      2.15773      9.46775      4.09290        -5.458535     -0.768688     -5.477446
      2.48372      3.05658      4.08575         3.707044     -1.896415      0.990728
      4.46097      1.94075      8.78944         0.595501      1.923389      0.163274
      8.76815      8.87771      1.67079         1.391324     -3.330958     -0.101537
      2.05998      9.65661      0.01193       -11.555132     -3.971892     -3.808266
      1.47533      1.26532      8.85154        -0.861341     -6.532483     -2.329805
      9.80276      2.28657      0.39940        -3.494887     -0.904892      1.751016
     11.91668      2.40721      4.32520        -0.795589     -0.755480     -8.143253
      3.97812      1.12184      0.09099         4.057285     -1.759319      3.243104
     10.80442      7.44395      4.85372         0.023697     -4.181158      2.405283
      7.02221      3.48374      0.29063         1.464679      0.694138     -1.819946
      4.88133      2.99386      2.37559         0.009671     -1.850700      2.335054
      9.97007      3.88668      0.91937         3.122166      0.843769     -3.493012
      7.07296      4.77599      1.26610        -0.088275      0.895173      1.998106
      7.61877      0.70142     10.45126        -2.571222     -1.194847     -1.471054
      1.21282      2.79048      8.52658        -0.080707     -0.198563      1.711909
      6.00178      2.22328      3.41287         1.929919      0.220216     -2.031559
     11.25462      1.19278      8.19893        -1.966230      0.238753     -1.706851
     11.93398      6.62777      0.64499        -2.199523     -0.790555      0.071282
     11.74412      4.53983     10.33254        -0.988665     -0.946723      0.650419
     10.31543      6.34809      3.92096         2.248949     -5.306694     -0.741966
     11.86946      7.45153      6.03793         1.965048     -2.843497      0.414019
      1.41269      9.97492      5.31854         1.963801      2.607720      2.222476
      8.48782      3.54016      4.12374         0.383757     -0.165917      2.837585
      8.44562     11.99182      8.41514         3.190716     -0.937724     -3.408100
      4.03864      7.48643      0.13360        -4.897923     -5.929225     -0.832723
      2.85938      6.34930      7.01571         0.130625      2.058018     -0.192982
      4.94831      4.69179      5.95829        -1.561376     10.407421     -1.320751
      6.33909      6.90348     10.73093        -1.071487     -0.541495     -4.501758
      6.46183      4.54468     11.00214         1.381943     -3.254329      1.385535
      4.36000      2.99626     10.17169         0.074120     -3.815019     -2.468085
      7.06212      9.24435      6.82030         4.944691     -2.406185      1.245383
      4.22072      0.84120      1.80432        -0.172820     -0.623432      0.418990
      3.22934      3.16449      2.65339        -0.600329      0.142098     -2.678695
      7.93865      0.81009      4.15148         1.230447      0.784104     -0.397101
      5.19275      4.45559      3.10148         1.022214      3.393385     -0.862735
      3.19292      0.74838      8.38227         0.863926      1.679095      2.392369
      3.56519     11.90257      4.67600        -1.101260      1.101642     -3.446457
      9.57224      7.25975      6.28674         0.606446     -2.608106      0.089151
      9.05343      5.82638     11.00896         5.810750     -2.982845     -3.552322
      1.34043      7.63435      9.03245        -3.882570      3.174851      0.988508
      6.10556      6.90267      2.08259        -1.995453      3.629393     -3.325547
      5.41199      8.99993     10.22724         0.004391      8.822963      3.136843
      5.78479      9.92910      2.94139        -3.628842     -0.322671      3.957638
      1.01881      0.63864      6.90104         6.072700     -0.065377      2.277368
      0.40653     10.14495      0.53242         2.648885      0.360724     -2.106327
     11.82721      3.83892      3.24477         0.316534     -4.557892      2.539867
      4.90976     12.03415     11.36675        -0.678908      5.001387      3.489164
     11.34591      1.93253      0.17580         0.969444     -0.468929     -1.294908
      1.35481      1.12863      2.68585         3.688897     -0.714186      0.243425
      4.73720      9.86783      6.09848        -3.682669     -1.435019     -3.386386
      6.52948     11.80934      6.19665         1.748456      0.337054     -5.145241
      2.17963      6.77344      2.07572         0.762874     -2.181395     11.379286
      1.33580      2.25904      4.96622         0.225184     -0.560049     -0.601335
      2.89347      9.96338      1.11994         8.922589      2.088814      3.684026
     11.09332     11.58263      5.86666        -4.841338     -6.787600     -2.251044
      6.13601      1.67319      8.65593        -2.038895      0.868296     -0.411493
     10.05061      8.54375      4.30498        -2.950057     10.951355     -1.962356
     11.43664      9.93327      9.87401        -0.889430     -1.450505     -0.953685
      5.55082      7.61324      8.12701         1.158994     -2.358192      2.198137
      9.43558      3.79555      9.29003         7.210793      0.698097      1.107286
      2.90378      4.77356      8.96752        -1.804919      2.697824     -0.246665
      6.65097      3.12836      6.20994        -0.941840     -3.873060      1.215776
      9.96629      9.93722      1.81440         0.005134      4.382102     -0.887505
      4.11265      2.93652      7.40357        -0.525016     -1.707836      3.471249
      1.16299     12.07457     10.15855         0.476345      5.104269     -2.907407
     10.72806      7.18877      8.36878         0.812512     -0.605823      2.096025
      8.16859      8.31525      9.54709         0.906146      1.237595     -1.100984
      5.30946      7.45534      5.11287         0.711582      2.575472     -2.446921
      7.72250      6.07654      7.91924        -1.456594     -0.131453      2.532394
      5.89467     11.40477      8.12769        -2.744860     -3.219073      3.661996
      4.00946      2.52834      4.77399        -0.001159      0.705699      2.750192
      8.53034      3.04316     11.48371        -1.618169     -1.328133      0.417557
     11.22456      0.88720      3.60539        -0.604358      3.275899      0.850129
      9.51096      0.33740     12.07981         1.036471      3.310888      2.174514
      3.48993      8.73363      3.89713         3.007023     -1.356760      0.050248
      1.93273     10.60772      2.91898         0.666272      4.707021      1.882283
      7.49105      5.89083      3.89383         1.835778      0.202928      2.518785
      8.27708      2.67727      1.89030        -1.232838     -3.204697     -1.246512
      7.92955      9.28662      2.90530        -1.744460      0.950978      1.962783
      3.64012      7.19030      9.86814        -6.481266     -2.927509     -2.480587
      1.44573     10.20595      8.00774        -1.461513     -2.095237      3.133039
      2.44168      5.27855     11.99951         1.330985     -0.208015      1.565771
      0.05973      5.13984      6.66504        -2.790262     -0.681136      1.764947
     11.10908      2.04423      5.58539        -3.145066      0.454757      7.302931
      8.01778      8.93250      0.11543         0.878962      0.051223      1.479057
      1.22994      8.26675      3.59299        -2.773295     -0.961756      0.319041
      2.18126      4.42493      4.72530         0.037519      4.147197     -0.980805
      2.76241      2.09792      0.29451         3.720390     -1.809507     -4.230676
      5.35524      2.86147      0.70505         0.866106      0.201200      0.906072
      9.54989      7.41170      2.03136        -2.288301      0.915844     -3.701479
      2.13730      9.79889     10.38724         0.367489     -1.266036      3.054953
      1.64614      7.88389      0.00736        -1.012051      6.496674     -3.272324
 -----------------------------------------------------------------------------------
    total drift:                               -0.005085     -0.033232      0.005528


--------------------------------------------------------------------------------------------------------



  FREE ENERGIE OF THE ION-ELECTRON SYSTEM (eV)
  ---------------------------------------------------
  free  energy   TOTEN  =      -897.83545966 eV

  energy  without entropy=     -897.83435714  energy(sigma->0) =     -897.83490840
 


--------------------------------------------------------------------------------------------------------


    POTLOK:  cpu time    0.4568: real time    0.4568


--------------------------------------------------------------------------------------------------------


     LOOP+:  cpu time  944.9927: real time  945.2852
    4ORBIT:  cpu time    0.0000: real time    0.0000

 total amount of memory used by VASP MPI-rank0   166846. kBytes
=======================================================================

   base      :      30000. kBytes
   nonlr-proj:      21357. kBytes
   fftplans  :      24448. kBytes
   grid      :      12995. kBytes
   one-center:        171. kBytes
   wavefun   :      77875. kBytes
 
  
  
 General timing and accounting informations for this job:
 ========================================================
  
                  Total CPU time used (sec):      968.509
                            User time (sec):      963.210
                          System time (sec):        5.300
                         Elapsed time (sec):      968.942
  
                   Maximum memory used (kb):      311484.
                   Average memory used (kb):           0.
  
                          Minor page faults:       117014
                          Major page faults:            0
                 Voluntary context switches:         1533
