135
Time=99999.99999996 pbc="T T T" Lattice="12.09378762 0.00000000 0.00000000 0.00000000 12.09378762 0.00000000 0.00000000 0.00000000 12.09378762" energy=-900.82631395 virial="87.97809774 6.32586284 14.52416088 6.32586284 85.21272505 -0.69572635 14.52416088 -0.69572635 105.89591141" stress="0.07604545 0.00357629 0.00821115 0.00357629 0.07448206 -0.00039332 0.00821115 -0.00039332 0.08617518" Properties=species:S:1:pos:R:3
Ca 5.39066209 6.08509822 1.07594355
Ca 11.82973274 1.12130406 5.90585279
Ca 9.00232988 4.53332985 9.32430604
Ca 6.03316325 4.46637838 6.51384076
Ca 1.60414155 0.71473934 2.01625664
Ca 0.36586878 5.07458665 8.70292777
Ca 5.11143189 6.73628745 3.80533360
Ca 1.87814640 8.60871719 7.60993263
Ca 1.91506456 6.42641137 5.05231617
Ca 8.46803868 1.86514477 3.06169803
Ca 9.27673635 6.71046237 4.25291641
Ca 3.04374270 2.59803054 3.64155996
Ca 8.31565645 8.44578811 8.30064073
Ca 3.59734896 10.14735307 4.20793189
Ca 6.62749798 11.74355258 2.42112911
Ca 2.74825724 11.39632000 8.94912973
Ca 6.25752165 0.24500277 6.41794675
Ca 12.02707226 2.41846801 11.04201823
Ca 10.86146472 8.81084967 6.46912365
Ca 4.80350417 2.86834389 9.16851013
Ca 8.92068383 2.69960159 5.55839743
Ca 5.26736468 11.53728223 9.88141177
Ca 11.10970446 2.58410062 1.99634606
Ca 5.39788844 6.25995990 9.98365812
Ca 3.48000529 8.97042577 11.02295713
Ca 8.52586717 11.06923305 11.42999471
Ca 10.32293162 5.88945444 0.37242568
Si 3.51611300 2.64931031 6.87471710
Si 2.86855427 0.41289369 5.53496888
Si 8.04181723 1.51977384 9.25151683
Si 3.94576633 2.95313554 0.04087343
Si 5.85946153 3.31908555 3.73714295
Si 7.35935977 3.46684196 11.99962656
Si 0.19251357 0.02090194 9.08408864
Si 0.78210951 10.03378052 4.44125193
Si 11.43545284 4.28171881 5.97680200
Si 8.99200188 10.95610139 5.01459846
Si 6.95143830 8.55670193 2.06276165
Si 10.40562556 7.94011969 10.30235829
Si 0.73881360 10.11168333 10.93787129
Si 10.28795148 0.02769420 1.14916475
Si 2.98464738 5.00290291 11.17710599
Si 8.14267920 4.45739393 2.39878227
Si 2.76055204 7.57168867 2.32202499
Si 4.26875159 0.01528879 0.37834619
Si 11.22879698 2.24071625 8.29059767
Si 1.39718444 4.36575733 1.89904000
Si 10.31092529 9.69438186 2.99039603
Si 9.79291827 11.09270758 8.27113134
Si 3.10640769 5.32492702 7.40966587
Si 5.05009123 9.24613160 7.71311349
Si 6.89842863 8.74919749 11.25976112
Si 8.62539292 5.53691848 6.78150185
Si 1.29251674 8.98601667 1.47151416
O 1.27154164 10.21339428 0.31006816
O 8.21907447 4.69139876 11.50123616
O 3.63253425 1.87349483 11.05806345
O 7.70595555 3.24387580 1.39690270
O 1.30277169 1.28899691 8.91192091
O 2.74545196 8.72614898 1.09740709
O 4.52658075 8.58064003 9.11098474
O 7.12297165 7.42085715 3.15439037
O 10.46185780 8.01039618 8.56012572
O 9.09468062 7.98084187 11.52015573
O 11.23277800 3.45981515 4.75046384
O 9.90449243 10.06453111 9.30326361
O 10.52771534 7.91537350 3.16153646
O 1.70452493 11.78536067 4.51263305
O 11.09614344 1.25335140 9.64514237
O 11.44788954 11.09455075 8.02567261
O 7.22190299 11.37015675 4.90938864
O 0.21672318 5.56083680 5.46635737
O 8.44664617 2.16520690 11.07160266
O 6.63057387 0.81803737 9.34359093
O 9.11888014 9.86121624 3.99856259
O 11.24056509 6.16594035 10.04628581
O 8.90574507 0.04633174 8.93500871
O 5.22010495 2.51973592 6.94319382
O 3.29055381 6.52062494 11.18018589
O 3.50990177 7.89506940 3.87571566
O 0.71497383 9.85247469 2.95281642
O 1.24773507 8.63231876 4.86154178
O 3.87149542 8.90455759 6.34380468
O 7.20941678 2.89389440 4.35663847
O 3.41991283 10.98880750 11.18004424
O 11.83670986 11.57652620 10.68353412
O 2.00039874 6.44050259 7.75329641
O 9.20999034 10.29217675 6.58016862
O 0.20210842 3.13860504 7.27476726
O 6.97547269 10.07035670 10.64013170
O 5.93261594 0.27528059 0.17980877
O 6.00658870 7.88615700 0.09861471
O 5.39478166 9.35798027 2.63919492
O 11.30995440 3.43631440 9.42383688
O 3.99178533 6.11177615 6.29933017
O 9.26359430 3.64847492 3.18542196
O 1.04210626 7.49063927 2.38373172
O 6.41358936 9.08416261 6.71471231
O 9.18809775 5.79256763 2.16787632
O 4.59807805 4.85635543 8.37997204
O 7.97619331 9.70480555 1.03046132
O 1.92689636 4.83064754 9.84556282
O 10.14324307 4.72291809 7.15724411
O 10.27597405 0.81337659 11.80688755
O 8.13445688 5.13588957 5.31394128
O 11.61092467 0.16462500 2.16828804
O 8.83179422 0.47547307 1.60210963
O 7.20001426 7.63387720 10.18155959
O 9.46275557 0.49263569 4.60559594
O 10.25499288 1.69827621 7.40403627
O 1.96996577 4.89047704 3.25571420
O 1.57571130 11.51871189 6.97014996
O 11.34860015 10.61571180 4.22666232
O 6.69190250 4.67936932 2.88241854
O 11.76582054 8.76831333 11.07529103
O 3.50515271 1.24946675 7.93072965
O 5.72193498 3.57873260 0.23383936
O 5.27119285 1.89459806 2.83938098
O 2.49721671 2.06772970 5.66393519
O 2.46492586 3.84877785 7.44841727
O 1.68138011 9.55010602 9.78291055
O 2.51905275 4.16677644 0.55528314
O 7.53101315 4.98348590 7.87006709
O 4.18442126 0.15041726 4.54120134
O 3.16125045 11.79457638 1.38843145
O 5.17390727 10.79171866 7.98177980
O 10.19763963 10.39486471 1.62858887
O 3.27662529 2.18651124 1.09459347
O 4.41532058 4.15394666 10.82564079
O 8.22984565 2.58928950 8.33385953
O 9.07531209 7.29293034 6.71038717
O 3.39243908 6.05479519 1.71366490
O 11.78283812 4.62502343 1.21743074
O 0.89224485 2.78574290 2.54785617
O 4.81309278 4.25187677 4.54390044
135
Time=199999.99999918 pbc="T T T" Lattice="12.09378762 0.00000000 0.00000000 0.00000000 12.09378762 0.00000000 0.00000000 0.00000000 12.09378762" energy=-907.98183473 virial="74.64454814 12.56422868 -4.86493997 12.56422868 24.21872718 -4.02013073 -4.86493997 -4.02013073 58.74283087" stress="0.06850740 0.00710311 -0.00275037 0.00710311 0.03999945 -0.00227276 -0.00275037 -0.00227276 0.05951746" Properties=species:S:1:pos:R:3
Ca 0.42347095 0.94753201 6.42358574
Ca 6.82071606 5.88863073 6.86345641
Ca 9.52682857 5.71161490 9.62901498
Ca 7.51752022 6.39499590 1.14102409
Ca 1.32109845 3.40700207 0.11581428
Ca 2.97275223 1.19408369 10.06165110
Ca 3.55256608 11.53998169 6.08108333
Ca 9.97818553 11.30508552 5.81038134
Ca 0.90148839 3.73314558 3.66263531
Ca 0.77598191 9.82159105 0.18491706
Ca 9.06256282 4.79727324 4.50155011
Ca 4.97447981 4.49084367 0.09635718
Ca 0.39902718 7.50041588 9.24974573
Ca 6.66697345 0.76328156 1.29513910
Ca 11.42868132 11.33995816 8.86750616
Ca 7.31457932 2.32902174 5.86277153
Ca 1.08257902 11.12200408 3.57606467
Ca 10.42579526 4.63256066 0.92671424
Ca 5.26070788 10.13072721 11.13501049
Ca 3.96675136 7.37310438 6.88496362
Ca 3.91908329 8.11162051 1.56466760
Ca 6.45983262 7.06934316 9.73668462
Ca 9.38324777 7.59440831 6.87388315
Ca 3.99334208 2.06869928 4.66385632
Ca 9.60692818 1.88500586 9.89608742
Ca 10.43484601 11.22056315 2.32356344
Ca 4.13273840 5.43703687 3.25343932
Si 7.31226061 9.64901700 1.46036086
Si 7.12810625 3.72443047 2.85652005
Si 3.25585190 1.87646047 1.78486009
Si 7.65554943 3.50124072 10.98423216
Si 9.56395652 7.66202635 11.72468518
Si 8.33187228 8.85589163 3.66163666
Si 5.91794640 0.21716543 7.11924611
Si 10.96856748 7.64927654 2.66165652
Si 0.58986978 9.51996751 6.37985310
Si 1.97708546 4.78858113 6.62713912
Si 3.95116952 11.38978223 2.10887812
Si 10.20752939 3.74958401 7.14729744
Si 8.30077425 11.83228278 8.02715040
Si 2.14993005 10.52854830 9.03705806
Si 5.81356580 1.60390396 9.86827748
Si 6.58261150 9.77887336 7.74385414
Si 3.37614944 6.78486984 11.03180930
Si 0.97087200 5.99401417 0.12298739
Si 11.06655905 1.70761024 1.21731579
Si 9.58872001 10.77791429 11.55092509
Si 1.54550300 7.82304166 3.79152846
Si 10.24500583 2.43238539 3.45582733
Si 5.61574520 8.60488346 5.21662309
Si 2.14933633 4.84786755 9.14099362
Si 4.93072874 4.04829830 8.14430973
Si 0.54689686 6.59219897 6.25234937
Si 0.23167866 3.28094961 8.36055315
O 10.82154444 2.90994274 6.06785376
O 6.23179950 9.14562997 9.09489460
O 9.98750001 0.03054511 0.50358454
O 7.08082253 7.83215562 4.21761436
O 8.35838197 3.58125047 7.38189815
O 1.51862734 3.24067186 7.12589286
O 11.04478108 3.70015566 2.85100938
O 11.52241605 2.59627689 12.07566326
O 7.16133687 0.13189567 8.98535077
O 7.07972992 4.86285831 4.16801480
O 3.47343912 2.74830345 0.33932235
O 10.33635819 9.45262704 0.08200998
O 4.85650066 2.96344459 9.55097643
O 0.18664739 5.13321533 5.44496393
O 11.69709569 7.20779581 7.43550975
O 5.20208454 0.71103870 11.00095151
O 9.17683011 3.56875832 11.32216042
O 5.33146594 10.69557650 1.98626684
O 3.50352131 9.87543949 9.75419913
O 3.08058802 3.37083167 2.44018905
O 4.92696845 1.02207408 8.19054428
O 5.29206018 5.63612148 8.30391210
O 5.50868452 3.59680522 6.72144768
O 0.80610255 7.79509270 5.38275122
O 8.70991257 2.78722233 4.21728456
O 0.02370386 0.86121797 2.43328581
O 10.49367611 7.60442940 10.51963095
O 11.07056857 9.55109732 6.95178549
O 9.71145459 1.46551434 2.17084237
O 5.42288368 10.81477887 7.58452166
O 4.06628840 0.62759449 3.08825255
O 2.47981459 11.68979541 7.88719155
O 8.09914497 6.88504153 8.27945447
O 7.06700952 5.24616936 10.41236123
O 1.36974032 11.47050338 10.45374846
O 2.21169732 9.08586091 3.15121657
O 3.38441351 8.55957414 11.74797489
O 10.21378106 6.80356921 1.12557306
O 6.95030986 2.80701122 0.00568673
O 7.47137179 0.14861615 6.54296050
O 8.60269686 8.50674093 1.78431957
O 9.66703223 7.53510351 3.78747621
O 4.96969348 6.55435888 11.22796852
O 0.11973842 6.85641450 3.41614971
O 11.95481001 5.35381826 11.30486785
O 1.96396476 6.56391370 7.36543276
O 11.51106859 9.17862705 2.40475726
O 8.20220169 7.27795952 11.19520168
O 8.49524474 10.21744157 7.79312991
O 2.85415879 10.22464744 1.85498498
O 10.78987507 3.58973375 8.65090614
O 11.08124775 0.82568821 4.41687717
O 0.66553163 7.59530516 11.79836364
O 7.26213901 2.57608934 9.56990342
O 1.78799126 3.52369974 9.97989089
O 6.80005968 2.25979896 3.00980033
O 6.96589408 9.81576860 3.04797475
O 5.90369660 4.96827420 1.87050929
O 9.57709811 10.84810258 9.88313602
O 1.02102995 10.71272846 5.67048130
O 5.08815851 7.12756214 5.36904585
O 6.43856911 8.77629685 6.47792911
O 0.60773702 4.92889757 1.48562735
O 0.82550105 9.59864582 8.10455606
O 9.96510322 5.62055846 6.53028737
O 2.64172260 6.24679610 9.73092197
O 2.52595504 5.63940065 0.09209892
O 0.52023400 5.04044022 8.90244918
O 8.32280057 10.12038263 4.80733100
O 9.57570120 0.64158446 8.01146113
O 3.31952505 4.30983781 7.81904147
O 4.12502975 9.65913856 5.24111594
O 3.45777112 0.65578567 0.72150307
O 8.35583196 4.30145600 1.81965655
O 3.09504532 4.24893390 5.52049551
O 11.97456528 1.59591628 9.03724319
O 2.48329078 6.43905428 4.04905408
O 7.91768725 10.88476474 0.01808484
O 2.15597915 0.85410181 5.29240592
O 5.46112201 1.18344465 5.61972983
O 6.18149599 8.60114867 0.60158473
135
Time=299999.99999840 pbc="T T T" Lattice="12.09378762 0.00000000 0.00000000 0.00000000 12.09378762 0.00000000 0.00000000 0.00000000 12.09378762" energy=-907.46314350 virial="52.17464523 15.11166315 12.24116373 15.11166315 76.75732025 5.91531487 12.24116373 5.91531487 118.63968221" stress="0.05580417 0.00854329 0.00692047 0.00854329 0.06970184 0.00334419 0.00692047 0.00334419 0.09337980" Properties=species:S:1:pos:R:3
Ca 6.73879663 11.41767316 1.71547331
Ca 11.41314477 7.58306628 3.55193974
Ca 3.07501815 2.45696109 11.45562963
Ca 2.89804691 9.09145357 10.68272905
Ca 5.88137044 10.92945973 7.40600941
Ca 4.04782217 6.39507566 0.99607247
Ca 8.93228964 6.50922968 4.58789079
Ca 7.50851487 4.16199337 2.16597675
Ca 9.44347218 2.94889172 6.52332350
Ca 7.06837692 1.71952071 5.38614270
Ca 2.66992702 1.13441090 5.73286487
Ca 9.50430599 11.70851163 11.82893151
Ca 10.89885486 5.67589642 8.53791474
Ca 6.92909946 10.30492053 10.76692409
Ca 11.46830229 0.37038851 7.23961378
Ca 2.07266867 9.44110225 5.60810076
Ca 12.05314314 0.77749128 1.46800647
Ca 1.35697820 9.68104121 1.90508747
Ca 1.04531078 3.96128468 5.03714501
Ca 4.57555702 2.96251441 2.72281630
Ca 12.06073754 9.25260588 8.77485188
Ca 8.03492585 5.88524300 10.44273326
Ca 5.08196009 7.58850775 7.53879536
Ca 8.85547620 2.96074509 10.20335859
Ca 7.52723774 7.13532592 1.45196791
Ca 2.25832775 5.03258999 9.14358201
Ca 8.39554114 10.67553383 5.44879335
Si 10.93106805 8.97866201 6.51494506
Si 4.55918765 4.07653863 5.49578396
Si 8.24505601 8.24053252 8.72047812
Si 7.51679647 4.66338121 7.47081218
Si 6.36140197 5.78078745 5.02755951
Si 5.47596596 9.24371515 4.67416444
Si 1.35769228 6.72864812 6.87146419
Si 2.52908349 11.52711778 8.54193865
Si 8.30926826 0.35873779 8.69197764
Si 4.11256553 11.57225768 3.53489629
Si 9.25474637 0.58054420 3.18813245
Si 1.00630030 11.92952283 11.08466534
Si 5.03129511 6.41817382 10.79448972
Si 9.74002348 9.56332480 1.96822342
Si 3.78641224 11.15567950 0.37437601
Si 1.18060881 7.07029462 11.33374844
Si 0.86781097 4.71453606 1.89430345
Si 0.27224590 2.61473889 10.43706661
Si 5.71696778 1.37231289 11.78768766
Si 2.34872563 6.73742966 3.89202345
Si 5.58983251 4.19154660 10.01594726
Si 10.00098578 8.41673356 11.35471080
Si 10.67758426 4.53125880 0.01974826
Si 1.11063864 2.66774704 7.96993318
Si 4.14926628 2.75246811 7.92353775
Si 11.73475467 11.55517280 4.45732172
Si 10.45343963 3.96499619 3.59063617
O 1.23714931 5.01967501 7.43516479
O 3.12643431 3.51398145 5.04717355
O 7.32020374 4.95505678 4.10520151
O 8.54166397 8.70742369 10.31407306
O 4.42093384 3.37995143 9.23613130
O 1.91158776 0.91467764 8.84000893
O 11.37126601 10.41087684 6.82966590
O 3.53178997 6.26190034 2.93534478
O 11.55050001 2.21079915 8.82321626
O 2.18564433 3.80964847 1.17887290
O 9.12326203 0.19570093 6.34281828
O 8.77997146 6.49728358 8.64033163
O 6.18282305 7.52991342 11.77978212
O 3.86731835 10.85390145 9.01178568
O 11.99147545 7.63551640 6.59308552
O 9.21479322 4.76359335 7.39801767
O 4.69886453 3.88297621 6.98946492
O 1.43097755 11.12049304 9.78131625
O 5.79795851 3.26354609 4.66288344
O 11.32205643 9.59516029 1.90193461
O 1.58578525 3.60977554 10.48111991
O 10.92878859 4.11264240 5.16335261
O 10.30947194 4.38974834 10.44011787
O 11.51357325 3.08946792 11.88151584
O 0.43751740 2.38992225 6.34667522
O 3.96042820 9.39299919 5.20785382
O 4.75230456 5.74479280 5.78716031
O 1.55653945 6.25397031 5.34377348
O 3.39770317 11.17655297 1.86807383
O 9.19299903 11.74725246 9.83586137
O 1.55219691 10.80099234 7.64663492
O 4.85818648 1.01351851 3.31561747
O 6.00415448 2.21356331 1.03625793
O 7.04675291 3.91711044 9.22314476
O 4.32922584 0.20623812 11.59701425
O 9.11877816 8.13117872 2.49238853
O 3.12143361 11.35736449 4.73150654
O 5.33727996 10.47899694 3.20347714
O 10.76051029 0.43316698 4.55439817
O 12.00886792 9.89551458 4.53637891
O 9.33580800 0.86377552 1.48831291
O 9.06428061 9.46604137 0.34978042
O 11.70440080 5.23185884 0.93004429
O 6.90208890 5.91453690 6.64512295
O 1.72161956 8.35082501 3.74703066
O 5.74935585 5.99991100 9.44158205
O 9.54791761 6.83330701 0.26326814
O 6.46431372 10.51508641 5.60046905
O 0.96506410 1.30330812 10.94470902
O 2.20029487 11.28385641 0.02615319
O 5.92747771 5.31039254 1.40087055
O 1.64531329 7.39315653 0.85745492
O 8.95340966 11.09357265 2.49830688
O 11.48475720 8.80818859 10.72830647
O 9.85708849 5.37156588 3.09192618
O 2.33681295 7.60759843 7.52302200
O 1.50073742 8.00593822 9.75028086
O 6.86968046 12.07473442 9.10564050
O 12.03460460 11.23345854 12.04642731
O 7.26500843 3.45574624 6.53898542
O 8.92682877 1.64809126 8.43664407
O 0.73903477 0.04117414 5.48128819
O 12.05255341 3.47933192 2.85717874
O 12.04386037 6.03266246 10.69290059
O 4.55103787 1.24813281 7.25562412
O 4.88166077 7.79550259 9.61351565
O 4.61459185 9.94019386 11.62792408
O 1.09984810 5.97857873 2.97095231
O 2.63174113 3.22384975 8.04843445
O 6.92395650 8.74837350 7.83914290
O 9.57196398 8.64983010 5.62635172
O 10.04401757 8.22836609 7.89791030
O 6.49622405 7.99999419 4.23087631
O 3.11939809 6.42686818 11.05390487
O 5.97718245 2.51842666 10.80725166
O 9.25967814 2.67201873 3.27435140
O 9.09925672 4.27306789 0.38009511
O 7.76310699 0.29414904 3.82902913
O 0.35997194 11.32858485 2.70468431
O 7.33161511 0.12885638 11.60756253
O 4.97506085 4.79591240 11.46547575
135
Time=400000.00000008 pbc="T T T" Lattice="12.09378762 0.00000000 0.00000000 0.00000000 12.09378762 0.00000000 0.00000000 0.00000000 12.09378762" energy=-900.13327696 virial="77.61461393 -17.84437439 17.02075085 -17.84437439 121.33748784 -14.63895042 17.02075085 -14.63895042 130.46278563" stress="0.07018651 -0.01008821 0.00962258 -0.01008821 0.09490499 -0.00827605 0.00962258 -0.00827605 0.10006392" Properties=species:S:1:pos:R:3
Ca 11.36446743 11.66335644 5.33650891
Ca 5.91559188 9.03766048 9.48112708
Ca 0.85775825 1.12452154 3.34852522
Ca 3.06137687 6.69536263 11.27066345
Ca 11.04657679 6.17733452 11.30128961
Ca 8.48937985 3.56505152 10.15968469
Ca 7.22114704 1.17002468 4.66196099
Ca 5.85539057 6.81217624 0.80918473
Ca 0.32742923 2.99891708 8.47111179
Ca 2.13032371 2.98689241 10.97045012
Ca 0.94533652 11.70690864 11.13962124
Ca 9.12513432 9.43294197 3.64039506
Ca 9.65474265 0.24686296 9.06064450
Ca 8.73038795 9.34495704 0.15184115
Ca 1.44266844 9.00575785 8.78707288
Ca 10.34789904 5.70274162 6.71147168
Ca 1.35567859 3.93940868 1.67122193
Ca 0.10470845 8.35626763 4.50447364
Ca 4.03833437 3.45404580 4.63377663
Ca 4.93297571 10.35846089 3.04672016
Ca 3.37249208 6.62357706 2.70376048
Ca 5.16511329 2.23279397 7.20826207
Ca 5.41039573 1.36470229 10.82221780
Ca 1.15022259 0.12382251 8.16330512
Ca 9.89298280 3.07367186 3.58657814
Ca 7.44125686 8.08968378 6.64630152
Ca 5.91937548 5.36663155 6.14248361
Si 5.94451625 0.95643873 2.10851228
Si 2.92589477 3.87531439 7.61674203
Si 5.03084839 4.15387437 0.15000886
Si 4.68890526 9.88875745 12.02653292
Si 7.97692439 11.42029200 6.56288983
Si 10.68382444 9.01236998 9.87791227
Si 2.87504642 0.15090920 5.10165855
Si 3.44757869 1.55563133 1.19420062
Si 1.19712948 5.52664886 9.08865902
Si 6.52654427 7.74079470 3.62782934
Si 3.19326311 9.46235636 5.64931386
Si 4.04634720 11.63691200 9.23384643
Si 8.11492931 3.70544117 6.65021479
Si 8.39695300 0.33626192 0.48098077
Si 11.93788604 5.45044118 4.35606211
Si 10.95396635 2.13836545 11.22345124
Si 8.24544143 6.95612451 9.67948534
Si 5.14607281 11.09330619 6.80346838
Si 10.47081645 0.75643137 1.44773408
Si 9.86056576 1.59293157 6.56830030
Si 3.86212743 8.09126673 8.03158478
Si 1.53951400 5.09368968 5.54372161
Si 11.77578160 9.31032452 1.12925284
Si 10.93901260 9.62491152 7.29343936
Si 6.79827288 4.22206365 2.54678198
Si 9.33430283 6.87603250 2.58739179
Si 0.07585012 6.80414891 1.46803806
O 1.16557835 6.12932197 0.71191978
O 0.09811161 3.33981657 10.96828226
O 9.47521225 8.02453453 10.41015838
O 7.81516258 7.89069071 8.52884997
O 10.13828776 2.43689031 9.85298110
O 2.76244550 2.45718166 2.47197171
O 8.86473001 10.91022246 5.33693105
O 5.14270161 3.70091904 10.46325516
O 12.08165665 4.21300763 5.43662199
O 7.30289509 7.14736001 10.95001828
O 6.69613776 9.14716134 3.25250996
O 6.81145903 11.78980051 2.91291956
O 0.07669625 10.50814163 7.62690159
O 8.16877907 2.98883126 5.18462426
O 0.32572681 8.84055944 10.86104085
O 9.37181490 1.79009331 0.46083425
O 3.29476716 11.80333141 3.79699468
O 4.31525710 3.99115812 8.25953363
O 4.44665860 10.10329176 8.26203743
O 6.50505426 11.97110844 6.22731410
O 9.06231602 12.05595627 1.81331362
O 8.24967349 0.82015893 7.22375633
O 5.73625784 4.76202939 3.80860795
O 4.67741183 0.26909392 1.23696729
O 10.25521618 1.51216713 5.04645821
O 2.73832401 2.96982874 6.24555796
O 5.38619613 0.60050637 8.43232820
O 2.07853808 10.79062006 5.85310756
O 11.57215924 0.74454738 0.34909538
O 0.50229981 6.00718321 3.10181776
O 2.02597256 4.21934256 8.97288864
O 7.85825629 6.63442147 2.30292755
O 4.71739471 10.07212515 5.07185273
O 4.43054281 7.55037770 9.35016694
O 5.14606678 1.87948348 5.17993730
O 3.43871200 0.87625433 9.64571929
O 9.16040546 5.48028600 9.93881174
O 2.27038192 1.04881290 0.04578814
O 10.23595793 6.63788483 1.01302536
O 7.34052921 6.89759696 4.89855885
O 2.00133132 6.87369036 8.70812958
O 8.09730153 11.32965532 11.50225829
O 8.20484833 3.64966344 2.44319081
O 5.55159791 2.59381432 2.42082722
O 9.84767198 3.13828346 6.86479860
O 10.90370986 0.68361972 7.35349353
O 0.49862604 10.46072287 0.68000213
O 2.04392486 5.17200624 7.03652344
O 5.29356088 6.95493430 3.11299332
O 2.95944929 8.64326386 4.05599074
O 10.56072883 10.56394533 10.62547158
O 6.19885406 4.68719648 1.17166260
O 8.08238664 5.32387323 6.45572528
O 4.13897070 5.47574262 0.38648467
O 11.90711926 11.51589439 2.81633971
O 0.58399949 5.29042160 10.51736955
O 5.00431107 11.11285171 10.42857916
O 1.29499647 0.84752411 5.40663573
O 6.79556428 10.43087257 7.66307355
O 0.84754191 8.32517829 1.91287609
O 9.41430731 10.27340948 7.71228136
O 11.80254372 4.90836441 8.41128829
O 6.26928268 9.94616022 0.38516225
O 4.72358096 7.29400407 7.03966926
O 10.26868411 9.16192053 1.71371121
O 0.00052116 1.11901512 9.93786234
O 6.87102810 1.23336940 0.85659559
O 11.05600120 8.17192053 8.20386452
O 2.32607956 10.98989923 9.40060503
O 4.50558701 7.93425438 11.35456937
O 10.14016525 7.84369918 3.67549909
O 11.04928713 1.75894897 2.50328522
O 10.05900552 5.30387480 3.84136134
O 2.79135450 8.65133166 6.91939283
O 7.22550195 3.50716130 7.93196498
O 10.71577551 9.40439748 5.80998030
O 3.93982152 0.29886857 6.55221777
O 4.13744186 2.64962012 0.25442595
O 3.19385491 9.94038914 0.98828496
O 0.13319331 6.57390129 5.38416495
O 2.08646035 5.21848003 4.03885895
135
Time=500000.00000301 pbc="T T T" Lattice="12.09378762 0.00000000 0.00000000 0.00000000 12.09378762 0.00000000 0.00000000 0.00000000 12.09378762" energy=-896.03836899 virial="53.73091304 17.24550763 -6.95800399 17.24550763 38.08560563 19.00702816 -6.95800399 19.00702816 89.40144563" stress="0.05668400 0.00974965 -0.00393367 0.00974965 0.04783901 0.01074551 -0.00393367 0.01074551 0.07685013" Properties=species:S:1:pos:R:3
Ca 8.18738030 10.57559020 6.43508913
Ca 7.30832883 11.10515218 10.07779677
Ca 3.34194319 3.82143561 5.84250744
Ca 7.75796334 8.46231581 4.79095456
Ca 7.62920726 4.33138965 5.88883128
Ca 11.83028670 0.44074461 3.11969449
Ca 10.11623564 4.25147624 1.32829518
Ca 7.58595534 5.85282004 2.66664678
Ca 5.02289168 1.46540997 0.45168849
Ca 1.03480657 9.88845840 11.11542970
Ca 8.39154474 8.99497809 0.77557228
Ca 12.02770862 10.73102375 6.42897166
Ca 1.88069510 6.31398377 1.80414229
Ca 4.27100125 6.92520218 4.74308588
Ca 5.68643067 4.28188112 8.56378204
Ca 3.06335216 0.44547311 2.54818676
Ca 4.01833383 10.60290192 11.26100195
Ca 10.74644847 7.41382175 4.42586001
Ca 11.51761545 2.66609080 10.05661989
Ca 0.20973967 4.73080826 8.19054288
Ca 9.34636810 5.45170069 7.22011511
Ca 1.02044735 5.93218405 11.18075391
Ca 0.97650440 9.18827386 2.53294830
Ca 10.46584008 12.02633655 11.87666897
Ca 6.73802967 6.92305339 10.93279127
Ca 4.81469652 10.16605510 5.94402391
Ca 5.77720190 1.75897575 4.55279259
Si 10.53321146 11.24812714 8.97025839
Si 2.30811215 3.49419600 1.48503086
Si 10.87173789 7.30695052 0.36290240
Si 2.64145465 3.12082054 8.92829919
Si 9.30122625 2.09110972 8.77130892
Si 7.34887448 3.66230420 0.01225017
Si 1.89713399 7.71625243 5.47033134
Si 2.22997681 1.05043651 5.01237898
Si 0.83090281 1.30845048 0.40782876
Si 6.69778465 1.57259681 7.20131853
Si 9.52937777 2.55089537 4.44850584
Si 2.49649709 11.57313641 7.84151144
Si 4.06504409 9.56366593 8.79920734
Si 9.82208669 8.48034791 9.68962511
Si 4.44999866 0.79335621 9.15279896
Si 5.71833980 7.37969732 7.70569693
Si 10.87707891 7.36839488 7.00948930
Si 0.77024799 3.65760242 3.72424354
Si 3.41274852 8.00991840 10.90189220
Si 8.74028600 4.62730750 10.07026179
Si 7.83359529 0.90109130 1.32061675
Si 8.34030719 0.32887938 3.67857945
Si 5.05300877 10.17835167 2.17587150
Si 10.10276418 9.81965409 2.62954996
Si 5.14366063 4.49008298 2.19074788
Si 2.98806893 6.12613164 8.94245999
Si 5.51187238 7.52301085 1.81914541
O 4.33557074 8.39634289 1.13886216
O 4.32447253 6.14894800 1.78146313
O 6.02737077 6.85876924 3.27540896
O 5.99309441 1.45730605 8.56861153
O 7.81777149 4.58371787 8.82962169
O 8.46911875 9.33423472 9.43077284
O 10.89214197 2.45679120 7.85016866
O 8.44733341 4.87847432 11.77535945
O 9.19402556 2.76906984 10.48062330
O 3.16336874 8.92472216 5.13471014
O 6.84405139 0.53688134 3.06880760
O 0.67769649 0.31855422 10.95559275
O 2.19900930 4.60119611 3.34802827
O 6.52618943 6.57393591 0.60519387
O 9.33346055 8.68866293 3.35750783
O 8.19258442 3.88460260 3.67071005
O 10.68834516 10.59089873 10.64506459
O 11.30351725 6.01408257 6.54531572
O 11.54294208 2.31736079 0.59906638
O 5.70421551 11.49907778 1.10392939
O 2.10279265 4.66733129 0.55254113
O 2.93525857 10.01634289 7.65798730
O 9.69262853 0.68549944 4.87178054
O 9.93039137 8.25901826 6.26310229
O 1.27402839 4.19982498 9.82083807
O 0.52169885 11.98275967 1.32549614
O 0.77660188 7.53850895 3.98371089
O 0.46905138 8.33836414 6.18928648
O 4.85699623 11.86839580 10.27294405
O 11.70010003 4.52886186 4.20482883
O 5.09770011 8.32167273 10.54878549
O 2.16735702 8.08888325 11.79069441
O 4.74680722 10.85457201 3.41717957
O 6.55572401 0.34429776 6.28877300
O 1.04055559 2.23419766 4.63610493
O 11.43209381 10.16372792 3.78840353
O 12.03190451 10.73062598 8.46309708
O 2.37327357 11.76631628 4.12991244
O 2.65395956 6.01497970 5.72847418
O 2.87968586 9.23222349 10.13240130
O 4.05235150 0.09165234 7.45457341
O 3.92282766 2.69076569 2.15060883
O 9.19584756 0.27941167 2.30970019
O 6.66642920 3.09839275 10.80063148
O 2.52402358 0.85917329 8.99700739
O 6.01055309 3.16328437 6.68216978
O 6.74292210 7.19556336 8.86893080
O 4.07126609 7.87564794 7.89103987
O 10.43709586 2.28476969 3.22606493
O 2.55989848 2.54140275 7.23813832
O 9.43566255 2.95226601 6.00131668
O 8.77221536 7.78081452 10.93301944
O 11.09946013 8.53138537 10.85668529
O 3.84235589 6.42365726 10.38379849
O 11.67877319 8.27243461 1.36506736
O 3.86524775 2.65994375 9.81263174
O 10.86269114 7.84306397 8.62179530
O 11.53903631 5.41728642 0.47975693
O 8.41447921 10.81815774 4.04468186
O 3.54031162 1.72618498 4.79534626
O 5.46787732 10.21074116 8.38352573
O 7.62289619 2.46658831 0.95964855
O 9.82945135 11.19875524 7.31235275
O 8.05516419 2.36702798 7.90028614
O 9.42967887 0.47556572 9.42342844
O 3.41169534 4.83859109 8.33480456
O 3.07785860 11.05823506 0.81540722
O 10.38363819 4.67449406 9.11293333
O 6.38009105 8.78877453 6.56644061
O 1.74635356 0.17470775 6.60744233
O 8.13376370 0.41840282 11.99871244
O 5.24320124 5.84248721 6.90100496
O 8.58314329 6.60442584 5.29819188
O 9.98632035 10.22210180 1.16704771
O 1.47179628 6.42693449 8.32286599
O 1.43105298 2.67028867 2.51153986
O 2.29993346 2.18401606 0.07915846
O 6.36656606 4.34999467 1.05002762
O 9.62328323 6.81790667 1.39045681
O 5.81816022 4.11516718 3.49438844
O 6.45339290 9.02602209 2.07307954
135
Time=600000.00000594 pbc="T T T" Lattice="12.09378762 0.00000000 0.00000000 0.00000000 12.09378762 0.00000000 0.00000000 0.00000000 12.09378762" energy=-901.75692886 virial="57.40253255 22.95096257 -39.17539357 22.95096257 94.80746652 -18.73950215 -39.17539357 -18.73950215 67.06699940" stress="0.05875973 0.01297519 -0.02214758 0.01297519 0.07990639 -0.01059427 -0.02214758 -0.01059427 0.06422348" Properties=species:S:1:pos:R:3
Ca 5.29655843 10.94487264 6.93285458
Ca 4.56423707 4.78945205 4.83198637
Ca 12.06641307 2.46113821 10.05452813
Ca 6.21603419 1.38953612 8.78265384
Ca 11.04144449 0.10518917 1.67663986
Ca 6.50974083 7.23766974 11.99722690
Ca 6.86853714 10.67753184 3.46774509
Ca 10.82790548 6.89238565 9.59211759
Ca 9.60815575 10.19592112 8.23320224
Ca 11.89104873 10.91294623 10.49378939
Ca 3.80415770 8.44663863 3.55263507
Ca 1.48088316 4.12836873 1.98897338
Ca 2.63777425 10.11143894 0.48410948
Ca 12.02050236 9.27614749 6.52656609
Ca 0.43133315 2.34659627 5.62088488
Ca 9.49101644 7.90725110 3.32728619
Ca 7.92974422 0.93013037 1.73868233
Ca 8.39217172 4.55613865 9.59058108
Ca 4.31340091 1.81797856 2.90819271
Ca 8.86614257 9.19143609 11.72038456
Ca 3.99895463 6.28661525 1.40952111
Ca 4.53358731 5.26482146 10.05432146
Ca 0.24535563 9.27652126 3.43843787
Ca 9.54646549 4.38257963 3.96199647
Ca 10.71562467 1.43079813 7.78492670
Ca 4.20970249 1.68345955 11.59083318
Ca 2.37763072 0.14994626 6.20445980
Si 10.43117737 5.03052514 0.04619591
Si 9.91300872 7.34661238 7.00604057
Si 5.59514688 10.58316028 0.53768183
Si 7.05713958 7.95457650 5.76995213
Si 4.86714470 6.92438563 7.23274819
Si 9.21006417 0.02287781 10.67804702
Si 1.63885225 7.06143091 11.65228755
Si 11.98521417 7.95459003 0.76807445
Si 10.71831418 2.93713702 1.34333887
Si 7.66141110 2.68282739 11.44548093
Si 3.39748619 3.06349083 8.09051966
Si 3.62344150 8.36530124 9.77299126
Si 1.92100574 10.09874112 8.81873014
Si 2.63083361 7.97441985 6.27733715
Si 8.79966968 1.53867223 4.86725013
Si 10.76081101 4.70918810 7.07687890
Si 9.61937269 11.03342878 5.01471128
Si 1.56870450 0.74645683 0.68711279
Si 3.06803957 0.28986536 9.37207148
Si 1.39560398 5.80364158 8.32159251
Si 6.70874352 5.99373853 3.05290802
Si 1.25722591 5.73123061 4.02775653
Si 2.44646706 11.12471889 3.65278310
Si 5.48380850 3.72345867 0.98299382
Si 7.22689786 7.73732565 9.05717672
Si 6.19569065 10.48936598 9.77232490
Si 6.08807948 1.80538873 5.78896344
O 5.49613207 2.14912429 1.36104654
O 6.44529951 3.16626171 10.14086824
O 7.62508988 2.33276283 6.15946880
O 9.31109819 6.03262572 7.44539237
O 5.53220604 11.30896222 1.86890358
O 11.15437881 3.57639554 11.86114352
O 8.24238449 2.58947177 3.42089068
O 0.18983230 10.07237637 8.56808100
O 3.12220302 7.67398248 11.32440113
O 3.57181877 6.92804954 5.52210651
O 6.41706079 7.93422528 7.68206908
O 8.09537106 10.40526356 5.53133922
O 3.70657977 8.90562164 7.02793746
O 10.34512740 2.03338705 5.57173743
O 1.52501592 8.79526668 5.44363698
O 4.51772715 12.06381056 9.76193153
O 4.85456978 1.34448966 6.73775974
O 1.03390765 11.27382458 4.59112135
O 10.64539835 8.21221709 1.06936143
O 2.80103180 4.78227264 8.16788399
O 2.42836507 5.71281119 0.27034976
O 7.40151924 2.87810044 0.89097805
O 8.55923363 10.96519951 9.89385131
O 5.02243059 3.41954214 8.46862568
O 7.43785980 9.22864459 1.32528958
O 6.64623772 6.40247125 9.69803913
O 5.78342599 4.73000863 12.00785494
O 1.22933330 5.96797258 9.84563315
O 0.86163721 7.94418927 1.95064709
O 2.75764245 11.25024160 7.98267713
O 2.49968060 6.56388992 3.38733127
O 6.40199704 8.67386443 4.50157148
O 10.56001672 3.66521413 8.35668991
O 1.71553615 1.01750396 10.92832590