<?xml version="1.0" encoding="ISO-8859-1"?>
<modeling>
 <generator>
  <i name="program" type="string">vasp </i>
  <i name="version" type="string">5.4.4.18Apr17-6-g9f103f2a35  </i>
  <i name="subversion" type="string">(build Oct 31 2019 15:01:46) complex            parallel </i>
  <i name="platform" type="string">LinuxIFC </i>
  <i name="date" type="string">2024 04 30 </i>
  <i name="time" type="string">10:01:31 </i>
 </generator>
 <incar>
  <i type="int" name="ISTART">     0</i>
  <i type="string" name="PREC">anormal</i>
  <i type="logical" name="ADDGRID"> T  </i>
  <i type="int" name="IBRION">    -1</i>
  <i name="EDIFF">      0.00000100</i>
  <i name="EDIFFG">     -0.01000000</i>
  <i type="int" name="NSW">     1</i>
  <i type="int" name="ISIF">     2</i>
  <i type="int" name="ISYM">     2</i>
  <i name="ENCUT">    600.00000000</i>
  <i name="POTIM">      1.00000000</i>
  <i type="string" name="LREAL"> Auto.</i>
  <i type="int" name="ISMEAR">     0</i>
  <i name="SIGMA">      0.05000000</i>
  <i name="KSPACING">      0.25000000</i>
  <i type="logical" name="LWAVE"> F  </i>
  <i type="logical" name="LCHARG"> F  </i>
  <i type="logical" name="LSCALAPACK"> F  </i>
  <v type="int" name="KPOINT_BSE">    -1     0     0     0</v>
 </incar>
 <structure name="primitive_cell" >
  <crystal>
   <varray name="basis" >
    <v>      13.79398668       0.00000000       0.00000000 </v>
    <v>      -6.89699334      11.94594288       0.00000000 </v>
    <v>       0.00000000       0.00000000      27.81022107 </v>
   </varray>
   <i name="volume">   4582.62876984 </i>
   <varray name="rec_basis" >
    <v>       0.07249536       0.04185521       0.00000000 </v>
    <v>       0.00000000       0.08371043       0.00000000 </v>
    <v>       0.00000000       0.00000000       0.03595800 </v>
   </varray>
  </crystal>
  <varray name="positions" >
   <v>       0.09281503       0.17717390      -0.45801908 </v>
   <v>       0.25090397       0.25023758      -0.49704557 </v>
   <v>       0.00594952       0.25583733       0.49826809 </v>
   <v>       0.00331820      -0.00570858       0.49660447 </v>
   <v>       0.16365586       0.32782361      -0.39411894 </v>
   <v>      -0.06941838       0.09845787      -0.39671186 </v>
   <v>       0.16641805       0.08346287      -0.39688819 </v>
   <v>       0.16021959       0.33078716       0.45295199 </v>
   <v>       0.17028885       0.07602296       0.45583756 </v>
   <v>       0.08068969       0.40804056      -0.45184103 </v>
   <v>       0.32761625       0.16640225      -0.45627275 </v>
   <v>      -0.09040617       0.08032470       0.45187158 </v>
   <v>       0.33153493       0.42219165      -0.45672717 </v>
   <v>      -0.16285129      -0.07568654      -0.45378395 </v>
   <v>       0.07947673      -0.09040899      -0.45616955 </v>
   <v>      -0.18434514       0.15727169      -0.45670446 </v>
   <v>       0.23956402       0.49604561       0.49894598 </v>
   <v>       0.08791619       0.17693352       0.39378936 </v>
   <v>       0.40615363       0.32966930      -0.39373465 </v>
   <v>       0.24857361      -0.00259673      -0.49784604 </v>
   <v>      -0.09432261       0.32257860      -0.39658611 </v>
   <v>      -0.25714134      -0.00290415       0.49902384 </v>
   <v>      -0.08585503      -0.16064741      -0.39333698 </v>
   <v>      -0.07875575      -0.15684784       0.46046309 </v>
   <v>      -0.09101643       0.32496220       0.45781022 </v>
   <v>       0.43097576       0.34057320       0.45647444 </v>
   <v>       0.49545989       0.49609579      -0.49556715 </v>
   <v>       0.33921638       0.41296176       0.39751415 </v>
   <v>       0.07573170       0.41261623       0.39476263 </v>
   <v>      -0.49954731       0.25097726      -0.49838706 </v>
   <v>       0.00063345       0.49897207       0.49901909 </v>
   <v>       0.07867878      -0.08717060       0.39516111 </v>
   <v>      -0.24588120      -0.24017355       0.49795134 </v>
   <v>       0.33229938       0.14507700       0.39353241 </v>
   <v>      -0.17129748      -0.08335485       0.39579072 </v>
   <v>       0.16626735      -0.41298447      -0.40017521 </v>
   <v>       0.00979083      -0.24456640       0.49729002 </v>
   <v>      -0.25957533       0.24245870       0.49613866 </v>
   <v>      -0.16837201       0.17023323       0.38995744 </v>
   <v>       0.42991435      -0.41545009      -0.39029225 </v>
   <v>       0.41058081      -0.42796075       0.45343599 </v>
   <v>       0.17404820      -0.16138342      -0.39575397 </v>
   <v>       0.42634964       0.08497806      -0.39866127 </v>
   <v>      -0.33338729      -0.17348337      -0.39684895 </v>
   <v>       0.17438116      -0.41558166       0.45303720 </v>
   <v>      -0.42433331       0.41773561      -0.45023357 </v>
   <v>       0.41498168       0.07295516       0.45583760 </v>
   <v>      -0.34966517       0.07827178      -0.39407058 </v>
   <v>      -0.33470260       0.07595094       0.45304766 </v>
   <v>       0.33597410      -0.32941436      -0.45654618 </v>
   <v>      -0.33321205      -0.16986391       0.45425709 </v>
   <v>       0.17241106      -0.17003762       0.45316034 </v>
   <v>      -0.17022129       0.41413465      -0.45684242 </v>
   <v>       0.32956581      -0.08615902      -0.45930424 </v>
   <v>      -0.17396486      -0.33428336      -0.45063137 </v>
   <v>      -0.42309442      -0.07902212      -0.44921552 </v>
   <v>      -0.42256119       0.17178513      -0.45883289 </v>
   <v>       0.08048198      -0.33664420      -0.46194260 </v>
   <v>      -0.41604121      -0.32369328      -0.45680435 </v>
   <v>      -0.15042985       0.41542625       0.39759439 </v>
   <v>      -0.49765540      -0.25323037      -0.49858899 </v>
   <v>      -0.32122513       0.32188742      -0.39346641 </v>
   <v>       0.26035854      -0.24646686      -0.49945541 </v>
   <v>       0.33897257      -0.32841281       0.39478133 </v>
   <v>      -0.15466085      -0.32466224       0.39854786 </v>
   <v>      -0.40102975       0.43571890       0.40057625 </v>
   <v>       0.49663250      -0.00042702       0.49824026 </v>
   <v>      -0.40620064      -0.08709885       0.39529217 </v>
   <v>       0.34795332      -0.08481812       0.40112346 </v>
   <v>      -0.32800433      -0.41051226      -0.39256434 </v>
   <v>      -0.08004812      -0.40654577      -0.39283406 </v>
   <v>      -0.33193152       0.34138745       0.45840723 </v>
   <v>      -0.31741446      -0.40328818       0.45845649 </v>
   <v>      -0.09015406      -0.40990599       0.45486898 </v>
   <v>      -0.42936738       0.18104085       0.38852161 </v>
   <v>      -0.41020370      -0.33500820       0.39995295 </v>
   <v>       0.38416102      -0.17738785      -0.39340330 </v>
   <v>      -0.24843904      -0.49865906      -0.49862406 </v>
   <v>       0.07804378      -0.33626150       0.38934178 </v>
   <v>       0.41887560      -0.17723124       0.45567481 </v>
  </varray>
 </structure>
 <varray name="primitive_index" >
  <v type="int" >        1 </v>
  <v type="int" >       70 </v>
  <v type="int" >       66 </v>
  <v type="int" >       65 </v>
  <v type="int" >       50 </v>
  <v type="int" >       61 </v>
  <v type="int" >       49 </v>
  <v type="int" >       18 </v>
  <v type="int" >       17 </v>
  <v type="int" >        2 </v>
  <v type="int" >        5 </v>
  <v type="int" >       29 </v>
  <v type="int" >        6 </v>
  <v type="int" >       16 </v>
  <v type="int" >        4 </v>
  <v type="int" >       13 </v>
  <v type="int" >       71 </v>
  <v type="int" >       33 </v>
  <v type="int" >       54 </v>
  <v type="int" >       69 </v>
  <v type="int" >       62 </v>
  <v type="int" >       77 </v>
  <v type="int" >       64 </v>
  <v type="int" >       32 </v>
  <v type="int" >       30 </v>
  <v type="int" >       22 </v>
  <v type="int" >       75 </v>
  <v type="int" >       38 </v>
  <v type="int" >       34 </v>
  <v type="int" >       74 </v>
  <v type="int" >       67 </v>
  <v type="int" >       36 </v>
  <v type="int" >       80 </v>
  <v type="int" >       37 </v>
  <v type="int" >       48 </v>
  <v type="int" >       51 </v>
  <v type="int" >       68 </v>
  <v type="int" >       78 </v>
  <v type="int" >       45 </v>
  <v type="int" >       55 </v>
  <v type="int" >       23 </v>
  <v type="int" >       52 </v>
  <v type="int" >       53 </v>
  <v type="int" >       60 </v>
  <v type="int" >       19 </v>
  <v type="int" >       10 </v>
  <v type="int" >       21 </v>
  <v type="int" >       57 </v>
  <v type="int" >       25 </v>
  <v type="int" >        7 </v>
  <v type="int" >       28 </v>
  <v type="int" >       20 </v>
  <v type="int" >       14 </v>
  <v type="int" >        8 </v>
  <v type="int" >       15 </v>
  <v type="int" >       12 </v>
  <v type="int" >        9 </v>
  <v type="int" >        3 </v>
  <v type="int" >       11 </v>
  <v type="int" >       46 </v>
  <v type="int" >       76 </v>
  <v type="int" >       58 </v>
  <v type="int" >       72 </v>
  <v type="int" >       39 </v>
  <v type="int" >       47 </v>
  <v type="int" >       42 </v>
  <v type="int" >       73 </v>
  <v type="int" >       44 </v>
  <v type="int" >       40 </v>
  <v type="int" >       59 </v>
  <v type="int" >       63 </v>
  <v type="int" >       26 </v>
  <v type="int" >       27 </v>
  <v type="int" >       31 </v>
  <v type="int" >       41 </v>
  <v type="int" >       43 </v>
  <v type="int" >       56 </v>
  <v type="int" >       79 </v>
  <v type="int" >       35 </v>
  <v type="int" >       24 </v>
 </varray>
 <kpoints>
  <generation param="Gamma">
   <v type="int" name="divisions">       3        3        1 </v>
   <v name="usershift">      0.00000000       0.00000000       0.00000000 </v>
   <v name="genvec1">      0.33333333      -0.00000000       0.00000000 </v>
   <v name="genvec2">      0.00000000       0.33333333       0.00000000 </v>
   <v name="genvec3">      0.00000000       0.00000000       1.00000000 </v>
   <v name="shift">      0.00000000       0.00000000       0.00000000 </v>
  </generation>
  <varray name="kpointlist" >
   <v>       0.00000000       0.00000000       0.00000000 </v>
   <v>       0.33333333      -0.00000000       0.00000000 </v>
   <v>       0.00000000       0.33333333       0.00000000 </v>
   <v>       0.33333333       0.33333333       0.00000000 </v>
   <v>      -0.33333333       0.33333333       0.00000000 </v>
  </varray>
  <varray name="weights" >
   <v>       0.11111111 </v>
   <v>       0.22222222 </v>
   <v>       0.22222222 </v>
   <v>       0.22222222 </v>
   <v>       0.22222222 </v>
  </varray>
 </kpoints>
 <parameters>
  <separator name="general" >
   <i type="string" name="SYSTEM">unknown system</i>
   <i type="logical" name="LCOMPAT"> F  </i>
  </separator>
  <separator name="electronic" >
   <i type="string" name="PREC">anorma</i>
   <i name="ENMAX">    600.00000000</i>
   <i name="ENAUG">    644.87300000</i>
   <i name="EDIFF">      0.00000100</i>
   <i type="int" name="IALGO">    38</i>
   <i type="int" name="IWAVPR">    10</i>
   <i type="int" name="NBANDS">   384</i>
   <i name="NELECT">    640.00000000</i>
   <i type="int" name="TURBO">     0</i>
   <i type="int" name="IRESTART">     0</i>
   <i type="int" name="NREBOOT">     0</i>
   <i type="int" name="NMIN">     0</i>
   <i name="EREF">      0.00000000</i>
   <separator name="electronic smearing" >
    <i type="int" name="ISMEAR">     0</i>
    <i name="SIGMA">      0.05000000</i>
    <i name="KSPACING">      0.25000000</i>
    <i type="logical" name="KGAMMA"> T  </i>
   </separator>
   <separator name="electronic projectors" >
    <i type="logical" name="LREAL"> T  </i>
    <v name="ROPT">     -0.00025000     -0.00025000     -0.00025000</v>
    <i type="int" name="LMAXPAW">  -100</i>
    <i type="int" name="LMAXMIX">     2</i>
    <i type="logical" name="NLSPLINE"> F  </i>
   </separator>
   <separator name="electronic startup" >
    <i type="int" name="ISTART">     0</i>
    <i type="int" name="ICHARG">     2</i>
    <i type="int" name="INIWAV">     1</i>
   </separator>
   <separator name="electronic spin" >
    <i type="int" name="ISPIN">     1</i>
    <i type="logical" name="LNONCOLLINEAR"> F  </i>
    <v name="MAGMOM">      1.00000000      1.00000000      1.00000000      1.00000000      1.00000000      1.00000000      1.00000000      1.00000000      1.00000000      1.00000000      1.00000000      1.00000000      1.00000000      1.00000000      1.00000000      1.00000000      1.00000000      1.00000000      1.00000000      1.00000000
      1.00000000      1.00000000      1.00000000      1.00000000      1.00000000      1.00000000      1.00000000      1.00000000      1.00000000      1.00000000      1.00000000      1.00000000      1.00000000      1.00000000      1.00000000      1.00000000      1.00000000      1.00000000      1.00000000      1.00000000
      1.00000000      1.00000000      1.00000000      1.00000000      1.00000000      1.00000000      1.00000000      1.00000000      1.00000000      1.00000000      1.00000000      1.00000000      1.00000000      1.00000000      1.00000000      1.00000000      1.00000000      1.00000000      1.00000000      1.00000000
      1.00000000      1.00000000      1.00000000      1.00000000      1.00000000      1.00000000      1.00000000      1.00000000      1.00000000      1.00000000      1.00000000      1.00000000      1.00000000      1.00000000      1.00000000      1.00000000      1.00000000      1.00000000      1.00000000      1.00000000
</v>
    <i name="NUPDOWN">     -1.00000000</i>
    <i type="logical" name="LSORBIT"> F  </i>
    <v name="SAXIS">      0.00000000      0.00000000      1.00000000</v>
    <i type="logical" name="LSPIRAL"> F  </i>
    <v name="QSPIRAL">      0.00000000      0.00000000      0.00000000</v>
    <i type="logical" name="LZEROZ"> F  </i>
   </separator>
   <separator name="electronic exchange-correlation" >
    <i type="logical" name="LASPH"> F  </i>
    <i type="logical" name="LMETAGGA"> F  </i>
   </separator>
   <separator name="electronic convergence" >
    <i type="int" name="NELM">    60</i>
    <i type="int" name="NELMDL">    -5</i>
    <i type="int" name="NELMIN">     2</i>
    <i name="ENINI">    600.00000000</i>
    <separator name="electronic convergence detail" >
     <i type="logical" name="LDIAG"> T  </i>
     <i type="logical" name="LSUBROT"> F  </i>
     <i name="WEIMIN">      0.00000000</i>
     <i name="EBREAK">      0.00000000</i>
     <i name="DEPER">      0.30000000</i>
     <i type="int" name="NRMM">     4</i>
     <i name="TIME">      0.40000000</i>
    </separator>
   </separator>
   <separator name="electronic mixer" >
    <i name="AMIX">      0.40000000</i>
    <i name="BMIX">      1.00000000</i>
    <i name="AMIN">      0.10000000</i>
    <i name="AMIX_MAG">      1.60000000</i>
    <i name="BMIX_MAG">      1.00000000</i>
    <separator name="electronic mixer details" >
     <i type="int" name="IMIX">     4</i>
     <i type="logical" name="MIXFIRST"> F  </i>
     <i type="int" name="MAXMIX">   -45</i>
     <i name="WC">    100.00000000</i>
     <i type="int" name="INIMIX">     1</i>
     <i type="int" name="MIXPRE">     1</i>
     <i type="int" name="MREMOVE">     5</i>
    </separator>
   </separator>
   <separator name="electronic dipolcorrection" >
    <i type="logical" name="LDIPOL"> F  </i>
    <i type="logical" name="LMONO"> F  </i>
    <i type="int" name="IDIPOL">     0</i>
    <i name="EPSILON">      1.00000000</i>
    <v name="DIPOL">   -100.00000000   -100.00000000   -100.00000000</v>
    <i name="EFIELD">      0.00000000</i>
   </separator>
  </separator>
  <separator name="grids" >
   <i type="int" name="NGX">   112</i>
   <i type="int" name="NGY">   112</i>
   <i type="int" name="NGZ">   224</i>
   <i type="int" name="NGXF">   224</i>
   <i type="int" name="NGYF">   224</i>
   <i type="int" name="NGZF">   448</i>
   <i type="logical" name="ADDGRID"> T  </i>
  </separator>
  <separator name="ionic" >
   <i type="int" name="NSW">     1</i>
   <i type="int" name="IBRION">    -1</i>
   <i type="int" name="MDALGO">     0</i>
   <i type="int" name="ISIF">     2</i>
   <i name="PSTRESS">      0.00000000</i>
   <i name="EDIFFG">     -0.01000000</i>
   <i type="int" name="NFREE">     0</i>
   <i name="POTIM">      1.00000000</i>
   <i name="SMASS">     -3.00000000</i>
   <i name="SCALEE">      1.00000000</i>
  </separator>
  <separator name="ionic md" >
   <i name="TEBEG">      0.00010000</i>
   <i name="TEEND">      0.00010000</i>
   <i type="int" name="NBLOCK">     1</i>
   <i type="int" name="KBLOCK">     1</i>
   <i type="int" name="NPACO">   256</i>
   <i name="APACO">     16.00000000</i>
  </separator>
  <separator name="symmetry" >
   <i type="int" name="ISYM">     2</i>
   <i name="SYMPREC">      0.00001000</i>
  </separator>
  <separator name="dos" >
   <i type="int" name="LORBIT">     0</i>
   <v name="RWIGS">     -1.00000000     -1.00000000     -1.00000000</v>
   <i type="int" name="NEDOS">   301</i>
   <i name="EMIN">     10.00000000</i>
   <i name="EMAX">    -10.00000000</i>
   <i name="EFERMI">      0.00000000</i>
  </separator>
  <separator name="writing" >
   <i type="int" name="NWRITE">     2</i>
   <i type="logical" name="LWAVE"> F  </i>
   <i type="logical" name="LDOWNSAMPLE"> F  </i>
   <i type="logical" name="LCHARG"> F  </i>
   <i type="logical" name="LPARD"> F  </i>
   <i type="logical" name="LVTOT"> F  </i>
   <i type="logical" name="LVHAR"> F  </i>
   <i type="logical" name="LELF"> F  </i>
   <i type="logical" name="LOPTICS"> F  </i>
   <v name="STM">      0.00000000      0.00000000      0.00000000      0.00000000      0.00000000      0.00000000      0.00000000</v>
  </separator>
  <separator name="performance" >
   <i type="int" name="NPAR">     4</i>
   <i type="int" name="NSIM">     4</i>
   <i type="int" name="NBLK">    -1</i>
   <i type="logical" name="LPLANE"> T  </i>
   <i type="logical" name="LSCALAPACK"> F  </i>
   <i type="logical" name="LSCAAWARE"> F  </i>
   <i type="logical" name="LSCALU"> F  </i>
   <i type="logical" name="LASYNC"> F  </i>
   <i type="logical" name="LORBITALREAL"> F  </i>
  </separator>
  <separator name="miscellaneous" >
   <i type="int" name="IDIOT">     3</i>
   <i type="int" name="ISPECIAL">     0</i>
   <i type="logical" name="LMUSIC"> F  </i>
   <v name="POMASS">     44.95600000     35.45300000     12.01100000</v>
   <v name="DARWINR">      0.00000000      0.00000000      0.00000000</v>
   <v name="DARWINV">      1.00000000      1.00000000      1.00000000</v>
   <i type="logical" name="LCORR"> T  </i>
  </separator>
  <i type="logical" name="GGA_COMPAT"> T  </i>
  <i type="logical" name="LBERRY"> F  </i>
  <i type="int" name="ICORELEVEL">     0</i>
  <i type="logical" name="LDAU"> F  </i>
  <i type="int" name="I_CONSTRAINED_M">     0</i>
  <separator name="electronic exchange-correlation" >
   <i type="string" name="GGA">--</i>
   <i type="int" name="VOSKOWN">     0</i>
   <i type="logical" name="LHFCALC"> F  </i>
   <i type="string" name="PRECFOCK"></i>
   <i type="logical" name="LSYMGRAD"> F  </i>
   <i type="logical" name="LHFONE"> F  </i>
   <i type="logical" name="LRHFCALC"> F  </i>
   <i type="logical" name="LTHOMAS"> F  </i>
   <i type="logical" name="LMODELHF"> F  </i>
   <i name="ENCUT4O">     -1.00000000</i>
   <i type="int" name="EXXOEP">     0</i>
   <i type="int" name="FOURORBIT">     0</i>
   <i name="AEXX">      0.00000000</i>
   <i name="HFALPHA">      0.00000000</i>
   <i name="MCALPHA">      0.00000000</i>
   <i name="ALDAX">      1.00000000</i>
   <i name="AGGAX">      1.00000000</i>
   <i name="ALDAC">      1.00000000</i>
   <i name="AGGAC">      1.00000000</i>
   <i type="int" name="NKREDX">     1</i>
   <i type="int" name="NKREDY">     1</i>
   <i type="int" name="NKREDZ">     1</i>
   <i type="logical" name="SHIFTRED"> F  </i>
   <i type="logical" name="ODDONLY"> F  </i>
   <i type="logical" name="EVENONLY"> F  </i>
   <i type="int" name="LMAXFOCK">     0</i>
   <i type="int" name="NMAXFOCKAE">     0</i>
   <i type="logical" name="LFOCKAEDFT"> F  </i>
   <i name="HFSCREEN">      0.00000000</i>
   <i name="HFSCREENC">      0.00000000</i>
   <i type="int" name="NBANDSGWLOW">     0</i>
  </separator>
  <separator name="vdW DFT" >
   <i type="logical" name="LUSE_VDW"> F  </i>
   <i name="Zab_VDW">     -0.84910000</i>
   <i name="PARAM1">      0.12340000</i>
   <i name="PARAM2">      1.00000000</i>
   <i name="PARAM3">      0.00000000</i>
  </separator>
  <separator name="model GW" >
   <i type="int" name="MODEL_GW">     0</i>
   <i name="MODEL_EPS0">     34.36971577</i>
   <i name="MODEL_ALPHA">      1.00000000</i>
  </separator>
  <separator name="linear response parameters" >
   <i type="logical" name="LEPSILON"> F  </i>
   <i type="logical" name="LRPA"> F  </i>
   <i type="logical" name="LNABLA"> F  </i>
   <i type="logical" name="LVEL"> F  </i>
   <i type="int" name="KINTER">     0</i>
   <i name="CSHIFT">      0.10000000</i>
   <i name="OMEGAMAX">     -1.00000000</i>
   <i name="DEG_THRESHOLD">      0.00200000</i>
   <i name="RTIME">     -0.10000000</i>
   <i name="WPLASMAI">      0.00000000</i>
   <v name="DFIELD">      0.00000000      0.00000000      0.00000000</v>
   <v name="WPLASMA">      0.00000000      0.00000000      0.00000000      0.00000000      0.00000000      0.00000000      0.00000000      0.00000000      0.00000000</v>
  </separator>
  <separator name="orbital magnetization" >
   <i type="logical" name="NUCIND"> F  </i>
   <v name="MAGPOS">      0.00000000      0.00000000      0.00000000</v>
   <i type="logical" name="LNICSALL"> T  </i>
   <i type="logical" name="ORBITALMAG"> F  </i>
   <i type="logical" name="LMAGBLOCH"> F  </i>
   <i type="logical" name="LCHIMAG"> F  </i>
   <i type="logical" name="LGAUGE"> T  </i>
   <i type="int" name="MAGATOM">     0</i>
   <v name="MAGDIPOL">      0.00000000      0.00000000      0.00000000</v>
   <v name="AVECCONST">      0.00000000      0.00000000      0.00000000</v>
  </separator>
  <separator name="response functions" >
   <i type="logical" name="LADDER"> F  </i>
   <i type="logical" name="LRPAFORCE"> F  </i>
   <i type="logical" name="LFXC"> F  </i>
   <i type="logical" name="LHARTREE"> T  </i>
   <i type="int" name="IBSE">     0</i>
   <v type="int" name="KPOINT">    -1     0     0     0</v>
   <i type="logical" name="LTCTE"> F  </i>
   <i type="logical" name="LTETE"> F  </i>
   <i type="logical" name="LTRIPLET"> F  </i>
   <i type="logical" name="LFXCEPS"> F  </i>
   <i type="logical" name="LFXHEG"> F  </i>
   <i type="int" name="NATURALO">     2</i>
   <i type="logical" name="L2ORDER"> F  </i>
   <i type="logical" name="LMP2LT"> F  </i>
   <i type="logical" name="LUSEW"> F  </i>
   <i name="ENCUTGW">     -2.00000000</i>
   <i name="ENCUTGWSOFT">     -2.00000000</i>
   <i name="ENCUTLF">     -1.00000000</i>
   <i type="int" name="LMAXMP2">    -1</i>
   <i name="SCISSOR">      0.00000000</i>
   <i type="int" name="NOMEGA">     0</i>
   <i type="int" name="NOMEGAR">     0</i>
   <i type="int" name="NBANDSGW">    -1</i>
   <i type="int" name="NBANDSO">    -1</i>
   <i type="int" name="NBANDSV">    -1</i>
   <i type="int" name="NELM">     1</i>
   <i type="int" name="NELMHF">     1</i>
   <i type="int" name="DIM">     3</i>
   <i type="int" name="ANTIRES">     0</i>
   <i name="OMEGAMAX">    -30.00000000</i>
   <i name="OMEGAMIN">    -30.00000000</i>
   <i name="OMEGATL">   -200.00000000</i>
   <i type="int" name="OMEGAGRID">   140</i>
   <i name="CSHIFT">     -0.10000000</i>
   <i type="logical" name="SELFENERGY"> F  </i>
   <i type="logical" name="LSPECTRAL"> F  </i>
   <i type="logical" name="LSPECTRALGW"> F  </i>
   <i type="logical" name="LSINGLES"> F  </i>
   <i type="logical" name="LFERMIGW"> F  </i>
   <i type="logical" name="ODDONLYGW"> F  </i>
   <i type="logical" name="EVENONLYGW"> F  </i>
   <i type="int" name="NKREDLFX">     1</i>
   <i type="int" name="NKREDLFY">     1</i>
   <i type="int" name="NKREDLFZ">     1</i>
   <i type="int" name="MAXMEM">  2800</i>
   <i type="int" name="TELESCOPE">     0</i>
   <i type="int" name="TAUPAR">     1</i>
   <i type="int" name="OMEGAPAR">    -1</i>
   <i name="LAMBDA">      1.00000000</i>
  </separator>
  <separator name="External order field" >
   <i name="OFIELD_KAPPA">      0.00000000</i>
   <v name="OFIELD_K">      0.00000000      0.00000000      0.00000000</v>
   <i name="OFIELD_Q6_NEAR">      0.00000000</i>
   <i name="OFIELD_Q6_FAR">      0.00000000</i>
   <i name="OFIELD_A">      0.00000000</i>
  </separator>
 </parameters>
 <atominfo>
  <atoms>      80 </atoms>
  <types>       3 </types>
  <array name="atoms" >
   <dimension dim="1">ion</dimension>
   <field type="string">element</field>
   <field type="int">atomtype</field>
   <set>
    <rc><c>Sc</c><c>   1</c></rc>
    <rc><c>Sc</c><c>   1</c></rc>
    <rc><c>Sc</c><c>   1</c></rc>
    <rc><c>Sc</c><c>   1</c></rc>
    <rc><c>Sc</c><c>   1</c></rc>
    <rc><c>Sc</c><c>   1</c></rc>
    <rc><c>Sc</c><c>   1</c></rc>
    <rc><c>Sc</c><c>   1</c></rc>
    <rc><c>Sc</c><c>   1</c></rc>
    <rc><c>Sc</c><c>   1</c></rc>
    <rc><c>Sc</c><c>   1</c></rc>
    <rc><c>Sc</c><c>   1</c></rc>
    <rc><c>Sc</c><c>   1</c></rc>
    <rc><c>Sc</c><c>   1</c></rc>
    <rc><c>Sc</c><c>   1</c></rc>
    <rc><c>Sc</c><c>   1</c></rc>
    <rc><c>Sc</c><c>   1</c></rc>
    <rc><c>Sc</c><c>   1</c></rc>
    <rc><c>Sc</c><c>   1</c></rc>
    <rc><c>Sc</c><c>   1</c></rc>
    <rc><c>Sc</c><c>   1</c></rc>
    <rc><c>Sc</c><c>   1</c></rc>
    <rc><c>Sc</c><c>   1</c></rc>
    <rc><c>Sc</c><c>   1</c></rc>
    <rc><c>Sc</c><c>   1</c></rc>
    <rc><c>Sc</c><c>   1</c></rc>
    <rc><c>Sc</c><c>   1</c></rc>
    <rc><c>Sc</c><c>   1</c></rc>
    <rc><c>Sc</c><c>   1</c></rc>
    <rc><c>Sc</c><c>   1</c></rc>
    <rc><c>Sc</c><c>   1</c></rc>
    <rc><c>Sc</c><c>   1</c></rc>
    <rc><c>Cl</c><c>   2</c></rc>
    <rc><c>Cl</c><c>   2</c></rc>
    <rc><c>Cl</c><c>   2</c></rc>
    <rc><c>Cl</c><c>   2</c></rc>
    <rc><c>Cl</c><c>   2</c></rc>
    <rc><c>Cl</c><c>   2</c></rc>
    <rc><c>Cl</c><c>   2</c></rc>
    <rc><c>Cl</c><c>   2</c></rc>
    <rc><c>Cl</c><c>   2</c></rc>
    <rc><c>Cl</c><c>   2</c></rc>
    <rc><c>Cl</c><c>   2</c></rc>
    <rc><c>Cl</c><c>   2</c></rc>
    <rc><c>Cl</c><c>   2</c></rc>
    <rc><c>Cl</c><c>   2</c></rc>
    <rc><c>Cl</c><c>   2</c></rc>
    <rc><c>Cl</c><c>   2</c></rc>
    <rc><c>Cl</c><c>   2</c></rc>
    <rc><c>Cl</c><c>   2</c></rc>
    <rc><c>Cl</c><c>   2</c></rc>
    <rc><c>Cl</c><c>   2</c></rc>
    <rc><c>Cl</c><c>   2</c></rc>
    <rc><c>Cl</c><c>   2</c></rc>
    <rc><c>Cl</c><c>   2</c></rc>
    <rc><c>Cl</c><c>   2</c></rc>
    <rc><c>Cl</c><c>   2</c></rc>
    <rc><c>Cl</c><c>   2</c></rc>
    <rc><c>Cl</c><c>   2</c></rc>
    <rc><c>Cl</c><c>   2</c></rc>
    <rc><c>Cl</c><c>   2</c></rc>
    <rc><c>Cl</c><c>   2</c></rc>
    <rc><c>Cl</c><c>   2</c></rc>
    <rc><c>Cl</c><c>   2</c></rc>
    <rc><c>C </c><c>   3</c></rc>
    <rc><c>C </c><c>   3</c></rc>
    <rc><c>C </c><c>   3</c></rc>
    <rc><c>C </c><c>   3</c></rc>
    <rc><c>C </c><c>   3</c></rc>
    <rc><c>C </c><c>   3</c></rc>
    <rc><c>C </c><c>   3</c></rc>
    <rc><c>C </c><c>   3</c></rc>
    <rc><c>C </c><c>   3</c></rc>
    <rc><c>C </c><c>   3</c></rc>
    <rc><c>C </c><c>   3</c></rc>
    <rc><c>C </c><c>   3</c></rc>
    <rc><c>C </c><c>   3</c></rc>
    <rc><c>C </c><c>   3</c></rc>
    <rc><c>C </c><c>   3</c></rc>
    <rc><c>C </c><c>   3</c></rc>
   </set>
  </array>
  <array name="atomtypes" >
   <dimension dim="1">type</dimension>
   <field type="int">atomspertype</field>
   <field type="string">element</field>
   <field>mass</field>
   <field>valence</field>
   <field type="string">pseudopotential</field>
   <set>
    <rc><c>  32</c><c>Sc</c><c>     44.95600000</c><c>     11.00000000</c><c>  PAW_PBE Sc_sv 07Sep2000               </c></rc>
    <rc><c>  32</c><c>Cl</c><c>     35.45300000</c><c>      7.00000000</c><c>  PAW_PBE Cl 06Sep2000                  </c></rc>
    <rc><c>  16</c><c>C </c><c>     12.01100000</c><c>      4.00000000</c><c>  PAW_PBE C 08Apr2002                   </c></rc>
   </set>
  </array>
 </atominfo>
 <structure name="initialpos" >
  <crystal>
   <varray name="basis" >
    <v>      13.79398668       0.00000000       0.00000000 </v>
    <v>      -6.89699334      11.94594288       0.00000000 </v>
    <v>       0.00000000       0.00000000      27.81022107 </v>
   </varray>
   <i name="volume">   4582.62876984 </i>
   <varray name="rec_basis" >
    <v>       0.07249536       0.04185521       0.00000000 </v>
    <v>       0.00000000       0.08371043       0.00000000 </v>
    <v>       0.00000000       0.00000000       0.03595800 </v>
   </varray>
  </crystal>
  <varray name="positions" >
   <v>       0.09281503       0.17717390       0.54198092 </v>
   <v>       0.08068969       0.40804056       0.54815897 </v>
   <v>       0.08048198       0.66335580       0.53805740 </v>
   <v>       0.07947673       0.90959101       0.54383045 </v>
   <v>       0.32761625       0.16640225       0.54372725 </v>
   <v>       0.33153493       0.42219165       0.54327283 </v>
   <v>       0.33597410       0.67058564       0.54345382 </v>
   <v>       0.32956581       0.91384098       0.54069576 </v>
   <v>       0.57743881       0.17178513       0.54116711 </v>
   <v>       0.57566669       0.41773561       0.54976643 </v>
   <v>       0.58395879       0.67630672       0.54319565 </v>
   <v>       0.57690558       0.92097788       0.55078448 </v>
   <v>       0.81565486       0.15727169       0.54329554 </v>
   <v>       0.82977871       0.41413465       0.54315758 </v>
   <v>       0.82603514       0.66571664       0.54936863 </v>
   <v>       0.83714871       0.92431346       0.54621605 </v>
   <v>       0.17028885       0.07602296       0.45583756 </v>
   <v>       0.16021959       0.33078716       0.45295199 </v>
   <v>       0.17438116       0.58441834       0.45303720 </v>
   <v>       0.17241106       0.82996238       0.45316034 </v>
   <v>       0.41498168       0.07295516       0.45583760 </v>
   <v>       0.43097576       0.34057320       0.45647444 </v>
   <v>       0.41058081       0.57203925       0.45343599 </v>
   <v>       0.41887560       0.82276876       0.45567481 </v>
   <v>       0.66529740       0.07595094       0.45304766 </v>
   <v>       0.66806848       0.34138745       0.45840723 </v>
   <v>       0.68258554       0.59671182       0.45845649 </v>
   <v>       0.66678795       0.83013609       0.45425709 </v>
   <v>       0.90959383       0.08032470       0.45187158 </v>
   <v>       0.90898357       0.32496220       0.45781022 </v>
   <v>       0.90984594       0.59009401       0.45486898 </v>
   <v>       0.92124425       0.84315216       0.46046309 </v>
   <v>       0.08791619       0.17693352       0.39378936 </v>
   <v>       0.07573170       0.41261623       0.39476263 </v>
   <v>       0.07804378       0.66373850       0.38934178 </v>
   <v>       0.07867878       0.91282940       0.39516111 </v>
   <v>       0.33229938       0.14507700       0.39353241 </v>
   <v>       0.33921638       0.41296176       0.39751415 </v>
   <v>       0.33897257       0.67158719       0.39478133 </v>
   <v>       0.34795332       0.91518188       0.40112346 </v>
   <v>       0.57063262       0.18104085       0.38852161 </v>
   <v>       0.59897025       0.43571890       0.40057625 </v>
   <v>       0.58979630       0.66499180       0.39995295 </v>
   <v>       0.59379936       0.91290115       0.39529217 </v>
   <v>       0.83162799       0.17023323       0.38995744 </v>
   <v>       0.84957015       0.41542625       0.39759439 </v>
   <v>       0.84533915       0.67533776       0.39854786 </v>
   <v>       0.82870252       0.91664515       0.39579072 </v>
   <v>       0.16641805       0.08346287       0.60311181 </v>
   <v>       0.16365586       0.32782361       0.60588106 </v>
   <v>       0.16626735       0.58701553       0.59982479 </v>
   <v>       0.17404820       0.83861658       0.60424603 </v>
   <v>       0.42634964       0.08497806       0.60133873 </v>
   <v>       0.40615363       0.32966930       0.60626535 </v>
   <v>       0.42991435       0.58454991       0.60970775 </v>
   <v>       0.38416102       0.82261215       0.60659670 </v>
   <v>       0.65033483       0.07827178       0.60592942 </v>
   <v>       0.67877487       0.32188742       0.60653359 </v>
   <v>       0.67199567       0.58948774       0.60743566 </v>
   <v>       0.66661271       0.82651663       0.60315105 </v>
   <v>       0.93058162       0.09845787       0.60328814 </v>
   <v>       0.90567739       0.32257860       0.60341389 </v>
   <v>       0.91995188       0.59345423       0.60716594 </v>
   <v>       0.91414497       0.83935259       0.60666302 </v>
   <v>       0.00331820       0.99429142       0.49660447 </v>
   <v>       0.00594952       0.25583733       0.49826809 </v>
   <v>       0.00063345       0.49897207       0.49901909 </v>
   <v>       0.00979083       0.75543360       0.49729002 </v>
   <v>       0.24857361       0.99740327       0.50215396 </v>
   <v>       0.25090397       0.25023758       0.50295443 </v>
   <v>       0.23956402       0.49604561       0.49894598 </v>
   <v>       0.26035854       0.75353314       0.50054459 </v>
   <v>       0.49663250       0.99957298       0.49824026 </v>
   <v>       0.50045269       0.25097726       0.50161294 </v>
   <v>       0.49545989       0.49609579       0.50443285 </v>
   <v>       0.50234460       0.74676963       0.50141101 </v>
   <v>       0.74285866       0.99709585       0.49902384 </v>
   <v>       0.74042467       0.24245870       0.49613866 </v>
   <v>       0.75156096       0.50134094       0.50137594 </v>
   <v>       0.75411880       0.75982645       0.49795134 </v>
  </varray>
  <varray name="velocities" >
   <v>       0.00000000       0.00000000       0.00000000 </v>
   <v>       0.00000000       0.00000000       0.00000000 </v>
   <v>       0.00000000       0.00000000       0.00000000 </v>
   <v>       0.00000000       0.00000000       0.00000000 </v>
   <v>       0.00000000       0.00000000       0.00000000 </v>
   <v>       0.00000000       0.00000000       0.00000000 </v>
   <v>       0.00000000       0.00000000       0.00000000 </v>
   <v>       0.00000000       0.00000000       0.00000000 </v>
   <v>       0.00000000       0.00000000       0.00000000 </v>
   <v>       0.00000000       0.00000000       0.00000000 </v>
   <v>       0.00000000       0.00000000       0.00000000 </v>
   <v>       0.00000000       0.00000000       0.00000000 </v>
   <v>       0.00000000       0.00000000       0.00000000 </v>
   <v>       0.00000000       0.00000000       0.00000000 </v>
   <v>       0.00000000       0.00000000       0.00000000 </v>
   <v>       0.00000000       0.00000000       0.00000000 </v>
   <v>       0.00000000       0.00000000       0.00000000 </v>
   <v>       0.00000000       0.00000000       0.00000000 </v>
   <v>       0.00000000       0.00000000       0.00000000 </v>
   <v>       0.00000000       0.00000000       0.00000000 </v>
   <v>       0.00000000       0.00000000       0.00000000 </v>
   <v>       0.00000000       0.00000000       0.00000000 </v>
   <v>       0.00000000       0.00000000       0.00000000 </v>
   <v>       0.00000000       0.00000000       0.00000000 </v>
   <v>       0.00000000       0.00000000       0.00000000 </v>
   <v>       0.00000000       0.00000000       0.00000000 </v>
   <v>       0.00000000       0.00000000       0.00000000 </v>
   <v>       0.00000000       0.00000000       0.00000000 </v>
   <v>       0.00000000       0.00000000       0.00000000 </v>
   <v>       0.00000000       0.00000000       0.00000000 </v>
   <v>       0.00000000       0.00000000       0.00000000 </v>
   <v>       0.00000000       0.00000000       0.00000000 </v>
   <v>       0.00000000       0.00000000       0.00000000 </v>
   <v>       0.00000000       0.00000000       0.00000000 </v>
   <v>       0.00000000       0.00000000       0.00000000 </v>
   <v>       0.00000000       0.00000000       0.00000000 </v>
   <v>       0.00000000       0.00000000       0.00000000 </v>
   <v>       0.00000000       0.00000000       0.00000000 </v>
   <v>       0.00000000       0.00000000       0.00000000 </v>
   <v>       0.00000000       0.00000000       0.00000000 </v>
   <v>       0.00000000       0.00000000       0.00000000 </v>
   <v>       0.00000000       0.00000000       0.00000000 </v>
   <v>       0.00000000       0.00000000       0.00000000 </v>
   <v>       0.00000000       0.00000000       0.00000000 </v>
   <v>       0.00000000       0.00000000       0.00000000 </v>
   <v>       0.00000000       0.00000000       0.00000000 </v>
   <v>       0.00000000       0.00000000       0.00000000 </v>
   <v>       0.00000000       0.00000000       0.00000000 </v>
   <v>       0.00000000       0.00000000       0.00000000 </v>
   <v>       0.00000000       0.00000000       0.00000000 </v>
   <v>       0.00000000       0.00000000       0.00000000 </v>
   <v>       0.00000000       0.00000000       0.00000000 </v>
   <v>       0.00000000       0.00000000       0.00000000 </v>
   <v>       0.00000000       0.00000000       0.00000000 </v>
   <v>       0.00000000       0.00000000       0.00000000 </v>
   <v>       0.00000000       0.00000000       0.00000000 </v>
   <v>       0.00000000       0.00000000       0.00000000 </v>
   <v>       0.00000000       0.00000000       0.00000000 </v>
   <v>       0.00000000       0.00000000       0.00000000 </v>
   <v>       0.00000000       0.00000000       0.00000000 </v>
   <v>       0.00000000       0.00000000       0.00000000 </v>
   <v>       0.00000000       0.00000000       0.00000000 </v>
   <v>       0.00000000       0.00000000       0.00000000 </v>
   <v>       0.00000000       0.00000000       0.00000000 </v>
   <v>       0.00000000       0.00000000       0.00000000 </v>
   <v>       0.00000000       0.00000000       0.00000000 </v>
   <v>       0.00000000       0.00000000       0.00000000 </v>
   <v>       0.00000000       0.00000000       0.00000000 </v>
   <v>       0.00000000       0.00000000       0.00000000 </v>
   <v>       0.00000000       0.00000000       0.00000000 </v>
   <v>       0.00000000       0.00000000       0.00000000 </v>
   <v>       0.00000000       0.00000000       0.00000000 </v>
   <v>       0.00000000       0.00000000       0.00000000 </v>
   <v>       0.00000000       0.00000000       0.00000000 </v>
   <v>       0.00000000       0.00000000       0.00000000 </v>
   <v>       0.00000000       0.00000000       0.00000000 </v>
   <v>       0.00000000       0.00000000       0.00000000 </v>
   <v>       0.00000000       0.00000000       0.00000000 </v>
   <v>       0.00000000       0.00000000       0.00000000 </v>
   <v>       0.00000000       0.00000000       0.00000000 </v>
  </varray>
 </structure>
 <calculation>
  <scstep>
   <time name="dav">   50.25   50.26</time>
   <time name="total">   51.09   51.10</time>
   <energy>
    <i name="alphaZ">    784.57699423 </i>
    <i name="ewald"> 253107.21304976 </i>
    <i name="hartreedc">-300753.78063103 </i>
    <i name="XCdc">   2503.62749494 </i>
    <i name="pawpsdc">  43679.68029659 </i>
    <i name="pawaedc"> -43417.33247688 </i>
    <i name="eentropy">     -0.06720070 </i>
    <i name="bandstr">     80.09071056 </i>
    <i name="atom">  56210.72393729 </i>
    <i name="e_fr_energy">  12194.73217476 </i>
    <i name="e_wo_entrp">  12194.79937545 </i>
    <i name="e_0_energy">  12194.76577510 </i>
   </energy>
  </scstep>
  <scstep>
   <time name="dav">   56.71   56.74</time>
   <time name="total">   56.71   56.74</time>
   <energy>
    <i name="e_fr_energy">   1721.97601821 </i>
    <i name="e_wo_entrp">   1722.01320883 </i>
    <i name="e_0_energy">   1721.99461352 </i>
   </energy>
  </scstep>
  <scstep>
   <time name="dav">   70.92   70.94</time>
   <time name="total">   70.92   70.94</time>
   <energy>
    <i name="e_fr_energy">   -411.84158885 </i>
    <i name="e_wo_entrp">   -411.84158419 </i>
    <i name="e_0_energy">   -411.84158652 </i>
   </energy>
  </scstep>
  <scstep>
   <time name="dav">   64.72   64.75</time>
   <time name="total">   64.72   64.75</time>
   <energy>
    <i name="e_fr_energy">   -643.74338778 </i>
    <i name="e_wo_entrp">   -643.74338778 </i>
    <i name="e_0_energy">   -643.74338778 </i>
   </energy>
  </scstep>
  <scstep>
   <time name="dav">   64.58   64.60</time>
   <time name="total">   68.48   68.51</time>
   <energy>
    <i name="e_fr_energy">   -653.91065225 </i>
    <i name="e_wo_entrp">   -653.91065225 </i>
    <i name="e_0_energy">   -653.91065225 </i>
   </energy>
  </scstep>
  <scstep>
   <time name="dav">   62.76   62.78</time>
   <time name="total">   67.47   67.49</time>
   <energy>
    <i name="e_fr_energy">   -522.85628562 </i>
    <i name="e_wo_entrp">   -522.85628562 </i>
    <i name="e_0_energy">   -522.85628562 </i>
   </energy>
  </scstep>
  <scstep>
   <time name="dav">   63.09   63.10</time>
   <time name="total">   67.80   67.82</time>
   <energy>
    <i name="e_fr_energy">   -527.92514619 </i>
    <i name="e_wo_entrp">   -527.92514619 </i>
    <i name="e_0_energy">   -527.92514619 </i>
   </energy>
  </scstep>
  <scstep>
   <time name="dav">   62.45   62.46</time>
   <time name="total">   67.16   67.18</time>
   <energy>
    <i name="e_fr_energy">   -525.62770691 </i>
    <i name="e_wo_entrp">   -525.62770691 </i>
    <i name="e_0_energy">   -525.62770691 </i>
   </energy>
  </scstep>
  <scstep>
   <time name="dav">   58.97   58.98</time>
   <time name="total">   63.67   63.69</time>
   <energy>
    <i name="e_fr_energy">   -525.11196341 </i>
    <i name="e_wo_entrp">   -525.11196341 </i>
    <i name="e_0_energy">   -525.11196341 </i>
   </energy>
  </scstep>
  <scstep>
   <time name="dav">   61.67   61.69</time>
   <time name="total">   66.38   66.40</time>
   <energy>
    <i name="e_fr_energy">   -524.97023616 </i>
    <i name="e_wo_entrp">   -524.97023616 </i>
    <i name="e_0_energy">   -524.97023616 </i>
   </energy>
  </scstep>
  <scstep>
   <time name="dav">   62.60   62.61</time>
   <time name="total">   67.30   67.32</time>
   <energy>
    <i name="e_fr_energy">   -524.95085483 </i>
    <i name="e_wo_entrp">   -524.95085483 </i>
    <i name="e_0_energy">   -524.95085483 </i>
   </energy>
  </scstep>
  <scstep>
   <time name="dav">   64.73   64.75</time>
   <time name="total">   69.45   69.47</time>
   <energy>
    <i name="e_fr_energy">   -524.93582210 </i>
    <i name="e_wo_entrp">   -524.93582210 </i>
    <i name="e_0_energy">   -524.93582210 </i>
   </energy>
  </scstep>
  <scstep>
   <time name="dav">   58.50   58.51</time>
   <time name="total">   63.20   63.23</time>
   <energy>
    <i name="e_fr_energy">   -524.93255663 </i>
    <i name="e_wo_entrp">   -524.93255663 </i>
    <i name="e_0_energy">   -524.93255663 </i>
   </energy>
  </scstep>
  <scstep>
   <time name="dav">   57.95   57.97</time>
   <time name="total">   62.67   62.70</time>
   <energy>
    <i name="e_fr_energy">   -524.93127025 </i>
    <i name="e_wo_entrp">   -524.93127025 </i>
    <i name="e_0_energy">   -524.93127025 </i>
   </energy>
  </scstep>
  <scstep>
   <time name="dav">   62.26   62.27</time>
   <time name="total">   66.97   66.99</time>
   <energy>
    <i name="e_fr_energy">   -524.93296273 </i>
    <i name="e_wo_entrp">   -524.93296273 </i>
    <i name="e_0_energy">   -524.93296273 </i>
   </energy>
  </scstep>
  <scstep>
   <time name="dav">   60.97   60.98</time>
   <time name="total">   65.69   65.71</time>
   <energy>
    <i name="e_fr_energy">   -524.93524369 </i>
    <i name="e_wo_entrp">   -524.93524369 </i>
    <i name="e_0_energy">   -524.93524369 </i>
   </energy>
  </scstep>
  <scstep>
   <time name="dav">   55.39   55.40</time>
   <time name="total">   60.09   60.11</time>
   <energy>
    <i name="e_fr_energy">   -524.93856281 </i>
    <i name="e_wo_entrp">   -524.93856281 </i>
    <i name="e_0_energy">   -524.93856281 </i>
   </energy>
  </scstep>
  <scstep>
   <time name="dav">   51.97   51.98</time>
   <time name="total">   56.69   56.71</time>
   <energy>
    <i name="e_fr_energy">   -524.94077214 </i>
    <i name="e_wo_entrp">   -524.94077214 </i>
    <i name="e_0_energy">   -524.94077214 </i>
   </energy>
  </scstep>
  <scstep>
   <time name="dav">   52.36   52.37</time>
   <time name="total">   57.08   57.09</time>
   <energy>
    <i name="e_fr_energy">   -524.94207738 </i>
    <i name="e_wo_entrp">   -524.94207738 </i>
    <i name="e_0_energy">   -524.94207738 </i>
   </energy>
  </scstep>
  <scstep>
   <time name="dav">   50.44   50.45</time>
   <time name="total">   55.17   55.19</time>
   <energy>
    <i name="e_fr_energy">   -524.94311662 </i>
    <i name="e_wo_entrp">   -524.94311662 </i>
    <i name="e_0_energy">   -524.94311662 </i>
   </energy>
  </scstep>
  <scstep>
   <time name="dav">   50.79   50.80</time>
   <time name="total">   55.51   55.52</time>
   <energy>
    <i name="e_fr_energy">   -524.94356716 </i>
    <i name="e_wo_entrp">   -524.94356716 </i>
    <i name="e_0_energy">   -524.94356716 </i>
   </energy>
  </scstep>
  <scstep>
   <time name="dav">   44.88   44.89</time>
   <time name="total">   49.61   49.63</time>
   <energy>
    <i name="e_fr_energy">   -524.94404177 </i>
    <i name="e_wo_entrp">   -524.94404177 </i>
    <i name="e_0_energy">   -524.94404177 </i>
   </energy>
  </scstep>
  <scstep>
   <time name="dav">   42.14   42.15</time>
   <time name="total">   46.87   46.89</time>
   <energy>
    <i name="e_fr_energy">   -524.94453470 </i>
    <i name="e_wo_entrp">   -524.94453470 </i>
    <i name="e_0_energy">   -524.94453470 </i>
   </energy>
  </scstep>
  <scstep>
   <time name="dav">   44.39   44.40</time>
   <time name="total">   49.12   49.14</time>
   <energy>
    <i name="e_fr_energy">   -524.94468019 </i>
    <i name="e_wo_entrp">   -524.94468019 </i>
    <i name="e_0_energy">   -524.94468019 </i>
   </energy>
  </scstep>
  <scstep>
   <time name="dav">   37.96   37.97</time>
   <time name="total">   42.69   42.71</time>
   <energy>
    <i name="e_fr_energy">   -524.94476036 </i>
    <i name="e_wo_entrp">   -524.94476036 </i>
    <i name="e_0_energy">   -524.94476036 </i>
   </energy>
  </scstep>
  <scstep>
   <time name="dav">   41.52   41.53</time>
   <time name="total">   46.23   46.25</time>
   <energy>
    <i name="e_fr_energy">   -524.94484346 </i>
    <i name="e_wo_entrp">   -524.94484346 </i>
    <i name="e_0_energy">   -524.94484346 </i>
   </energy>
  </scstep>
  <scstep>
   <time name="dav">   35.07   35.07</time>
   <time name="total">   39.78   39.80</time>
   <energy>
    <i name="e_fr_energy">   -524.94484719 </i>
    <i name="e_wo_entrp">   -524.94484719 </i>
    <i name="e_0_energy">   -524.94484719 </i>
   </energy>
  </scstep>
  <scstep>
   <time name="dav">   33.75   33.75</time>
   <time name="total">   38.48   38.49</time>
   <energy>
    <i name="e_fr_energy">   -524.94485348 </i>
    <i name="e_wo_entrp">   -524.94485348 </i>
    <i name="e_0_energy">   -524.94485348 </i>
   </energy>
  </scstep>
  <scstep>
   <time name="dav">   34.92   34.93</time>
   <time name="total">   39.65   39.67</time>
   <energy>
    <i name="e_fr_energy">   -524.94486426 </i>
    <i name="e_wo_entrp">   -524.94486426 </i>
    <i name="e_0_energy">   -524.94486426 </i>
   </energy>
  </scstep>
  <scstep>
   <time name="dav">   35.38   35.38</time>
   <time name="total">   40.11   40.12</time>
   <energy>
    <i name="e_fr_energy">   -524.94487379 </i>
    <i name="e_wo_entrp">   -524.94487379 </i>
    <i name="e_0_energy">   -524.94487379 </i>
   </energy>
  </scstep>
  <scstep>
   <time name="dav">   32.79   32.79</time>
   <time name="total">   37.55   37.56</time>
   <energy>
    <i name="e_fr_energy">   -524.94487625 </i>
    <i name="e_wo_entrp">   -524.94487625 </i>
    <i name="e_0_energy">   -524.94487625 </i>
   </energy>
  </scstep>
  <scstep>
   <time name="dav">   34.41   34.41</time>
   <time name="total">   39.18   39.19</time>
   <energy>
    <i name="e_fr_energy">   -524.94487820 </i>
    <i name="e_wo_entrp">   -524.94487820 </i>
    <i name="e_0_energy">   -524.94487820 </i>
   </energy>
  </scstep>
  <scstep>
   <time name="dav">   32.67   32.68</time>
   <time name="total">   33.49   33.50</time>
   <energy>
    <i name="alphaZ">    784.57699423 </i>
    <i name="ewald"> 253107.21304976 </i>
    <i name="hartreedc">-301093.75572399 </i>
    <i name="XCdc">   2491.07360800 </i>
    <i name="pawpsdc">  59789.94562327 </i>
    <i name="pawaedc"> -59622.33003901 </i>
    <i name="eentropy">     -0.00000000 </i>
    <i name="bandstr"> -12192.39232866 </i>
    <i name="atom">  56210.72393729 </i>
    <i name="e_fr_energy">   -524.94487911 </i>
    <i name="e_wo_entrp">   -524.94487911 </i>
    <i name="e_0_energy">   -524.94487911 </i>
   </energy>
  </scstep>
  <structure>
   <crystal>
    <varray name="basis" >
     <v>      13.79398668       0.00000000       0.00000000 </v>
     <v>      -6.89699334      11.94594288       0.00000000 </v>
     <v>       0.00000000       0.00000000      27.81022107 </v>
    </varray>
    <i name="volume">   4582.62876984 </i>
    <varray name="rec_basis" >
     <v>       0.07249536       0.04185521       0.00000000 </v>
     <v>       0.00000000       0.08371043       0.00000000 </v>
     <v>       0.00000000       0.00000000       0.03595800 </v>
    </varray>
   </crystal>
   <varray name="positions" >
    <v>       0.09281503       0.17717390       0.54198092 </v>
    <v>       0.08068969       0.40804056       0.54815897 </v>
    <v>       0.08048198       0.66335580       0.53805740 </v>
    <v>       0.07947673       0.90959101       0.54383045 </v>
    <v>       0.32761625       0.16640225       0.54372725 </v>
    <v>       0.33153493       0.42219165       0.54327283 </v>
    <v>       0.33597410       0.67058564       0.54345382 </v>
    <v>       0.32956581       0.91384098       0.54069576 </v>
    <v>       0.57743881       0.17178513       0.54116711 </v>
    <v>       0.57566669       0.41773561       0.54976643 </v>
    <v>       0.58395879       0.67630672       0.54319565 </v>
    <v>       0.57690558       0.92097788       0.55078448 </v>
    <v>       0.81565486       0.15727169       0.54329554 </v>
    <v>       0.82977871       0.41413465       0.54315758 </v>
    <v>       0.82603514       0.66571664       0.54936863 </v>
    <v>       0.83714871       0.92431346       0.54621605 </v>
    <v>       0.17028885       0.07602296       0.45583756 </v>
    <v>       0.16021959       0.33078716       0.45295199 </v>
    <v>       0.17438116       0.58441834       0.45303720 </v>
    <v>       0.17241106       0.82996238       0.45316034 </v>
    <v>       0.41498168       0.07295516       0.45583760 </v>
    <v>       0.43097576       0.34057320       0.45647444 </v>
    <v>       0.41058081       0.57203925       0.45343599 </v>
    <v>       0.41887560       0.82276876       0.45567481 </v>
    <v>       0.66529740       0.07595094       0.45304766 </v>
    <v>       0.66806848       0.34138745       0.45840723 </v>
    <v>       0.68258554       0.59671182       0.45845649 </v>
    <v>       0.66678795       0.83013609       0.45425709 </v>
    <v>       0.90959383       0.08032470       0.45187158 </v>
    <v>       0.90898357       0.32496220       0.45781022 </v>
    <v>       0.90984594       0.59009401       0.45486898 </v>
    <v>       0.92124425       0.84315216       0.46046309 </v>
    <v>       0.08791619       0.17693352       0.39378936 </v>
    <v>       0.07573170       0.41261623       0.39476263 </v>
    <v>       0.07804378       0.66373850       0.38934178 </v>
    <v>       0.07867878       0.91282940       0.39516111 </v>
    <v>       0.33229938       0.14507700       0.39353241 </v>
    <v>       0.33921638       0.41296176       0.39751415 </v>
    <v>       0.33897257       0.67158719       0.39478133 </v>
    <v>       0.34795332       0.91518188       0.40112346 </v>
    <v>       0.57063262       0.18104085       0.38852161 </v>
    <v>       0.59897025       0.43571890       0.40057625 </v>
    <v>       0.58979630       0.66499180       0.39995295 </v>
    <v>       0.59379936       0.91290115       0.39529217 </v>
    <v>       0.83162799       0.17023323       0.38995744 </v>
    <v>       0.84957015       0.41542625       0.39759439 </v>
    <v>       0.84533915       0.67533776       0.39854786 </v>
    <v>       0.82870252       0.91664515       0.39579072 </v>
    <v>       0.16641805       0.08346287       0.60311181 </v>
    <v>       0.16365586       0.32782361       0.60588106 </v>
    <v>       0.16626735       0.58701553       0.59982479 </v>
    <v>       0.17404820       0.83861658       0.60424603 </v>
    <v>       0.42634964       0.08497806       0.60133873 </v>
    <v>       0.40615363       0.32966930       0.60626535 </v>
    <v>       0.42991435       0.58454991       0.60970775 </v>
    <v>       0.38416102       0.82261215       0.60659670 </v>
    <v>       0.65033483       0.07827178       0.60592942 </v>
    <v>       0.67877487       0.32188742       0.60653359 </v>
    <v>       0.67199567       0.58948774       0.60743566 </v>
    <v>       0.66661271       0.82651663       0.60315105 </v>
    <v>       0.93058162       0.09845787       0.60328814 </v>
    <v>       0.90567739       0.32257860       0.60341389 </v>
    <v>       0.91995188       0.59345423       0.60716594 </v>
    <v>       0.91414497       0.83935259       0.60666302 </v>
    <v>       0.00331820       0.99429142       0.49660447 </v>
    <v>       0.00594952       0.25583733       0.49826809 </v>
    <v>       0.00063345       0.49897207       0.49901909 </v>
    <v>       0.00979083       0.75543360       0.49729002 </v>
    <v>       0.24857361       0.99740327       0.50215396 </v>
    <v>       0.25090397       0.25023758       0.50295443 </v>
    <v>       0.23956402       0.49604561       0.49894598 </v>
    <v>       0.26035854       0.75353314       0.50054459 </v>
    <v>       0.49663250       0.99957298       0.49824026 </v>
    <v>       0.50045269       0.25097726       0.50161294 </v>
    <v>       0.49545989       0.49609579       0.50443285 </v>
    <v>       0.50234460       0.74676963       0.50141101 </v>
    <v>       0.74285866       0.99709585       0.49902384 </v>
    <v>       0.74042467       0.24245870       0.49613866 </v>
    <v>       0.75156096       0.50134094       0.50137594 </v>
    <v>       0.75411880       0.75982645       0.49795134 </v>
   </varray>
  </structure>
  <varray name="forces" >
   <v>      -0.19569731      -0.99481984      -0.01940670 </v>
   <v>      -0.77451856       0.86487317      -1.24627879 </v>
   <v>       0.17422238      -0.12530392       1.23606748 </v>
   <v>       0.75248818       0.58022992       0.46202388 </v>
   <v>       0.52818265      -0.08110214       0.34029639 </v>
   <v>       0.31439030      -0.56972832       0.52115091 </v>
   <v>      -0.08783124      -0.71244149       0.47734387 </v>
   <v>       0.09058273       0.32093090       1.08328317 </v>
   <v>       0.62703987      -0.68938438       0.35011488 </v>
   <v>       0.29081641      -0.16506051      -0.30489548 </v>
   <v>       0.12026872      -1.22062761       0.29841175 </v>
   <v>       0.00666561      -0.77294406      -1.50950574 </v>
   <v>       0.78794424       0.52137795       0.13972908 </v>
   <v>       0.71223843       0.58317906       0.34148002 </v>
   <v>       0.94414385       0.26049701      -0.41710140 </v>
   <v>       0.04379642       0.08847474      -0.53739296 </v>
   <v>      -0.41033169       0.47705619      -0.40380629 </v>
   <v>      -0.00470949       0.24740042       0.63626637 </v>
   <v>      -1.25588042      -0.91803694       0.34966981 </v>
   <v>      -0.95707223      -0.11731584      -0.05197564 </v>
   <v>      -0.15768742       1.38183039      -0.22240725 </v>
   <v>      -0.79441510      -0.81788539       0.42699052 </v>
   <v>       0.17524891       0.80582376       1.05129953 </v>
   <v>       0.01527172       1.18782937       0.71401044 </v>
   <v>      -1.05890654       0.55638054       0.07250507 </v>
   <v>       0.26364412      -0.94239297      -1.06432210 </v>
   <v>      -0.73292391      -0.60409157       0.28127301 </v>
   <v>      -0.11981109       0.37674073       1.03428494 </v>
   <v>       0.64872644       0.64740332       0.58016208 </v>
   <v>       0.54806863       0.82992249      -0.39427610 </v>
   <v>       2.05549285      -0.79040081       0.38382703 </v>
   <v>       0.33406727      -1.00824456      -1.68791240 </v>
   <v>       0.10720612      -0.78135705      -0.01975527 </v>
   <v>       0.47793584       0.33716102       0.02666723 </v>
   <v>       0.41090351       0.31032747       0.70005507 </v>
   <v>       0.26314911       0.19896654       0.03563694 </v>
   <v>      -0.84188452       0.69250622       0.29349710 </v>
   <v>      -0.07312368      -0.13337388      -0.60003353 </v>
   <v>       0.21430873      -0.55460177      -0.47262447 </v>
   <v>      -0.45926672      -0.38330578      -1.36550321 </v>
   <v>       0.88277274      -0.22765624       0.88374095 </v>
   <v>      -0.11343255      -0.45484413      -0.66322146 </v>
   <v>      -0.34813003      -0.21295953      -0.73491134 </v>
   <v>      -0.73074190       0.00432131      -0.45990925 </v>
   <v>       0.07515093      -0.41031109       0.56819213 </v>
   <v>      -1.30443304       0.31059956      -0.17698175 </v>
   <v>      -0.86746186       0.07975733      -0.76707754 </v>
   <v>       0.51699617       0.00610465      -0.33573529 </v>
   <v>      -0.05216560      -0.13099271       0.06828735 </v>
   <v>       0.11294682       0.49799268       0.13142347 </v>
   <v>      -0.00728565      -0.43421776       0.41432450 </v>
   <v>      -0.75491094      -0.24750404      -0.28247806 </v>
   <v>      -0.80854289      -0.09999361       0.30078996 </v>
   <v>       0.41694620       0.15187993      -0.02326923 </v>
   <v>      -0.66359271       0.02496881      -0.68174828 </v>
   <v>       1.58492747       0.40645516      -0.06701379 </v>
   <v>       0.74554849       0.10292192       0.17739690 </v>
   <v>      -0.98426329       0.55334454      -0.16180593 </v>
   <v>      -0.19302620      -0.39782096       0.03458958 </v>
   <v>      -0.27300392       0.83889255       0.52505999 </v>
   <v>      -0.59567250      -0.72195538      -0.16481697 </v>
   <v>       0.22882943       0.26041351       0.01203761 </v>
   <v>       0.16371621      -0.31066326      -0.58260995 </v>
   <v>       0.19830931      -0.06440917      -0.18272374 </v>
   <v>      -0.96130670       1.28454412       1.13075048 </v>
   <v>      -0.41818885      -1.07024324       0.12223595 </v>
   <v>      -0.45012953      -0.03412884       0.35024683 </v>
   <v>      -0.49570861      -0.46214363       0.42001950 </v>
   <v>      -0.02144095       0.04488055      -0.99928634 </v>
   <v>       0.15991742       0.18401674      -0.95599507 </v>
   <v>       1.31066549       0.49732786      -0.14615798 </v>
   <v>      -0.50470057      -0.74931591      -1.13920840 </v>
   <v>       0.94378354      -0.38124295       0.39074553 </v>
   <v>      -0.22607793       0.81068124      -0.29332937 </v>
   <v>       0.30562622       0.40177081      -0.74579130 </v>
   <v>      -0.54824027       0.16120360      -0.27556402 </v>
   <v>       0.38669521       0.51807019       0.43177980 </v>
   <v>       0.52160890       0.41193126       0.74941144 </v>
   <v>      -0.38136036       0.65595609       0.40151619 </v>
   <v>       0.16663320      -0.68412439       1.20823767 </v>
  </varray>
  <varray name="stress" >
   <v>       3.88110734       0.13285051       3.30129357 </v>
   <v>       0.13285051       4.21529319       0.16120138 </v>
   <v>       3.30129356       0.16120138       1.14613435 </v>
  </varray>
  <energy>
   <i name="e_fr_energy">   -524.94487911 </i>
   <i name="e_wo_entrp">   -524.94487911 </i>
   <i name="e_0_energy">     -0.00000000 </i>
  </energy>
  <time name="totalsc"> 1894.67 1895.31</time>
  <eigenvalues>
   <array>
    <dimension dim="1">band</dimension>
    <dimension dim="2">kpoint</dimension>
    <dimension dim="3">spin</dimension>
    <field>eigene</field>
    <field>occ</field>
    <set>
     <set comment="spin 1">
      <set comment="kpoint 1">
       <r>  -51.9617    1.0000 </r>
       <r>  -51.9270    1.0000 </r>
       <r>  -51.8610    1.0000 </r>
       <r>  -51.7843    1.0000 </r>
       <r>  -51.7470    1.0000 </r>
       <r>  -51.7450    1.0000 </r>
       <r>  -51.6178    1.0000 </r>
       <r>  -51.5256    1.0000 </r>
       <r>  -51.5096    1.0000 </r>
       <r>  -51.4864    1.0000 </r>
       <r>  -51.4645    1.0000 </r>
       <r>  -51.4553    1.0000 </r>
       <r>  -51.4498    1.0000 </r>
       <r>  -51.3810    1.0000 </r>
       <r>  -51.3565    1.0000 </r>
       <r>  -51.3436    1.0000 </r>
       <r>  -51.3424    1.0000 </r>
       <r>  -51.3395    1.0000 </r>
       <r>  -51.3116    1.0000 </r>
       <r>  -51.2761    1.0000 </r>
       <r>  -51.2740    1.0000 </r>
       <r>  -51.2637    1.0000 </r>
       <r>  -51.2498    1.0000 </r>
       <r>  -51.2054    1.0000 </r>
       <r>  -51.2034    1.0000 </r>
       <r>  -51.1559    1.0000 </r>
       <r>  -51.1276    1.0000 </r>
       <r>  -51.0533    1.0000 </r>
       <r>  -51.0494    1.0000 </r>
       <r>  -50.9852    1.0000 </r>
       <r>  -50.9158    1.0000 </r>
       <r>  -50.7527    1.0000 </r>
       <r>  -30.6527    1.0000 </r>
       <r>  -30.6271    1.0000 </r>
       <r>  -30.6047    1.0000 </r>
       <r>  -30.5742    1.0000 </r>
       <r>  -30.5698    1.0000 </r>
       <r>  -30.5691    1.0000 </r>
       <r>  -30.5336    1.0000 </r>
       <r>  -30.5143    1.0000 </r>
       <r>  -30.5008    1.0000 </r>
       <r>  -30.4845    1.0000 </r>
       <r>  -30.4555    1.0000 </r>
       <r>  -30.4421    1.0000 </r>
       <r>  -30.4204    1.0000 </r>
       <r>  -30.4094    1.0000 </r>
       <r>  -30.4005    1.0000 </r>
       <r>  -30.3930    1.0000 </r>
       <r>  -30.3758    1.0000 </r>
       <r>  -30.3700    1.0000 </r>
       <r>  -30.3094    1.0000 </r>
       <r>  -30.3015    1.0000 </r>
       <r>  -30.2505    1.0000 </r>
       <r>  -30.2482    1.0000 </r>
       <r>  -30.2387    1.0000 </r>
       <r>  -30.2253    1.0000 </r>
       <r>  -30.2096    1.0000 </r>
       <r>  -30.2058    1.0000 </r>
       <r>  -30.1966    1.0000 </r>
       <r>  -30.1655    1.0000 </r>
       <r>  -30.1589    1.0000 </r>
       <r>  -30.1566    1.0000 </r>
       <r>  -30.1510    1.0000 </r>
       <r>  -30.1501    1.0000 </r>
       <r>  -30.1424    1.0000 </r>
       <r>  -30.1412    1.0000 </r>
       <r>  -30.1339    1.0000 </r>
       <r>  -30.1068    1.0000 </r>
       <r>  -30.1000    1.0000 </r>
       <r>  -30.0985    1.0000 </r>
       <r>  -30.0943    1.0000 </r>
       <r>  -30.0902    1.0000 </r>
       <r>  -30.0736    1.0000 </r>
       <r>  -30.0716    1.0000 </r>
       <r>  -30.0660    1.0000 </r>
       <r>  -30.0501    1.0000 </r>
       <r>  -30.0421    1.0000 </r>
       <r>  -30.0381    1.0000 </r>
       <r>  -30.0334    1.0000 </r>
       <r>  -30.0223    1.0000 </r>
       <r>  -30.0196    1.0000 </r>
       <r>  -30.0140    1.0000 </r>
       <r>  -30.0106    1.0000 </r>
       <r>  -30.0071    1.0000 </r>
       <r>  -29.9870    1.0000 </r>
       <r>  -29.9810    1.0000 </r>
       <r>  -29.9784    1.0000 </r>
       <r>  -29.9724    1.0000 </r>
       <r>  -29.9699    1.0000 </r>
       <r>  -29.9649    1.0000 </r>
       <r>  -29.9568    1.0000 </r>
       <r>  -29.9503    1.0000 </r>
       <r>  -29.9398    1.0000 </r>
       <r>  -29.9283    1.0000 </r>
       <r>  -29.9250    1.0000 </r>
       <r>  -29.9186    1.0000 </r>
       <r>  -29.9087    1.0000 </r>
       <r>  -29.9058    1.0000 </r>
       <r>  -29.9026    1.0000 </r>
       <r>  -29.8883    1.0000 </r>
       <r>  -29.8807    1.0000 </r>
       <r>  -29.8712    1.0000 </r>
       <r>  -29.8698    1.0000 </r>
       <r>  -29.8647    1.0000 </r>
       <r>  -29.8549    1.0000 </r>
       <r>  -29.8468    1.0000 </r>
       <r>  -29.8402    1.0000 </r>
       <r>  -29.8123    1.0000 </r>
       <r>  -29.8069    1.0000 </r>
       <r>  -29.7949    1.0000 </r>
       <r>  -29.7848    1.0000 </r>
       <r>  -29.7550    1.0000 </r>
       <r>  -29.7492    1.0000 </r>
       <r>  -29.7399    1.0000 </r>
       <r>  -29.7216    1.0000 </r>
       <r>  -29.7055    1.0000 </r>
       <r>  -29.6958    1.0000 </r>
       <r>  -29.6707    1.0000 </r>
       <r>  -29.6687    1.0000 </r>
       <r>  -29.6529    1.0000 </r>
       <r>  -29.6467    1.0000 </r>
       <r>  -29.6339    1.0000 </r>
       <r>  -29.6018    1.0000 </r>
       <r>  -29.5675    1.0000 </r>
       <r>  -29.5525    1.0000 </r>
       <r>  -29.4864    1.0000 </r>
       <r>  -29.4388    1.0000 </r>
       <r>  -29.4164    1.0000 </r>
       <r>  -18.7361    1.0000 </r>
       <r>  -18.5934    1.0000 </r>
       <r>  -18.5837    1.0000 </r>
       <r>  -18.4874    1.0000 </r>
       <r>  -18.4424    1.0000 </r>
       <r>  -18.4324    1.0000 </r>
       <r>  -18.3903    1.0000 </r>
       <r>  -18.3573    1.0000 </r>
       <r>  -18.3225    1.0000 </r>
       <r>  -18.2825    1.0000 </r>
       <r>  -18.2669    1.0000 </r>
       <r>  -18.1674    1.0000 </r>
       <r>  -18.1521    1.0000 </r>
       <r>  -18.1402    1.0000 </r>
       <r>  -18.1004    1.0000 </r>
       <r>  -18.0657    1.0000 </r>
       <r>  -17.9801    1.0000 </r>
       <r>  -17.9283    1.0000 </r>
       <r>  -17.8987    1.0000 </r>
       <r>  -17.8340    1.0000 </r>
       <r>  -17.8122    1.0000 </r>
       <r>  -17.7978    1.0000 </r>
       <r>  -17.7851    1.0000 </r>
       <r>  -17.7574    1.0000 </r>
       <r>  -17.7044    1.0000 </r>
       <r>  -17.6888    1.0000 </r>
       <r>  -17.6688    1.0000 </r>
       <r>  -17.6313    1.0000 </r>
       <r>  -17.5707    1.0000 </r>
       <r>  -17.5069    1.0000 </r>
       <r>  -17.4671    1.0000 </r>
       <r>  -17.1218    1.0000 </r>
       <r>  -11.7852    1.0000 </r>
       <r>  -11.4471    1.0000 </r>
       <r>  -11.4229    1.0000 </r>
       <r>  -11.3809    1.0000 </r>
       <r>  -11.3414    1.0000 </r>
       <r>  -11.2966    1.0000 </r>
       <r>  -11.2439    1.0000 </r>
       <r>  -11.0112    1.0000 </r>
       <r>  -10.9408    1.0000 </r>
       <r>  -10.9220    1.0000 </r>
       <r>  -10.8684    1.0000 </r>
       <r>  -10.8440    1.0000 </r>
       <r>  -10.8036    1.0000 </r>
       <r>  -10.8010    1.0000 </r>
       <r>  -10.7422    1.0000 </r>
       <r>  -10.5958    1.0000 </r>
       <r>   -8.0995    1.0000 </r>
       <r>   -8.0750    1.0000 </r>
       <r>   -8.0570    1.0000 </r>
       <r>   -7.9069    1.0000 </r>
       <r>   -7.8363    1.0000 </r>
       <r>   -7.7901    1.0000 </r>
       <r>   -7.6892    1.0000 </r>
       <r>   -7.6722    1.0000 </r>
       <r>   -7.6153    1.0000 </r>
       <r>   -7.5974    1.0000 </r>
       <r>   -7.5446    1.0000 </r>
       <r>   -7.4801    1.0000 </r>
       <r>   -7.4734    1.0000 </r>
       <r>   -7.4020    1.0000 </r>
       <r>   -7.3840    1.0000 </r>
       <r>   -7.3742    1.0000 </r>
       <r>   -7.2975    1.0000 </r>
       <r>   -7.2823    1.0000 </r>
       <r>   -7.2586    1.0000 </r>
       <r>   -7.2528    1.0000 </r>
       <r>   -7.1888    1.0000 </r>
       <r>   -7.1449    1.0000 </r>
       <r>   -7.1212    1.0000 </r>
       <r>   -7.0999    1.0000 </r>
       <r>   -7.0576    1.0000 </r>
       <r>   -7.0478    1.0000 </r>
       <r>   -7.0162    1.0000 </r>
       <r>   -6.9909    1.0000 </r>
       <r>   -6.9750    1.0000 </r>
       <r>   -6.9569    1.0000 </r>
       <r>   -6.9332    1.0000 </r>
       <r>   -6.9111    1.0000 </r>
       <r>   -6.8863    1.0000 </r>
       <r>   -6.8633    1.0000 </r>
       <r>   -6.8448    1.0000 </r>
       <r>   -6.8389    1.0000 </r>
       <r>   -6.8186    1.0000 </r>
       <r>   -6.7936    1.0000 </r>
       <r>   -6.7671    1.0000 </r>
       <r>   -6.7378    1.0000 </r>
       <r>   -6.7020    1.0000 </r>
       <r>   -6.6982    1.0000 </r>
       <r>   -6.6724    1.0000 </r>
       <r>   -6.6651    1.0000 </r>
       <r>   -6.6481    1.0000 </r>
       <r>   -6.6388    1.0000 </r>
       <r>   -6.6080    1.0000 </r>
       <r>   -6.5786    1.0000 </r>
       <r>   -6.5606    1.0000 </r>
       <r>   -6.5466    1.0000 </r>
       <r>   -6.5362    1.0000 </r>
       <r>   -6.5268    1.0000 </r>
       <r>   -6.5007    1.0000 </r>
       <r>   -6.4966    1.0000 </r>
       <r>   -6.4828    1.0000 </r>
       <r>   -6.4604    1.0000 </r>
       <r>   -6.4325    1.0000 </r>
       <r>   -6.4166    1.0000 </r>
       <r>   -6.4016    1.0000 </r>
       <r>   -6.3839    1.0000 </r>
       <r>   -6.3813    1.0000 </r>
       <r>   -6.3694    1.0000 </r>
       <r>   -6.3524    1.0000 </r>
       <r>   -6.3117    1.0000 </r>
       <r>   -6.3035    1.0000 </r>
       <r>   -6.2819    1.0000 </r>
       <r>   -6.2602    1.0000 </r>
       <r>   -6.2215    1.0000 </r>
       <r>   -6.1995    1.0000 </r>
       <r>   -6.1746    1.0000 </r>
       <r>   -6.1445    1.0000 </r>
       <r>   -6.0591    1.0000 </r>
       <r>   -6.0308    1.0000 </r>
       <r>   -5.9448    1.0000 </r>
       <r>   -5.8975    1.0000 </r>
       <r>   -5.8421    1.0000 </r>
       <r>   -5.8197    1.0000 </r>
       <r>   -5.8035    1.0000 </r>
       <r>   -5.7315    1.0000 </r>
       <r>   -5.6689    1.0000 </r>
       <r>   -5.6510    1.0000 </r>
       <r>   -5.5895    1.0000 </r>
       <r>   -5.5720    1.0000 </r>
       <r>   -5.5448    1.0000 </r>
       <r>   -5.5364    1.0000 </r>
       <r>   -5.4659    1.0000 </r>
       <r>   -5.4390    1.0000 </r>
       <r>   -5.4007    1.0000 </r>
       <r>   -5.3773    1.0000 </r>
       <r>   -5.3204    1.0000 </r>
       <r>   -5.2759    1.0000 </r>
       <r>   -5.2058    1.0000 </r>
       <r>   -5.1648    1.0000 </r>
       <r>   -5.0793    1.0000 </r>
       <r>   -5.0435    1.0000 </r>
       <r>   -4.9040    1.0000 </r>
       <r>   -4.8327    1.0000 </r>
       <r>   -4.7674    1.0000 </r>
       <r>   -4.7380    1.0000 </r>
       <r>   -4.6614    1.0000 </r>
       <r>   -4.5748    1.0000 </r>
       <r>   -4.5527    1.0000 </r>
       <r>   -4.5250    1.0000 </r>
       <r>   -4.4871    1.0000 </r>
       <r>   -4.4335    1.0000 </r>
       <r>   -4.2147    1.0000 </r>
       <r>   -4.1947    1.0000 </r>
       <r>   -4.1896    1.0000 </r>
       <r>   -4.1224    1.0000 </r>
       <r>   -4.0951    1.0000 </r>
       <r>   -4.0560    1.0000 </r>
       <r>   -4.0378    1.0000 </r>
       <r>   -4.0021    1.0000 </r>
       <r>   -3.9886    1.0000 </r>
       <r>   -3.9767    1.0000 </r>
       <r>   -3.9593    1.0000 </r>
       <r>   -3.9374    1.0000 </r>
       <r>   -3.9139    1.0000 </r>
       <r>   -3.8753    1.0000 </r>
       <r>   -3.8517    1.0000 </r>
       <r>   -3.8424    1.0000 </r>
       <r>   -3.8015    1.0000 </r>
       <r>   -3.7564    1.0000 </r>
       <r>   -3.7422    1.0000 </r>
       <r>   -3.6721    1.0000 </r>
       <r>   -3.6635    1.0000 </r>
       <r>   -3.6206    1.0000 </r>
       <r>   -3.6068    1.0000 </r>
       <r>   -3.5730    1.0000 </r>
       <r>   -3.5550    1.0000 </r>
       <r>   -3.5333    1.0000 </r>
       <r>   -3.4632    1.0000 </r>
       <r>   -3.3932    1.0000 </r>
       <r>   -3.3448    1.0000 </r>
       <r>   -3.2726    1.0000 </r>
       <r>   -3.2608    1.0000 </r>
       <r>   -3.2439    1.0000 </r>
       <r>   -3.1959    1.0000 </r>
       <r>   -3.1822    1.0000 </r>
       <r>   -3.1636    1.0000 </r>
       <r>   -3.1260    1.0000 </r>
       <r>   -3.1171    1.0000 </r>
       <r>   -2.9182    1.0000 </r>
       <r>   -2.9031    1.0000 </r>
       <r>   -2.0952    0.0000 </r>
       <r>   -2.0841    0.0000 </r>
       <r>   -2.0297    0.0000 </r>
       <r>   -1.5470    0.0000 </r>
       <r>   -1.4961    0.0000 </r>
       <r>   -1.4565    0.0000 </r>
       <r>   -1.3883    0.0000 </r>
       <r>   -1.3504    0.0000 </r>
       <r>   -1.3150    0.0000 </r>
       <r>   -0.7128    0.0000 </r>
       <r>   -0.6613    0.0000 </r>
       <r>   -0.6445    0.0000 </r>
       <r>   -0.6275    0.0000 </r>
       <r>   -0.5889    0.0000 </r>
       <r>   -0.5540    0.0000 </r>
       <r>   -0.5220    0.0000 </r>
       <r>   -0.4957    0.0000 </r>
       <r>   -0.4309    0.0000 </r>
       <r>   -0.4200    0.0000 </r>
       <r>   -0.4059    0.0000 </r>
       <r>   -0.3894    0.0000 </r>
       <r>   -0.3207    0.0000 </r>
       <r>   -0.3086    0.0000 </r>
       <r>   -0.2821    0.0000 </r>
       <r>   -0.0003    0.0000 </r>
       <r>    0.0282    0.0000 </r>
       <r>    0.1238    0.0000 </r>
       <r>    0.1376    0.0000 </r>
       <r>    0.1621    0.0000 </r>
       <r>    0.1820    0.0000 </r>
       <r>    0.2162    0.0000 </r>
       <r>    0.2203    0.0000 </r>
       <r>    0.2329    0.0000 </r>
       <r>    0.2823    0.0000 </r>
       <r>    0.3150    0.0000 </r>
       <r>    0.3871    0.0000 </r>
       <r>    0.4226    0.0000 </r>
       <r>    0.4995    0.0000 </r>
       <r>    0.5451    0.0000 </r>
       <r>    0.5479    0.0000 </r>
       <r>    0.5719    0.0000 </r>
       <r>    0.5942    0.0000 </r>
       <r>    0.6572    0.0000 </r>
       <r>    0.6979    0.0000 </r>
       <r>    0.7152    0.0000 </r>
       <r>    0.7527    0.0000 </r>
       <r>    0.7734    0.0000 </r>
       <r>    0.7833    0.0000 </r>
       <r>    0.8068    0.0000 </r>
       <r>    0.8300    0.0000 </r>
       <r>    0.8401    0.0000 </r>
       <r>    0.8522    0.0000 </r>
       <r>    0.8637    0.0000 </r>
       <r>    0.8963    0.0000 </r>
       <r>    0.9311    0.0000 </r>
       <r>    0.9460    0.0000 </r>
       <r>    0.9495    0.0000 </r>
       <r>    0.9658    0.0000 </r>
       <r>    0.9913    0.0000 </r>
       <r>    0.9981    0.0000 </r>
       <r>    1.0285    0.0000 </r>
       <r>    1.0526    0.0000 </r>
       <r>    1.0607    0.0000 </r>
       <r>    1.0739    0.0000 </r>
      </set>
      <set comment="kpoint 2">
       <r>  -51.9617    1.0000 </r>
       <r>  -51.9270    1.0000 </r>
       <r>  -51.8610    1.0000 </r>
       <r>  -51.7843    1.0000 </r>
       <r>  -51.7470    1.0000 </r>
       <r>  -51.7450    1.0000 </r>
       <r>  -51.6178    1.0000 </r>
       <r>  -51.5256    1.0000 </r>
       <r>  -51.5096    1.0000 </r>
       <r>  -51.4864    1.0000 </r>
       <r>  -51.4645    1.0000 </r>
       <r>  -51.4553    1.0000 </r>
       <r>  -51.4498    1.0000 </r>
       <r>  -51.3810    1.0000 </r>
       <r>  -51.3565    1.0000 </r>
       <r>  -51.3436    1.0000 </r>
       <r>  -51.3424    1.0000 </r>
       <r>  -51.3395    1.0000 </r>
       <r>  -51.3116    1.0000 </r>
       <r>  -51.2761    1.0000 </r>
       <r>  -51.2740    1.0000 </r>
       <r>  -51.2637    1.0000 </r>
       <r>  -51.2498    1.0000 </r>
       <r>  -51.2054    1.0000 </r>
       <r>  -51.2034    1.0000 </r>
       <r>  -51.1559    1.0000 </r>
       <r>  -51.1276    1.0000 </r>
       <r>  -51.0533    1.0000 </r>
       <r>  -51.0494    1.0000 </r>
       <r>  -50.9852    1.0000 </r>
       <r>  -50.9158    1.0000 </r>
       <r>  -50.7527    1.0000 </r>
       <r>  -30.6526    1.0000 </r>
       <r>  -30.6270    1.0000 </r>
       <r>  -30.6047    1.0000 </r>
       <r>  -30.5742    1.0000 </r>
       <r>  -30.5698    1.0000 </r>
       <r>  -30.5691    1.0000 </r>
       <r>  -30.5335    1.0000 </r>
       <r>  -30.5143    1.0000 </r>
       <r>  -30.4997    1.0000 </r>
       <r>  -30.4855    1.0000 </r>
       <r>  -30.4555    1.0000 </r>
       <r>  -30.4422    1.0000 </r>
       <r>  -30.4204    1.0000 </r>
       <r>  -30.4094    1.0000 </r>
       <r>  -30.4006    1.0000 </r>
       <r>  -30.3930    1.0000 </r>
       <r>  -30.3757    1.0000 </r>
       <r>  -30.3699    1.0000 </r>
       <r>  -30.3094    1.0000 </r>
       <r>  -30.3017    1.0000 </r>
       <r>  -30.2504    1.0000 </r>
       <r>  -30.2484    1.0000 </r>
       <r>  -30.2388    1.0000 </r>
       <r>  -30.2268    1.0000 </r>
       <r>  -30.2112    1.0000 </r>
       <r>  -30.2033    1.0000 </r>
       <r>  -30.1971    1.0000 </r>
       <r>  -30.1626    1.0000 </r>
       <r>  -30.1597    1.0000 </r>
       <r>  -30.1557    1.0000 </r>
       <r>  -30.1518    1.0000 </r>
       <r>  -30.1500    1.0000 </r>
       <r>  -30.1451    1.0000 </r>
       <r>  -30.1404    1.0000 </r>
       <r>  -30.1334    1.0000 </r>
       <r>  -30.1054    1.0000 </r>
       <r>  -30.1024    1.0000 </r>
       <r>  -30.0995    1.0000 </r>
       <r>  -30.0923    1.0000 </r>
       <r>  -30.0894    1.0000 </r>
       <r>  -30.0751    1.0000 </r>
       <r>  -30.0719    1.0000 </r>
       <r>  -30.0655    1.0000 </r>
       <r>  -30.0502    1.0000 </r>
       <r>  -30.0444    1.0000 </r>
       <r>  -30.0390    1.0000 </r>
       <r>  -30.0333    1.0000 </r>
       <r>  -30.0224    1.0000 </r>
       <r>  -30.0206    1.0000 </r>
       <r>  -30.0135    1.0000 </r>
       <r>  -30.0108    1.0000 </r>
       <r>  -30.0050    1.0000 </r>
       <r>  -29.9862    1.0000 </r>
       <r>  -29.9815    1.0000 </r>
       <r>  -29.9777    1.0000 </r>
       <r>  -29.9726    1.0000 </r>
       <r>  -29.9684    1.0000 </r>
       <r>  -29.9644    1.0000 </r>
       <r>  -29.9572    1.0000 </r>
       <r>  -29.9503    1.0000 </r>
       <r>  -29.9390    1.0000 </r>
       <r>  -29.9284    1.0000 </r>
       <r>  -29.9240    1.0000 </r>
       <r>  -29.9192    1.0000 </r>
       <r>  -29.9091    1.0000 </r>
       <r>  -29.9055    1.0000 </r>
       <r>  -29.9026    1.0000 </r>
       <r>  -29.8893    1.0000 </r>
       <r>  -29.8808    1.0000 </r>
       <r>  -29.8714    1.0000 </r>
       <r>  -29.8690    1.0000 </r>
       <r>  -29.8649    1.0000 </r>
       <r>  -29.8546    1.0000 </r>
       <r>  -29.8475    1.0000 </r>
       <r>  -29.8402    1.0000 </r>
       <r>  -29.8126    1.0000 </r>
       <r>  -29.8071    1.0000 </r>
       <r>  -29.7949    1.0000 </r>
       <r>  -29.7849    1.0000 </r>
       <r>  -29.7551    1.0000 </r>
       <r>  -29.7491    1.0000 </r>
       <r>  -29.7399    1.0000 </r>
       <r>  -29.7208    1.0000 </r>
       <r>  -29.7057    1.0000 </r>
       <r>  -29.6966    1.0000 </r>
       <r>  -29.6708    1.0000 </r>
       <r>  -29.6686    1.0000 </r>
       <r>  -29.6518    1.0000 </r>
       <r>  -29.6463    1.0000 </r>
       <r>  -29.6343    1.0000 </r>
       <r>  -29.6023    1.0000 </r>
       <r>  -29.5675    1.0000 </r>
       <r>  -29.5528    1.0000 </r>
       <r>  -29.4864    1.0000 </r>
       <r>  -29.4388    1.0000 </r>
       <r>  -29.4164    1.0000 </r>
       <r>  -18.7290    1.0000 </r>
       <r>  -18.6031    1.0000 </r>
       <r>  -18.5783    1.0000 </r>
       <r>  -18.4964    1.0000 </r>
       <r>  -18.4419    1.0000 </r>
       <r>  -18.4325    1.0000 </r>
       <r>  -18.3856    1.0000 </r>
       <r>  -18.3492    1.0000 </r>
       <r>  -18.3386    1.0000 </r>
       <r>  -18.2814    1.0000 </r>
       <r>  -18.2793    1.0000 </r>
       <r>  -18.1590    1.0000 </r>
       <r>  -18.1445    1.0000 </r>
       <r>  -18.1395    1.0000 </r>
       <r>  -18.0878    1.0000 </r>
       <r>  -18.0664    1.0000 </r>
       <r>  -17.9630    1.0000 </r>
       <r>  -17.9394    1.0000 </r>
       <r>  -17.9032    1.0000 </r>
       <r>  -17.8353    1.0000 </r>
       <r>  -17.8123    1.0000 </r>
       <r>  -17.8058    1.0000 </r>
       <r>  -17.7816    1.0000 </r>
       <r>  -17.7665    1.0000 </r>
       <r>  -17.7148    1.0000 </r>
       <r>  -17.6721    1.0000 </r>
       <r>  -17.6688    1.0000 </r>
       <r>  -17.6320    1.0000 </r>
       <r>  -17.5715    1.0000 </r>
[...]
       <r>   -32.4421     0.0000    64.0000 </r>
       <r>   -32.2476     0.0000    64.0000 </r>
       <r>   -32.0531     0.0000    64.0000 </r>
       <r>   -31.8586     0.0000    64.0000 </r>
       <r>   -31.6641     0.0000    64.0000 </r>
       <r>   -31.4696     0.0000    64.0000 </r>
       <r>   -31.2751     0.0000    64.0000 </r>
       <r>   -31.0806     0.0000    64.0000 </r>
       <r>   -30.8861     0.0000    64.0000 </r>
       <r>   -30.6917     1.8153    64.3530 </r>
       <r>   -30.4972    86.4501    81.1666 </r>
       <r>   -30.3027   109.0940   102.3842 </r>
       <r>   -30.1082   178.4634   137.0934 </r>
       <r>   -29.9137   283.9052   192.3098 </r>
       <r>   -29.7192   190.2391   229.3091 </r>
       <r>   -29.5247   104.3778   249.6095 </r>
       <r>   -29.3302    32.7710   255.9830 </r>
       <r>   -29.1357     0.0872   256.0000 </r>
       <r>   -28.9413     0.0000   256.0000 </r>
       <r>   -28.7468     0.0000   256.0000 </r>
       <r>   -28.5523     0.0000   256.0000 </r>
       <r>   -28.3578     0.0000   256.0000 </r>
       <r>   -28.1633     0.0000   256.0000 </r>
       <r>   -27.9688     0.0000   256.0000 </r>
       <r>   -27.7743     0.0000   256.0000 </r>
       <r>   -27.5798     0.0000   256.0000 </r>
       <r>   -27.3853     0.0000   256.0000 </r>
       <r>   -27.1909     0.0000   256.0000 </r>
       <r>   -26.9964     0.0000   256.0000 </r>
       <r>   -26.8019     0.0000   256.0000 </r>
       <r>   -26.6074     0.0000   256.0000 </r>
       <r>   -26.4129     0.0000   256.0000 </r>
       <r>   -26.2184     0.0000   256.0000 </r>
       <r>   -26.0239     0.0000   256.0000 </r>
       <r>   -25.8294     0.0000   256.0000 </r>
       <r>   -25.6349     0.0000   256.0000 </r>
       <r>   -25.4405     0.0000   256.0000 </r>
       <r>   -25.2460     0.0000   256.0000 </r>
       <r>   -25.0515     0.0000   256.0000 </r>
       <r>   -24.8570     0.0000   256.0000 </r>
       <r>   -24.6625     0.0000   256.0000 </r>
       <r>   -24.4680     0.0000   256.0000 </r>
       <r>   -24.2735     0.0000   256.0000 </r>
       <r>   -24.0790     0.0000   256.0000 </r>
       <r>   -23.8845     0.0000   256.0000 </r>
       <r>   -23.6901     0.0000   256.0000 </r>
       <r>   -23.4956     0.0000   256.0000 </r>
       <r>   -23.3011     0.0000   256.0000 </r>
       <r>   -23.1066     0.0000   256.0000 </r>
       <r>   -22.9121     0.0000   256.0000 </r>
       <r>   -22.7176     0.0000   256.0000 </r>
       <r>   -22.5231     0.0000   256.0000 </r>
       <r>   -22.3286     0.0000   256.0000 </r>
       <r>   -22.1341     0.0000   256.0000 </r>
       <r>   -21.9397     0.0000   256.0000 </r>
       <r>   -21.7452     0.0000   256.0000 </r>
       <r>   -21.5507     0.0000   256.0000 </r>
       <r>   -21.3562     0.0000   256.0000 </r>
       <r>   -21.1617     0.0000   256.0000 </r>
       <r>   -20.9672     0.0000   256.0000 </r>
       <r>   -20.7727     0.0000   256.0000 </r>
       <r>   -20.5782     0.0000   256.0000 </r>
       <r>   -20.3837     0.0000   256.0000 </r>
       <r>   -20.1893     0.0000   256.0000 </r>
       <r>   -19.9948     0.0000   256.0000 </r>
       <r>   -19.8003     0.0000   256.0000 </r>
       <r>   -19.6058     0.0000   256.0000 </r>
       <r>   -19.4113     0.0000   256.0000 </r>
       <r>   -19.2168     0.0000   256.0000 </r>
       <r>   -19.0223     0.0000   256.0000 </r>
       <r>   -18.8278     0.0268   256.0052 </r>
       <r>   -18.6333    12.9480   258.5234 </r>
       <r>   -18.4389    38.7944   266.0685 </r>
       <r>   -18.2444    57.6849   277.2876 </r>
       <r>   -18.0499    50.1138   287.0342 </r>
       <r>   -17.8554    40.2579   294.8639 </r>
       <r>   -17.6609    71.7452   308.8175 </r>
       <r>   -17.4664    40.6173   316.7171 </r>
       <r>   -17.2719     6.5962   318.0000 </r>
       <r>   -17.0774     9.2001   319.7893 </r>
       <r>   -16.8829     1.0831   320.0000 </r>
       <r>   -16.6885     0.0000   320.0000 </r>
       <r>   -16.4940     0.0000   320.0000 </r>
       <r>   -16.2995     0.0000   320.0000 </r>
       <r>   -16.1050     0.0000   320.0000 </r>
       <r>   -15.9105     0.0000   320.0000 </r>
       <r>   -15.7160     0.0000   320.0000 </r>
       <r>   -15.5215     0.0000   320.0000 </r>
       <r>   -15.3270     0.0000   320.0000 </r>
       <r>   -15.1325     0.0000   320.0000 </r>
       <r>   -14.9381     0.0000   320.0000 </r>
       <r>   -14.7436     0.0000   320.0000 </r>
       <r>   -14.5491     0.0000   320.0000 </r>
       <r>   -14.3546     0.0000   320.0000 </r>
       <r>   -14.1601     0.0000   320.0000 </r>
       <r>   -13.9656     0.0000   320.0000 </r>
       <r>   -13.7711     0.0000   320.0000 </r>
       <r>   -13.5766     0.0000   320.0000 </r>
       <r>   -13.3821     0.0000   320.0000 </r>
       <r>   -13.1877     0.0000   320.0000 </r>
       <r>   -12.9932     0.0000   320.0000 </r>
       <r>   -12.7987     0.0000   320.0000 </r>
       <r>   -12.6042     0.0000   320.0000 </r>
       <r>   -12.4097     0.0000   320.0000 </r>
       <r>   -12.2152     0.0000   320.0000 </r>
       <r>   -12.0207     0.0000   320.0000 </r>
       <r>   -11.8262     0.1946   320.0378 </r>
       <r>   -11.6317    11.2431   322.2245 </r>
       <r>   -11.4373    18.2261   325.7693 </r>
       <r>   -11.2428    20.7742   329.8096 </r>
       <r>   -11.0483    30.3893   335.7200 </r>
       <r>   -10.8538    38.0110   343.1127 </r>
       <r>   -10.6593    35.3155   349.9812 </r>
       <r>   -10.4648    10.3765   351.9993 </r>
       <r>   -10.2703     0.0036   352.0000 </r>
       <r>   -10.0758     0.0000   352.0000 </r>
       <r>    -9.8813     0.0000   352.0000 </r>
       <r>    -9.6869     0.0000   352.0000 </r>
       <r>    -9.4924     0.0000   352.0000 </r>
       <r>    -9.2979     0.0000   352.0000 </r>
       <r>    -9.1034     0.0000   352.0000 </r>
       <r>    -8.9089     0.0000   352.0000 </r>
       <r>    -8.7144     0.0000   352.0000 </r>
       <r>    -8.5199     0.0000   352.0000 </r>
       <r>    -8.3254     0.0000   352.0000 </r>
       <r>    -8.1310     0.3254   352.0633 </r>
       <r>    -7.9365    26.5504   357.2270 </r>
       <r>    -7.7420    32.7031   363.5874 </r>
       <r>    -7.5475    49.9516   373.3025 </r>
       <r>    -7.3530    61.6247   385.2878 </r>
       <r>    -7.1585    66.6846   398.2572 </r>
       <r>    -6.9640    77.9319   413.4141 </r>
       <r>    -6.7695    89.5278   430.8263 </r>
       <r>    -6.5750    78.7312   446.1386 </r>
       <r>    -6.3806   108.6334   467.2666 </r>
       <r>    -6.1861    93.5787   485.4666 </r>
       <r>    -5.9916    45.1288   494.2436 </r>
       <r>    -5.7971    64.9663   506.8789 </r>
       <r>    -5.6026    51.9441   516.9814 </r>
       <r>    -5.4081    61.5979   528.9615 </r>
       <r>    -5.2136    37.4133   536.2380 </r>
       <r>    -5.0191    28.7412   541.8278 </r>
       <r>    -4.8246    11.5487   544.0739 </r>
       <r>    -4.6302    43.7621   552.5852 </r>
       <r>    -4.4357    40.1786   560.3995 </r>
       <r>    -4.2412    31.6274   566.5507 </r>
       <r>    -4.0467    34.2877   573.2192 </r>
       <r>    -3.8522    65.6428   585.9860 </r>
       <r>    -3.6577    80.0677   601.5583 </r>
       <r>    -3.4632    77.7695   616.6836 </r>
       <r>    -3.2687    57.6166   627.8894 </r>
       <r>    -3.0742    43.9068   636.4288 </r>
       <r>    -2.8798    17.6668   639.8648 </r>
       <r>    -2.6853     0.6954   640.0000 </r>
       <r>    -2.4908     0.0000   640.0000 </r>
       <r>    -2.2963     0.0000   640.0000 </r>
       <r>    -2.1018     0.8881   640.1727 </r>
       <r>    -1.9073     9.4905   642.0185 </r>
       <r>    -1.7128    22.3735   646.3699 </r>
       <r>    -1.5183    13.2663   648.9501 </r>
       <r>    -1.3238    18.1882   652.4875 </r>
       <r>    -1.1294    22.1001   656.7857 </r>
       <r>    -0.9349    34.3854   663.4733 </r>
       <r>    -0.7404    12.7424   665.9515 </r>
       <r>    -0.5459    28.8973   671.5717 </r>
       <r>    -0.3514    38.6651   679.0916 </r>
       <r>    -0.1569    29.0269   684.7371 </r>
       <r>     0.0376    32.1811   690.9959 </r>
       <r>     0.2321    40.2402   698.8222 </r>
       <r>     0.4266    41.6303   706.9188 </r>
       <r>     0.6210    76.0268   721.7052 </r>
       <r>     0.8155    87.6298   738.7482 </r>
       <r>     1.0100   112.9598   760.7176 </r>
       <r>     1.2045    37.4420   767.9997 </r>
       <r>     1.3990     0.0016   768.0000 </r>
       <r>     1.5935     0.0000   768.0000 </r>
       <r>     1.7880     0.0000   768.0000 </r>
       <r>     1.9825     0.0000   768.0000 </r>
       <r>     2.1770     0.0000   768.0000 </r>
       <r>     2.3714     0.0000   768.0000 </r>
       <r>     2.5659     0.0000   768.0000 </r>
       <r>     2.7604     0.0000   768.0000 </r>
       <r>     2.9549     0.0000   768.0000 </r>
       <r>     3.1494     0.0000   768.0000 </r>
       <r>     3.3439     0.0000   768.0000 </r>
       <r>     3.5384     0.0000   768.0000 </r>
       <r>     3.7329     0.0000   768.0000 </r>
      </set>
     </set>
    </array>
   </total>
  </dos>
 </calculation>
 <structure name="finalpos" >
  <crystal>
   <varray name="basis" >
    <v>      13.79398668       0.00000000       0.00000000 </v>
    <v>      -6.89699334      11.94594288       0.00000000 </v>
    <v>       0.00000000       0.00000000      27.81022107 </v>
   </varray>
   <i name="volume">   4582.62876984 </i>
   <varray name="rec_basis" >
    <v>       0.07249536       0.04185521       0.00000000 </v>
    <v>       0.00000000       0.08371043       0.00000000 </v>
    <v>       0.00000000       0.00000000       0.03595800 </v>
   </varray>
  </crystal>
  <varray name="positions" >
   <v>       0.09281503       0.17717390       0.54198092 </v>
   <v>       0.08068969       0.40804056       0.54815897 </v>
   <v>       0.08048198       0.66335580       0.53805740 </v>
   <v>       0.07947673       0.90959101       0.54383045 </v>
   <v>       0.32761625       0.16640225       0.54372725 </v>
   <v>       0.33153493       0.42219165       0.54327283 </v>
   <v>       0.33597410       0.67058564       0.54345382 </v>
   <v>       0.32956581       0.91384098       0.54069576 </v>
   <v>       0.57743881       0.17178513       0.54116711 </v>
   <v>       0.57566669       0.41773561       0.54976643 </v>
   <v>       0.58395879       0.67630672       0.54319565 </v>
   <v>       0.57690558       0.92097788       0.55078448 </v>
   <v>       0.81565486       0.15727169       0.54329554 </v>
   <v>       0.82977871       0.41413465       0.54315758 </v>
   <v>       0.82603514       0.66571664       0.54936863 </v>
   <v>       0.83714871       0.92431346       0.54621605 </v>
   <v>       0.17028885       0.07602296       0.45583756 </v>
   <v>       0.16021959       0.33078716       0.45295199 </v>
   <v>       0.17438116       0.58441834       0.45303720 </v>
   <v>       0.17241106       0.82996238       0.45316034 </v>
   <v>       0.41498168       0.07295516       0.45583760 </v>
   <v>       0.43097576       0.34057320       0.45647444 </v>
   <v>       0.41058081       0.57203925       0.45343599 </v>
   <v>       0.41887560       0.82276876       0.45567481 </v>
   <v>       0.66529740       0.07595094       0.45304766 </v>
   <v>       0.66806848       0.34138745       0.45840723 </v>
   <v>       0.68258554       0.59671182       0.45845649 </v>
   <v>       0.66678795       0.83013609       0.45425709 </v>
   <v>       0.90959383       0.08032470       0.45187158 </v>
   <v>       0.90898357       0.32496220       0.45781022 </v>
   <v>       0.90984594       0.59009401       0.45486898 </v>
   <v>       0.92124425       0.84315216       0.46046309 </v>
   <v>       0.08791619       0.17693352       0.39378936 </v>
   <v>       0.07573170       0.41261623       0.39476263 </v>
   <v>       0.07804378       0.66373850       0.38934178 </v>
   <v>       0.07867878       0.91282940       0.39516111 </v>
   <v>       0.33229938       0.14507700       0.39353241 </v>
   <v>       0.33921638       0.41296176       0.39751415 </v>
   <v>       0.33897257       0.67158719       0.39478133 </v>
   <v>       0.34795332       0.91518188       0.40112346 </v>
   <v>       0.57063262       0.18104085       0.38852161 </v>
   <v>       0.59897025       0.43571890       0.40057625 </v>
   <v>       0.58979630       0.66499180       0.39995295 </v>
   <v>       0.59379936       0.91290115       0.39529217 </v>
   <v>       0.83162799       0.17023323       0.38995744 </v>
   <v>       0.84957015       0.41542625       0.39759439 </v>
   <v>       0.84533915       0.67533776       0.39854786 </v>
   <v>       0.82870252       0.91664515       0.39579072 </v>
   <v>       0.16641805       0.08346287       0.60311181 </v>
   <v>       0.16365586       0.32782361       0.60588106 </v>
   <v>       0.16626735       0.58701553       0.59982479 </v>
   <v>       0.17404820       0.83861658       0.60424603 </v>
   <v>       0.42634964       0.08497806       0.60133873 </v>
   <v>       0.40615363       0.32966930       0.60626535 </v>
   <v>       0.42991435       0.58454991       0.60970775 </v>
   <v>       0.38416102       0.82261215       0.60659670 </v>
   <v>       0.65033483       0.07827178       0.60592942 </v>
   <v>       0.67877487       0.32188742       0.60653359 </v>
   <v>       0.67199567       0.58948774       0.60743566 </v>
   <v>       0.66661271       0.82651663       0.60315105 </v>
   <v>       0.93058162       0.09845787       0.60328814 </v>
   <v>       0.90567739       0.32257860       0.60341389 </v>
   <v>       0.91995188       0.59345423       0.60716594 </v>
   <v>       0.91414497       0.83935259       0.60666302 </v>
   <v>       0.00331820       0.99429142       0.49660447 </v>
   <v>       0.00594952       0.25583733       0.49826809 </v>
   <v>       0.00063345       0.49897207       0.49901909 </v>
   <v>       0.00979083       0.75543360       0.49729002 </v>
   <v>       0.24857361       0.99740327       0.50215396 </v>
   <v>       0.25090397       0.25023758       0.50295443 </v>
   <v>       0.23956402       0.49604561       0.49894598 </v>
   <v>       0.26035854       0.75353314       0.50054459 </v>
   <v>       0.49663250       0.99957298       0.49824026 </v>
   <v>       0.50045269       0.25097726       0.50161294 </v>
   <v>       0.49545989       0.49609579       0.50443285 </v>
   <v>       0.50234460       0.74676963       0.50141101 </v>
   <v>       0.74285866       0.99709585       0.49902384 </v>
   <v>       0.74042467       0.24245870       0.49613866 </v>
   <v>       0.75156096       0.50134094       0.50137594 </v>
   <v>       0.75411880       0.75982645       0.49795134 </v>
  </varray>
  <varray name="velocities" >
   <v>       0.00000000       0.00000000       0.00000000 </v>
   <v>       0.00000000       0.00000000       0.00000000 </v>
   <v>       0.00000000       0.00000000       0.00000000 </v>
   <v>       0.00000000       0.00000000       0.00000000 </v>
   <v>       0.00000000       0.00000000       0.00000000 </v>
   <v>       0.00000000       0.00000000       0.00000000 </v>
   <v>       0.00000000       0.00000000       0.00000000 </v>
   <v>       0.00000000       0.00000000       0.00000000 </v>
   <v>       0.00000000       0.00000000       0.00000000 </v>
   <v>       0.00000000       0.00000000       0.00000000 </v>
   <v>       0.00000000       0.00000000       0.00000000 </v>
   <v>       0.00000000       0.00000000       0.00000000 </v>
   <v>       0.00000000       0.00000000       0.00000000 </v>
   <v>       0.00000000       0.00000000       0.00000000 </v>
   <v>       0.00000000       0.00000000       0.00000000 </v>
   <v>       0.00000000       0.00000000       0.00000000 </v>
   <v>       0.00000000       0.00000000       0.00000000 </v>
   <v>       0.00000000       0.00000000       0.00000000 </v>
   <v>       0.00000000       0.00000000       0.00000000 </v>
   <v>       0.00000000       0.00000000       0.00000000 </v>
   <v>       0.00000000       0.00000000       0.00000000 </v>
   <v>       0.00000000       0.00000000       0.00000000 </v>
   <v>       0.00000000       0.00000000       0.00000000 </v>
   <v>       0.00000000       0.00000000       0.00000000 </v>
   <v>       0.00000000       0.00000000       0.00000000 </v>
   <v>       0.00000000       0.00000000       0.00000000 </v>
   <v>       0.00000000       0.00000000       0.00000000 </v>
   <v>       0.00000000       0.00000000       0.00000000 </v>
   <v>       0.00000000       0.00000000       0.00000000 </v>
   <v>       0.00000000       0.00000000       0.00000000 </v>
   <v>       0.00000000       0.00000000       0.00000000 </v>
   <v>       0.00000000       0.00000000       0.00000000 </v>
   <v>       0.00000000       0.00000000       0.00000000 </v>
   <v>       0.00000000       0.00000000       0.00000000 </v>
   <v>       0.00000000       0.00000000       0.00000000 </v>
   <v>       0.00000000       0.00000000       0.00000000 </v>
   <v>       0.00000000       0.00000000       0.00000000 </v>
   <v>       0.00000000       0.00000000       0.00000000 </v>
   <v>       0.00000000       0.00000000       0.00000000 </v>
   <v>       0.00000000       0.00000000       0.00000000 </v>
   <v>       0.00000000       0.00000000       0.00000000 </v>
   <v>       0.00000000       0.00000000       0.00000000 </v>
   <v>       0.00000000       0.00000000       0.00000000 </v>
   <v>       0.00000000       0.00000000       0.00000000 </v>
   <v>       0.00000000       0.00000000       0.00000000 </v>
   <v>       0.00000000       0.00000000       0.00000000 </v>
   <v>       0.00000000       0.00000000       0.00000000 </v>
   <v>       0.00000000       0.00000000       0.00000000 </v>
   <v>       0.00000000       0.00000000       0.00000000 </v>
   <v>       0.00000000       0.00000000       0.00000000 </v>
   <v>       0.00000000       0.00000000       0.00000000 </v>
   <v>       0.00000000       0.00000000       0.00000000 </v>
   <v>       0.00000000       0.00000000       0.00000000 </v>
   <v>       0.00000000       0.00000000       0.00000000 </v>
   <v>       0.00000000       0.00000000       0.00000000 </v>
   <v>       0.00000000       0.00000000       0.00000000 </v>
   <v>       0.00000000       0.00000000       0.00000000 </v>
   <v>       0.00000000       0.00000000       0.00000000 </v>
   <v>       0.00000000       0.00000000       0.00000000 </v>
   <v>       0.00000000       0.00000000       0.00000000 </v>
   <v>       0.00000000       0.00000000       0.00000000 </v>
   <v>       0.00000000       0.00000000       0.00000000 </v>
   <v>       0.00000000       0.00000000       0.00000000 </v>
   <v>       0.00000000       0.00000000       0.00000000 </v>
   <v>       0.00000000       0.00000000       0.00000000 </v>
   <v>       0.00000000       0.00000000       0.00000000 </v>
   <v>       0.00000000       0.00000000       0.00000000 </v>
   <v>       0.00000000       0.00000000       0.00000000 </v>
   <v>       0.00000000       0.00000000       0.00000000 </v>
   <v>       0.00000000       0.00000000       0.00000000 </v>
   <v>       0.00000000       0.00000000       0.00000000 </v>
   <v>       0.00000000       0.00000000       0.00000000 </v>
   <v>       0.00000000       0.00000000       0.00000000 </v>
   <v>       0.00000000       0.00000000       0.00000000 </v>
   <v>       0.00000000       0.00000000       0.00000000 </v>
   <v>       0.00000000       0.00000000       0.00000000 </v>
   <v>       0.00000000       0.00000000       0.00000000 </v>
   <v>       0.00000000       0.00000000       0.00000000 </v>
   <v>       0.00000000       0.00000000       0.00000000 </v>
   <v>       0.00000000       0.00000000       0.00000000 </v>
  </varray>
 </structure>
</modeling>
