<?xml version="1.0" encoding="ISO-8859-1"?>
<modeling>
 <generator>
  <i name="program" type="string">vasp </i>
  <i name="version" type="string">5.4.4.18Apr17-6-g9f103f2a35  </i>
  <i name="subversion" type="string">(build Oct 31 2019 15:01:46) complex            parallel </i>
  <i name="platform" type="string">LinuxIFC </i>
  <i name="date" type="string">2024 05 01 </i>
  <i name="time" type="string">02:48:01 </i>
 </generator>
 <incar>
  <i type="int" name="ISTART">     0</i>
  <i type="string" name="PREC">anormal</i>
  <i type="logical" name="ADDGRID"> T  </i>
  <i type="int" name="IBRION">    -1</i>
  <i name="EDIFF">      0.00000100</i>
  <i name="EDIFFG">     -0.01000000</i>
  <i type="int" name="NSW">     1</i>
  <i type="int" name="ISIF">     2</i>
  <i type="int" name="ISYM">     2</i>
  <i name="ENCUT">    600.00000000</i>
  <i name="POTIM">      1.00000000</i>
  <i type="string" name="LREAL"> Auto.</i>
  <i type="int" name="ISMEAR">     0</i>
  <i name="SIGMA">      0.05000000</i>
  <i name="KSPACING">      0.25000000</i>
  <i type="logical" name="LWAVE"> F  </i>
  <i type="logical" name="LCHARG"> F  </i>
  <i type="logical" name="LSCALAPACK"> F  </i>
  <v type="int" name="KPOINT_BSE">    -1     0     0     0</v>
 </incar>
 <structure name="primitive_cell" >
  <crystal>
   <varray name="basis" >
    <v>      13.79398668       0.00000000       0.00000000 </v>
    <v>      -6.89699334      11.94594288       0.00000000 </v>
    <v>       0.00000000       0.00000000      27.81022107 </v>
   </varray>
   <i name="volume">   4582.62876984 </i>
   <varray name="rec_basis" >
    <v>       0.07249536       0.04185521       0.00000000 </v>
    <v>       0.00000000       0.08371043       0.00000000 </v>
    <v>       0.00000000       0.00000000       0.03595800 </v>
   </varray>
  </crystal>
  <varray name="positions" >
   <v>       0.09133931       0.16936969      -0.45479383 </v>
   <v>       0.25893227       0.25338403      -0.49923896 </v>
   <v>      -0.00176114       0.25212775      -0.49822931 </v>
   <v>      -0.00587652      -0.00387757       0.49862845 </v>
   <v>       0.16412898       0.08652339      -0.39624118 </v>
   <v>      -0.07416824       0.09029352      -0.39514803 </v>
   <v>       0.17853720       0.33236219      -0.39291523 </v>
   <v>       0.17259077       0.08356168       0.45701875 </v>
   <v>       0.16625372       0.34359969       0.45896197 </v>
   <v>      -0.07393674       0.08387081       0.45539773 </v>
   <v>       0.32661714       0.41349433      -0.45728683 </v>
   <v>       0.07613329      -0.08119292      -0.45229471 </v>
   <v>       0.34110725       0.16963986      -0.45602608 </v>
   <v>       0.07125075       0.41406830      -0.45476751 </v>
   <v>      -0.17174646      -0.07909881      -0.45730003 </v>
   <v>      -0.17192231       0.16211989      -0.45414856 </v>
   <v>       0.25155886      -0.00095542      -0.49806224 </v>
   <v>       0.08835736       0.16879228       0.39674615 </v>
   <v>      -0.23895237       0.01324640       0.49847545 </v>
   <v>       0.25965068      -0.49531828      -0.49868138 </v>
   <v>       0.42273762       0.32533773      -0.39592765 </v>
   <v>      -0.09808868      -0.17366365      -0.39357401 </v>
   <v>      -0.09145514       0.33151065      -0.39392915 </v>
   <v>       0.41414681       0.32573634       0.45761503 </v>
   <v>      -0.08573214       0.33485162       0.45480103 </v>
   <v>      -0.09752783      -0.17996988       0.45855054 </v>
   <v>       0.32323869       0.17093332       0.39878308 </v>
   <v>       0.15406693      -0.16092597      -0.39718471 </v>
   <v>       0.40920507      -0.42987880      -0.39587224 </v>
   <v>       0.08334760       0.40332875       0.39281765 </v>
   <v>      -0.49709820      -0.49901520      -0.49986590 </v>
   <v>       0.34289993       0.41012702       0.39567344 </v>
   <v>      -0.49312372       0.25630840      -0.49904922 </v>
   <v>      -0.15696816      -0.08516191       0.39724314 </v>
   <v>      -0.25632566      -0.24185432      -0.49679280 </v>
   <v>       0.41883018       0.08666378      -0.39756281 </v>
   <v>       0.00664680      -0.49740170       0.49953493 </v>
   <v>       0.09172250      -0.07997966       0.39387602 </v>
   <v>      -0.00782744      -0.25746394      -0.49605599 </v>
   <v>      -0.24796843       0.24700512       0.49504599 </v>
   <v>      -0.16809973       0.17110217       0.39363999 </v>
   <v>      -0.32316149       0.09604747      -0.39279111 </v>
   <v>      -0.33629789      -0.15909216      -0.39407827 </v>
   <v>       0.17321651      -0.40495188      -0.39491517 </v>
   <v>       0.41158487      -0.42715165       0.45416676 </v>
   <v>       0.17120897      -0.15685993       0.45427861 </v>
   <v>       0.42477343       0.08583079       0.45460393 </v>
   <v>       0.16218717      -0.41441306       0.45680852 </v>
   <v>       0.33542753      -0.33929963      -0.45581200 </v>
   <v>      -0.41459767       0.41582801      -0.45512846 </v>
   <v>      -0.33335827      -0.16921661       0.45552338 </v>
   <v>      -0.33325100       0.08389895       0.45460995 </v>
   <v>       0.33295558      -0.08532097      -0.45945417 </v>
   <v>      -0.16814502      -0.33579307      -0.45534784 </v>
   <v>      -0.41615652      -0.08491711      -0.45542228 </v>
   <v>      -0.17218816       0.41499952      -0.45929750 </v>
   <v>      -0.41955746      -0.33538977      -0.45466646 </v>
   <v>      -0.41344929       0.16478301      -0.45480722 </v>
   <v>       0.07829587      -0.33970810      -0.45720993 </v>
   <v>       0.49743996      -0.25580561       0.49780792 </v>
   <v>       0.49994831       0.00036736      -0.49940477 </v>
   <v>       0.24421103      -0.25113275      -0.49979604 </v>
   <v>       0.34369736      -0.06782259       0.39242609 </v>
   <v>      -0.42086117       0.41075711       0.39123494 </v>
   <v>       0.32799468      -0.32993594       0.39801785 </v>
   <v>      -0.33529858      -0.41685166      -0.39518581 </v>
   <v>      -0.41416764      -0.08592432       0.39779896 </v>
   <v>      -0.08415795      -0.42231395      -0.40049312 </v>
   <v>      -0.15199287      -0.33736864       0.39283199 </v>
   <v>      -0.31935986       0.34780331      -0.39497466 </v>
   <v>      -0.33880301      -0.42566656       0.45659115 </v>
   <v>      -0.16793599       0.42027243       0.39184419 </v>
   <v>      -0.08030042      -0.40655819       0.45484681 </v>
   <v>      -0.33403095       0.33273356       0.45431470 </v>
   <v>      -0.42379562       0.17320854       0.39509173 </v>
   <v>      -0.42281820      -0.33521232       0.39728496 </v>
   <v>       0.09139837      -0.33599764       0.39769669 </v>
   <v>      -0.24989607       0.49900269       0.49706895 </v>
   <v>       0.41622073      -0.16473323      -0.39591665 </v>
   <v>       0.41129623      -0.17059965       0.45822447 </v>
  </varray>
 </structure>
 <varray name="primitive_index" >
  <v type="int" >        1 </v>
  <v type="int" >       70 </v>
  <v type="int" >       66 </v>
  <v type="int" >       65 </v>
  <v type="int" >       49 </v>
  <v type="int" >       61 </v>
  <v type="int" >       50 </v>
  <v type="int" >       17 </v>
  <v type="int" >       18 </v>
  <v type="int" >       29 </v>
  <v type="int" >        6 </v>
  <v type="int" >        4 </v>
  <v type="int" >        5 </v>
  <v type="int" >        2 </v>
  <v type="int" >       16 </v>
  <v type="int" >       13 </v>
  <v type="int" >       69 </v>
  <v type="int" >       33 </v>
  <v type="int" >       77 </v>
  <v type="int" >       71 </v>
  <v type="int" >       54 </v>
  <v type="int" >       64 </v>
  <v type="int" >       62 </v>
  <v type="int" >       22 </v>
  <v type="int" >       30 </v>
  <v type="int" >       32 </v>
  <v type="int" >       37 </v>
  <v type="int" >       52 </v>
  <v type="int" >       55 </v>
  <v type="int" >       34 </v>
  <v type="int" >       75 </v>
  <v type="int" >       38 </v>
  <v type="int" >       74 </v>
  <v type="int" >       48 </v>
  <v type="int" >       80 </v>
  <v type="int" >       53 </v>
  <v type="int" >       67 </v>
  <v type="int" >       36 </v>
  <v type="int" >       68 </v>
  <v type="int" >       78 </v>
  <v type="int" >       45 </v>
  <v type="int" >       57 </v>
  <v type="int" >       60 </v>
  <v type="int" >       51 </v>
  <v type="int" >       23 </v>
  <v type="int" >       20 </v>
  <v type="int" >       21 </v>
  <v type="int" >       19 </v>
  <v type="int" >        7 </v>
  <v type="int" >       10 </v>
  <v type="int" >       28 </v>
  <v type="int" >       25 </v>
  <v type="int" >        8 </v>
  <v type="int" >       15 </v>
  <v type="int" >       12 </v>
  <v type="int" >       14 </v>
  <v type="int" >       11 </v>
  <v type="int" >        9 </v>
  <v type="int" >        3 </v>
  <v type="int" >       76 </v>
  <v type="int" >       73 </v>
  <v type="int" >       72 </v>
  <v type="int" >       40 </v>
  <v type="int" >       42 </v>
  <v type="int" >       39 </v>
  <v type="int" >       59 </v>
  <v type="int" >       44 </v>
  <v type="int" >       63 </v>
  <v type="int" >       47 </v>
  <v type="int" >       58 </v>
  <v type="int" >       27 </v>
  <v type="int" >       46 </v>
  <v type="int" >       31 </v>
  <v type="int" >       26 </v>
  <v type="int" >       41 </v>
  <v type="int" >       43 </v>
  <v type="int" >       35 </v>
  <v type="int" >       79 </v>
  <v type="int" >       56 </v>
  <v type="int" >       24 </v>
 </varray>
 <kpoints>
  <generation param="Gamma">
   <v type="int" name="divisions">       3        3        1 </v>
   <v name="usershift">      0.00000000       0.00000000       0.00000000 </v>
   <v name="genvec1">      0.33333333      -0.00000000       0.00000000 </v>
   <v name="genvec2">      0.00000000       0.33333333       0.00000000 </v>
   <v name="genvec3">      0.00000000       0.00000000       1.00000000 </v>
   <v name="shift">      0.00000000       0.00000000       0.00000000 </v>
  </generation>
  <varray name="kpointlist" >
   <v>       0.00000000       0.00000000       0.00000000 </v>
   <v>       0.33333333      -0.00000000       0.00000000 </v>
   <v>       0.00000000       0.33333333       0.00000000 </v>
   <v>       0.33333333       0.33333333       0.00000000 </v>
   <v>      -0.33333333       0.33333333       0.00000000 </v>
  </varray>
  <varray name="weights" >
   <v>       0.11111111 </v>
   <v>       0.22222222 </v>
   <v>       0.22222222 </v>
   <v>       0.22222222 </v>
   <v>       0.22222222 </v>
  </varray>
 </kpoints>
 <parameters>
  <separator name="general" >
   <i type="string" name="SYSTEM">unknown system</i>
   <i type="logical" name="LCOMPAT"> F  </i>
  </separator>
  <separator name="electronic" >
   <i type="string" name="PREC">anorma</i>
   <i name="ENMAX">    600.00000000</i>
   <i name="ENAUG">    644.87300000</i>
   <i name="EDIFF">      0.00000100</i>
   <i type="int" name="IALGO">    38</i>
   <i type="int" name="IWAVPR">    10</i>
   <i type="int" name="NBANDS">   384</i>
   <i name="NELECT">    640.00000000</i>
   <i type="int" name="TURBO">     0</i>
   <i type="int" name="IRESTART">     0</i>
   <i type="int" name="NREBOOT">     0</i>
   <i type="int" name="NMIN">     0</i>
   <i name="EREF">      0.00000000</i>
   <separator name="electronic smearing" >
    <i type="int" name="ISMEAR">     0</i>
    <i name="SIGMA">      0.05000000</i>
    <i name="KSPACING">      0.25000000</i>
    <i type="logical" name="KGAMMA"> T  </i>
   </separator>
   <separator name="electronic projectors" >
    <i type="logical" name="LREAL"> T  </i>
    <v name="ROPT">     -0.00025000     -0.00025000     -0.00025000</v>
    <i type="int" name="LMAXPAW">  -100</i>
    <i type="int" name="LMAXMIX">     2</i>
    <i type="logical" name="NLSPLINE"> F  </i>
   </separator>
   <separator name="electronic startup" >
    <i type="int" name="ISTART">     0</i>
    <i type="int" name="ICHARG">     2</i>
    <i type="int" name="INIWAV">     1</i>
   </separator>
   <separator name="electronic spin" >
    <i type="int" name="ISPIN">     1</i>
    <i type="logical" name="LNONCOLLINEAR"> F  </i>
    <v name="MAGMOM">      1.00000000      1.00000000      1.00000000      1.00000000      1.00000000      1.00000000      1.00000000      1.00000000      1.00000000      1.00000000      1.00000000      1.00000000      1.00000000      1.00000000      1.00000000      1.00000000      1.00000000      1.00000000      1.00000000      1.00000000
      1.00000000      1.00000000      1.00000000      1.00000000      1.00000000      1.00000000      1.00000000      1.00000000      1.00000000      1.00000000      1.00000000      1.00000000      1.00000000      1.00000000      1.00000000      1.00000000      1.00000000      1.00000000      1.00000000      1.00000000
      1.00000000      1.00000000      1.00000000      1.00000000      1.00000000      1.00000000      1.00000000      1.00000000      1.00000000      1.00000000      1.00000000      1.00000000      1.00000000      1.00000000      1.00000000      1.00000000      1.00000000      1.00000000      1.00000000      1.00000000
      1.00000000      1.00000000      1.00000000      1.00000000      1.00000000      1.00000000      1.00000000      1.00000000      1.00000000      1.00000000      1.00000000      1.00000000      1.00000000      1.00000000      1.00000000      1.00000000      1.00000000      1.00000000      1.00000000      1.00000000
</v>
    <i name="NUPDOWN">     -1.00000000</i>
    <i type="logical" name="LSORBIT"> F  </i>
    <v name="SAXIS">      0.00000000      0.00000000      1.00000000</v>
    <i type="logical" name="LSPIRAL"> F  </i>
    <v name="QSPIRAL">      0.00000000      0.00000000      0.00000000</v>
    <i type="logical" name="LZEROZ"> F  </i>
   </separator>
   <separator name="electronic exchange-correlation" >
    <i type="logical" name="LASPH"> F  </i>
    <i type="logical" name="LMETAGGA"> F  </i>
   </separator>
   <separator name="electronic convergence" >
    <i type="int" name="NELM">    60</i>
    <i type="int" name="NELMDL">    -5</i>
    <i type="int" name="NELMIN">     2</i>
    <i name="ENINI">    600.00000000</i>
    <separator name="electronic convergence detail" >
     <i type="logical" name="LDIAG"> T  </i>
     <i type="logical" name="LSUBROT"> F  </i>
     <i name="WEIMIN">      0.00000000</i>
     <i name="EBREAK">      0.00000000</i>
     <i name="DEPER">      0.30000000</i>
     <i type="int" name="NRMM">     4</i>
     <i name="TIME">      0.40000000</i>
    </separator>
   </separator>
   <separator name="electronic mixer" >
    <i name="AMIX">      0.40000000</i>
    <i name="BMIX">      1.00000000</i>
    <i name="AMIN">      0.10000000</i>
    <i name="AMIX_MAG">      1.60000000</i>
    <i name="BMIX_MAG">      1.00000000</i>
    <separator name="electronic mixer details" >
     <i type="int" name="IMIX">     4</i>
     <i type="logical" name="MIXFIRST"> F  </i>
     <i type="int" name="MAXMIX">   -45</i>
     <i name="WC">    100.00000000</i>
     <i type="int" name="INIMIX">     1</i>
     <i type="int" name="MIXPRE">     1</i>
     <i type="int" name="MREMOVE">     5</i>
    </separator>
   </separator>
   <separator name="electronic dipolcorrection" >
    <i type="logical" name="LDIPOL"> F  </i>
    <i type="logical" name="LMONO"> F  </i>
    <i type="int" name="IDIPOL">     0</i>
    <i name="EPSILON">      1.00000000</i>
    <v name="DIPOL">   -100.00000000   -100.00000000   -100.00000000</v>
    <i name="EFIELD">      0.00000000</i>
   </separator>
  </separator>
  <separator name="grids" >
   <i type="int" name="NGX">   112</i>
   <i type="int" name="NGY">   112</i>
   <i type="int" name="NGZ">   224</i>
   <i type="int" name="NGXF">   224</i>
   <i type="int" name="NGYF">   224</i>
   <i type="int" name="NGZF">   448</i>
   <i type="logical" name="ADDGRID"> T  </i>
  </separator>
  <separator name="ionic" >
   <i type="int" name="NSW">     1</i>
   <i type="int" name="IBRION">    -1</i>
   <i type="int" name="MDALGO">     0</i>
   <i type="int" name="ISIF">     2</i>
   <i name="PSTRESS">      0.00000000</i>
   <i name="EDIFFG">     -0.01000000</i>
   <i type="int" name="NFREE">     0</i>
   <i name="POTIM">      1.00000000</i>
   <i name="SMASS">     -3.00000000</i>
   <i name="SCALEE">      1.00000000</i>
  </separator>
  <separator name="ionic md" >
   <i name="TEBEG">      0.00010000</i>
   <i name="TEEND">      0.00010000</i>
   <i type="int" name="NBLOCK">     1</i>
   <i type="int" name="KBLOCK">     1</i>
   <i type="int" name="NPACO">   256</i>
   <i name="APACO">     16.00000000</i>
  </separator>
  <separator name="symmetry" >
   <i type="int" name="ISYM">     2</i>
   <i name="SYMPREC">      0.00001000</i>
  </separator>
  <separator name="dos" >
   <i type="int" name="LORBIT">     0</i>
   <v name="RWIGS">     -1.00000000     -1.00000000     -1.00000000</v>
   <i type="int" name="NEDOS">   301</i>
   <i name="EMIN">     10.00000000</i>
   <i name="EMAX">    -10.00000000</i>
   <i name="EFERMI">      0.00000000</i>
  </separator>
  <separator name="writing" >
   <i type="int" name="NWRITE">     2</i>
   <i type="logical" name="LWAVE"> F  </i>
   <i type="logical" name="LDOWNSAMPLE"> F  </i>
   <i type="logical" name="LCHARG"> F  </i>
   <i type="logical" name="LPARD"> F  </i>
   <i type="logical" name="LVTOT"> F  </i>
   <i type="logical" name="LVHAR"> F  </i>
   <i type="logical" name="LELF"> F  </i>
   <i type="logical" name="LOPTICS"> F  </i>
   <v name="STM">      0.00000000      0.00000000      0.00000000      0.00000000      0.00000000      0.00000000      0.00000000</v>
  </separator>
  <separator name="performance" >
   <i type="int" name="NPAR">     4</i>
   <i type="int" name="NSIM">     4</i>
   <i type="int" name="NBLK">    -1</i>
   <i type="logical" name="LPLANE"> T  </i>
   <i type="logical" name="LSCALAPACK"> F  </i>
   <i type="logical" name="LSCAAWARE"> F  </i>
   <i type="logical" name="LSCALU"> F  </i>
   <i type="logical" name="LASYNC"> F  </i>
   <i type="logical" name="LORBITALREAL"> F  </i>
  </separator>
  <separator name="miscellaneous" >
   <i type="int" name="IDIOT">     3</i>
   <i type="int" name="ISPECIAL">     0</i>
   <i type="logical" name="LMUSIC"> F  </i>
   <v name="POMASS">     44.95600000     35.45300000     12.01100000</v>
   <v name="DARWINR">      0.00000000      0.00000000      0.00000000</v>
   <v name="DARWINV">      1.00000000      1.00000000      1.00000000</v>
   <i type="logical" name="LCORR"> T  </i>
  </separator>
  <i type="logical" name="GGA_COMPAT"> T  </i>
  <i type="logical" name="LBERRY"> F  </i>
  <i type="int" name="ICORELEVEL">     0</i>
  <i type="logical" name="LDAU"> F  </i>
  <i type="int" name="I_CONSTRAINED_M">     0</i>
  <separator name="electronic exchange-correlation" >
   <i type="string" name="GGA">--</i>
   <i type="int" name="VOSKOWN">     0</i>
   <i type="logical" name="LHFCALC"> F  </i>
   <i type="string" name="PRECFOCK"></i>
   <i type="logical" name="LSYMGRAD"> F  </i>
   <i type="logical" name="LHFONE"> F  </i>
   <i type="logical" name="LRHFCALC"> F  </i>
   <i type="logical" name="LTHOMAS"> F  </i>
   <i type="logical" name="LMODELHF"> F  </i>
   <i name="ENCUT4O">     -1.00000000</i>
   <i type="int" name="EXXOEP">     0</i>
   <i type="int" name="FOURORBIT">     0</i>
   <i name="AEXX">      0.00000000</i>
   <i name="HFALPHA">      0.00000000</i>
   <i name="MCALPHA">      0.00000000</i>
   <i name="ALDAX">      1.00000000</i>
   <i name="AGGAX">      1.00000000</i>
   <i name="ALDAC">      1.00000000</i>
   <i name="AGGAC">      1.00000000</i>
   <i type="int" name="NKREDX">     1</i>
   <i type="int" name="NKREDY">     1</i>
   <i type="int" name="NKREDZ">     1</i>
   <i type="logical" name="SHIFTRED"> F  </i>
   <i type="logical" name="ODDONLY"> F  </i>
   <i type="logical" name="EVENONLY"> F  </i>
   <i type="int" name="LMAXFOCK">     0</i>
   <i type="int" name="NMAXFOCKAE">     0</i>
   <i type="logical" name="LFOCKAEDFT"> F  </i>
   <i name="HFSCREEN">      0.00000000</i>
   <i name="HFSCREENC">      0.00000000</i>
   <i type="int" name="NBANDSGWLOW">     0</i>
  </separator>
  <separator name="vdW DFT" >
   <i type="logical" name="LUSE_VDW"> F  </i>
   <i name="Zab_VDW">     -0.84910000</i>
   <i name="PARAM1">      0.12340000</i>
   <i name="PARAM2">      1.00000000</i>
   <i name="PARAM3">      0.00000000</i>
  </separator>
  <separator name="model GW" >
   <i type="int" name="MODEL_GW">     0</i>
   <i name="MODEL_EPS0">     34.36971577</i>
   <i name="MODEL_ALPHA">      1.00000000</i>
  </separator>
  <separator name="linear response parameters" >
   <i type="logical" name="LEPSILON"> F  </i>
   <i type="logical" name="LRPA"> F  </i>
   <i type="logical" name="LNABLA"> F  </i>
   <i type="logical" name="LVEL"> F  </i>
   <i type="int" name="KINTER">     0</i>
   <i name="CSHIFT">      0.10000000</i>
   <i name="OMEGAMAX">     -1.00000000</i>
   <i name="DEG_THRESHOLD">      0.00200000</i>
   <i name="RTIME">     -0.10000000</i>
   <i name="WPLASMAI">      0.00000000</i>
   <v name="DFIELD">      0.00000000      0.00000000      0.00000000</v>
   <v name="WPLASMA">      0.00000000      0.00000000      0.00000000      0.00000000      0.00000000      0.00000000      0.00000000      0.00000000      0.00000000</v>
  </separator>
  <separator name="orbital magnetization" >
   <i type="logical" name="NUCIND"> F  </i>
   <v name="MAGPOS">      0.00000000      0.00000000      0.00000000</v>
   <i type="logical" name="LNICSALL"> T  </i>
   <i type="logical" name="ORBITALMAG"> F  </i>
   <i type="logical" name="LMAGBLOCH"> F  </i>
   <i type="logical" name="LCHIMAG"> F  </i>
   <i type="logical" name="LGAUGE"> T  </i>
   <i type="int" name="MAGATOM">     0</i>
   <v name="MAGDIPOL">      0.00000000      0.00000000      0.00000000</v>
   <v name="AVECCONST">      0.00000000      0.00000000      0.00000000</v>
  </separator>
  <separator name="response functions" >
   <i type="logical" name="LADDER"> F  </i>
   <i type="logical" name="LRPAFORCE"> F  </i>
   <i type="logical" name="LFXC"> F  </i>
   <i type="logical" name="LHARTREE"> T  </i>
   <i type="int" name="IBSE">     0</i>
   <v type="int" name="KPOINT">    -1     0     0     0</v>
   <i type="logical" name="LTCTE"> F  </i>
   <i type="logical" name="LTETE"> F  </i>
   <i type="logical" name="LTRIPLET"> F  </i>
   <i type="logical" name="LFXCEPS"> F  </i>
   <i type="logical" name="LFXHEG"> F  </i>
   <i type="int" name="NATURALO">     2</i>
   <i type="logical" name="L2ORDER"> F  </i>
   <i type="logical" name="LMP2LT"> F  </i>
   <i type="logical" name="LUSEW"> F  </i>
   <i name="ENCUTGW">     -2.00000000</i>
   <i name="ENCUTGWSOFT">     -2.00000000</i>
   <i name="ENCUTLF">     -1.00000000</i>
   <i type="int" name="LMAXMP2">    -1</i>
   <i name="SCISSOR">      0.00000000</i>
   <i type="int" name="NOMEGA">     0</i>
   <i type="int" name="NOMEGAR">     0</i>
   <i type="int" name="NBANDSGW">    -1</i>
   <i type="int" name="NBANDSO">    -1</i>
   <i type="int" name="NBANDSV">    -1</i>
   <i type="int" name="NELM">     1</i>
   <i type="int" name="NELMHF">     1</i>
   <i type="int" name="DIM">     3</i>
   <i type="int" name="ANTIRES">     0</i>
   <i name="OMEGAMAX">    -30.00000000</i>
   <i name="OMEGAMIN">    -30.00000000</i>
   <i name="OMEGATL">   -200.00000000</i>
   <i type="int" name="OMEGAGRID">   140</i>
   <i name="CSHIFT">     -0.10000000</i>
   <i type="logical" name="SELFENERGY"> F  </i>
   <i type="logical" name="LSPECTRAL"> F  </i>
   <i type="logical" name="LSPECTRALGW"> F  </i>
   <i type="logical" name="LSINGLES"> F  </i>
   <i type="logical" name="LFERMIGW"> F  </i>
   <i type="logical" name="ODDONLYGW"> F  </i>
   <i type="logical" name="EVENONLYGW"> F  </i>
   <i type="int" name="NKREDLFX">     1</i>
   <i type="int" name="NKREDLFY">     1</i>
   <i type="int" name="NKREDLFZ">     1</i>
   <i type="int" name="MAXMEM">  2800</i>
   <i type="int" name="TELESCOPE">     0</i>
   <i type="int" name="TAUPAR">     1</i>
   <i type="int" name="OMEGAPAR">    -1</i>
   <i name="LAMBDA">      1.00000000</i>
  </separator>
  <separator name="External order field" >
   <i name="OFIELD_KAPPA">      0.00000000</i>
   <v name="OFIELD_K">      0.00000000      0.00000000      0.00000000</v>
   <i name="OFIELD_Q6_NEAR">      0.00000000</i>
   <i name="OFIELD_Q6_FAR">      0.00000000</i>
   <i name="OFIELD_A">      0.00000000</i>
  </separator>
 </parameters>
 <atominfo>
  <atoms>      80 </atoms>
  <types>       3 </types>
  <array name="atoms" >
   <dimension dim="1">ion</dimension>
   <field type="string">element</field>
   <field type="int">atomtype</field>
   <set>
    <rc><c>Sc</c><c>   1</c></rc>
    <rc><c>Sc</c><c>   1</c></rc>
    <rc><c>Sc</c><c>   1</c></rc>
    <rc><c>Sc</c><c>   1</c></rc>
    <rc><c>Sc</c><c>   1</c></rc>
    <rc><c>Sc</c><c>   1</c></rc>
    <rc><c>Sc</c><c>   1</c></rc>
    <rc><c>Sc</c><c>   1</c></rc>
    <rc><c>Sc</c><c>   1</c></rc>
    <rc><c>Sc</c><c>   1</c></rc>
    <rc><c>Sc</c><c>   1</c></rc>
    <rc><c>Sc</c><c>   1</c></rc>
    <rc><c>Sc</c><c>   1</c></rc>
    <rc><c>Sc</c><c>   1</c></rc>
    <rc><c>Sc</c><c>   1</c></rc>
    <rc><c>Sc</c><c>   1</c></rc>
    <rc><c>Sc</c><c>   1</c></rc>
    <rc><c>Sc</c><c>   1</c></rc>
    <rc><c>Sc</c><c>   1</c></rc>
    <rc><c>Sc</c><c>   1</c></rc>
    <rc><c>Sc</c><c>   1</c></rc>
    <rc><c>Sc</c><c>   1</c></rc>
    <rc><c>Sc</c><c>   1</c></rc>
    <rc><c>Sc</c><c>   1</c></rc>
    <rc><c>Sc</c><c>   1</c></rc>
    <rc><c>Sc</c><c>   1</c></rc>
    <rc><c>Sc</c><c>   1</c></rc>
    <rc><c>Sc</c><c>   1</c></rc>
    <rc><c>Sc</c><c>   1</c></rc>
    <rc><c>Sc</c><c>   1</c></rc>
    <rc><c>Sc</c><c>   1</c></rc>
    <rc><c>Sc</c><c>   1</c></rc>
    <rc><c>Cl</c><c>   2</c></rc>
    <rc><c>Cl</c><c>   2</c></rc>
    <rc><c>Cl</c><c>   2</c></rc>
    <rc><c>Cl</c><c>   2</c></rc>
    <rc><c>Cl</c><c>   2</c></rc>
    <rc><c>Cl</c><c>   2</c></rc>
    <rc><c>Cl</c><c>   2</c></rc>
    <rc><c>Cl</c><c>   2</c></rc>
    <rc><c>Cl</c><c>   2</c></rc>
    <rc><c>Cl</c><c>   2</c></rc>
    <rc><c>Cl</c><c>   2</c></rc>
    <rc><c>Cl</c><c>   2</c></rc>
    <rc><c>Cl</c><c>   2</c></rc>
    <rc><c>Cl</c><c>   2</c></rc>
    <rc><c>Cl</c><c>   2</c></rc>
    <rc><c>Cl</c><c>   2</c></rc>
    <rc><c>Cl</c><c>   2</c></rc>
    <rc><c>Cl</c><c>   2</c></rc>
    <rc><c>Cl</c><c>   2</c></rc>
    <rc><c>Cl</c><c>   2</c></rc>
    <rc><c>Cl</c><c>   2</c></rc>
    <rc><c>Cl</c><c>   2</c></rc>
    <rc><c>Cl</c><c>   2</c></rc>
    <rc><c>Cl</c><c>   2</c></rc>
    <rc><c>Cl</c><c>   2</c></rc>
    <rc><c>Cl</c><c>   2</c></rc>
    <rc><c>Cl</c><c>   2</c></rc>
    <rc><c>Cl</c><c>   2</c></rc>
    <rc><c>Cl</c><c>   2</c></rc>
    <rc><c>Cl</c><c>   2</c></rc>
    <rc><c>Cl</c><c>   2</c></rc>
    <rc><c>Cl</c><c>   2</c></rc>
    <rc><c>C </c><c>   3</c></rc>
    <rc><c>C </c><c>   3</c></rc>
    <rc><c>C </c><c>   3</c></rc>
    <rc><c>C </c><c>   3</c></rc>
    <rc><c>C </c><c>   3</c></rc>
    <rc><c>C </c><c>   3</c></rc>
    <rc><c>C </c><c>   3</c></rc>
    <rc><c>C </c><c>   3</c></rc>
    <rc><c>C </c><c>   3</c></rc>
    <rc><c>C </c><c>   3</c></rc>
    <rc><c>C </c><c>   3</c></rc>
    <rc><c>C </c><c>   3</c></rc>
    <rc><c>C </c><c>   3</c></rc>
    <rc><c>C </c><c>   3</c></rc>
    <rc><c>C </c><c>   3</c></rc>
    <rc><c>C </c><c>   3</c></rc>
   </set>
  </array>
  <array name="atomtypes" >
   <dimension dim="1">type</dimension>
   <field type="int">atomspertype</field>
   <field type="string">element</field>
   <field>mass</field>
   <field>valence</field>
   <field type="string">pseudopotential</field>
   <set>
    <rc><c>  32</c><c>Sc</c><c>     44.95600000</c><c>     11.00000000</c><c>  PAW_PBE Sc_sv 07Sep2000               </c></rc>
    <rc><c>  32</c><c>Cl</c><c>     35.45300000</c><c>      7.00000000</c><c>  PAW_PBE Cl 06Sep2000                  </c></rc>
    <rc><c>  16</c><c>C </c><c>     12.01100000</c><c>      4.00000000</c><c>  PAW_PBE C 08Apr2002                   </c></rc>
   </set>
  </array>
 </atominfo>
 <structure name="initialpos" >
  <crystal>
   <varray name="basis" >
    <v>      13.79398668       0.00000000       0.00000000 </v>
    <v>      -6.89699334      11.94594288       0.00000000 </v>
    <v>       0.00000000       0.00000000      27.81022107 </v>
   </varray>
   <i name="volume">   4582.62876984 </i>
   <varray name="rec_basis" >
    <v>       0.07249536       0.04185521       0.00000000 </v>
    <v>       0.00000000       0.08371043       0.00000000 </v>
    <v>       0.00000000       0.00000000       0.03595800 </v>
   </varray>
  </crystal>
  <varray name="positions" >
   <v>       0.09133931       0.16936969       0.54520617 </v>
   <v>       0.07125075       0.41406830       0.54523249 </v>
   <v>       0.07829587       0.66029190       0.54279007 </v>
   <v>       0.07613329       0.91880708       0.54770529 </v>
   <v>       0.34110725       0.16963986       0.54397392 </v>
   <v>       0.32661714       0.41349433       0.54271317 </v>
   <v>       0.33542753       0.66070037       0.54418800 </v>
   <v>       0.33295558       0.91467903       0.54054583 </v>
   <v>       0.58655071       0.16478301       0.54519278 </v>
   <v>       0.58540233       0.41582801       0.54487154 </v>
   <v>       0.58044254       0.66461023       0.54533354 </v>
   <v>       0.58384348       0.91508289       0.54457772 </v>
   <v>       0.82807769       0.16211989       0.54585144 </v>
   <v>       0.82781184       0.41499952       0.54070250 </v>
   <v>       0.83185498       0.66420693       0.54465216 </v>
   <v>       0.82825354       0.92090119       0.54269997 </v>
   <v>       0.17259077       0.08356168       0.45701875 </v>
   <v>       0.16625372       0.34359969       0.45896197 </v>
   <v>       0.16218717       0.58558694       0.45680852 </v>
   <v>       0.17120897       0.84314007       0.45427861 </v>
   <v>       0.42477343       0.08583079       0.45460393 </v>
   <v>       0.41414681       0.32573634       0.45761503 </v>
   <v>       0.41158487       0.57284835       0.45416676 </v>
   <v>       0.41129623       0.82940035       0.45822447 </v>
   <v>       0.66674900       0.08389895       0.45460995 </v>
   <v>       0.66596905       0.33273356       0.45431470 </v>
   <v>       0.66119699       0.57433344       0.45659115 </v>
   <v>       0.66664173       0.83078339       0.45552338 </v>
   <v>       0.92606326       0.08387081       0.45539773 </v>
   <v>       0.91426786       0.33485162       0.45480103 </v>
   <v>       0.91969958       0.59344181       0.45484681 </v>
   <v>       0.90247217       0.82003012       0.45855054 </v>
   <v>       0.08835736       0.16879228       0.39674615 </v>
   <v>       0.08334760       0.40332875       0.39281765 </v>
   <v>       0.09139837       0.66400236       0.39769669 </v>
   <v>       0.09172250       0.92002034       0.39387602 </v>
   <v>       0.32323869       0.17093332       0.39878308 </v>
   <v>       0.34289993       0.41012702       0.39567344 </v>
   <v>       0.32799468       0.67006406       0.39801785 </v>
   <v>       0.34369736       0.93217741       0.39242609 </v>
   <v>       0.57620438       0.17320854       0.39509173 </v>
   <v>       0.57913883       0.41075711       0.39123494 </v>
   <v>       0.57718180       0.66478768       0.39728496 </v>
   <v>       0.58583236       0.91407568       0.39779896 </v>
   <v>       0.83190027       0.17110217       0.39363999 </v>
   <v>       0.83206401       0.42027243       0.39184419 </v>
   <v>       0.84800713       0.66263136       0.39283199 </v>
   <v>       0.84303184       0.91483809       0.39724314 </v>
   <v>       0.16412898       0.08652339       0.60375882 </v>
   <v>       0.17853720       0.33236219       0.60708477 </v>
   <v>       0.17321651       0.59504812       0.60508483 </v>
   <v>       0.15406693       0.83907403       0.60281529 </v>
   <v>       0.41883018       0.08666378       0.60243719 </v>
   <v>       0.42273762       0.32533773       0.60407235 </v>
   <v>       0.40920507       0.57012120       0.60412776 </v>
   <v>       0.41622073       0.83526677       0.60408335 </v>
   <v>       0.67683851       0.09604747       0.60720889 </v>
   <v>       0.68064014       0.34780331       0.60502534 </v>
   <v>       0.66470142       0.58314834       0.60481419 </v>
   <v>       0.66370211       0.84090784       0.60592173 </v>
   <v>       0.92583176       0.09029352       0.60485197 </v>
   <v>       0.90854486       0.33151065       0.60607085 </v>
   <v>       0.91584205       0.57768605       0.59950688 </v>
   <v>       0.90191132       0.82633635       0.60642599 </v>
   <v>       0.99412348       0.99612243       0.49862845 </v>
   <v>       0.99823886       0.25212775       0.50177069 </v>
   <v>       0.00664680       0.50259830       0.49953493 </v>
   <v>       0.99217256       0.74253606       0.50394401 </v>
   <v>       0.25155886       0.99904458       0.50193776 </v>
   <v>       0.25893227       0.25338403       0.50076104 </v>
   <v>       0.25965068       0.50468172       0.50131862 </v>
   <v>       0.24421103       0.74886725       0.50020396 </v>
   <v>       0.49994831       0.00036736       0.50059523 </v>
   <v>       0.50687628       0.25630840       0.50095078 </v>
   <v>       0.50290180       0.50098480       0.50013410 </v>
   <v>       0.49743996       0.74419439       0.49780792 </v>
   <v>       0.76104763       0.01324640       0.49847545 </v>
   <v>       0.75203157       0.24700512       0.49504599 </v>
   <v>       0.75010393       0.49900269       0.49706895 </v>
   <v>       0.74367434       0.75814568       0.50320720 </v>
  </varray>
  <varray name="velocities" >
   <v>       0.00000000       0.00000000       0.00000000 </v>
   <v>       0.00000000       0.00000000       0.00000000 </v>
   <v>       0.00000000       0.00000000       0.00000000 </v>
   <v>       0.00000000       0.00000000       0.00000000 </v>
   <v>       0.00000000       0.00000000       0.00000000 </v>
   <v>       0.00000000       0.00000000       0.00000000 </v>
   <v>       0.00000000       0.00000000       0.00000000 </v>
   <v>       0.00000000       0.00000000       0.00000000 </v>
   <v>       0.00000000       0.00000000       0.00000000 </v>
   <v>       0.00000000       0.00000000       0.00000000 </v>
   <v>       0.00000000       0.00000000       0.00000000 </v>
   <v>       0.00000000       0.00000000       0.00000000 </v>
   <v>       0.00000000       0.00000000       0.00000000 </v>
   <v>       0.00000000       0.00000000       0.00000000 </v>
   <v>       0.00000000       0.00000000       0.00000000 </v>
   <v>       0.00000000       0.00000000       0.00000000 </v>
   <v>       0.00000000       0.00000000       0.00000000 </v>
   <v>       0.00000000       0.00000000       0.00000000 </v>
   <v>       0.00000000       0.00000000       0.00000000 </v>
   <v>       0.00000000       0.00000000       0.00000000 </v>
   <v>       0.00000000       0.00000000       0.00000000 </v>
   <v>       0.00000000       0.00000000       0.00000000 </v>
   <v>       0.00000000       0.00000000       0.00000000 </v>
   <v>       0.00000000       0.00000000       0.00000000 </v>
   <v>       0.00000000       0.00000000       0.00000000 </v>
   <v>       0.00000000       0.00000000       0.00000000 </v>
   <v>       0.00000000       0.00000000       0.00000000 </v>
   <v>       0.00000000       0.00000000       0.00000000 </v>
   <v>       0.00000000       0.00000000       0.00000000 </v>
   <v>       0.00000000       0.00000000       0.00000000 </v>
   <v>       0.00000000       0.00000000       0.00000000 </v>
   <v>       0.00000000       0.00000000       0.00000000 </v>
   <v>       0.00000000       0.00000000       0.00000000 </v>
   <v>       0.00000000       0.00000000       0.00000000 </v>
   <v>       0.00000000       0.00000000       0.00000000 </v>
   <v>       0.00000000       0.00000000       0.00000000 </v>
   <v>       0.00000000       0.00000000       0.00000000 </v>
   <v>       0.00000000       0.00000000       0.00000000 </v>
   <v>       0.00000000       0.00000000       0.00000000 </v>
   <v>       0.00000000       0.00000000       0.00000000 </v>
   <v>       0.00000000       0.00000000       0.00000000 </v>
   <v>       0.00000000       0.00000000       0.00000000 </v>
   <v>       0.00000000       0.00000000       0.00000000 </v>
   <v>       0.00000000       0.00000000       0.00000000 </v>
   <v>       0.00000000       0.00000000       0.00000000 </v>
   <v>       0.00000000       0.00000000       0.00000000 </v>
   <v>       0.00000000       0.00000000       0.00000000 </v>
   <v>       0.00000000       0.00000000       0.00000000 </v>
   <v>       0.00000000       0.00000000       0.00000000 </v>
   <v>       0.00000000       0.00000000       0.00000000 </v>
   <v>       0.00000000       0.00000000       0.00000000 </v>
   <v>       0.00000000       0.00000000       0.00000000 </v>
   <v>       0.00000000       0.00000000       0.00000000 </v>
   <v>       0.00000000       0.00000000       0.00000000 </v>
   <v>       0.00000000       0.00000000       0.00000000 </v>
   <v>       0.00000000       0.00000000       0.00000000 </v>
   <v>       0.00000000       0.00000000       0.00000000 </v>
   <v>       0.00000000       0.00000000       0.00000000 </v>
   <v>       0.00000000       0.00000000       0.00000000 </v>
   <v>       0.00000000       0.00000000       0.00000000 </v>
   <v>       0.00000000       0.00000000       0.00000000 </v>
   <v>       0.00000000       0.00000000       0.00000000 </v>
   <v>       0.00000000       0.00000000       0.00000000 </v>
   <v>       0.00000000       0.00000000       0.00000000 </v>
   <v>       0.00000000       0.00000000       0.00000000 </v>
   <v>       0.00000000       0.00000000       0.00000000 </v>
   <v>       0.00000000       0.00000000       0.00000000 </v>
   <v>       0.00000000       0.00000000       0.00000000 </v>
   <v>       0.00000000       0.00000000       0.00000000 </v>
   <v>       0.00000000       0.00000000       0.00000000 </v>
   <v>       0.00000000       0.00000000       0.00000000 </v>
   <v>       0.00000000       0.00000000       0.00000000 </v>
   <v>       0.00000000       0.00000000       0.00000000 </v>
   <v>       0.00000000       0.00000000       0.00000000 </v>
   <v>       0.00000000       0.00000000       0.00000000 </v>
   <v>       0.00000000       0.00000000       0.00000000 </v>
   <v>       0.00000000       0.00000000       0.00000000 </v>
   <v>       0.00000000       0.00000000       0.00000000 </v>
   <v>       0.00000000       0.00000000       0.00000000 </v>
   <v>       0.00000000       0.00000000       0.00000000 </v>
  </varray>
 </structure>
 <calculation>
  <scstep>
   <time name="dav">  148.49  148.49</time>
   <time name="total">  150.79  150.80</time>
   <energy>
    <i name="alphaZ">    784.57699423 </i>
    <i name="ewald"> 253753.12005487 </i>
    <i name="hartreedc">-301393.86298759 </i>
    <i name="XCdc">   2503.79289877 </i>
    <i name="pawpsdc">  43679.68029659 </i>
    <i name="pawaedc"> -43417.33247688 </i>
    <i name="eentropy">     -0.06818321 </i>
    <i name="bandstr">    122.91502826 </i>
    <i name="atom">  56210.72393729 </i>
    <i name="e_fr_energy">  12243.54556232 </i>
    <i name="e_wo_entrp">  12243.61374553 </i>
    <i name="e_0_energy">  12243.57965392 </i>
   </energy>
  </scstep>
  <scstep>
   <time name="dav">  161.13  161.15</time>
   <time name="total">  161.13  161.15</time>
   <energy>
    <i name="e_fr_energy">   1737.64262310 </i>
    <i name="e_wo_entrp">   1737.67796429 </i>
    <i name="e_0_energy">   1737.66029369 </i>
   </energy>
  </scstep>
  <scstep>
   <time name="dav">  200.70  200.71</time>
   <time name="total">  200.70  200.71</time>
   <energy>
    <i name="e_fr_energy">   -407.56939786 </i>
    <i name="e_wo_entrp">   -407.56939754 </i>
    <i name="e_0_energy">   -407.56939770 </i>
   </energy>
  </scstep>
  <scstep>
   <time name="dav">  182.88  182.89</time>
   <time name="total">  182.88  182.89</time>
   <energy>
    <i name="e_fr_energy">   -644.62164756 </i>
    <i name="e_wo_entrp">   -644.62164756 </i>
    <i name="e_0_energy">   -644.62164756 </i>
   </energy>
  </scstep>
  <scstep>
   <time name="dav">  182.71  182.72</time>
   <time name="total">  194.83  194.84</time>
   <energy>
    <i name="e_fr_energy">   -655.11118354 </i>
    <i name="e_wo_entrp">   -655.11118354 </i>
    <i name="e_0_energy">   -655.11118354 </i>
   </energy>
  </scstep>
  <scstep>
   <time name="dav">  175.64  175.65</time>
   <time name="total">  189.76  189.78</time>
   <energy>
    <i name="e_fr_energy">   -525.05584620 </i>
    <i name="e_wo_entrp">   -525.05584620 </i>
    <i name="e_0_energy">   -525.05584620 </i>
   </energy>
  </scstep>
  <scstep>
   <time name="dav">  176.49  176.49</time>
   <time name="total">  190.62  190.63</time>
   <energy>
    <i name="e_fr_energy">   -529.61487073 </i>
    <i name="e_wo_entrp">   -529.61487073 </i>
    <i name="e_0_energy">   -529.61487073 </i>
   </energy>
  </scstep>
  <scstep>
   <time name="dav">  171.98  171.98</time>
   <time name="total">  186.10  186.11</time>
   <energy>
    <i name="e_fr_energy">   -527.46001510 </i>
    <i name="e_wo_entrp">   -527.46001510 </i>
    <i name="e_0_energy">   -527.46001510 </i>
   </energy>
  </scstep>
  <scstep>
   <time name="dav">  164.23  164.24</time>
   <time name="total">  178.36  178.37</time>
   <energy>
    <i name="e_fr_energy">   -526.96057954 </i>
    <i name="e_wo_entrp">   -526.96057954 </i>
    <i name="e_0_energy">   -526.96057954 </i>
   </energy>
  </scstep>
  <scstep>
   <time name="dav">  173.80  173.81</time>
   <time name="total">  187.93  187.94</time>
   <energy>
    <i name="e_fr_energy">   -526.84137031 </i>
    <i name="e_wo_entrp">   -526.84137031 </i>
    <i name="e_0_energy">   -526.84137031 </i>
   </energy>
  </scstep>
  <scstep>
   <time name="dav">  173.43  173.43</time>
   <time name="total">  187.59  187.60</time>
   <energy>
    <i name="e_fr_energy">   -526.82049305 </i>
    <i name="e_wo_entrp">   -526.82049305 </i>
    <i name="e_0_energy">   -526.82049305 </i>
   </energy>
  </scstep>
  <scstep>
   <time name="dav">  180.93  180.93</time>
   <time name="total">  195.14  195.15</time>
   <energy>
    <i name="e_fr_energy">   -526.80777854 </i>
    <i name="e_wo_entrp">   -526.80777854 </i>
    <i name="e_0_energy">   -526.80777854 </i>
   </energy>
  </scstep>
  <scstep>
   <time name="dav">  163.31  163.31</time>
   <time name="total">  177.47  177.48</time>
   <energy>
    <i name="e_fr_energy">   -526.80542556 </i>
    <i name="e_wo_entrp">   -526.80542556 </i>
    <i name="e_0_energy">   -526.80542556 </i>
   </energy>
  </scstep>
  <scstep>
   <time name="dav">  159.59  159.59</time>
   <time name="total">  173.61  173.63</time>
   <energy>
    <i name="e_fr_energy">   -526.80365421 </i>
    <i name="e_wo_entrp">   -526.80365421 </i>
    <i name="e_0_energy">   -526.80365421 </i>
   </energy>
  </scstep>
  <scstep>
   <time name="dav">  165.09  165.09</time>
   <time name="total">  179.49  179.50</time>
   <energy>
    <i name="e_fr_energy">   -526.80528324 </i>
    <i name="e_wo_entrp">   -526.80528324 </i>
    <i name="e_0_energy">   -526.80528324 </i>
   </energy>
  </scstep>
  <scstep>
   <time name="dav">  173.32  173.32</time>
   <time name="total">  187.53  187.54</time>
   <energy>
    <i name="e_fr_energy">   -526.80766124 </i>
    <i name="e_wo_entrp">   -526.80766124 </i>
    <i name="e_0_energy">   -526.80766124 </i>
   </energy>
  </scstep>
  <scstep>
   <time name="dav">  162.04  162.04</time>
   <time name="total">  176.46  176.48</time>
   <energy>
    <i name="e_fr_energy">   -526.81109475 </i>
    <i name="e_wo_entrp">   -526.81109475 </i>
    <i name="e_0_energy">   -526.81109475 </i>
   </energy>
  </scstep>
  <scstep>
   <time name="dav">  153.51  153.51</time>
   <time name="total">  168.02  168.03</time>
   <energy>
    <i name="e_fr_energy">   -526.81320987 </i>
    <i name="e_wo_entrp">   -526.81320987 </i>
    <i name="e_0_energy">   -526.81320987 </i>
   </energy>
  </scstep>
  <scstep>
   <time name="dav">  155.78  155.78</time>
   <time name="total">  169.87  169.88</time>
   <energy>
    <i name="e_fr_energy">   -526.81433460 </i>
    <i name="e_wo_entrp">   -526.81433460 </i>
    <i name="e_0_energy">   -526.81433460 </i>
   </energy>
  </scstep>
  <scstep>
   <time name="dav">  142.35  142.35</time>
   <time name="total">  156.80  156.81</time>
   <energy>
    <i name="e_fr_energy">   -526.81548639 </i>
    <i name="e_wo_entrp">   -526.81548639 </i>
    <i name="e_0_energy">   -526.81548639 </i>
   </energy>
  </scstep>
  <scstep>
   <time name="dav">  127.89  127.89</time>
   <time name="total">  142.57  142.58</time>
   <energy>
    <i name="e_fr_energy">   -526.81588840 </i>
    <i name="e_wo_entrp">   -526.81588840 </i>
    <i name="e_0_energy">   -526.81588840 </i>
   </energy>
  </scstep>
  <scstep>
   <time name="dav">  122.39  122.39</time>
   <time name="total">  136.96  136.97</time>
   <energy>
    <i name="e_fr_energy">   -526.81630923 </i>
    <i name="e_wo_entrp">   -526.81630923 </i>
    <i name="e_0_energy">   -526.81630923 </i>
   </energy>
  </scstep>
  <scstep>
   <time name="dav">  117.63  117.63</time>
   <time name="total">  131.91  131.93</time>
   <energy>
    <i name="e_fr_energy">   -526.81682138 </i>
    <i name="e_wo_entrp">   -526.81682138 </i>
    <i name="e_0_energy">   -526.81682138 </i>
   </energy>
  </scstep>
  <scstep>
   <time name="dav">  121.63  121.63</time>
   <time name="total">  136.21  136.22</time>
   <energy>
    <i name="e_fr_energy">   -526.81698529 </i>
    <i name="e_wo_entrp">   -526.81698529 </i>
    <i name="e_0_energy">   -526.81698529 </i>
   </energy>
  </scstep>
  <scstep>
   <time name="dav">  106.48  106.48</time>
   <time name="total">  121.09  121.10</time>
   <energy>
    <i name="e_fr_energy">   -526.81708626 </i>
    <i name="e_wo_entrp">   -526.81708626 </i>
    <i name="e_0_energy">   -526.81708626 </i>
   </energy>
  </scstep>
  <scstep>
   <time name="dav">  110.59  110.59</time>
   <time name="total">  124.87  124.88</time>
   <energy>
    <i name="e_fr_energy">   -526.81715313 </i>
    <i name="e_wo_entrp">   -526.81715313 </i>
    <i name="e_0_energy">   -526.81715313 </i>
   </energy>
  </scstep>
  <scstep>
   <time name="dav">   95.65   95.65</time>
   <time name="total">  109.91  109.92</time>
   <energy>
    <i name="e_fr_energy">   -526.81715925 </i>
    <i name="e_wo_entrp">   -526.81715925 </i>
    <i name="e_0_energy">   -526.81715925 </i>
   </energy>
  </scstep>
  <scstep>
   <time name="dav">   95.07   95.07</time>
   <time name="total">  109.52  109.53</time>
   <energy>
    <i name="e_fr_energy">   -526.81717067 </i>
    <i name="e_wo_entrp">   -526.81717067 </i>
    <i name="e_0_energy">   -526.81717067 </i>
   </energy>
  </scstep>
  <scstep>
   <time name="dav">   95.84   95.84</time>
   <time name="total">  110.10  110.11</time>
   <energy>
    <i name="e_fr_energy">   -526.81718193 </i>
    <i name="e_wo_entrp">   -526.81718193 </i>
    <i name="e_0_energy">   -526.81718193 </i>
   </energy>
  </scstep>
  <scstep>
   <time name="dav">   96.84   96.84</time>
   <time name="total">  111.31  111.32</time>
   <energy>
    <i name="e_fr_energy">   -526.81718898 </i>
    <i name="e_wo_entrp">   -526.81718898 </i>
    <i name="e_0_energy">   -526.81718898 </i>
   </energy>
  </scstep>
  <scstep>
   <time name="dav">   92.17   92.18</time>
   <time name="total">  107.80  107.81</time>
   <energy>
    <i name="e_fr_energy">   -526.81719141 </i>
    <i name="e_wo_entrp">   -526.81719141 </i>
    <i name="e_0_energy">   -526.81719141 </i>
   </energy>
  </scstep>
  <scstep>
   <time name="dav">   95.15   95.15</time>
   <time name="total">  110.48  110.49</time>
   <energy>
    <i name="e_fr_energy">   -526.81719314 </i>
    <i name="e_wo_entrp">   -526.81719314 </i>
    <i name="e_0_energy">   -526.81719314 </i>
   </energy>
  </scstep>
  <scstep>
   <time name="dav">   91.16   91.16</time>
   <time name="total">   93.42   93.44</time>
   <energy>
    <i name="alphaZ">    784.57699423 </i>
    <i name="ewald"> 253753.12005487 </i>
    <i name="hartreedc">-301726.54068629 </i>
    <i name="XCdc">   2491.08735127 </i>
    <i name="pawpsdc">  59727.72521933 </i>
    <i name="pawaedc"> -59560.64903377 </i>
    <i name="eentropy">     -0.00000000 </i>
    <i name="bandstr"> -12206.86103055 </i>
    <i name="atom">  56210.72393729 </i>
    <i name="e_fr_energy">   -526.81719362 </i>
    <i name="e_wo_entrp">   -526.81719362 </i>
    <i name="e_0_energy">   -526.81719362 </i>
   </energy>
  </scstep>
  <structure>
   <crystal>
    <varray name="basis" >
     <v>      13.79398668       0.00000000       0.00000000 </v>
     <v>      -6.89699334      11.94594288       0.00000000 </v>
     <v>       0.00000000       0.00000000      27.81022107 </v>
    </varray>
    <i name="volume">   4582.62876984 </i>
    <varray name="rec_basis" >
     <v>       0.07249536       0.04185521       0.00000000 </v>
     <v>       0.00000000       0.08371043       0.00000000 </v>
     <v>       0.00000000       0.00000000       0.03595800 </v>
    </varray>
   </crystal>
   <varray name="positions" >
    <v>       0.09133931       0.16936969       0.54520617 </v>
    <v>       0.07125075       0.41406830       0.54523249 </v>
    <v>       0.07829587       0.66029190       0.54279007 </v>
    <v>       0.07613329       0.91880708       0.54770529 </v>
    <v>       0.34110725       0.16963986       0.54397392 </v>
    <v>       0.32661714       0.41349433       0.54271317 </v>
    <v>       0.33542753       0.66070037       0.54418800 </v>
    <v>       0.33295558       0.91467903       0.54054583 </v>
    <v>       0.58655071       0.16478301       0.54519278 </v>
    <v>       0.58540233       0.41582801       0.54487154 </v>
    <v>       0.58044254       0.66461023       0.54533354 </v>
    <v>       0.58384348       0.91508289       0.54457772 </v>
    <v>       0.82807769       0.16211989       0.54585144 </v>
    <v>       0.82781184       0.41499952       0.54070250 </v>
    <v>       0.83185498       0.66420693       0.54465216 </v>
    <v>       0.82825354       0.92090119       0.54269997 </v>
    <v>       0.17259077       0.08356168       0.45701875 </v>
    <v>       0.16625372       0.34359969       0.45896197 </v>
    <v>       0.16218717       0.58558694       0.45680852 </v>
    <v>       0.17120897       0.84314007       0.45427861 </v>
    <v>       0.42477343       0.08583079       0.45460393 </v>
    <v>       0.41414681       0.32573634       0.45761503 </v>
    <v>       0.41158487       0.57284835       0.45416676 </v>
    <v>       0.41129623       0.82940035       0.45822447 </v>
    <v>       0.66674900       0.08389895       0.45460995 </v>
    <v>       0.66596905       0.33273356       0.45431470 </v>
    <v>       0.66119699       0.57433344       0.45659115 </v>
    <v>       0.66664173       0.83078339       0.45552338 </v>
    <v>       0.92606326       0.08387081       0.45539773 </v>
    <v>       0.91426786       0.33485162       0.45480103 </v>
    <v>       0.91969958       0.59344181       0.45484681 </v>
    <v>       0.90247217       0.82003012       0.45855054 </v>
    <v>       0.08835736       0.16879228       0.39674615 </v>
    <v>       0.08334760       0.40332875       0.39281765 </v>
    <v>       0.09139837       0.66400236       0.39769669 </v>
    <v>       0.09172250       0.92002034       0.39387602 </v>
    <v>       0.32323869       0.17093332       0.39878308 </v>
    <v>       0.34289993       0.41012702       0.39567344 </v>
    <v>       0.32799468       0.67006406       0.39801785 </v>
    <v>       0.34369736       0.93217741       0.39242609 </v>
    <v>       0.57620438       0.17320854       0.39509173 </v>
    <v>       0.57913883       0.41075711       0.39123494 </v>
    <v>       0.57718180       0.66478768       0.39728496 </v>
    <v>       0.58583236       0.91407568       0.39779896 </v>
    <v>       0.83190027       0.17110217       0.39363999 </v>
    <v>       0.83206401       0.42027243       0.39184419 </v>
    <v>       0.84800713       0.66263136       0.39283199 </v>
    <v>       0.84303184       0.91483809       0.39724314 </v>
    <v>       0.16412898       0.08652339       0.60375882 </v>
    <v>       0.17853720       0.33236219       0.60708477 </v>
    <v>       0.17321651       0.59504812       0.60508483 </v>
    <v>       0.15406693       0.83907403       0.60281529 </v>
    <v>       0.41883018       0.08666378       0.60243719 </v>
    <v>       0.42273762       0.32533773       0.60407235 </v>
    <v>       0.40920507       0.57012120       0.60412776 </v>
    <v>       0.41622073       0.83526677       0.60408335 </v>
    <v>       0.67683851       0.09604747       0.60720889 </v>
    <v>       0.68064014       0.34780331       0.60502534 </v>
    <v>       0.66470142       0.58314834       0.60481419 </v>
    <v>       0.66370211       0.84090784       0.60592173 </v>
    <v>       0.92583176       0.09029352       0.60485197 </v>
    <v>       0.90854486       0.33151065       0.60607085 </v>
    <v>       0.91584205       0.57768605       0.59950688 </v>
    <v>       0.90191132       0.82633635       0.60642599 </v>
    <v>       0.99412348       0.99612243       0.49862845 </v>
    <v>       0.99823886       0.25212775       0.50177069 </v>
    <v>       0.00664680       0.50259830       0.49953493 </v>
    <v>       0.99217256       0.74253606       0.50394401 </v>
    <v>       0.25155886       0.99904458       0.50193776 </v>
    <v>       0.25893227       0.25338403       0.50076104 </v>
    <v>       0.25965068       0.50468172       0.50131862 </v>
    <v>       0.24421103       0.74886725       0.50020396 </v>
    <v>       0.49994831       0.00036736       0.50059523 </v>
    <v>       0.50687628       0.25630840       0.50095078 </v>
    <v>       0.50290180       0.50098480       0.50013410 </v>
    <v>       0.49743996       0.74419439       0.49780792 </v>
    <v>       0.76104763       0.01324640       0.49847545 </v>
    <v>       0.75203157       0.24700512       0.49504599 </v>
    <v>       0.75010393       0.49900269       0.49706895 </v>
    <v>       0.74367434       0.75814568       0.50320720 </v>
   </varray>
  </structure>
  <varray name="forces" >
   <v>      -0.92465680       0.08705885      -0.27617383 </v>
   <v>       0.67243299      -0.08113493       0.58131381 </v>
   <v>       0.19506098       1.09550392       0.58306422 </v>
   <v>       0.07011518      -0.37817702      -0.76759528 </v>
   <v>      -0.30634123      -0.30216826       0.23032311 </v>
   <v>       1.05680315       0.13691197       0.74924171 </v>
   <v>      -0.36779463       0.45530053       0.25066097 </v>
   <v>      -0.46854379       0.06256485       1.47404783 </v>
   <v>      -0.28145316       0.26300463      -0.25482264 </v>
   <v>      -0.34889162       0.09280224      -0.03665337 </v>
   <v>      -0.08141263      -0.07315358      -0.21091377 </v>
   <v>      -0.31451457      -0.00967835      -0.21043027 </v>
   <v>       0.88190814       0.67279863      -0.75691815 </v>
   <v>       0.49851568      -0.00695772       0.17939531 </v>
   <v>      -0.20340611       0.12906402       0.46154171 </v>
   <v>       0.61472037       0.07957777       0.73648045 </v>
   <v>      -0.87137742      -0.38061505       0.15551228 </v>
   <v>       0.23576662      -1.07949358      -0.84423137 </v>
   <v>       0.89296776      -0.19909383      -0.14268796 </v>
   <v>       0.00289790      -0.53629809       0.35046108 </v>
   <v>      -0.68258114      -0.15293285       0.50059586 </v>
   <v>       0.24716682       1.09576119      -0.32523887 </v>
   <v>       0.15270206       0.81049562       0.19349846 </v>
   <v>       0.57158646      -0.02885943      -0.84255418 </v>
   <v>       0.64024222       0.03523627      -0.22106755 </v>
   <v>       0.06537099       0.30329354      -0.32923905 </v>
   <v>      -0.48067230       0.13593257      -0.63532293 </v>
   <v>      -0.35618343       0.00199959      -0.11767808 </v>
   <v>      -0.80746559       0.34645938      -0.18708987 </v>
   <v>       0.38150887      -0.38395641      -0.57732055 </v>
   <v>       0.44786883      -1.06741370       0.09247837 </v>
   <v>       0.60172421       1.27640869      -0.26573493 </v>
   <v>      -0.03867868       0.02827876       0.16530132 </v>
   <v>      -0.21901923       0.63914614       0.39451227 </v>
   <v>      -0.62302158       0.38942298      -0.53459392 </v>
   <v>      -0.23278317      -0.17238145       0.33049249 </v>
   <v>       0.97888848      -0.27261687      -0.69150726 </v>
   <v>      -0.82086620       0.30796152       0.00290785 </v>
   <v>       0.38781351      -0.18732993      -0.29558100 </v>
   <v>      -0.06364409      -0.60297929       0.38091087 </v>
   <v>       0.58408789      -0.24912187      -0.36978010 </v>
   <v>       0.10559946       0.37858173       0.62903081 </v>
   <v>       0.57281881       0.06304186      -0.31388169 </v>
   <v>      -0.30996456       0.12362115      -0.25285422 </v>
   <v>       0.13179294      -0.27302637       0.16809461 </v>
   <v>       0.30580123      -0.10527509       0.51108330 </v>
   <v>      -1.07994674       0.51432746      -0.02844817 </v>
   <v>      -0.43738660      -0.13626908      -0.26543543 </v>
   <v>       0.44391676      -0.14824025       0.32215128 </v>
   <v>      -0.65763878      -0.00512965      -0.22389977 </v>
   <v>      -0.10360826      -0.51173375      -0.11044299 </v>
   <v>       0.91188111      -0.37305131       0.34206876 </v>
   <v>       0.27734861      -0.31084042       0.26241854 </v>
   <v>      -0.28925979       0.42583838       0.19368189 </v>
   <v>       0.14237863       0.62055557       0.20300140 </v>
   <v>       0.09477823       0.04369405      -0.16612104 </v>
   <v>      -0.43814472      -0.59180630      -0.07669109 </v>
   <v>      -0.26419228      -0.61341379      -0.11290270 </v>
   <v>      -0.01445064      -0.01172074       0.04132104 </v>
   <v>       0.13882499      -0.21084940      -0.07839912 </v>
   <v>      -0.25641476      -0.23089359      -0.07314703 </v>
   <v>       0.39204858       0.33016058      -0.30418108 </v>
   <v>      -0.18969096       0.12177875       0.69265550 </v>
   <v>       0.21098425       0.31583743      -0.23662751 </v>
   <v>       0.67365340       0.24494526       0.64640096 </v>
   <v>       0.62704275       0.50006224      -0.08883013 </v>
   <v>      -0.70466460      -0.56291575       0.02848948 </v>
   <v>      -0.30012171       0.59255286      -1.01476580 </v>
   <v>      -0.24425770       0.13829675      -0.77870022 </v>
   <v>      -0.73595865      -0.58910841       0.19556979 </v>
   <v>      -0.87997974      -0.74296035      -0.41825485 </v>
   <v>       0.49117170       0.27232613      -0.36279126 </v>
   <v>       0.16636428       0.17142807      -0.13358020 </v>
   <v>       0.13849133      -0.81741509      -0.14199384 </v>
   <v>       0.18581701      -0.12894111      -0.01260514 </v>
   <v>      -0.19870638       0.76565548       0.84596623 </v>
   <v>      -0.81422097      -1.24197546       0.43163710 </v>
   <v>      -0.76235672       0.49445970       1.07307982 </v>
   <v>      -0.05038622       0.15362651       0.42936012 </v>
   <v>       1.03379501      -0.94584549      -0.74106241 </v>
  </varray>
  <varray name="stress" >
   <v>       3.10178846      -0.10382589       1.10509518 </v>
   <v>      -0.10382591       2.61444271      -0.81368417 </v>
   <v>       1.10509518      -0.81368416       2.67847001 </v>
  </varray>
  <energy>
   <i name="e_fr_energy">   -526.81719362 </i>
   <i name="e_wo_entrp">   -526.81719362 </i>
   <i name="e_0_energy">     -0.00000000 </i>
  </energy>
  <time name="totalsc"> 5337.90 5338.32</time>
  <eigenvalues>
   <array>
    <dimension dim="1">band</dimension>
    <dimension dim="2">kpoint</dimension>
    <dimension dim="3">spin</dimension>
    <field>eigene</field>
    <field>occ</field>
    <set>
     <set comment="spin 1">
      <set comment="kpoint 1">
       <r>  -51.7698    1.0000 </r>
       <r>  -51.6920    1.0000 </r>
       <r>  -51.6718    1.0000 </r>
       <r>  -51.6127    1.0000 </r>
       <r>  -51.6112    1.0000 </r>
       <r>  -51.5631    1.0000 </r>
       <r>  -51.5266    1.0000 </r>
       <r>  -51.5250    1.0000 </r>
       <r>  -51.5119    1.0000 </r>
       <r>  -51.4731    1.0000 </r>
       <r>  -51.4490    1.0000 </r>
       <r>  -51.4428    1.0000 </r>
       <r>  -51.4400    1.0000 </r>
       <r>  -51.4081    1.0000 </r>
       <r>  -51.4041    1.0000 </r>
       <r>  -51.4032    1.0000 </r>
       <r>  -51.3948    1.0000 </r>
       <r>  -51.3768    1.0000 </r>
       <r>  -51.3689    1.0000 </r>
       <r>  -51.3654    1.0000 </r>
       <r>  -51.3624    1.0000 </r>
       <r>  -51.3532    1.0000 </r>
       <r>  -51.3390    1.0000 </r>
       <r>  -51.3124    1.0000 </r>
       <r>  -51.2958    1.0000 </r>
       <r>  -51.2746    1.0000 </r>
       <r>  -51.2371    1.0000 </r>
       <r>  -51.2051    1.0000 </r>
       <r>  -51.1907    1.0000 </r>
       <r>  -51.1843    1.0000 </r>
       <r>  -51.1505    1.0000 </r>
       <r>  -51.1319    1.0000 </r>
       <r>  -30.4495    1.0000 </r>
       <r>  -30.4477    1.0000 </r>
       <r>  -30.4288    1.0000 </r>
       <r>  -30.4088    1.0000 </r>
       <r>  -30.3868    1.0000 </r>
       <r>  -30.3732    1.0000 </r>
       <r>  -30.3611    1.0000 </r>
       <r>  -30.3447    1.0000 </r>
       <r>  -30.3370    1.0000 </r>
       <r>  -30.3284    1.0000 </r>
       <r>  -30.3087    1.0000 </r>
       <r>  -30.3052    1.0000 </r>
       <r>  -30.2995    1.0000 </r>
       <r>  -30.2913    1.0000 </r>
       <r>  -30.2850    1.0000 </r>
       <r>  -30.2822    1.0000 </r>
       <r>  -30.2743    1.0000 </r>
       <r>  -30.2628    1.0000 </r>
       <r>  -30.2477    1.0000 </r>
       <r>  -30.2447    1.0000 </r>
       <r>  -30.2397    1.0000 </r>
       <r>  -30.2320    1.0000 </r>
       <r>  -30.2295    1.0000 </r>
       <r>  -30.2244    1.0000 </r>
       <r>  -30.2162    1.0000 </r>
       <r>  -30.2011    1.0000 </r>
       <r>  -30.1939    1.0000 </r>
       <r>  -30.1867    1.0000 </r>
       <r>  -30.1796    1.0000 </r>
       <r>  -30.1659    1.0000 </r>
       <r>  -30.1543    1.0000 </r>
       <r>  -30.1513    1.0000 </r>
       <r>  -30.1351    1.0000 </r>
       <r>  -30.1283    1.0000 </r>
       <r>  -30.1276    1.0000 </r>
       <r>  -30.1212    1.0000 </r>
       <r>  -30.1140    1.0000 </r>
       <r>  -30.1099    1.0000 </r>
       <r>  -30.1092    1.0000 </r>
       <r>  -30.1021    1.0000 </r>
       <r>  -30.0970    1.0000 </r>
       <r>  -30.0917    1.0000 </r>
       <r>  -30.0854    1.0000 </r>
       <r>  -30.0787    1.0000 </r>
       <r>  -30.0737    1.0000 </r>
       <r>  -30.0727    1.0000 </r>
       <r>  -30.0656    1.0000 </r>
       <r>  -30.0550    1.0000 </r>
       <r>  -30.0534    1.0000 </r>
       <r>  -30.0448    1.0000 </r>
       <r>  -30.0396    1.0000 </r>
       <r>  -30.0342    1.0000 </r>
       <r>  -30.0324    1.0000 </r>
       <r>  -30.0222    1.0000 </r>
       <r>  -30.0201    1.0000 </r>
       <r>  -30.0153    1.0000 </r>
       <r>  -30.0131    1.0000 </r>
       <r>  -30.0071    1.0000 </r>
       <r>  -30.0052    1.0000 </r>
       <r>  -30.0001    1.0000 </r>
       <r>  -29.9982    1.0000 </r>
       <r>  -29.9964    1.0000 </r>
       <r>  -29.9918    1.0000 </r>
       <r>  -29.9907    1.0000 </r>
       <r>  -29.9878    1.0000 </r>
       <r>  -29.9797    1.0000 </r>
       <r>  -29.9765    1.0000 </r>
       <r>  -29.9706    1.0000 </r>
       <r>  -29.9645    1.0000 </r>
       <r>  -29.9560    1.0000 </r>
       <r>  -29.9546    1.0000 </r>
       <r>  -29.9380    1.0000 </r>
       <r>  -29.9355    1.0000 </r>
       <r>  -29.9305    1.0000 </r>
       <r>  -29.9274    1.0000 </r>
       <r>  -29.9225    1.0000 </r>
       <r>  -29.9194    1.0000 </r>
       <r>  -29.8997    1.0000 </r>
       <r>  -29.8982    1.0000 </r>
       <r>  -29.8842    1.0000 </r>
       <r>  -29.8731    1.0000 </r>
       <r>  -29.8674    1.0000 </r>
       <r>  -29.8621    1.0000 </r>
       <r>  -29.8404    1.0000 </r>
       <r>  -29.8370    1.0000 </r>
       <r>  -29.8348    1.0000 </r>
       <r>  -29.8256    1.0000 </r>
       <r>  -29.8197    1.0000 </r>
       <r>  -29.8097    1.0000 </r>
       <r>  -29.8082    1.0000 </r>
       <r>  -29.7922    1.0000 </r>
       <r>  -29.7849    1.0000 </r>
       <r>  -29.7801    1.0000 </r>
       <r>  -29.7763    1.0000 </r>
       <r>  -29.7680    1.0000 </r>
       <r>  -29.7301    1.0000 </r>
       <r>  -18.5189    1.0000 </r>
       <r>  -18.4901    1.0000 </r>
       <r>  -18.3627    1.0000 </r>
       <r>  -18.3539    1.0000 </r>
       <r>  -18.3006    1.0000 </r>
       <r>  -18.2848    1.0000 </r>
       <r>  -18.2395    1.0000 </r>
       <r>  -18.2282    1.0000 </r>
       <r>  -18.1800    1.0000 </r>
       <r>  -18.1769    1.0000 </r>
       <r>  -18.1333    1.0000 </r>
       <r>  -18.1227    1.0000 </r>
       <r>  -18.0999    1.0000 </r>
       <r>  -18.0359    1.0000 </r>
       <r>  -17.9929    1.0000 </r>
       <r>  -17.9791    1.0000 </r>
       <r>  -17.9596    1.0000 </r>
       <r>  -17.9552    1.0000 </r>
       <r>  -17.9403    1.0000 </r>
       <r>  -17.9121    1.0000 </r>
       <r>  -17.8717    1.0000 </r>
       <r>  -17.8552    1.0000 </r>
       <r>  -17.8511    1.0000 </r>
       <r>  -17.8365    1.0000 </r>
       <r>  -17.8026    1.0000 </r>
       <r>  -17.7856    1.0000 </r>
       <r>  -17.7608    1.0000 </r>
       <r>  -17.7284    1.0000 </r>
       <r>  -17.7266    1.0000 </r>
       <r>  -17.6847    1.0000 </r>
       <r>  -17.6506    1.0000 </r>
       <r>  -17.5845    1.0000 </r>
       <r>  -11.8290    1.0000 </r>
       <r>  -11.4746    1.0000 </r>
       <r>  -11.4475    1.0000 </r>
       <r>  -11.4272    1.0000 </r>
       <r>  -11.4099    1.0000 </r>
       <r>  -11.3848    1.0000 </r>
       <r>  -11.3394    1.0000 </r>
       <r>  -11.0296    1.0000 </r>
       <r>  -11.0054    1.0000 </r>
       <r>  -10.9613    1.0000 </r>
       <r>  -10.9498    1.0000 </r>
       <r>  -10.9324    1.0000 </r>
       <r>  -10.8892    1.0000 </r>
       <r>  -10.8558    1.0000 </r>
       <r>  -10.8490    1.0000 </r>
       <r>  -10.8245    1.0000 </r>
       <r>   -7.9790    1.0000 </r>
       <r>   -7.9674    1.0000 </r>
       <r>   -7.9502    1.0000 </r>
       <r>   -7.7860    1.0000 </r>
       <r>   -7.7648    1.0000 </r>
       <r>   -7.7340    1.0000 </r>
       <r>   -7.5789    1.0000 </r>
       <r>   -7.5449    1.0000 </r>
       <r>   -7.5349    1.0000 </r>
       <r>   -7.4928    1.0000 </r>
       <r>   -7.4888    1.0000 </r>
       <r>   -7.4312    1.0000 </r>
       <r>   -7.4054    1.0000 </r>
       <r>   -7.3889    1.0000 </r>
       <r>   -7.3790    1.0000 </r>
       <r>   -7.3589    1.0000 </r>
       <r>   -7.3104    1.0000 </r>
       <r>   -7.2897    1.0000 </r>
       <r>   -7.2570    1.0000 </r>
       <r>   -7.1323    1.0000 </r>
       <r>   -7.0909    1.0000 </r>
       <r>   -7.0483    1.0000 </r>
       <r>   -7.0141    1.0000 </r>
       <r>   -6.9892    1.0000 </r>
       <r>   -6.9799    1.0000 </r>
       <r>   -6.9434    1.0000 </r>
       <r>   -6.9383    1.0000 </r>
       <r>   -6.8904    1.0000 </r>
       <r>   -6.8689    1.0000 </r>
       <r>   -6.8429    1.0000 </r>
       <r>   -6.8344    1.0000 </r>
       <r>   -6.8182    1.0000 </r>
       <r>   -6.7884    1.0000 </r>
       <r>   -6.7823    1.0000 </r>
       <r>   -6.7581    1.0000 </r>
       <r>   -6.7551    1.0000 </r>
       <r>   -6.7199    1.0000 </r>
       <r>   -6.7001    1.0000 </r>
       <r>   -6.6962    1.0000 </r>
       <r>   -6.6858    1.0000 </r>
       <r>   -6.6667    1.0000 </r>
       <r>   -6.6466    1.0000 </r>
       <r>   -6.6335    1.0000 </r>
       <r>   -6.6258    1.0000 </r>
       <r>   -6.6156    1.0000 </r>
       <r>   -6.5952    1.0000 </r>
       <r>   -6.5899    1.0000 </r>
       <r>   -6.5662    1.0000 </r>
       <r>   -6.5579    1.0000 </r>
       <r>   -6.5538    1.0000 </r>
       <r>   -6.5353    1.0000 </r>
       <r>   -6.5154    1.0000 </r>
       <r>   -6.5093    1.0000 </r>
       <r>   -6.4880    1.0000 </r>
       <r>   -6.4790    1.0000 </r>
       <r>   -6.4678    1.0000 </r>
       <r>   -6.4580    1.0000 </r>
       <r>   -6.4501    1.0000 </r>
       <r>   -6.4493    1.0000 </r>
       <r>   -6.4243    1.0000 </r>
       <r>   -6.4067    1.0000 </r>
       <r>   -6.3984    1.0000 </r>
       <r>   -6.3929    1.0000 </r>
       <r>   -6.3652    1.0000 </r>
       <r>   -6.3570    1.0000 </r>
       <r>   -6.3486    1.0000 </r>
       <r>   -6.3393    1.0000 </r>
       <r>   -6.3221    1.0000 </r>
       <r>   -6.2914    1.0000 </r>
       <r>   -6.2877    1.0000 </r>
       <r>   -6.2599    1.0000 </r>
       <r>   -6.2495    1.0000 </r>
       <r>   -6.2231    1.0000 </r>
       <r>   -6.1859    1.0000 </r>
       <r>   -5.8535    1.0000 </r>
       <r>   -5.8233    1.0000 </r>
       <r>   -5.7989    1.0000 </r>
       <r>   -5.7547    1.0000 </r>
       <r>   -5.7448    1.0000 </r>
       <r>   -5.6915    1.0000 </r>
       <r>   -5.6835    1.0000 </r>
       <r>   -5.6544    1.0000 </r>
       <r>   -5.6181    1.0000 </r>
       <r>   -5.5654    1.0000 </r>
       <r>   -5.5359    1.0000 </r>
       <r>   -5.5160    1.0000 </r>
       <r>   -5.4857    1.0000 </r>
       <r>   -5.4772    1.0000 </r>
       <r>   -5.4371    1.0000 </r>
       <r>   -5.4067    1.0000 </r>
       <r>   -5.3910    1.0000 </r>
       <r>   -5.3493    1.0000 </r>
       <r>   -5.3217    1.0000 </r>
       <r>   -5.2853    1.0000 </r>
       <r>   -5.1554    1.0000 </r>
       <r>   -5.1269    1.0000 </r>
       <r>   -4.8716    1.0000 </r>
       <r>   -4.8493    1.0000 </r>
       <r>   -4.8286    1.0000 </r>
       <r>   -4.6496    1.0000 </r>
       <r>   -4.6248    1.0000 </r>
       <r>   -4.6064    1.0000 </r>
       <r>   -4.6022    1.0000 </r>
       <r>   -4.5714    1.0000 </r>
       <r>   -4.5563    1.0000 </r>
       <r>   -4.2558    1.0000 </r>
       <r>   -4.2097    1.0000 </r>
       <r>   -4.1849    1.0000 </r>
       <r>   -4.1688    1.0000 </r>
       <r>   -4.1331    1.0000 </r>
       <r>   -4.1146    1.0000 </r>
       <r>   -4.0963    1.0000 </r>
       <r>   -4.0825    1.0000 </r>
       <r>   -4.0814    1.0000 </r>
       <r>   -4.0489    1.0000 </r>
       <r>   -4.0227    1.0000 </r>
       <r>   -3.9785    1.0000 </r>
       <r>   -3.9331    1.0000 </r>
       <r>   -3.9001    1.0000 </r>
       <r>   -3.8785    1.0000 </r>
       <r>   -3.8738    1.0000 </r>
       <r>   -3.8235    1.0000 </r>
       <r>   -3.8070    1.0000 </r>
       <r>   -3.7898    1.0000 </r>
       <r>   -3.7061    1.0000 </r>
       <r>   -3.6964    1.0000 </r>
       <r>   -3.6739    1.0000 </r>
       <r>   -3.6698    1.0000 </r>
       <r>   -3.6123    1.0000 </r>
       <r>   -3.5912    1.0000 </r>
       <r>   -3.5839    1.0000 </r>
       <r>   -3.5655    1.0000 </r>
       <r>   -3.5377    1.0000 </r>
       <r>   -3.4413    1.0000 </r>
       <r>   -3.4018    1.0000 </r>
       <r>   -3.3649    1.0000 </r>
       <r>   -3.3335    1.0000 </r>
       <r>   -3.3243    1.0000 </r>
       <r>   -3.3005    1.0000 </r>
       <r>   -3.2787    1.0000 </r>
       <r>   -3.2534    1.0000 </r>
       <r>   -3.2170    1.0000 </r>
       <r>   -3.0645    1.0000 </r>
       <r>   -3.0534    1.0000 </r>
       <r>   -2.1317    0.0000 </r>
       <r>   -2.1249    0.0000 </r>
       <r>   -2.0837    0.0000 </r>
       <r>   -1.5071    0.0000 </r>
       <r>   -1.4955    0.0000 </r>
       <r>   -1.4581    0.0000 </r>
       <r>   -1.4496    0.0000 </r>
       <r>   -1.4445    0.0000 </r>
       <r>   -1.4012    0.0000 </r>
       <r>   -0.7337    0.0000 </r>
       <r>   -0.6958    0.0000 </r>
       <r>   -0.6828    0.0000 </r>
       <r>   -0.6225    0.0000 </r>
       <r>   -0.5905    0.0000 </r>
       <r>   -0.5674    0.0000 </r>
       <r>   -0.5332    0.0000 </r>
       <r>   -0.5137    0.0000 </r>
       <r>   -0.4995    0.0000 </r>
       <r>   -0.4717    0.0000 </r>
       <r>   -0.4560    0.0000 </r>
       <r>   -0.4170    0.0000 </r>
       <r>   -0.3860    0.0000 </r>
       <r>   -0.3624    0.0000 </r>
       <r>   -0.2835    0.0000 </r>
       <r>    0.0601    0.0000 </r>
       <r>    0.0851    0.0000 </r>
       <r>    0.1099    0.0000 </r>
       <r>    0.1224    0.0000 </r>
       <r>    0.1433    0.0000 </r>
       <r>    0.1677    0.0000 </r>
       <r>    0.1883    0.0000 </r>
       <r>    0.1942    0.0000 </r>
       <r>    0.2337    0.0000 </r>
       <r>    0.2632    0.0000 </r>
       <r>    0.2782    0.0000 </r>
       <r>    0.3199    0.0000 </r>
       <r>    0.5397    0.0000 </r>
       <r>    0.5751    0.0000 </r>
       <r>    0.6053    0.0000 </r>
       <r>    0.6500    0.0000 </r>
       <r>    0.6783    0.0000 </r>
       <r>    0.7068    0.0000 </r>
       <r>    0.7267    0.0000 </r>
       <r>    0.7324    0.0000 </r>
       <r>    0.7841    0.0000 </r>
       <r>    0.7905    0.0000 </r>
       <r>    0.8145    0.0000 </r>
       <r>    0.8217    0.0000 </r>
       <r>    0.8262    0.0000 </r>
       <r>    0.8368    0.0000 </r>
       <r>    0.8609    0.0000 </r>
       <r>    0.8696    0.0000 </r>
       <r>    0.8780    0.0000 </r>
       <r>    0.9037    0.0000 </r>
       <r>    0.9075    0.0000 </r>
       <r>    0.9303    0.0000 </r>
       <r>    0.9433    0.0000 </r>
       <r>    0.9544    0.0000 </r>
       <r>    0.9582    0.0000 </r>
       <r>    0.9794    0.0000 </r>
       <r>    0.9938    0.0000 </r>
       <r>    1.0250    0.0000 </r>
       <r>    1.0420    0.0000 </r>
       <r>    1.0621    0.0000 </r>
      </set>
      <set comment="kpoint 2">
       <r>  -51.7698    1.0000 </r>
       <r>  -51.6920    1.0000 </r>
       <r>  -51.6718    1.0000 </r>
       <r>  -51.6127    1.0000 </r>
       <r>  -51.6112    1.0000 </r>
       <r>  -51.5631    1.0000 </r>
       <r>  -51.5266    1.0000 </r>
       <r>  -51.5250    1.0000 </r>
       <r>  -51.5119    1.0000 </r>
       <r>  -51.4731    1.0000 </r>
       <r>  -51.4490    1.0000 </r>
       <r>  -51.4428    1.0000 </r>
       <r>  -51.4400    1.0000 </r>
       <r>  -51.4081    1.0000 </r>
       <r>  -51.4041    1.0000 </r>
       <r>  -51.4032    1.0000 </r>
       <r>  -51.3948    1.0000 </r>
       <r>  -51.3768    1.0000 </r>
       <r>  -51.3689    1.0000 </r>
       <r>  -51.3654    1.0000 </r>
       <r>  -51.3624    1.0000 </r>
       <r>  -51.3532    1.0000 </r>
       <r>  -51.3390    1.0000 </r>
       <r>  -51.3124    1.0000 </r>
       <r>  -51.2958    1.0000 </r>
       <r>  -51.2746    1.0000 </r>
       <r>  -51.2371    1.0000 </r>
       <r>  -51.2051    1.0000 </r>
       <r>  -51.1907    1.0000 </r>
       <r>  -51.1843    1.0000 </r>
       <r>  -51.1505    1.0000 </r>
       <r>  -51.1319    1.0000 </r>
       <r>  -30.4494    1.0000 </r>
       <r>  -30.4476    1.0000 </r>
       <r>  -30.4285    1.0000 </r>
       <r>  -30.4087    1.0000 </r>
       <r>  -30.3864    1.0000 </r>
       <r>  -30.3725    1.0000 </r>
       <r>  -30.3606    1.0000 </r>
       <r>  -30.3432    1.0000 </r>
       <r>  -30.3379    1.0000 </r>
       <r>  -30.3287    1.0000 </r>
       <r>  -30.3096    1.0000 </r>
       <r>  -30.3047    1.0000 </r>
       <r>  -30.3013    1.0000 </r>
       <r>  -30.2906    1.0000 </r>
       <r>  -30.2877    1.0000 </r>
       <r>  -30.2807    1.0000 </r>
       <r>  -30.2726    1.0000 </r>
       <r>  -30.2634    1.0000 </r>
       <r>  -30.2477    1.0000 </r>
       <r>  -30.2447    1.0000 </r>
       <r>  -30.2406    1.0000 </r>
       <r>  -30.2349    1.0000 </r>
       <r>  -30.2287    1.0000 </r>
       <r>  -30.2241    1.0000 </r>
       <r>  -30.2161    1.0000 </r>
       <r>  -30.2019    1.0000 </r>
       <r>  -30.1946    1.0000 </r>
       <r>  -30.1842    1.0000 </r>
       <r>  -30.1807    1.0000 </r>
       <r>  -30.1643    1.0000 </r>
       <r>  -30.1535    1.0000 </r>
       <r>  -30.1509    1.0000 </r>
       <r>  -30.1379    1.0000 </r>
       <r>  -30.1318    1.0000 </r>
       <r>  -30.1271    1.0000 </r>
       <r>  -30.1213    1.0000 </r>
       <r>  -30.1163    1.0000 </r>
       <r>  -30.1108    1.0000 </r>
       <r>  -30.1097    1.0000 </r>
       <r>  -30.1020    1.0000 </r>
       <r>  -30.0972    1.0000 </r>
       <r>  -30.0936    1.0000 </r>
       <r>  -30.0827    1.0000 </r>
       <r>  -30.0765    1.0000 </r>
       <r>  -30.0737    1.0000 </r>
       <r>  -30.0693    1.0000 </r>
       <r>  -30.0635    1.0000 </r>
       <r>  -30.0542    1.0000 </r>
       <r>  -30.0536    1.0000 </r>
       <r>  -30.0492    1.0000 </r>
       <r>  -30.0394    1.0000 </r>
       <r>  -30.0354    1.0000 </r>
       <r>  -30.0299    1.0000 </r>
       <r>  -30.0266    1.0000 </r>
       <r>  -30.0191    1.0000 </r>
       <r>  -30.0170    1.0000 </r>
       <r>  -30.0111    1.0000 </r>
       <r>  -30.0063    1.0000 </r>
       <r>  -30.0038    1.0000 </r>
       <r>  -30.0027    1.0000 </r>
       <r>  -29.9974    1.0000 </r>
       <r>  -29.9948    1.0000 </r>
       <r>  -29.9912    1.0000 </r>
       <r>  -29.9889    1.0000 </r>
       <r>  -29.9852    1.0000 </r>
       <r>  -29.9811    1.0000 </r>
       <r>  -29.9750    1.0000 </r>
       <r>  -29.9702    1.0000 </r>
       <r>  -29.9633    1.0000 </r>
       <r>  -29.9562    1.0000 </r>
       <r>  -29.9539    1.0000 </r>
       <r>  -29.9380    1.0000 </r>
       <r>  -29.9344    1.0000 </r>
       <r>  -29.9316    1.0000 </r>
       <r>  -29.9276    1.0000 </r>
       <r>  -29.9224    1.0000 </r>
       <r>  -29.9199    1.0000 </r>
       <r>  -29.9010    1.0000 </r>
       <r>  -29.8990    1.0000 </r>
       <r>  -29.8851    1.0000 </r>
       <r>  -29.8728    1.0000 </r>
       <r>  -29.8674    1.0000 </r>
       <r>  -29.8619    1.0000 </r>
       <r>  -29.8401    1.0000 </r>
       <r>  -29.8367    1.0000 </r>
       <r>  -29.8337    1.0000 </r>
       <r>  -29.8266    1.0000 </r>
       <r>  -29.8199    1.0000 </r>
       <r>  -29.8100    1.0000 </r>
       <r>  -29.8084    1.0000 </r>
       <r>  -29.7924    1.0000 </r>
       <r>  -29.7851    1.0000 </r>
       <r>  -29.7801    1.0000 </r>
       <r>  -29.7769    1.0000 </r>
       <r>  -29.7680    1.0000 </r>
       <r>  -29.7301    1.0000 </r>
       <r>  -18.4989    1.0000 </r>
       <r>  -18.4785    1.0000 </r>
       <r>  -18.3812    1.0000 </r>
       <r>  -18.3719    1.0000 </r>
       <r>  -18.3227    1.0000 </r>
       <r>  -18.3032    1.0000 </r>
       <r>  -18.2624    1.0000 </r>
       <r>  -18.2509    1.0000 </r>
       <r>  -18.1504    1.0000 </r>
       <r>  -18.1247    1.0000 </r>
       <r>  -18.1100    1.0000 </r>
       <r>  -18.0923    1.0000 </r>
       <r>  -18.0885    1.0000 </r>
       <r>  -18.0462    1.0000 </r>
       <r>  -18.0066    1.0000 </r>
       <r>  -17.9770    1.0000 </r>
       <r>  -17.9713    1.0000 </r>
       <r>  -17.9464    1.0000 </r>
       <r>  -17.9442    1.0000 </r>
       <r>  -17.9214    1.0000 </r>
       <r>  -17.8803    1.0000 </r>
       <r>  -17.8662    1.0000 </r>
       <r>  -17.8501    1.0000 </r>
       <r>  -17.8357    1.0000 </r>
       <r>  -17.8111    1.0000 </r>
       <r>  -17.7955    1.0000 </r>
       <r>  -17.7590    1.0000 </r>
       <r>  -17.7182    1.0000 </r>
       <r>  -17.7150    1.0000 </r>
[...]
       <r>   -32.3182     0.0000    64.0000 </r>
       <r>   -32.1243     0.0000    64.0000 </r>
       <r>   -31.9305     0.0000    64.0000 </r>
       <r>   -31.7367     0.0000    64.0000 </r>
       <r>   -31.5429     0.0000    64.0000 </r>
       <r>   -31.3491     0.0000    64.0000 </r>
       <r>   -31.1553     0.0000    64.0000 </r>
       <r>   -30.9615     0.0000    64.0000 </r>
       <r>   -30.7677     0.0000    64.0000 </r>
       <r>   -30.5738     0.0042    64.0008 </r>
       <r>   -30.3800    55.1176    74.6833 </r>
       <r>   -30.1862   227.3178   118.7401 </r>
       <r>   -29.9924   352.8014   187.1172 </r>
       <r>   -29.7986   291.4456   243.6028 </r>
       <r>   -29.6048    63.9629   255.9996 </r>
       <r>   -29.4110     0.0021   256.0000 </r>
       <r>   -29.2172     0.0000   256.0000 </r>
       <r>   -29.0233     0.0000   256.0000 </r>
       <r>   -28.8295     0.0000   256.0000 </r>
       <r>   -28.6357     0.0000   256.0000 </r>
       <r>   -28.4419     0.0000   256.0000 </r>
       <r>   -28.2481     0.0000   256.0000 </r>
       <r>   -28.0543     0.0000   256.0000 </r>
       <r>   -27.8605     0.0000   256.0000 </r>
       <r>   -27.6667     0.0000   256.0000 </r>
       <r>   -27.4729     0.0000   256.0000 </r>
       <r>   -27.2790     0.0000   256.0000 </r>
       <r>   -27.0852     0.0000   256.0000 </r>
       <r>   -26.8914     0.0000   256.0000 </r>
       <r>   -26.6976     0.0000   256.0000 </r>
       <r>   -26.5038     0.0000   256.0000 </r>
       <r>   -26.3100     0.0000   256.0000 </r>
       <r>   -26.1162     0.0000   256.0000 </r>
       <r>   -25.9224     0.0000   256.0000 </r>
       <r>   -25.7285     0.0000   256.0000 </r>
       <r>   -25.5347     0.0000   256.0000 </r>
       <r>   -25.3409     0.0000   256.0000 </r>
       <r>   -25.1471     0.0000   256.0000 </r>
       <r>   -24.9533     0.0000   256.0000 </r>
       <r>   -24.7595     0.0000   256.0000 </r>
       <r>   -24.5657     0.0000   256.0000 </r>
       <r>   -24.3719     0.0000   256.0000 </r>
       <r>   -24.1781     0.0000   256.0000 </r>
       <r>   -23.9842     0.0000   256.0000 </r>
       <r>   -23.7904     0.0000   256.0000 </r>
       <r>   -23.5966     0.0000   256.0000 </r>
       <r>   -23.4028     0.0000   256.0000 </r>
       <r>   -23.2090     0.0000   256.0000 </r>
       <r>   -23.0152     0.0000   256.0000 </r>
       <r>   -22.8214     0.0000   256.0000 </r>
       <r>   -22.6276     0.0000   256.0000 </r>
       <r>   -22.4337     0.0000   256.0000 </r>
       <r>   -22.2399     0.0000   256.0000 </r>
       <r>   -22.0461     0.0000   256.0000 </r>
       <r>   -21.8523     0.0000   256.0000 </r>
       <r>   -21.6585     0.0000   256.0000 </r>
       <r>   -21.4647     0.0000   256.0000 </r>
       <r>   -21.2709     0.0000   256.0000 </r>
       <r>   -21.0771     0.0000   256.0000 </r>
       <r>   -20.8833     0.0000   256.0000 </r>
       <r>   -20.6894     0.0000   256.0000 </r>
       <r>   -20.4956     0.0000   256.0000 </r>
       <r>   -20.3018     0.0000   256.0000 </r>
       <r>   -20.1080     0.0000   256.0000 </r>
       <r>   -19.9142     0.0000   256.0000 </r>
       <r>   -19.7204     0.0000   256.0000 </r>
       <r>   -19.5266     0.0000   256.0000 </r>
       <r>   -19.3328     0.0000   256.0000 </r>
       <r>   -19.1389     0.0000   256.0000 </r>
       <r>   -18.9451     0.0000   256.0000 </r>
       <r>   -18.7513     0.0000   256.0000 </r>
       <r>   -18.5575     0.6540   256.1267 </r>
       <r>   -18.3637    36.2212   263.1468 </r>
       <r>   -18.1699    52.4285   273.3081 </r>
       <r>   -17.9761    78.3599   288.4952 </r>
       <r>   -17.7823    96.5785   307.2132 </r>
       <r>   -17.5885    59.4995   318.7449 </r>
       <r>   -17.3946     6.4757   320.0000 </r>
       <r>   -17.2008     0.0000   320.0000 </r>
       <r>   -17.0070     0.0000   320.0000 </r>
       <r>   -16.8132     0.0000   320.0000 </r>
       <r>   -16.6194     0.0000   320.0000 </r>
       <r>   -16.4256     0.0000   320.0000 </r>
       <r>   -16.2318     0.0000   320.0000 </r>
       <r>   -16.0380     0.0000   320.0000 </r>
       <r>   -15.8441     0.0000   320.0000 </r>
       <r>   -15.6503     0.0000   320.0000 </r>
       <r>   -15.4565     0.0000   320.0000 </r>
       <r>   -15.2627     0.0000   320.0000 </r>
       <r>   -15.0689     0.0000   320.0000 </r>
       <r>   -14.8751     0.0000   320.0000 </r>
       <r>   -14.6813     0.0000   320.0000 </r>
       <r>   -14.4875     0.0000   320.0000 </r>
       <r>   -14.2937     0.0000   320.0000 </r>
       <r>   -14.0998     0.0000   320.0000 </r>
       <r>   -13.9060     0.0000   320.0000 </r>
       <r>   -13.7122     0.0000   320.0000 </r>
       <r>   -13.5184     0.0000   320.0000 </r>
       <r>   -13.3246     0.0000   320.0000 </r>
       <r>   -13.1308     0.0000   320.0000 </r>
       <r>   -12.9370     0.0000   320.0000 </r>
       <r>   -12.7432     0.0000   320.0000 </r>
       <r>   -12.5493     0.0000   320.0000 </r>
       <r>   -12.3555     0.0000   320.0000 </r>
       <r>   -12.1617     0.0000   320.0000 </r>
       <r>   -11.9679     0.0000   320.0000 </r>
       <r>   -11.7741     5.0338   320.9756 </r>
       <r>   -11.5803    16.1509   324.1058 </r>
       <r>   -11.3865    19.2939   327.8452 </r>
       <r>   -11.1927    25.9193   332.8687 </r>
       <r>   -10.9988    35.6251   339.7733 </r>
       <r>   -10.8050    51.0369   349.6648 </r>
       <r>   -10.6112    12.0487   352.0000 </r>
       <r>   -10.4174     0.0000   352.0000 </r>
       <r>   -10.2236     0.0000   352.0000 </r>
       <r>   -10.0298     0.0000   352.0000 </r>
       <r>    -9.8360     0.0000   352.0000 </r>
       <r>    -9.6422     0.0000   352.0000 </r>
       <r>    -9.4484     0.0000   352.0000 </r>
       <r>    -9.2545     0.0000   352.0000 </r>
       <r>    -9.0607     0.0000   352.0000 </r>
       <r>    -8.8669     0.0000   352.0000 </r>
       <r>    -8.6731     0.0000   352.0000 </r>
       <r>    -8.4793     0.0000   352.0000 </r>
       <r>    -8.2855     0.0000   352.0000 </r>
       <r>    -8.0917     0.0011   352.0002 </r>
       <r>    -7.8979     7.9099   353.5332 </r>
       <r>    -7.7040    38.8426   361.0614 </r>
       <r>    -7.5102    56.0248   371.9197 </r>
       <r>    -7.3164    69.7500   385.4380 </r>
       <r>    -7.1226    56.9871   396.4828 </r>
       <r>    -6.9288    67.1980   409.5066 </r>
       <r>    -6.7350    99.2420   428.7409 </r>
       <r>    -6.5412   120.8630   452.1656 </r>
       <r>    -6.3474   112.3032   473.9312 </r>
       <r>    -6.1536    72.1838   487.9213 </r>
       <r>    -5.9597    48.1534   497.2540 </r>
       <r>    -5.7659    65.9121   510.0286 </r>
       <r>    -5.5721    69.2749   523.4549 </r>
       <r>    -5.3783    60.9434   535.2664 </r>
       <r>    -5.1845    36.3938   542.3199 </r>
       <r>    -4.9907     8.6689   544.0001 </r>
       <r>    -4.7969    15.3639   546.9778 </r>
       <r>    -4.6031    50.3578   556.7377 </r>
       <r>    -4.4092    37.7190   564.0481 </r>
       <r>    -4.2154    32.0161   570.2532 </r>
       <r>    -4.0216    23.6676   574.8403 </r>
       <r>    -3.8278    84.1217   591.1441 </r>
       <r>    -3.6340    90.6079   608.7049 </r>
       <r>    -3.4402    86.7445   625.5170 </r>
       <r>    -3.2464    48.7400   634.9634 </r>
       <r>    -3.0526    24.4838   639.7087 </r>
       <r>    -2.8588     1.5031   640.0000 </r>
       <r>    -2.6649     0.0000   640.0000 </r>
       <r>    -2.4711     0.0000   640.0000 </r>
       <r>    -2.2773     0.0000   640.0000 </r>
       <r>    -2.0835     3.4153   640.6619 </r>
       <r>    -1.8897     8.3613   642.2824 </r>
       <r>    -1.6959    25.5327   647.2310 </r>
       <r>    -1.5021    10.3214   649.2314 </r>
       <r>    -1.3083    20.7171   653.2466 </r>
       <r>    -1.1144    26.3000   658.3439 </r>
       <r>    -0.9206    32.2570   664.5957 </r>
       <r>    -0.7268    11.9431   666.9104 </r>
       <r>    -0.5330    29.9832   672.7215 </r>
       <r>    -0.3392    40.0060   680.4751 </r>
       <r>    -0.1454    26.1521   685.5437 </r>
       <r>     0.0484    31.1063   691.5725 </r>
       <r>     0.2422    39.3191   699.1930 </r>
       <r>     0.4360    32.9812   705.5851 </r>
       <r>     0.6299    57.7852   716.7846 </r>
       <r>     0.8237   110.3654   738.1747 </r>
       <r>     1.0175   127.3617   762.8589 </r>
       <r>     1.2113    26.5254   767.9998 </r>
       <r>     1.4051     0.0008   768.0000 </r>
       <r>     1.5989     0.0000   768.0000 </r>
       <r>     1.7927     0.0000   768.0000 </r>
       <r>     1.9865     0.0000   768.0000 </r>
       <r>     2.1804     0.0000   768.0000 </r>
       <r>     2.3742     0.0000   768.0000 </r>
       <r>     2.5680     0.0000   768.0000 </r>
       <r>     2.7618     0.0000   768.0000 </r>
       <r>     2.9556     0.0000   768.0000 </r>
       <r>     3.1494     0.0000   768.0000 </r>
       <r>     3.3432     0.0000   768.0000 </r>
       <r>     3.5370     0.0000   768.0000 </r>
       <r>     3.7308     0.0000   768.0000 </r>
      </set>
     </set>
    </array>
   </total>
  </dos>
 </calculation>
 <structure name="finalpos" >
  <crystal>
   <varray name="basis" >
    <v>      13.79398668       0.00000000       0.00000000 </v>
    <v>      -6.89699334      11.94594288       0.00000000 </v>
    <v>       0.00000000       0.00000000      27.81022107 </v>
   </varray>
   <i name="volume">   4582.62876984 </i>
   <varray name="rec_basis" >
    <v>       0.07249536       0.04185521       0.00000000 </v>
    <v>       0.00000000       0.08371043       0.00000000 </v>
    <v>       0.00000000       0.00000000       0.03595800 </v>
   </varray>
  </crystal>
  <varray name="positions" >
   <v>       0.09133931       0.16936969       0.54520617 </v>
   <v>       0.07125075       0.41406830       0.54523249 </v>
   <v>       0.07829587       0.66029190       0.54279007 </v>
   <v>       0.07613329       0.91880708       0.54770529 </v>
   <v>       0.34110725       0.16963986       0.54397392 </v>
   <v>       0.32661714       0.41349433       0.54271317 </v>
   <v>       0.33542753       0.66070037       0.54418800 </v>
   <v>       0.33295558       0.91467903       0.54054583 </v>
   <v>       0.58655071       0.16478301       0.54519278 </v>
   <v>       0.58540233       0.41582801       0.54487154 </v>
   <v>       0.58044254       0.66461023       0.54533354 </v>
   <v>       0.58384348       0.91508289       0.54457772 </v>
   <v>       0.82807769       0.16211989       0.54585144 </v>
   <v>       0.82781184       0.41499952       0.54070250 </v>
   <v>       0.83185498       0.66420693       0.54465216 </v>
   <v>       0.82825354       0.92090119       0.54269997 </v>
   <v>       0.17259077       0.08356168       0.45701875 </v>
   <v>       0.16625372       0.34359969       0.45896197 </v>
   <v>       0.16218717       0.58558694       0.45680852 </v>
   <v>       0.17120897       0.84314007       0.45427861 </v>
   <v>       0.42477343       0.08583079       0.45460393 </v>
   <v>       0.41414681       0.32573634       0.45761503 </v>
   <v>       0.41158487       0.57284835       0.45416676 </v>
   <v>       0.41129623       0.82940035       0.45822447 </v>
   <v>       0.66674900       0.08389895       0.45460995 </v>
   <v>       0.66596905       0.33273356       0.45431470 </v>
   <v>       0.66119699       0.57433344       0.45659115 </v>
   <v>       0.66664173       0.83078339       0.45552338 </v>
   <v>       0.92606326       0.08387081       0.45539773 </v>
   <v>       0.91426786       0.33485162       0.45480103 </v>
   <v>       0.91969958       0.59344181       0.45484681 </v>
   <v>       0.90247217       0.82003012       0.45855054 </v>
   <v>       0.08835736       0.16879228       0.39674615 </v>
   <v>       0.08334760       0.40332875       0.39281765 </v>
   <v>       0.09139837       0.66400236       0.39769669 </v>
   <v>       0.09172250       0.92002034       0.39387602 </v>
   <v>       0.32323869       0.17093332       0.39878308 </v>
   <v>       0.34289993       0.41012702       0.39567344 </v>
   <v>       0.32799468       0.67006406       0.39801785 </v>
   <v>       0.34369736       0.93217741       0.39242609 </v>
   <v>       0.57620438       0.17320854       0.39509173 </v>
   <v>       0.57913883       0.41075711       0.39123494 </v>
   <v>       0.57718180       0.66478768       0.39728496 </v>
   <v>       0.58583236       0.91407568       0.39779896 </v>
   <v>       0.83190027       0.17110217       0.39363999 </v>
   <v>       0.83206401       0.42027243       0.39184419 </v>
   <v>       0.84800713       0.66263136       0.39283199 </v>
   <v>       0.84303184       0.91483809       0.39724314 </v>
   <v>       0.16412898       0.08652339       0.60375882 </v>
   <v>       0.17853720       0.33236219       0.60708477 </v>
   <v>       0.17321651       0.59504812       0.60508483 </v>
   <v>       0.15406693       0.83907403       0.60281529 </v>
   <v>       0.41883018       0.08666378       0.60243719 </v>
   <v>       0.42273762       0.32533773       0.60407235 </v>
   <v>       0.40920507       0.57012120       0.60412776 </v>
   <v>       0.41622073       0.83526677       0.60408335 </v>
   <v>       0.67683851       0.09604747       0.60720889 </v>
   <v>       0.68064014       0.34780331       0.60502534 </v>
   <v>       0.66470142       0.58314834       0.60481419 </v>
   <v>       0.66370211       0.84090784       0.60592173 </v>
   <v>       0.92583176       0.09029352       0.60485197 </v>
   <v>       0.90854486       0.33151065       0.60607085 </v>
   <v>       0.91584205       0.57768605       0.59950688 </v>
   <v>       0.90191132       0.82633635       0.60642599 </v>
   <v>       0.99412348       0.99612243       0.49862845 </v>
   <v>       0.99823886       0.25212775       0.50177069 </v>
   <v>       0.00664680       0.50259830       0.49953493 </v>
   <v>       0.99217256       0.74253606       0.50394401 </v>
   <v>       0.25155886       0.99904458       0.50193776 </v>
   <v>       0.25893227       0.25338403       0.50076104 </v>
   <v>       0.25965068       0.50468172       0.50131862 </v>
   <v>       0.24421103       0.74886725       0.50020396 </v>
   <v>       0.49994831       0.00036736       0.50059523 </v>
   <v>       0.50687628       0.25630840       0.50095078 </v>
   <v>       0.50290180       0.50098480       0.50013410 </v>
   <v>       0.49743996       0.74419439       0.49780792 </v>
   <v>       0.76104763       0.01324640       0.49847545 </v>
   <v>       0.75203157       0.24700512       0.49504599 </v>
   <v>       0.75010393       0.49900269       0.49706895 </v>
   <v>       0.74367434       0.75814568       0.50320720 </v>
  </varray>
  <varray name="velocities" >
   <v>       0.00000000       0.00000000       0.00000000 </v>
   <v>       0.00000000       0.00000000       0.00000000 </v>
   <v>       0.00000000       0.00000000       0.00000000 </v>
   <v>       0.00000000       0.00000000       0.00000000 </v>
   <v>       0.00000000       0.00000000       0.00000000 </v>
   <v>       0.00000000       0.00000000       0.00000000 </v>
   <v>       0.00000000       0.00000000       0.00000000 </v>
   <v>       0.00000000       0.00000000       0.00000000 </v>
   <v>       0.00000000       0.00000000       0.00000000 </v>
   <v>       0.00000000       0.00000000       0.00000000 </v>
   <v>       0.00000000       0.00000000       0.00000000 </v>
   <v>       0.00000000       0.00000000       0.00000000 </v>
   <v>       0.00000000       0.00000000       0.00000000 </v>
   <v>       0.00000000       0.00000000       0.00000000 </v>
   <v>       0.00000000       0.00000000       0.00000000 </v>
   <v>       0.00000000       0.00000000       0.00000000 </v>
   <v>       0.00000000       0.00000000       0.00000000 </v>
   <v>       0.00000000       0.00000000       0.00000000 </v>
   <v>       0.00000000       0.00000000       0.00000000 </v>
   <v>       0.00000000       0.00000000       0.00000000 </v>
   <v>       0.00000000       0.00000000       0.00000000 </v>
   <v>       0.00000000       0.00000000       0.00000000 </v>
   <v>       0.00000000       0.00000000       0.00000000 </v>
   <v>       0.00000000       0.00000000       0.00000000 </v>
   <v>       0.00000000       0.00000000       0.00000000 </v>
   <v>       0.00000000       0.00000000       0.00000000 </v>
   <v>       0.00000000       0.00000000       0.00000000 </v>
   <v>       0.00000000       0.00000000       0.00000000 </v>
   <v>       0.00000000       0.00000000       0.00000000 </v>
   <v>       0.00000000       0.00000000       0.00000000 </v>
   <v>       0.00000000       0.00000000       0.00000000 </v>
   <v>       0.00000000       0.00000000       0.00000000 </v>
   <v>       0.00000000       0.00000000       0.00000000 </v>
   <v>       0.00000000       0.00000000       0.00000000 </v>
   <v>       0.00000000       0.00000000       0.00000000 </v>
   <v>       0.00000000       0.00000000       0.00000000 </v>
   <v>       0.00000000       0.00000000       0.00000000 </v>
   <v>       0.00000000       0.00000000       0.00000000 </v>
   <v>       0.00000000       0.00000000       0.00000000 </v>
   <v>       0.00000000       0.00000000       0.00000000 </v>
   <v>       0.00000000       0.00000000       0.00000000 </v>
   <v>       0.00000000       0.00000000       0.00000000 </v>
   <v>       0.00000000       0.00000000       0.00000000 </v>
   <v>       0.00000000       0.00000000       0.00000000 </v>
   <v>       0.00000000       0.00000000       0.00000000 </v>
   <v>       0.00000000       0.00000000       0.00000000 </v>
   <v>       0.00000000       0.00000000       0.00000000 </v>
   <v>       0.00000000       0.00000000       0.00000000 </v>
   <v>       0.00000000       0.00000000       0.00000000 </v>
   <v>       0.00000000       0.00000000       0.00000000 </v>
   <v>       0.00000000       0.00000000       0.00000000 </v>
   <v>       0.00000000       0.00000000       0.00000000 </v>
   <v>       0.00000000       0.00000000       0.00000000 </v>
   <v>       0.00000000       0.00000000       0.00000000 </v>
   <v>       0.00000000       0.00000000       0.00000000 </v>
   <v>       0.00000000       0.00000000       0.00000000 </v>
   <v>       0.00000000       0.00000000       0.00000000 </v>
   <v>       0.00000000       0.00000000       0.00000000 </v>
   <v>       0.00000000       0.00000000       0.00000000 </v>
   <v>       0.00000000       0.00000000       0.00000000 </v>
   <v>       0.00000000       0.00000000       0.00000000 </v>
   <v>       0.00000000       0.00000000       0.00000000 </v>
   <v>       0.00000000       0.00000000       0.00000000 </v>
   <v>       0.00000000       0.00000000       0.00000000 </v>
   <v>       0.00000000       0.00000000       0.00000000 </v>
   <v>       0.00000000       0.00000000       0.00000000 </v>
   <v>       0.00000000       0.00000000       0.00000000 </v>
   <v>       0.00000000       0.00000000       0.00000000 </v>
   <v>       0.00000000       0.00000000       0.00000000 </v>
   <v>       0.00000000       0.00000000       0.00000000 </v>
   <v>       0.00000000       0.00000000       0.00000000 </v>
   <v>       0.00000000       0.00000000       0.00000000 </v>
   <v>       0.00000000       0.00000000       0.00000000 </v>
   <v>       0.00000000       0.00000000       0.00000000 </v>
   <v>       0.00000000       0.00000000       0.00000000 </v>
   <v>       0.00000000       0.00000000       0.00000000 </v>
   <v>       0.00000000       0.00000000       0.00000000 </v>
   <v>       0.00000000       0.00000000       0.00000000 </v>
   <v>       0.00000000       0.00000000       0.00000000 </v>
   <v>       0.00000000       0.00000000       0.00000000 </v>
  </varray>
 </structure>
</modeling>
