LAMMPS data file
# Generated by Playmol on 2-May-2024 at 21:50:09

3 atom types
1 bond types
1 angle types

256 atoms
128 bonds
64 angles

-6.20858669 6.20858669 xlo xhi
-6.20858669 6.20858669 ylo yhi
-6.20858669 6.20858669 zlo zhi

Masses

1 15.9994001 # OW
2 1.00790000 # HW
3 1.0E-20 # MW

# Elements: O H EP

PairIJ Coeffs # hybrid

1 1 lj/cut 0.185207039 3.1589 # OW OW
1 2 none # OW HW
1 3 none # OW MW
2 2 coul/long # HW HW
2 3 coul/long # HW MW
3 3 coul/long # MW MW

Bond Coeffs # harmonic

1 553 0.9572 # OW HW

Angle Coeffs # harmonic

1 100 104.52 # HW OW HW

Atoms

1 1 1 0.0000 4.86085320 -3.33207607 -4.25396490 # OW
2 1 2 0.5564 4.77472782 -2.57621908 -4.83490705 # HW1
3 1 2 0.5564 4.76454687 -4.09007883 -4.83049679 # HW2
4 1 3 -1.11280000 4.83678389 -3.33235908 -4.40668011 # MW
5 2 1 0.0000 -2.70086288 2.72057796 0.785059988 # OW
6 2 2 0.5564 -3.20045900 2.19658899 0.158904001 # HW1
7 2 2 0.5564 -2.45325804 2.10184312 1.47214699 # HW2
8 2 3 -1.11280000 -2.73411012 2.56980991 0.793098986 # MW
9 3 1 0.0000 2.12987804 -2.44426107 -2.81038904 # OW
10 3 2 0.5564 1.17275596 -2.43203807 -2.81035590 # HW1
11 3 2 0.5564 2.35801291 -3.37387705 -2.81158209 # HW2
12 3 3 -1.11280000 2.03369689 -2.56529999 -2.81054211 # MW
13 4 1 0.0000 -1.89487898 -4.83711720 4.08689022 # OW
14 4 2 0.5564 -2.46810508 -4.09771299 3.88459110 # HW1
15 4 2 0.5564 -1.36089206 -4.53302479 4.82079506 # HW2
16 4 3 -1.11280000 -1.90005600 -4.69944000 4.15702915 # MW
17 5 1 0.0000 2.66817689 -2.14682388 4.90031719 # OW
18 5 2 0.5564 3.22970390 -1.45825601 4.54423618 # HW1
19 5 2 0.5564 1.77696300 -1.83599806 4.74108315 # HW2
20 5 3 -1.11280000 2.62467909 -2.01496696 4.83232784 # MW
21 6 1 0.0000 -3.25298810 0.208762005 4.84461212 # OW
22 6 2 0.5564 -3.90942693 0.898374975 4.74585581 # HW1
23 6 2 0.5564 -2.41456795 0.669744015 4.81670189 # HW2
24 6 3 -1.11280000 -3.22897792 0.360569000 4.82789993 # MW
25 7 1 0.0000 0.428382009 4.85534620 -4.08217382 # OW
26 7 2 0.5564 0.231135994 4.38275909 -4.89086914 # HW1
27 7 2 0.5564 0.400665998 4.18489885 -3.39955902 # HW2
28 7 3 -1.11280000 0.398701012 4.70453691 -4.09880877 # MW
29 8 1 0.0000 1.29976904 2.86737704 2.67690611 # OW
30 8 2 0.5564 1.87809706 2.60479403 1.96079195 # HW1
31 8 2 0.5564 1.31366897 3.82429004 2.65803289 # HW2
32 8 3 -1.11280000 1.37790704 2.95898604 2.57993293 # MW
33 9 1 0.0000 -4.88923597 0.920679986 -1.40350294 # OW
34 9 2 0.5564 -4.66022921 0.997125030 -0.477250993 # HW1
35 9 2 0.5564 -4.55737305 1.72619700 -1.80004001 # HW2
36 9 3 -1.11280000 -4.81523609 1.03704405 -1.33361399 # MW
37 10 1 0.0000 2.59990003E-02 -1.71675503 -0.334412992 # OW
38 10 2 0.5564 0.831273019 -1.20019901 -0.303846002 # HW1
39 10 2 0.5564 -0.422618985 -1.51062500 0.485637993 # HW2
40 10 3 -1.11280000 7.30549991E-02 -1.62140596 -0.222185001 # MW
41 11 1 0.0000 -2.13650990 -1.65839996E-02 -4.81610918 # OW
42 11 2 0.5564 -2.57734609 0.118153997 -3.97721601 # HW1
43 11 2 0.5564 -1.37455106 0.561788976 -4.78242922 # HW2
44 11 3 -1.11280000 -2.09414196 7.75019974E-02 -4.70098400 # MW
45 12 1 0.0000 1.93565094 -2.32069995E-02 1.86504805 # OW
46 12 2 0.5564 2.26742601 0.745980024 1.40189600 # HW1
47 12 2 0.5564 2.66933393 -0.637975991 1.86561000 # HW2
48 12 3 -1.11280000 2.07622504 -2.83399993E-03 1.80401504 # MW
49 13 1 0.0000 4.87344694 -1.31387806 -1.94429004 # OW
50 13 2 0.5564 4.53542089 -2.20801711 -1.99414802 # HW1
51 13 2 0.5564 4.57317305 -0.990817010 -1.09476101 # HW2
52 13 3 -1.11280000 4.78923082 -1.38922405 -1.83878303 # MW
53 14 1 0.0000 4.82601309 3.09324288 2.90531898 # OW
54 14 2 0.5564 4.81772995 4.02081394 2.66915393 # HW1
55 14 2 0.5564 4.63183308 2.63559508 2.08734298 # HW2
56 14 3 -1.11280000 4.79930019 3.15524292 2.76623797 # MW
57 15 1 0.0000 1.68491697 0.759952009 4.87347984 # OW
58 15 2 0.5564 2.32509589 0.290399998 4.33876085 # HW1
59 15 2 0.5564 0.960425973 0.942727029 4.27520084 # HW2
60 15 3 -1.11280000 1.67379296 0.722114980 4.72399378 # MW
61 16 1 0.0000 -2.56574106 -4.84586191 -0.769846976 # OW
62 16 2 0.5564 -2.89875507 -3.97427702 -0.556132019 # HW1
63 16 2 0.5564 -1.62516606 -4.79151392 -0.600744009 # HW2
64 16 3 -1.11280000 -2.48558092 -4.72369719 -0.719339013 # MW
65 17 1 0.0000 0.109141000 1.69870901 0.101310000 # OW
66 17 2 0.5564 9.54789966E-02 2.10452390 -0.765500009 # HW1
67 17 2 0.5564 -0.200246006 2.38500595 0.692502022 # HW2
68 17 3 -1.11280000 6.65189996E-02 1.84280002 6.49449974E-02 # MW
69 18 1 0.0000 -4.83716106 1.38850403 -4.43547821 # OW
70 18 2 0.5564 -4.11824989 1.39097095 -3.80350399 # HW1
71 18 2 0.5564 -4.81531620 0.512381017 -4.82039785 # HW2
72 18 3 -1.11280000 -4.73942709 1.27323604 -4.40288210 # MW
73 19 1 0.0000 -2.10367703 -3.00106096 1.63725400 # OW
74 19 2 0.5564 -1.68272495 -2.29477096 2.12734294 # HW1
75 19 2 0.5564 -2.02977109 -2.73449802 0.720894992 # HW2
76 19 3 -1.11280000 -2.03838611 -2.87270498 1.58101296 # MW
77 20 1 0.0000 -4.75617981 -4.82901192 1.63395405 # OW
78 20 2 0.5564 -4.84005022 -4.16249418 2.31582808 # HW1
79 20 2 0.5564 -3.82370901 -4.83526516 1.41787195 # HW2
80 20 3 -1.11280000 -4.64421701 -4.74189901 1.69541001 # MW
81 21 1 0.0000 -4.82965422 1.23255205 2.41952491 # OW
82 21 2 0.5564 -4.62350321 0.488467008 1.85377598 # HW1
83 21 2 0.5564 -4.87565279 1.98093402 1.82451296 # HW2
84 21 3 -1.11280000 -4.80852413 1.23311901 2.26637697 # MW
85 22 1 0.0000 4.00179005 -4.83220387 -1.56921196 # OW
86 22 2 0.5564 3.80910492 -4.81936312 -2.50673008 # HW1
87 22 2 0.5564 3.16278911 -4.64283180 -1.14915502 # HW2
88 22 3 -1.11280000 3.86567211 -4.80552387 -1.63748503 # MW
89 23 1 0.0000 4.86032486 0.358200997 1.01961803 # OW
90 23 2 0.5564 4.62778521 -0.551653028 0.834354997 # HW1
91 23 2 0.5564 4.41269302 0.557660997 1.84185398 # HW2
92 23 3 -1.11280000 4.77058506 0.264474005 1.10365903 # MW
93 24 1 0.0000 -0.926810026 4.90226889 2.01247001 # OW
94 24 2 0.5564 -1.87183702 4.82180786 2.14162803 # HW1
95 24 2 0.5564 -0.664195001 4.06366110 1.63299406 # HW2
96 24 3 -1.11280000 -1.01684594 4.78100920 1.97944295 # MW
97 25 1 0.0000 1.49686098 2.07502508 -4.82230282 # OW
98 25 2 0.5564 1.02673697 2.35491896 -4.03688908 # HW1
99 25 2 0.5564 1.41474402 1.12135601 -4.82407808 # HW2
100 25 3 -1.11280000 1.42400002 1.98612905 -4.71891117 # MW
101 26 1 0.0000 -2.61273193 4.82925177 -2.50771403 # OW
102 26 2 0.5564 -1.84774399 4.28489685 -2.69400311 # HW1
103 26 2 0.5564 -3.33359504 4.20639801 -2.41475391 # HW2
104 26 3 -1.11280000 -2.60691094 4.67525291 -2.52002811 # MW
105 27 1 0.0000 -0.988798022 0.474256992 2.74207306 # OW
106 27 2 0.5564 -1.94516003 0.479550004 2.70238495 # HW1
107 27 2 0.5564 -0.746523976 1.39740098 2.81514692 # HW2
108 27 3 -1.11280000 -1.08301306 0.596751988 2.74647808 # MW
109 28 1 0.0000 -2.46851301 3.01082301 3.87277508 # OW
110 28 2 0.5564 -2.41912794 2.96683002 4.82768679 # HW1
111 28 2 0.5564 -1.55552995 3.03139210 3.58594489 # HW2
112 28 3 -1.11280000 -2.34154010 3.00773191 3.96092010 # MW
113 29 1 0.0000 0.774975002 -4.87106180 0.276068002 # OW
114 29 2 0.5564 -8.66860002E-02 -4.78899908 0.684772015 # HW1
115 29 2 0.5564 0.844401002 -4.10487080 -0.293462008 # HW2
116 29 3 -1.11280000 0.670449018 -4.75914478 0.254848987 # MW
117 30 1 0.0000 -0.315804988 -2.48519897 -4.85259724 # OW
118 30 2 0.5564 -0.129002005 -1.54734099 -4.81066418 # HW1
119 30 2 0.5564 -1.21377897 -2.56565404 -4.53103590 # HW2
120 30 3 -1.11280000 -0.409635991 -2.37207508 -4.80463886 # MW
121 31 1 0.0000 -4.71515083 4.71020508 2.65648293 # OW
122 31 2 0.5564 -4.83141184 3.76062489 2.68831491 # HW1
123 31 2 0.5564 -3.76829910 4.83812809 2.71427011 # HW2
124 31 3 -1.11280000 -4.60556507 4.60179710 2.66830707 # MW
125 32 1 0.0000 1.14731503 -4.82444191 4.82436895 # OW
126 32 2 0.5564 1.81021202 -4.62142277 4.16438198 # HW1
127 32 2 0.5564 0.563938022 -4.06557322 4.81991816 # HW2
128 32 3 -1.11280000 1.15780699 -4.69753313 4.73670483 # MW
129 33 1 0.0000 4.83331585 0.491926998 4.53402519 # OW
130 33 2 0.5564 4.26627111 1.20985198 4.81558418 # HW1
131 33 2 0.5564 4.32871723 3.81509997E-02 3.85896897 # HW2
132 33 3 -1.11280000 4.69192505 0.526777983 4.48210812 # MW
133 34 1 0.0000 -2.63057804 -0.305090010 0.269935012 # OW
134 34 2 0.5564 -2.05764389 0.411193997 -3.77100008E-03 # HW1
135 34 2 0.5564 -3.05956292 -0.590865016 -0.536623001 # HW2
136 34 3 -1.11280000 -2.61158609 -0.248289004 0.127407998 # MW
137 35 1 0.0000 4.62774181 -4.78856087 4.81308413 # OW
138 35 2 0.5564 4.83267117 -3.85379601 4.83431721 # HW1
139 35 2 0.5564 3.67122293 -4.82454395 4.81015921 # HW2
140 35 3 -1.11280000 4.52857924 -4.66997814 4.81549883 # MW
141 36 1 0.0000 4.90235806 3.08713698 -0.382009000 # OW
142 36 2 0.5564 4.00041294 2.76762009 -0.356779009 # HW1
143 36 2 0.5564 4.82286978 4.03720617 -0.296678990 # HW2
144 36 3 -1.11280000 4.77287006 3.17033100 -0.367422014 # MW
145 37 1 0.0000 -1.90807402 3.04226708 -4.90058613 # OW
146 37 2 0.5564 -1.09676301 2.87451792 -4.42114115 # HW1
147 37 2 0.5564 -2.54906106 2.45451808 -4.50068712 # HW2
148 37 3 -1.11280000 -1.88560200 2.94258809 -4.78456688 # MW
149 38 1 0.0000 -4.59706593 -2.00199199 -4.82086515 # OW
150 38 2 0.5564 -3.64110589 -2.05064988 -4.81843710 # HW1
151 38 2 0.5564 -4.81940699 -1.60711706 -3.97773409 # HW2
152 38 3 -1.11280000 -4.50027418 -1.95631301 -4.70930386 # MW
153 39 1 0.0000 -2.04364800 1.84398901 -2.08094692 # OW
154 39 2 0.5564 -2.79068995 2.21663690 -2.54923511 # HW1
155 39 2 0.5564 -1.66719699 2.58291698 -1.60292804 # HW2
156 39 3 -1.11280000 -2.09254289 1.99064803 -2.07966304 # MW
157 40 1 0.0000 2.74599195 4.87741899 0.866396010 # OW
158 40 2 0.5564 2.60482502 4.75824308 -7.28069991E-02 # HW1
159 40 2 0.5564 3.02831697 4.01740122 1.17767406 # HW2
160 40 3 -1.11280000 2.76461601 4.74822617 0.783549011 # MW
161 41 1 0.0000 2.62011504 3.55139089 -2.37776089 # OW
162 41 2 0.5564 2.32231402 4.46108580 -2.37875605 # HW1
163 41 2 0.5564 2.44466305 3.24240804 -1.48895395 # HW2
164 41 3 -1.11280000 2.55767488 3.63064694 -2.26062489 # MW
165 42 1 0.0000 -4.84441185 -4.23557281 -2.73169303 # OW
166 42 2 0.5564 -4.78380108 -4.81712389 -1.97382998 # HW1
167 42 2 0.5564 -4.82432699 -4.82300186 -3.48717594 # HW2
168 42 3 -1.11280000 -4.83376503 -4.38980579 -2.73137903 # MW
169 43 1 0.0000 2.95830894 -2.48433399 0.143304005 # OW
170 43 2 0.5564 3.00182104 -2.53453588 1.09819603 # HW1
171 43 2 0.5564 3.82942891 -2.75041008 -0.150947005 # HW2
172 43 3 -1.11280000 3.07898307 -2.52606297 0.230468005 # MW
173 44 1 0.0000 0.821699023 -2.80163693 2.53940010 # OW
174 44 2 0.5564 0.242160007 -2.04024100 2.51405001 # HW1
175 44 2 0.5564 1.70297396 -2.43099189 2.58639312 # HW2
176 44 3 -1.11280000 0.861509025 -2.65227795 2.54225612 # MW
177 45 1 0.0000 4.82836819 2.04559302 -3.88514209 # OW
178 45 2 0.5564 4.81180191 1.69179499 -2.99588108 # HW1
179 45 2 0.5564 3.90983796 2.21814394 -4.09192514 # HW2
180 45 3 -1.11280000 4.70499420 2.02168012 -3.79509711 # MW
181 46 1 0.0000 1.98568296 -4.83788681 -4.83384609 # OW
182 46 2 0.5564 1.77074206 -3.90513396 -4.83584595 # HW1
183 46 2 0.5564 2.94253492 -4.86366701 -4.83242893 # HW2
184 46 3 -1.11280000 2.08356905 -4.71822309 -4.83392286 # MW
185 47 1 0.0000 4.86613703 -2.16882491 2.75896692 # OW
186 47 2 0.5564 4.83643484 -2.38209105 1.82630098 # HW1
187 47 2 0.5564 4.36849022 -2.86902308 3.18122506 # HW2
188 47 3 -1.11280000 4.79655981 -2.28934503 2.69162512 # MW
189 48 1 0.0000 -4.83605385 -2.36502004 -0.282640010 # OW
190 48 2 0.5564 -4.75740480 -3.31352592 -0.384535998 # HW1
191 48 2 0.5564 -4.76358080 -2.02117300 -1.17300403 # HW2
192 48 3 -1.11280000 -4.81611490 -2.44479704 -0.413556010 # MW
193 49 1 0.0000 0.199329004 4.62619686 -0.827695012 # OW
194 49 2 0.5564 -0.448215991 4.11993790 -0.337166011 # HW1
195 49 2 0.5564 -0.240231007 4.84639978 -1.64899302 # HW2
196 49 3 -1.11280000 5.58990017E-02 4.58845615 -0.871335983 # MW
197 50 1 0.0000 -2.69163299 -4.82502222 -4.83656216 # OW
198 50 2 0.5564 -2.93163109 -3.89860296 -4.81706810 # HW1
199 50 2 0.5564 -1.73446405 -4.82518196 -4.82879686 # HW2
200 50 3 -1.11280000 -2.59701109 -4.70281315 -4.83296585 # MW
201 51 1 0.0000 -0.144167006 -4.60146284 -2.63746595 # OW
202 51 2 0.5564 0.767795026 -4.81231785 -2.43722510 # HW1
203 51 2 0.5564 -0.202502996 -4.66935205 -3.59047198 # HW2
204 51 3 -1.11280000 -3.15419994E-02 -4.63823986 -2.73678398 # MW
205 52 1 0.0000 -0.887594998 -1.74526596 4.85780382 # OW
206 52 2 0.5564 -0.755376995 -2.62405491 4.50216389 # HW1
207 52 2 0.5564 -0.204771996 -1.21490896 4.44706488 # HW2
208 52 3 -1.11280000 -0.780059993 -1.79123700 4.75669003 # MW
209 53 1 0.0000 3.25951290 -4.84782124 2.07701302 # OW
210 53 2 0.5564 4.17216587 -4.60117483 2.22688389 # HW1
211 53 2 0.5564 3.15106702 -4.80072403 1.12714303 # HW2
212 53 3 -1.11280000 3.36561799 -4.80906582 1.97146297 # MW
213 54 1 0.0000 -4.83454704 4.57579279 -0.406800985 # OW
214 54 2 0.5564 -4.82623005 3.61918306 -0.374242991 # HW1
215 54 2 0.5564 -3.91279197 4.82608223 -0.343912005 # HW2
216 54 3 -1.11280000 -4.71183491 4.48260307 -0.394208014 # MW
217 55 1 0.0000 -4.91800020E-03 4.51672983 4.91237688 # OW
218 55 2 0.5564 0.463564008 4.82602882 4.13707685 # HW1
219 55 2 0.5564 -7.40329996E-02 3.57000589 4.78921986 # HW2
220 55 3 -1.11280000 4.77739982E-02 4.43263006 4.79383707 # MW
221 56 1 0.0000 -4.82611179 -1.76082504 3.09396195 # OW
222 56 2 0.5564 -4.84231806 -1.57438004 4.03268909 # HW1
223 56 2 0.5564 -4.15363121 -2.43473291 2.99471092 # HW2
224 56 3 -1.11280000 -4.73952389 -1.82514000 3.20472097 # MW
225 57 1 0.0000 3.95081711 4.83127785 -4.82883215 # OW
226 57 2 0.5564 3.31608200 4.11962509 -4.74580908 # HW1
227 57 2 0.5564 4.80320787 4.39630222 -4.80745792 # HW2
228 57 3 -1.11280000 3.97953391 4.67999411 -4.81505823 # MW
229 58 1 0.0000 -2.59313393 -2.16795993 -2.45378709 # OW
230 58 2 0.5564 -2.58856106 -3.10819411 -2.63314891 # HW1
231 58 2 0.5564 -1.70442402 -1.97647202 -2.15418911 # HW2
232 58 3 -1.11280000 -2.47527599 -2.26674795 -2.43792295 # MW
233 59 1 0.0000 -4.62833691 4.81631994 -4.82069016 # OW
234 59 2 0.5564 -4.84005594 3.88284302 -4.81542921 # HW1
235 59 2 0.5564 -3.67158008 4.84541178 -4.81972980 # HW2
236 59 3 -1.11280000 -4.53003788 4.69699812 -4.81986904 # MW
237 60 1 0.0000 2.73397899 0.737652004 -1.15991998 # OW
238 60 2 0.5564 3.35704589 1.05484796 -1.81368303 # HW1
239 60 2 0.5564 2.69692206 -0.208109006 -1.30273104 # HW2
240 60 3 -1.11280000 2.81129599 0.654721022 -1.26501799 # MW
241 61 1 0.0000 3.05601406 4.71414709 4.81802607 # OW
242 61 2 0.5564 3.28540111 4.82999897 3.89596796 # HW1
243 61 2 0.5564 2.45756602 3.96711898 4.82441998 # HW2
244 61 3 -1.11280000 3.00732088 4.63087082 4.69721508 # MW
245 62 1 0.0000 -4.81888294 -4.28592014 4.83712721 # OW
246 62 2 0.5564 -4.26860380 -3.50272012 4.83251286 # HW1
247 62 2 0.5564 -4.46070623 -4.83499002 4.13965702 # HW2
248 62 3 -1.11280000 -4.69902277 -4.25503016 4.74449492 # MW
249 63 1 0.0000 0.285784006 5.71600022E-03 -2.86083388 # OW
250 63 2 0.5564 -6.16090000E-02 -0.884370983 -2.91822696 # HW1
251 63 2 0.5564 1.22682703 -9.42070037E-02 -3.00465703 # HW2
252 63 3 -1.11280000 0.364109010 -0.124903001 -2.88738203 # MW
253 64 1 0.0000 3.36424398 -0.482838988 -4.82125902 # OW
254 64 2 0.5564 3.45543098 -9.47479978E-02 -3.95102692 # HW1
255 64 2 0.5564 2.52004910 -0.933308005 -4.79587889 # HW2
256 64 3 -1.11280000 3.26489401 -0.491068989 -4.70309401 # MW

Bonds

1 1 1 2 # OW HW1
2 1 1 3 # OW HW2
3 1 5 6 # OW HW1
4 1 5 7 # OW HW2
5 1 9 10 # OW HW1
6 1 9 11 # OW HW2
7 1 13 14 # OW HW1
8 1 13 15 # OW HW2
9 1 17 18 # OW HW1
10 1 17 19 # OW HW2
11 1 21 22 # OW HW1
12 1 21 23 # OW HW2
13 1 25 26 # OW HW1
14 1 25 27 # OW HW2
15 1 29 30 # OW HW1
16 1 29 31 # OW HW2
17 1 33 34 # OW HW1
18 1 33 35 # OW HW2
19 1 37 38 # OW HW1
20 1 37 39 # OW HW2
21 1 41 42 # OW HW1
22 1 41 43 # OW HW2
23 1 45 46 # OW HW1
24 1 45 47 # OW HW2
25 1 49 50 # OW HW1
26 1 49 51 # OW HW2
27 1 53 54 # OW HW1
28 1 53 55 # OW HW2
29 1 57 58 # OW HW1
30 1 57 59 # OW HW2
31 1 61 62 # OW HW1
32 1 61 63 # OW HW2
33 1 65 66 # OW HW1
34 1 65 67 # OW HW2
35 1 69 70 # OW HW1
36 1 69 71 # OW HW2
37 1 73 74 # OW HW1
38 1 73 75 # OW HW2
39 1 77 78 # OW HW1
40 1 77 79 # OW HW2
41 1 81 82 # OW HW1
42 1 81 83 # OW HW2
43 1 85 86 # OW HW1
44 1 85 87 # OW HW2
45 1 89 90 # OW HW1
46 1 89 91 # OW HW2
47 1 93 94 # OW HW1
48 1 93 95 # OW HW2
49 1 97 98 # OW HW1
50 1 97 99 # OW HW2
51 1 101 102 # OW HW1
52 1 101 103 # OW HW2
53 1 105 106 # OW HW1
54 1 105 107 # OW HW2
55 1 109 110 # OW HW1
56 1 109 111 # OW HW2
57 1 113 114 # OW HW1
58 1 113 115 # OW HW2
59 1 117 118 # OW HW1
60 1 117 119 # OW HW2
61 1 121 122 # OW HW1
62 1 121 123 # OW HW2
63 1 125 126 # OW HW1
64 1 125 127 # OW HW2
65 1 129 130 # OW HW1
66 1 129 131 # OW HW2
67 1 133 134 # OW HW1
68 1 133 135 # OW HW2
69 1 137 138 # OW HW1
70 1 137 139 # OW HW2
71 1 141 142 # OW HW1
72 1 141 143 # OW HW2
73 1 145 146 # OW HW1
74 1 145 147 # OW HW2
75 1 149 150 # OW HW1
76 1 149 151 # OW HW2
77 1 153 154 # OW HW1
78 1 153 155 # OW HW2
79 1 157 158 # OW HW1
80 1 157 159 # OW HW2
81 1 161 162 # OW HW1
82 1 161 163 # OW HW2
83 1 165 166 # OW HW1
84 1 165 167 # OW HW2
85 1 169 170 # OW HW1
86 1 169 171 # OW HW2
87 1 173 174 # OW HW1
88 1 173 175 # OW HW2
89 1 177 178 # OW HW1
90 1 177 179 # OW HW2
91 1 181 182 # OW HW1
92 1 181 183 # OW HW2
93 1 185 186 # OW HW1
94 1 185 187 # OW HW2
95 1 189 190 # OW HW1
96 1 189 191 # OW HW2
97 1 193 194 # OW HW1
98 1 193 195 # OW HW2
99 1 197 198 # OW HW1
100 1 197 199 # OW HW2
101 1 201 202 # OW HW1
102 1 201 203 # OW HW2
103 1 205 206 # OW HW1
104 1 205 207 # OW HW2
105 1 209 210 # OW HW1
106 1 209 211 # OW HW2
107 1 213 214 # OW HW1
108 1 213 215 # OW HW2
109 1 217 218 # OW HW1
110 1 217 219 # OW HW2
111 1 221 222 # OW HW1
112 1 221 223 # OW HW2
113 1 225 226 # OW HW1
114 1 225 227 # OW HW2
115 1 229 230 # OW HW1
116 1 229 231 # OW HW2
117 1 233 234 # OW HW1
118 1 233 235 # OW HW2
119 1 237 238 # OW HW1
120 1 237 239 # OW HW2
121 1 241 242 # OW HW1
122 1 241 243 # OW HW2
123 1 245 246 # OW HW1
124 1 245 247 # OW HW2
125 1 249 250 # OW HW1
126 1 249 251 # OW HW2
127 1 253 254 # OW HW1
128 1 253 255 # OW HW2

Angles

1 1 2 1 3 # HW1 OW HW2
2 1 6 5 7 # HW1 OW HW2
3 1 10 9 11 # HW1 OW HW2
4 1 14 13 15 # HW1 OW HW2
5 1 18 17 19 # HW1 OW HW2
6 1 22 21 23 # HW1 OW HW2
7 1 26 25 27 # HW1 OW HW2
8 1 30 29 31 # HW1 OW HW2
9 1 34 33 35 # HW1 OW HW2
10 1 38 37 39 # HW1 OW HW2
11 1 42 41 43 # HW1 OW HW2
12 1 46 45 47 # HW1 OW HW2
13 1 50 49 51 # HW1 OW HW2
14 1 54 53 55 # HW1 OW HW2
15 1 58 57 59 # HW1 OW HW2
16 1 62 61 63 # HW1 OW HW2
17 1 66 65 67 # HW1 OW HW2
18 1 70 69 71 # HW1 OW HW2
19 1 74 73 75 # HW1 OW HW2
20 1 78 77 79 # HW1 OW HW2
21 1 82 81 83 # HW1 OW HW2
22 1 86 85 87 # HW1 OW HW2
23 1 90 89 91 # HW1 OW HW2
24 1 94 93 95 # HW1 OW HW2
25 1 98 97 99 # HW1 OW HW2
26 1 102 101 103 # HW1 OW HW2
27 1 106 105 107 # HW1 OW HW2
28 1 110 109 111 # HW1 OW HW2
29 1 114 113 115 # HW1 OW HW2
30 1 118 117 119 # HW1 OW HW2
31 1 122 121 123 # HW1 OW HW2
32 1 126 125 127 # HW1 OW HW2
33 1 130 129 131 # HW1 OW HW2
34 1 134 133 135 # HW1 OW HW2
35 1 138 137 139 # HW1 OW HW2
36 1 142 141 143 # HW1 OW HW2
37 1 146 145 147 # HW1 OW HW2
38 1 150 149 151 # HW1 OW HW2
39 1 154 153 155 # HW1 OW HW2
40 1 158 157 159 # HW1 OW HW2
41 1 162 161 163 # HW1 OW HW2
42 1 166 165 167 # HW1 OW HW2
43 1 170 169 171 # HW1 OW HW2
44 1 174 173 175 # HW1 OW HW2
45 1 178 177 179 # HW1 OW HW2
46 1 182 181 183 # HW1 OW HW2
47 1 186 185 187 # HW1 OW HW2
48 1 190 189 191 # HW1 OW HW2
49 1 194 193 195 # HW1 OW HW2
50 1 198 197 199 # HW1 OW HW2
51 1 202 201 203 # HW1 OW HW2
52 1 206 205 207 # HW1 OW HW2
53 1 210 209 211 # HW1 OW HW2
54 1 214 213 215 # HW1 OW HW2
55 1 218 217 219 # HW1 OW HW2
56 1 222 221 223 # HW1 OW HW2
57 1 226 225 227 # HW1 OW HW2
58 1 230 229 231 # HW1 OW HW2
59 1 234 233 235 # HW1 OW HW2
60 1 238 237 239 # HW1 OW HW2
61 1 242 241 243 # HW1 OW HW2
62 1 246 245 247 # HW1 OW HW2
63 1 250 249 251 # HW1 OW HW2
64 1 254 253 255 # HW1 OW HW2
