135
Time=99999.99999996 pbc="T T T" Lattice="11.12194768 0.00000000 0.00000000 0.00000000 11.12194768 0.00000000 0.00000000 0.00000000 11.12194768" energy=-902.49299965 virial="299.29761681 -27.17273845 24.89307755 -27.17273845 233.85882462 -7.18317249 24.89307755 -7.18317249 257.21357779" stress="0.24291879 -0.01975108 0.01809406 -0.01975108 0.19535322 -0.00522124 0.01809406 -0.00522124 0.21232912" Properties=species:S:1:pos:R:3
Ca 1.38395902 1.65352051 9.18734497
Ca 8.23731170 4.28304930 1.14048988
Ca 0.46848794 10.10677692 6.24620248
Ca 8.77204535 8.19737661 4.70294392
Ca 5.68371875 0.88766354 2.41044920
Ca 2.26707216 10.24974470 1.04168583
Ca 8.47431936 4.80275481 6.58465653
Ca 9.73690972 5.88550309 9.43185793
Ca 0.49441916 3.45774489 6.90233303
Ca 2.30379255 7.37110015 3.94703617
Ca 6.01158925 9.48112496 0.47956864
Ca 3.02667115 7.24308919 0.58977063
Ca 6.43239622 5.79560144 8.96238702
Ca 9.20924745 0.96158500 5.69693388
Ca 8.83959531 10.28523132 2.26726363
Ca 6.32011312 8.74184432 5.86796443
Ca 0.04919066 6.34548615 6.38547402
Ca 10.52855232 10.63359153 10.49808207
Ca 3.28134540 0.66286369 6.90044144
Ca 2.50115856 2.79099069 1.22335127
Ca 6.61159031 2.82343727 8.20532813
Ca 3.28847387 6.12163735 7.14114350
Ca 0.24723345 4.86191432 1.72387043
Ca 1.43166497 8.49860325 8.61345133
Ca 4.43696338 4.77585638 3.00874835
Ca 7.69810639 2.79290677 3.50038889
Ca 4.70475214 2.72094981 5.75446001
Si 10.23941430 4.56031430 4.03727127
Si 5.90169677 3.30811960 0.56739014
Si 9.43988602 3.33043771 8.80990036
Si 4.20904246 1.23785897 10.23146668
Si 0.02872603 1.85591880 3.27810089
Si 0.05652777 9.84259743 3.46367148
Si 7.28932677 5.92418343 3.45622264
Si 6.32828746 6.32317920 0.42692025
Si 3.77064218 3.48465019 8.56591383
Si 10.39570170 0.71988386 7.98791040
Si 11.08665520 7.74677456 10.86859836
Si 5.14093686 8.17780399 2.90297822
Si 3.26617820 9.00205616 6.70817125
Si 3.25086830 9.91304507 3.92933257
Si 8.55024388 7.86065667 0.80484623
Si 3.89634221 4.69116546 10.60864602
Si 2.06773755 4.13886819 4.11896272
Si 1.45671532 5.20385101 9.56062240
Si 10.97709602 7.33311125 3.22413633
Si 4.93325490 9.41301608 9.01331458
Si 8.77591989 8.45369861 7.76864123
Si 6.08853868 5.42838577 5.79267330
Si 3.20469077 1.39586340 3.73989788
Si 7.70101018 10.42733186 8.19629527
Si 10.70711439 2.09171404 0.01685152
Si 7.72307410 1.23069391 10.96245874
Si 6.60698214 0.30968674 5.37795342
O 5.64011732 6.63671639 6.76477044
O 4.92135265 9.86874097 6.93715089
O 3.27879600 2.45147797 9.67534291
O 8.00268962 4.26173408 8.85090529
O 3.80932577 8.24203140 8.20833156
O 1.51373300 9.59416023 4.18214161
O 9.44027543 4.07505422 2.90243897
O 9.65257378 1.47616794 3.30455659
O 5.12919368 0.37368581 5.12163123
O 3.83591782 8.77313186 5.25779907
O 6.52170553 2.93211293 1.91386476
O 3.60986742 8.87441629 2.61142444
O 10.22797143 10.49002002 4.46917259
O 10.53201837 4.46095389 8.25990934
O 1.24881092 7.30437090 1.96069910
O 4.59727966 2.35692163 7.61294153
O 5.06031111 0.23242179 9.02275163
O 2.32230258 4.50695833 2.63476137
O 7.11751791 11.01557796 6.77187466
O 10.21442792 8.53365388 2.45473495
O 1.34845060 6.17128235 8.27052513
O 1.99669602 7.72225364 6.38321658
O 1.28180230 8.63493536 11.10135647
O 1.62171347 4.95877700 5.41069300
O 6.32361253 7.44591253 3.69879478
O 9.13338627 0.15044890 7.52904803
O 6.79487181 1.91500901 5.32564351
O 3.54699962 11.02987411 2.72896282
O 2.48509054 3.56911703 7.48468297
O 9.69544024 8.84340181 0.23290480
O 0.86517882 0.99449159 0.11510664
O 7.09171963 0.17213261 1.24066934
O 2.16548642 10.10570174 6.99962030
O 7.50971385 6.67642129 5.62647678
O 4.79059171 6.31121136 10.60885160
O 1.71071558 1.67937833 3.09892456
O 4.19919174 6.78987603 3.44363669
O 9.20121121 1.31695015 0.55162475
O 8.88110161 6.11700175 3.55643497
O 1.09456682 3.63116639 9.83064461
O 11.06222304 5.76890929 3.57008510
O 0.11016717 8.10628397 4.73176354
O 0.66920378 6.33915026 10.34787725
O 5.53489520 7.49200418 1.30670184
O 6.75608092 4.64660747 4.30098757
O 9.65434999 6.48241287 0.60048969
O 2.45542275 5.10996363 10.99685779
O 0.34343749 3.33455641 4.13838852
O 5.84884142 9.72728417 2.71909596
O 2.67204298 2.85505583 5.03253663
O 7.28419535 5.89074272 1.76075515
O 7.65406654 0.38324139 9.62753974
O 0.18496368 10.72240383 2.10804908
O 10.39651921 1.97545712 9.28645474
O 5.08284871 1.91917076 0.30548668
O 7.30881210 2.68181670 10.70656922
O 7.41615821 7.10841225 10.74167836
O 7.47950242 10.32942742 4.42177676
O 8.33712518 6.75144103 8.25862523
O 4.09500266 9.13580553 10.34075805
O 0.21993797 2.68853567 1.60124849
O 2.70852171 0.60867873 10.97593202
O 6.64118603 4.76037600 11.04136535
O 6.41838936 4.18864809 6.81306905
O 7.49382793 8.45261865 1.75333841
O 4.45274711 4.84536549 5.20445793
O 8.69565536 9.46251638 8.93434326
O 8.17531450 9.09147529 6.59553611
O 4.48740850 4.08443592 1.03355258
O 2.64664368 0.32731024 4.91387633
O 3.51395792 4.99288849 8.97584297
O 10.67272139 8.08367065 9.44320473
O 6.41280486 9.00414753 8.51370383
O 9.71350717 3.55091303 10.88292183
O 10.03465967 4.48344290 5.58677251
O 5.15084705 4.03345385 9.72892960
O 4.10049011 2.44060000 3.02840683
O 9.20484040 2.58976869 7.34498984
O 10.22110049 8.33294441 6.83460428
O 0.34229723 1.11138454 6.77858705
O 0.27217181 10.71365092 8.63854559
135
Time=199999.99999918 pbc="T T T" Lattice="11.12194768 0.00000000 0.00000000 0.00000000 11.12194768 0.00000000 0.00000000 0.00000000 11.12194768" energy=-900.11317895 virial="220.00497203 3.57263847 -2.80456435 3.57263847 262.07395115 -6.61376758 -2.80456435 -6.61376758 229.48522233" stress="0.18528325 0.00259685 -0.00203856 0.00259685 0.21586198 -0.00480736 -0.00203856 -0.00480736 0.19217418" Properties=species:S:1:pos:R:3
Ca 2.63703593 7.88164675 4.13941969
Ca 5.96885333 1.36756891 8.96936211
Ca 7.09675534 0.25188798 3.08517545
Ca 5.13378879 5.95018471 1.76454055
Ca 0.06911664 9.62010520 6.06897161
Ca 8.48651987 0.55047552 8.20146838
Ca 0.01276536 2.13488229 7.79230485
Ca 3.70623749 7.90772683 10.09999081
Ca 3.60820375 0.01681613 0.59885032
Ca 10.02396287 5.58262819 10.07229046
Ca 7.63426978 7.70781482 2.78375258
Ca 7.63641563 7.36416026 6.94185391
Ca 2.28244431 4.06310546 1.95452934
Ca 9.25900995 8.00038442 0.59360181
Ca 1.54981661 5.16952871 5.47510704
Ca 0.60215798 8.25409109 9.43402457
Ca 2.69286919 0.25032057 7.65249834
Ca 10.30625100 6.85099797 4.18901223
Ca 9.55794019 4.01278603 6.27453075
Ca 1.25202865 0.58393402 2.45275068
Ca 8.82542310 9.37686500 8.99987565
Ca 10.85236973 2.63644656 0.79379245
Ca 5.41377538 2.57627552 1.34595679
Ca 0.98425922 8.73641344 1.41686203
Ca 5.62092661 10.86519606 5.89574158
Ca 4.18430887 4.26537640 9.47263322
Ca 4.84313754 6.14164085 6.73303060
Si 5.51328657 8.50975653 4.53076978
Si 6.84356322 4.00336021 7.77547827
Si 7.18274616 5.34559529 4.55659641
Si 3.49701172 2.93242778 6.60894491
Si 1.43989746 2.14935220 4.81847649
Si 4.05186932 1.55281028 3.46124252
Si 10.11748099 3.60530796 3.59737770
Si 7.90827949 9.34523827 4.96367814
Si 8.52592942 3.35388861 9.93446738
Si 0.02536072 5.96309982 1.67744063
Si 2.94382315 8.72580367 6.98294785
Si 10.69518999 6.61852175 7.24123095
Si 2.50370827 2.43708156 10.00278778
Si 9.44544721 11.11842018 0.10915437
Si 6.83302435 10.44716394 0.16117700
Si 7.97013372 2.33315833 1.21797985
Si 10.22284948 10.08504329 3.17721703
Si 4.41529503 9.54310572 2.78395418
Si 9.54857168 1.22001463 5.04060934
Si 7.72734247 5.39778418 1.27359405
Si 1.68287882 4.89284628 8.39896270
Si 5.39389874 9.34949530 8.55181688
Si 2.57080863 5.84532353 0.21501267
Si 4.54411071 4.65843023 4.41280042
Si 6.54093545 2.03716705 5.34517383
Si 0.98731903 0.18764086 10.49077296
Si 6.75278124 7.19475149 10.14681242
O 10.65605128 0.89650174 10.10638789
O 7.29786158 6.92560353 0.82394655
O 9.56801877 6.17224834 1.70545869
O 8.08177434 9.97670932 0.87471938
O 5.67800348 5.89630058 4.48576075
O 6.52929461 4.65816377 0.77843696
O 9.04918836 3.52859402 1.73475720
O 9.35483799 0.45434171 3.42857903
O 6.16074189 4.11159828 9.18896847
O 1.80876542 2.14315328 6.70768436
O 3.00879268 5.37482040 4.03509593
O 2.65123383 1.04263456 4.49242080
O 2.08269655 10.03366090 10.47488842
O 8.10839471 9.26709206 6.74787756
O 6.32306833 8.83336431 10.49697622
O 9.34757510 1.87796879 6.55840042
O 11.03489215 11.03103929 0.95378552
O 8.42302549 3.43554225 8.26086276
O 9.45832849 5.77128979 7.12689233
O 4.96183012 3.89918678 3.07931758
O 5.30796734 1.93787956 4.26984782
O 6.08128141 7.97109489 5.81341898
O 7.81467786 0.03984372 10.20553825
O 8.08760956 7.56438878 4.92711015
O 7.41542873 5.71511671 2.98448629
O 4.79835397 3.93456829 6.18804518
O 0.35799589 4.42631677 7.53743117
O 4.64482626 0.03068275 3.05924160
O 10.83355850 10.74398769 7.90783013
O 6.66062988 2.45110337 7.10631157
O 7.53472663 2.46675820 10.88376632
O 9.15553357 1.13402799 1.19405272
O 4.56217150 9.53685863 7.20466250
O 5.98112285 0.33094351 0.98582375
O 10.10434407 8.48217176 2.67425701
O 1.90210681 1.49787095 0.01557160
O 2.93133302 4.62430691 7.43687512
O 11.03966332 3.46860630 4.93792274
O 3.30234179 1.78721476 1.95759870
O 1.57709878 1.10866993 9.11473270
O 0.85226300 6.95171022 2.74743068
O 3.62169051 4.82407286 0.68350962
O 0.12917941 6.84086707 0.20268220
O 0.36689695 2.35930074 2.93291568
O 2.26431608 9.87662951 6.06085158
O 1.11848113 5.04721398 0.67595990
O 3.60636342 2.48874363 8.36237402
O 0.63629486 6.27916325 8.59462155
O 7.38578479 0.75589821 5.32634604
O 3.28185249 7.59607988 6.05047940
O 6.87859081 10.77156034 7.74795172
O 4.57475685 7.80539740 3.35963551
O 5.39891265 6.41576728 10.23600554
O 4.78824029 10.37511198 9.50332092
O 5.78319816 7.71671020 8.45572329
O 2.94955066 9.62152199 2.15048923
O 8.33409199 4.78082781 10.65752259
O 4.25754551 1.41006862 6.47038720
O 6.92218652 2.15350513 2.56122685
O 6.89659862 5.38454475 6.76647350
O 0.05253379 1.12143907 4.93667213
O 9.36120707 9.87116338 4.78837293
O 10.32143776 9.69561567 10.47227464
O 8.17984267 7.53918479 9.39150764
O 10.18020402 3.28247966 10.14503601
O 9.07362708 5.11522280 4.43840100
O 5.77904874 9.32810078 1.75630482
O 7.05013644 3.75915481 4.99616801
O 2.81830242 3.07074777 4.61814963
O 4.48176210 9.69551693 4.74618770
O 2.85381693 5.84085338 9.81374878
O 6.85213419 9.26473569 3.73659498
O 0.48827078 7.08617902 5.92170488
O 10.01287606 7.98474922 8.02523525
O 4.03146922 2.59009447 10.71040707
O 1.53530710 3.65151427 9.41652110
O 0.60801228 10.15314695 3.50109901
O 2.54233923 7.40062535 0.63302554
O 2.49094062 7.90135638 8.30247151
O 8.93782527 2.46501123 4.23631651
O 11.04346082 4.58881979 2.85370914
135
Time=299999.99999840 pbc="T T T" Lattice="11.12194768 0.00000000 0.00000000 0.00000000 11.12194768 0.00000000 0.00000000 0.00000000 11.12194768" energy=-901.62939023 virial="263.66047648 -3.91957279 21.44838583 -3.91957279 212.59730273 12.00618359 21.44838583 12.00618359 243.37782253" stress="0.21701518 -0.00284902 0.01559021 -0.00284902 0.17989883 0.00872695 0.01559021 0.00872695 0.20227231" Properties=species:S:1:pos:R:3
Ca 5.26429118 10.30053068 5.79455857
Ca 4.91625563 5.25116930 6.07249909
Ca 7.22535960 7.80696097 0.29731804
Ca 8.56775187 4.27287831 10.96724866
Ca 5.45148391 6.90222630 3.50530230
Ca 5.58037837 2.52700251 6.89283044
Ca 0.45943861 7.73805124 9.44427430
Ca 0.58014183 2.10054053 3.06814738
Ca 4.91898713 1.45279599 1.11176921
Ca 1.06302677 3.97333389 0.60948465
Ca 9.24698921 9.83604578 10.18417248
Ca 8.48735841 1.51873193 1.68260134
Ca 3.78300299 1.78007067 3.88996543
Ca 2.05187033 6.91541295 3.29947587
Ca 1.98193194 4.44973279 5.55018415
Ca 0.46025947 10.14793402 1.87660327
Ca 11.02501066 4.19695053 8.89239613
Ca 8.59634524 3.13720476 4.32572425
Ca 4.87572185 0.01673773 9.22818608
Ca 1.63389296 10.80253973 9.07210099
Ca 8.88425308 1.97570028 8.24631590
Ca 10.68985653 5.67424749 6.11695110
Ca 5.41098774 4.67655659 10.16526837
Ca 7.95153444 9.43128874 3.07182644
Ca 5.82013305 7.48065075 8.69763514
Ca 10.61987881 8.37173698 4.37100107
Ca 3.40311049 8.76862833 0.43465325
Si 3.47011751 8.25026635 7.81074536
Si 2.75795740 2.03659993 7.25391157
Si 6.49511496 3.92721016 2.03702462
Si 10.77001099 4.76113816 3.25950792
Si 6.98641563 1.79466786 10.30084529
Si 6.64461333 1.28228998 3.92455020
Si 0.21579994 1.95582204 6.53583739
Si 10.73311948 6.93636982 0.82975368
Si 2.90387206 5.26049723 8.24945352
Si 9.06073379 6.44928219 9.00101061
Si 10.41100979 1.69162747 10.75673184
Si 6.18944031 9.92751048 0.65568364
Si 3.74543534 4.39312565 2.33030508
Si 2.11915202 0.79408740 0.44336837
Si 7.63640826 5.02668546 7.50903416
Si 7.65638295 10.72003556 6.69099072
Si 3.23939526 3.05716093 9.67114498
Si 3.09140415 6.27724967 10.95852512
Si 9.66126841 0.29665725 4.86544030
Si 10.30541011 10.31314531 7.36562154
Si 8.26900637 5.96123348 2.68175163
Si 7.47156258 6.21347712 4.79161570
Si 2.33934188 7.60173867 5.93206568
Si 4.90494717 9.57111881 2.60275302
Si 1.81513572 10.59652612 5.72280543
Si 2.69312420 10.05291110 3.29332629
Si 8.45125916 8.08996295 6.70254439
O 1.41428027 1.68003386 7.87336019
O 3.57248048 3.43220891 0.10914062
O 11.00569738 5.61014317 10.78697746
O 3.50262952 4.90973997 3.85969440
O 0.95066478 6.95352372 5.31065454
O 11.10656156 4.11630061 4.63896353
O 4.30997833 10.71305516 3.70159224
O 8.32034626 0.53862698 3.90298875
O 5.85559527 9.17475097 10.36659108
O 6.71697144 4.80082786 4.00949756
O 1.89768154 10.52929081 0.11539238
O 9.80179945 0.36441137 0.98612498
O 10.06920645 3.52125201 2.46828275
O 6.52149359 0.41979416 10.80943702
O 10.44979765 3.17823106 7.19374651
O 8.56134000 4.92722039 8.85412081
O 3.83872935 3.94046629 8.35846117
O 6.81614894 3.22159640 0.21351049
O 1.53424786 5.21771609 7.37286302
O 10.65694616 0.75836874 9.51540731
O 4.45241289 8.06405216 6.70525796
O 2.24213705 9.09458828 5.22511378
O 6.33808018 0.36810478 2.57058964
O 8.11080749 5.07469060 5.87703875
O 9.01074342 9.81679322 5.64681109
O 5.68338778 1.08323137 5.07922936
O 3.41647322 9.27895347 9.02179746
O 0.06279138 6.68674201 2.33869553
O 10.52851938 6.19472268 8.17051919
O 10.70644688 8.69515492 0.43272915
O 5.02399386 3.26158815 2.49754075
O 9.91479928 8.41712924 7.36727206
O 5.80531498 8.49380925 1.66923697
O 0.31966388 10.11411496 6.03193669
O 2.01375234 7.97381968 7.51569920
O 7.93339750 1.10066831 5.94943884
O 9.51274906 5.77072998 3.70992315
O 5.98431703 5.30839558 7.83612489
O 2.19194935 5.67869814 9.77809878
O 6.47108929 6.92283151 5.78640150
O 5.98959502 1.91547643 9.24670256
O 5.52737783 5.26798477 1.42674561
O 7.36850662 7.12231611 3.35339460
O 10.38121293 0.80985694 6.77812329
O 4.60687586 6.69763820 10.64438966
O 7.07492220 2.58205064 3.07079654
O 3.78947471 3.15012134 5.94881362
O 4.65605947 10.31208334 1.13895229
O 10.24423834 2.92191593 0.53369847
O 1.64747702 1.98097387 5.45316840
O 7.93623075 4.49230150 1.89234591
O 3.81544935 1.72766768 8.25747016
O 1.58026288 3.24267943 9.54617206
O 2.56747108 0.22831105 2.20379659
O 5.79907046 8.91765433 4.11302013
O 8.96183082 7.18920457 5.27177743
O 7.66887076 3.44270657 7.20311951
O 7.25134455 6.28088068 10.05741253
O 0.81397934 1.71405335 0.23265995
O 1.33541779 4.96863697 2.64661028
O 3.35729058 6.63337046 5.26435962
O 10.52937842 1.59621082 4.86729168
O 3.11250672 5.80572096 1.44027695
O 6.11558449 11.07816197 7.50492038
O 10.20516536 10.35068569 3.45418957
O 11.09637973 9.67840604 8.86118807
O 9.39826796 7.77742867 9.85563246
O 8.70136351 1.70992328 10.29987592
O 1.49914346 8.84179171 2.99914682
O 8.01174725 6.95810384 7.83164247
O 8.94201704 6.73190442 1.11742971
O 2.76158541 2.77959477 2.11412317
O 1.72851497 7.38771649 0.27590378
O 3.74265504 8.25949439 2.53381063
O 8.70160679 10.57214107 7.86973985
O 2.96348591 11.01484431 6.80252581
O 1.93236321 0.26347893 4.13237004
O 3.37632114 1.02366849 10.47816099
O 7.25255417 9.14158744 7.23135948
O 3.99309592 6.29805964 7.89737143
O 7.74566323 10.04187290 1.15208571
135
Time=400000.00000008 pbc="T T T" Lattice="11.12194768 0.00000000 0.00000000 0.00000000 11.12194768 0.00000000 0.00000000 0.00000000 11.12194768" energy=-916.59321514 virial="187.31880255 -8.35060448 -0.01761085 -8.35060448 200.53090243 -3.77797142 -0.01761085 -3.77797142 190.47923628" stress="0.16152462 -0.00606981 -0.00001280 -0.00606981 0.17112811 -0.00274610 -0.00001280 -0.00274610 0.16382185" Properties=species:S:1:pos:R:3
Ca 7.00991812 9.38888499 5.96590936
Ca 2.78065619 5.93501664 5.99223071
Ca 1.32152649 0.12678472 4.31024345
Ca 9.61553704 3.49156682 10.96842025
Ca 0.92439993 8.20154241 5.02909027
Ca 7.27163535 1.44809451 5.63055959
Ca 0.47435773 9.64035501 9.79817498
Ca 1.08899627 4.54501429 8.42152134
Ca 3.36249631 1.92556177 9.93031818
Ca 10.78263981 5.29141092 2.50874524
Ca 8.28491344 0.14865011 8.65272156
Ca 7.01559299 1.73838289 2.15356478
Ca 4.63193387 0.42075532 4.30121973
Ca 2.26949649 7.14441477 10.43961219
Ca 2.26047097 3.40061487 3.59851092
Ca 0.85879501 1.30061871 1.12929571
Ca 3.96303123 5.19137812 9.17662595
Ca 8.32108858 4.38413980 5.05725133
Ca 7.33863778 5.81452229 9.65490892
Ca 1.96807744 10.66447187 7.06717086
Ca 10.65754561 2.07817736 6.03837109
Ca 9.44732390 6.69696966 7.66432341
Ca 4.34150388 4.94431146 1.13572261
Ca 5.80535068 7.32465129 3.33662219
Ca 5.32641107 3.31740792 7.37856759
Ca 9.24846601 9.94896774 3.80492058
Ca 5.78132409 10.85902875 11.02018167
Si 8.60267029 8.62936170 10.40395520
Si 2.48886179 2.84765103 6.56680322
Si 6.09749373 6.32995736 6.15119858
Si 11.09228340 8.54958744 1.82233073
Si 6.78288669 3.15021088 10.64231201
Si 6.44580823 9.93972975 2.50024774
Si 3.73213256 8.37656005 7.86310111
Si 9.00020583 10.95821417 0.53234650
Si 10.73671103 6.56193528 10.66044600
Si 2.31373584 6.47308861 2.90830449
Si 0.20050788 1.46275929 9.01827723
Si 8.84572145 7.21742331 4.69819913
Si 1.65737917 4.34629312 0.76647829
Si 2.64494366 10.48085891 1.36903350
Si 9.15586417 3.66860634 8.02319632
Si 8.46311904 6.76368012 1.78495550
Si 5.05664040 0.30037063 7.95246990
Si 4.36771398 8.04213790 0.79907194
Si 9.80408920 2.08419325 2.99179923
Si 1.27688861 7.38539706 7.82544567
Si 7.34935074 4.43844125 1.96301886
Si 5.16911352 4.19933382 4.20240657
Si 0.34603498 5.12794988 5.36389441
Si 3.61331862 8.90452669 3.87020356
Si 6.26182782 8.58456227 8.74891092
Si 3.84226932 1.57356658 1.64197852
Si 10.11787017 9.77450237 6.89948549
O 2.48633687 7.97533234 6.64944511
O 10.21661718 4.67417758 6.49012022
O 3.11556620 10.16090265 4.93602450
O 2.63999589 4.10239510 10.22731972
O 4.91728016 1.97005516 0.47074772
O 1.00207012 2.22174456 7.53202717
O 8.32068696 8.06685524 0.69291520
O 0.32286490 9.37135252 3.13349687
O 9.62486513 1.11821816 1.59348713
O 7.10771140 6.08320928 1.35088294
O 4.76126792 2.71869479 3.20480224
O 0.30640368 6.90115818 9.14207127
O 10.96361546 11.09526344 7.95735436
O 6.15241769 3.14687169 5.03559548
O 9.15721239 7.13601363 9.94489084
O 10.14852480 9.84472065 0.85558722
O 9.96937898 0.85309885 10.51297463
O 5.54834841 5.57786523 7.41444384
O 10.32658608 2.76939694 9.36784657
O 2.33427651 1.50948373 5.77887354
O 3.86057356 7.47227640 2.18758231
O 9.71853537 7.83238265 2.37590285
O 8.77218242 10.79142713 6.56481538
O 8.97464038 1.74051355 4.28927484
O 4.71230229 6.66996263 0.14002793
O 11.10714779 7.94125717 0.23813608
O 0.19670319 3.42977558 1.20707411
O 5.51799526 1.64465373 8.84626539
O 7.94225750 8.31552786 3.96519031
O 0.66363703 5.45581951 11.06005505
O 8.43786557 3.42991786 2.64303096
O 6.03310018 8.70091499 1.42237537
O 7.57044612 10.69833784 1.58858333
O 2.67473080 6.41502495 8.22172295
O 0.95408308 7.28054265 1.99838462
O 9.53935955 5.95695953 0.51535368
O 0.23208582 8.61514824 7.33713840
O 10.83756058 10.52524900 5.48210553
O 1.20432870 1.14319501 10.11523191
O 3.88197772 4.08686405 5.76476967
O 3.45476190 0.12913009 8.66185871
O 6.03553745 10.36099226 9.04728458
O 8.87017210 2.43429564 7.02517295
O 6.68805180 7.88468410 7.40073650
O 3.99343959 5.15524811 3.21138627
O 1.72865949 5.51214975 4.18824354
O 0.78694926 6.11048016 6.78014368
O 5.82837240 0.34200341 6.46455140
O 2.27134707 9.00187232 8.80080059
O 1.50693135 4.00146237 6.12481345
O 6.68019007 11.00341963 3.96584705
O 3.36562680 3.24490143 7.86001679
O 5.58039528 4.29980540 10.65167423
O 7.76886951 6.47082921 5.81473177
O 9.47267933 9.13342334 8.81064402
O 0.16004196 1.88943434 3.49135061
O 7.06011016 8.00182214 9.96788793
O 2.01664827 5.48044734 1.61818050
O 2.71315232 1.09456308 2.90100842
O 10.51030471 4.04140469 4.27878211
O 5.15627502 10.98045713 1.77830800
O 4.74903298 7.68300013 8.95558523
O 4.55319008 9.83458195 7.43395061
O 2.54538304 3.08323171 1.42683346
O 9.42930142 4.93814116 8.84290377
O 3.19592028 0.59343148 0.55917267
O 9.24784310 8.36360774 5.85645006
O 7.15733074 1.72035197 0.07306224
O 10.35687409 6.46870795 4.89150165
O 7.32393033 3.75127607 9.12424289
O 7.64232202 4.18499127 0.32598661
O 1.10413340 10.33802196 0.98728629
O 8.01609467 10.17828867 10.48902446
O 5.28142434 9.24740455 3.83544816
O 2.57391232 7.55269440 4.30709677
O 3.09291719 9.89237111 2.59487175
O 5.94969602 4.21373203 2.64421533
O 3.08265409 8.78266676 0.32804688
O 6.15265668 5.45873343 4.62198245
O 4.96679289 7.26766260 5.40062175
O 8.64755763 5.87265635 3.33297521
135
Time=500000.00000301 pbc="T T T" Lattice="11.12194768 0.00000000 0.00000000 0.00000000 11.12194768 0.00000000 0.00000000 0.00000000 11.12194768" energy=-912.79797510 virial="174.17402190 -9.04734701 -6.78275617 -9.04734701 179.28420872 -16.74907549 -6.78275617 -16.74907549 213.05412656" stress="0.15197006 -0.00657626 -0.00493019 -0.00657626 0.15568450 -0.01217442 -0.00493019 -0.01217442 0.18023089" Properties=species:S:1:pos:R:3
Ca 7.70100746 9.32720086 5.90709233
Ca 3.65327838 6.01553245 6.29329724
Ca 1.95024511 0.46642223 4.31808371
Ca 9.79373279 3.88859897 10.91510161
Ca 1.71181670 8.69142353 5.35488686
Ca 7.99753346 2.02883786 5.08894634
Ca 10.77197278 10.41775391 10.06985192
Ca 1.29978042 4.99705904 8.63072226
Ca 3.48617374 2.72885695 9.81481800
Ca 0.03071006 5.81291091 2.44150081
Ca 8.46221730 1.21912339 8.32958887
Ca 7.38946869 2.54046293 2.34627059
Ca 4.68855463 0.91399715 4.47957328
Ca 2.22275959 7.46248031 11.04300688
Ca 2.27273113 3.65504347 3.36043515
Ca 1.29002410 1.50828704 1.04255741
Ca 4.36295341 5.80725803 9.34565692
Ca 9.32073677 5.08696095 5.52273216
Ca 7.32675674 6.06061192 10.17792957
Ca 2.07988448 0.18958931 7.17498992
Ca 10.83873662 2.25286024 6.30111002
Ca 10.00388750 7.34191423 7.65992562
Ca 4.78729992 4.87075794 1.11743365
Ca 5.96649618 6.80327449 4.02265262
Ca 5.91270922 3.61137580 7.09824978
Ca 9.76518794 10.70830534 4.40001370
Ca 6.44192567 0.05645203 10.87889920
Si 7.06634840 8.84725805 8.75840275
Si 3.06389719 3.15694966 6.47567446
Si 6.73458530 6.63683938 6.98785476
Si 0.72407112 8.86863127 2.21668170
Si 6.59897216 3.00805352 10.48869158
Si 7.84915675 8.42036797 0.67787816
Si 3.08610402 10.37317398 1.43329120
Si 9.31882836 0.67652417 1.02502522
Si 10.56400592 7.11703984 10.76700803
Si 3.13517127 6.45326900 3.43854021
Si 0.45932813 1.97242362 9.51747998
Si 9.36672375 7.80769681 4.27856710
Si 1.64899396 4.64422261 0.68191120
Si 3.78866502 10.41707158 10.19237369
Si 8.66921731 4.35795129 7.92133072
Si 5.08462087 8.15048850 1.17912061
Si 5.62917091 0.70631156 8.14213108
Si 4.62241555 8.97575249 7.22307684
Si 10.69021293 2.76464320 3.22298710
Si 1.61724407 8.04912373 8.28838988
Si 8.07647870 5.61824017 2.07904755
Si 5.45786669 3.85383041 4.10091018
Si 1.04000307 5.38486678 5.25151321
Si 7.11690536 10.31309880 3.25151818
Si 4.16814254 9.14717688 4.03777446
Si 4.45723986 1.49333756 1.62862639
Si 10.40643621 10.45036044 7.38154825
O 2.10196293 5.67177885 4.36189735
O 9.99953036 5.34044935 7.71712063
O 4.94263137 9.69461068 0.30340381
O 2.89303756 4.71212119 10.73354833
O 3.08562652 2.78268088 1.43149218
O 10.61906102 11.00541652 1.00443976
O 9.63770141 9.78336380 8.52220913
O 6.75955035 5.22278714 2.85363103
O 3.92053062 9.61042483 2.58104732
O 4.23528651 5.11632412 3.55534682
O 6.00410739 4.34020901 9.67206587
O 0.42014085 3.87256906 1.82838242
O 0.28597940 0.26367626 5.76843189
O 1.84543425 2.32227952 5.37087541
O 5.47783818 8.42143331 8.49733612
O 9.49913879 8.20433597 0.44148135
O 9.94165990 2.19126536 9.65170728
O 7.59389615 5.46538394 8.01814437
O 1.18326618 3.03621430 10.72412834
O 0.68549842 2.80469053 8.29901446
O 3.67786977 7.67249741 4.65582263
O 10.98180746 6.52373220 4.80688240
O 3.04416088 8.37399732 6.80520182
O 0.35850232 3.89528232 4.41252055
O 8.94048233 6.60225683 3.40597069
O 0.57024322 5.86858725 0.09680247
O 3.41665809 0.87488600 2.60267252
O 7.24802883 9.03052767 10.47305146
O 10.11945779 1.65990821 4.25260500
O 7.45930701 7.00902758 5.39557117
O 4.31003276 3.52736916 5.41669680
O 0.45969388 8.06893070 0.77352414
O 7.37852950 6.92659481 1.26145048
O 3.41450976 10.02600890 5.07290064
O 2.50638249 9.76216225 11.05151835
O 6.52101860 1.75885041 9.37099764
O 0.41265146 8.10880466 9.56619297
O 8.45396818 0.21608853 10.79210489
O 9.01065253 0.00429584 6.53730741
O 9.32426179 5.95832294 0.93149133
O 6.45542000 1.40052677 6.96328223
O 3.79472349 3.70663572 7.97524896
O 5.55344711 2.19473312 0.31467802
O 9.64533217 8.55436844 5.86781239
O 7.09302407 0.01067174 4.57886463
O 1.37539374 6.68209164 7.17493703
O 3.16737170 9.60504720 8.99706954
O 3.55538717 1.60149126 6.91299464
O 8.41632128 0.00124878 2.33787026
O 2.04402272 6.67806455 9.34597543
O 10.82286334 8.58240056 3.56331061
O 11.01278417 0.56754123 8.14705824
O 6.86425636 10.48371897 8.43218178
O 8.36057601 3.19983308 6.74064924
O 5.46133553 7.15516787 11.06163423
O 6.16459539 2.65775291 4.51352154
O 5.89100287 0.37440658 1.83511227
O 4.89048409 3.03099093 2.78225575
O 4.59261252 0.45393018 9.29090820
O 9.52608128 2.30638334 1.14706072
O 1.97503068 7.78917941 2.96788820
O 6.81692417 9.03371828 1.70648656
O 8.27273308 9.00732966 3.73803754
O 0.88887131 1.88828615 2.89782367
O 8.46550679 3.73988569 9.28741494
O 9.03762391 3.54278020 3.45201127
O 0.51403429 9.11753697 7.36162125
O 7.30123463 3.89129026 0.49541606
O 9.47524717 6.64363764 9.58362771
O 7.74753787 7.76347938 7.84869628
O 4.31813985 7.24081552 2.32592383
O 5.77569203 9.36745016 3.90893757
O 5.38877848 6.02279055 7.75202056
O 2.48048998 5.46252027 1.83530815
O 5.37202507 7.70578657 6.25278694
O 1.59476603 1.05270364 10.06804588
O 1.72445392 4.46640036 6.24603821
O 4.99083765 10.41454196 6.87683131
O 3.76952406 0.44909913 0.56257356
O 6.10126375 5.04162704 5.48333222
O 1.58540188 10.28104404 2.38443410
135
Time=600000.00000594 pbc="T T T" Lattice="11.12194768 0.00000000 0.00000000 0.00000000 11.12194768 0.00000000 0.00000000 0.00000000 11.12194768" energy=-915.59192561 virial="212.74120496 20.45542703 21.86744311 20.45542703 149.75176758 12.28618202 21.86744311 12.28618202 181.72274392" stress="0.18000343 0.01486846 0.01589481 0.01486846 0.13421822 0.00893047 0.01589481 0.00893047 0.15745701" Properties=species:S:1:pos:R:3
Ca 7.67907556 9.98091607 6.44230053
Ca 3.77959390 6.14500999 5.92836304
Ca 1.91232435 0.96993945 4.77193068
Ca 9.63547749 3.47460766 0.49950176
Ca 1.46222437 8.61370099 5.62674356
Ca 8.37296633 1.90475321 5.76873256
Ca 10.85993713 9.62460311 10.47654161
Ca 1.38603874 5.02347499 8.88280330
Ca 3.68897272 2.65709264 10.31491182
Ca 10.89073371 5.54738655 2.99038554
Ca 8.75839588 1.15138922 8.71938477
Ca 7.08010952 2.92481390 3.08826135
Ca 4.92023100 1.07424938 5.03245604
Ca 2.23941118 6.80088746 0.03795173
Ca 2.87517804 3.86669149 4.05979245
Ca 0.95924634 0.94364907 1.54680720
Ca 4.28549186 5.65968426 9.38470498
Ca 8.32154185 5.15873570 5.19823997
Ca 6.98727830 6.16819390 9.87293976
Ca 2.48228945 0.50182924 7.68706757
Ca 10.84573039 2.76633545 6.98110668
Ca 10.29295760 7.47276681 7.72681487
Ca 4.59227837 4.85359289 1.35841967
Ca 6.06376033 7.58243631 4.10209843
Ca 6.07931924 3.67034324 7.69622625
Ca 10.27802014 10.64152277 4.03932229
Ca 6.10782822 0.38138988 11.05582276
Si 4.93845734 9.04829510 7.61582801
Si 3.18440043 3.36090688 7.36070892
Si 7.11844442 6.98656012 6.88509262
Si 9.87073222 8.71325502 2.10384748
Si 6.81200575 3.31957312 10.90468096
Si 8.17636195 9.16013430 9.53514431
Si 2.78211035 10.26239446 10.79347775
Si 9.23735517 0.55093154 0.78261995
Si 10.48791742 6.39378035 10.94826104
Si 2.85862872 6.57511390 3.15716522
Si 0.63296517 1.57427501 9.90401617
Si 9.32911112 7.87569587 4.57627197
Si 1.59387636 3.96836150 0.99524366
Si 4.22034381 9.63389642 4.52332574
Si 9.16341547 4.63908074 8.31609234
Si 4.75594329 8.70928480 10.69635060
Si 5.68114025 0.61550801 8.27840854
Si 7.20953827 10.33477890 3.19459108
Si 10.47721688 2.82800599 3.49132764
Si 1.97925458 8.03108634 8.55074709
Si 8.14197072 5.56131357 2.04009275
Si 6.10119845 4.69000417 4.91600332
Si 0.66107299 5.45365552 5.92681139
Si 7.04164666 8.45096928 1.25067889
Si 2.43131193 9.43430909 2.20435096
Si 3.94900805 2.06596482 2.23102658
Si 10.51567932 10.14900653 7.17011035
O 4.21284488 6.13066418 3.39328527
O 10.40830634 0.96737068 10.77628826
O 2.42694091 0.89273326 10.41891124
O 8.87117814 10.66413596 10.42571686
O 6.47326980 2.10359847 9.32180060
O 11.10983694 1.45165399 4.14260402
O 6.30040952 9.03072947 2.46993407
O 4.73582861 1.49035249 0.98260032
O 5.95523702 5.92535335 8.16904894
O 4.73208576 7.00147639 11.06515337
O 4.21519192 1.02713566 8.35349982
O 7.85303142 2.17912782 0.54643285
O 0.54103851 10.74493228 6.20261656
O 0.34289153 3.53251874 2.40008959
O 7.52224972 0.43373294 4.13311899
O 0.26941510 5.35479138 0.63190640
O 6.55676161 6.82979102 1.32753032
O 3.43929392 8.13590131 4.58002027
O 0.41358277 0.67326017 8.62185604
O 1.27009229 2.93760331 10.94315846
O 5.67918875 7.78370313 6.88216903
O 3.33013376 8.93892403 7.61881547
O 1.65207105 10.11720007 0.93891841
O 7.10927384 4.39518797 1.14239521
O 10.85125486 3.07116614 9.24495123
O 8.69081409 7.74421915 10.42281940
O 6.95692501 3.33326215 5.37329569
O 1.35282366 10.41687767 3.16556258
O 0.87749335 4.29137740 4.86000578
O 7.91859465 7.77397086 5.44404686
O 6.36335188 6.05486760 5.68760605
O 2.17506509 7.91169659 2.35434716
O 5.07633239 8.47837460 9.08221664
O 3.35311139 10.72862058 5.50632897
O 10.66556452 8.49266199 3.51250049
O 7.46032630 11.08011309 1.66223271
O 1.97635328 8.95172051 10.02314344