 running on   52 total cores
 distrk:  each k-point on   52 cores,    1 groups
 distr:  one band on   13 cores,    4 groups
 using from now: INCAR     
 vasp.5.4.4.18Apr17-6-g9f103f2a35 (build Oct 31 2019 15:01:46) complex          
  
 POSCAR found type information on POSCAR  Sc Cl C 
 POSCAR found :  3 types and      80 ions
 scaLAPACK is switched off
 LDA part: xc-table for Pade appr. of Perdew
 generate k-points for:    3    3    1
 POSCAR, INCAR and KPOINTS ok, starting setup
 FFT: planning ...
 WAVECAR not read
 entering main loop
       N       E                     dE             d eps       ncg     rms          rms(c)
DAV:   1     0.121970801331E+05    0.12197E+05   -0.26801E+05  4424   0.152E+03
DAV:   2     0.171637657883E+04   -0.10481E+05   -0.10216E+05  5232   0.521E+02
DAV:   3    -0.409939255255E+03   -0.21263E+04   -0.20416E+04  6800   0.283E+02
DAV:   4    -0.643409351906E+03   -0.23347E+03   -0.22894E+03  6088   0.988E+01
DAV:   5    -0.653656383989E+03   -0.10247E+02   -0.10195E+02  6080   0.277E+01    0.700E+01
DAV:   6    -0.522568495077E+03    0.13109E+03   -0.69601E+02  5856   0.500E+01    0.307E+01
DAV:   7    -0.527651496037E+03   -0.50830E+01   -0.90724E+01  5936   0.232E+01    0.155E+01
DAV:   8    -0.525348177605E+03    0.23033E+01   -0.10090E+01  5744   0.773E+00    0.954E+00
DAV:   9    -0.524819516559E+03    0.52866E+00   -0.40211E+00  5336   0.405E+00    0.304E+00
DAV:  10    -0.524677562344E+03    0.14195E+00   -0.60532E-01  5608   0.219E+00    0.174E+00
DAV:  11    -0.524656613283E+03    0.20949E-01   -0.27481E-01  5664   0.978E-01    0.803E-01
DAV:  12    -0.524641678496E+03    0.14935E-01   -0.41278E-02  5928   0.566E-01    0.334E-01
DAV:  13    -0.524638794854E+03    0.28836E-02   -0.12423E-02  5520   0.298E-01    0.212E-01
DAV:  14    -0.524636656063E+03    0.21388E-02   -0.70898E-03  5552   0.179E-01    0.173E-01
DAV:  15    -0.524637996829E+03   -0.13408E-02   -0.28366E-03  5488   0.109E-01    0.113E-01
DAV:  16    -0.524639626341E+03   -0.16295E-02   -0.12878E-03  5816   0.693E-02    0.623E-02
DAV:  17    -0.524642656278E+03   -0.30299E-02   -0.10590E-03  5408   0.608E-02    0.437E-02
DAV:  18    -0.524645358014E+03   -0.27017E-02   -0.28138E-04  5000   0.345E-02    0.294E-02
DAV:  19    -0.524646514131E+03   -0.11561E-02   -0.16075E-04  5048   0.206E-02    0.173E-02
DAV:  20    -0.524648052741E+03   -0.15386E-02   -0.91394E-05  4256   0.154E-02    0.114E-02
DAV:  21    -0.524648559116E+03   -0.50638E-03   -0.25322E-05  4664   0.980E-03    0.972E-03
DAV:  22    -0.524648757464E+03   -0.19835E-03   -0.59217E-06  4000   0.459E-03    0.705E-03
DAV:  23    -0.524649438146E+03   -0.68068E-03   -0.13390E-05  3848   0.574E-03    0.477E-03
DAV:  24    -0.524649750494E+03   -0.31235E-03   -0.95843E-06  3520   0.418E-03    0.569E-03
DAV:  25    -0.524649822589E+03   -0.72094E-04   -0.12514E-06  3128   0.254E-03    0.358E-03
DAV:  26    -0.524649928680E+03   -0.10609E-03   -0.46662E-06  3856   0.314E-03    0.269E-03
DAV:  27    -0.524649964877E+03   -0.36196E-04   -0.43149E-07  2784   0.178E-03    0.239E-03
DAV:  28    -0.524649984309E+03   -0.19433E-04   -0.38226E-07  2592   0.172E-03    0.148E-03
DAV:  29    -0.524650001546E+03   -0.17237E-04   -0.66584E-07  2840   0.156E-03    0.607E-04
DAV:  30    -0.524650013640E+03   -0.12094E-04   -0.40741E-07  2696   0.173E-03    0.539E-04
DAV:  31    -0.524650021307E+03   -0.76674E-05   -0.39431E-07  2680   0.141E-03    0.541E-04
DAV:  32    -0.524650023415E+03   -0.21077E-05   -0.21607E-07  2400   0.135E-03    0.323E-04
DAV:  33    -0.524650025198E+03   -0.17826E-05   -0.17130E-07  2568   0.880E-04    0.403E-04
DAV:  34    -0.524650025769E+03   -0.57153E-06   -0.10256E-07  2400   0.884E-04
   1 F= -.52465003E+03 E0= -.52465003E+03  d E =-.388077E-22
