  5.0916266e-01   5.9142569e-04
  1.0921406e+00   6.4276648e-04
  9.8228681e-01   2.0325417e-04
  7.4641663e-01   6.8818219e-04
  7.9729158e-01   3.0422129e-04
 -6.6336042e-01   3.4354306e-03
 -1.2059382e+00   1.8869102e-03
 -1.8586963e-01   1.6881962e-03
  1.0150555e+00   5.6125177e-04
  4.9188143e-01   3.1861383e-03
 -1.3163203e-01   5.8268365e-03
 -1.3476305e+00   5.0378540e-03
  9.0204144e-01   5.2393437e-03
  9.3194537e-02   1.0785577e-02
  2.7822924e-01   2.5604614e-03
 -5.0295371e-01   4.2782282e-04
  1.7798713e-01   3.4803441e-03
  6.8252689e-01   2.3317554e-03
 -1.0615307e-02   8.1987232e-03
  1.2762792e-01   7.1801823e-03
 -3.8433161e-02   6.7124371e-03
  1.5648063e-02   8.2091894e-03
  3.1729063e-01   5.6871045e-03
  2.2164888e+00   4.7334353e-04
  2.4916711e-01   3.0994797e-03
 -8.8103421e-02   1.9055644e-02
  5.8625657e-02   1.5241937e-02
  3.4594662e-02   1.2112161e-02
 -1.4961230e+00   2.7170230e-03
  1.1654774e-02   2.3231829e-02
 -5.1592422e-01   2.7236497e-04
  4.7043186e-02   2.0960835e-03
  4.3839470e-01   1.5044026e-04
  3.5358417e-01   7.5163256e-04
  8.9885902e-01   2.6712791e-04
  2.4293909e-02   2.7763098e-03
 -3.7968928e-01   8.9065643e-04
  1.1016133e+00   3.5959313e-04
 -2.9835123e-01   1.0884819e-03
 -3.9916241e-01   9.6137711e-04
 -1.2668541e-01   5.7155346e-03
 -4.8443037e-01   3.6845538e-03
 -4.4372212e-02   7.3499801e-03
 -7.0450746e-02   4.0952531e-03
 -6.1112326e-01   2.0872867e-03
 -5.2968532e-01   4.4397218e-03
 -1.5253825e-02   3.9162682e-03
  1.9674323e-01   3.6549906e-03
 -6.0812976e-02   1.3651984e-02
 -7.5096808e-02   2.2596472e-03
 -4.1659400e-01   5.1949918e-03
  5.8656515e-05   1.3586925e-03
  5.2696257e-03   5.4367883e-03
  5.3374723e-02   3.1608779e-02
  1.1197619e-01   3.9668130e-03
 -2.3352595e-02   1.8599860e-02
 -6.0237166e-02   1.5402181e-02
 -3.5888270e-02   1.4065347e-02
 -7.4164204e-02   1.4492342e-02
 -4.4458035e-02   1.6544718e-02
 -1.4030086e-01   3.5464598e-03
 -2.5035767e-02   2.4677504e-02
 -1.4455055e-01   2.4697041e-02
  3.4243745e-01   3.1243188e-03
 -3.0701274e-02   2.8815139e-03
  3.4570440e-03   1.3913759e-02
 -5.8901766e-03   1.6603256e-02
  6.2196996e-02   1.2833145e-02
 -7.2370104e-02   1.3310730e-02
 -1.2973779e-01   2.1690357e-02
  1.0982917e-02   6.1189756e-04
  2.0594630e-02   1.6788483e-02
  5.2634683e-02   7.4530542e-03
  2.0631070e-01   5.8196695e-03
 -4.7622252e-02   2.1106312e-03
  1.9456074e-02   1.5589993e-02
  5.6417350e-02   1.3858007e-02
 -3.8520449e-01   5.0473353e-03
 -2.1142121e-01   1.8258663e-02
 -1.0416745e-01   5.2000256e-03
 -1.1209459e-02   1.0639265e-02
 -1.4222832e-02   1.7364392e-02
 -1.4405873e-02   1.8488036e-02
  9.9405637e-03   2.3884017e-02
  4.4449911e-02   1.2995441e-02
  9.0992592e-02   3.6669631e-02
  7.1637258e-02   1.9821731e-02
  1.6866578e-01   7.9639079e-03
  3.2653343e-02   5.0168941e-03
 -5.5748731e-02   3.1894282e-02
 -1.7330873e+00   5.8488961e-04
  3.1969659e-02   2.2631157e-03
  2.4529158e-01   1.2890644e-03
 -1.1062373e+00   1.1945361e-03
 -1.5682181e+00   7.7152345e-04
  8.4432518e-01   6.2432899e-03
  6.3486809e-01   2.6418474e-03
 -8.2663631e-01   4.4568814e-03
 -1.7191765e-01   5.2850922e-03
 -7.4322239e-02   1.2104084e-03
  4.1405496e-01   7.2912415e-03
  3.0175757e-01   2.8729595e-03
 -2.8240830e-01   1.1740581e-02
 -5.7354826e-01   6.4561386e-03
 -7.5259402e-02   6.0643158e-03
  2.6901194e-01   3.5322041e-03
 -3.3656508e-02   2.3286608e-03
 -1.5079555e-01   1.6994062e-03
  2.5089556e-02   4.8912889e-03
  9.6944553e-01   2.2776728e-03
  1.3873984e-01   7.0903422e-03
 -3.2492504e-02   1.2334158e-02
 -3.0666557e-01   5.5820635e-03
 -1.3868116e-02   2.3598008e-02
 -1.8976563e-01   1.1049605e-02
 -3.1472340e+00   2.2389907e-03
  1.9591793e-02   2.8217435e-03
 -1.2031618e-01   2.0204801e-03
 -3.7017804e-02   1.0028182e-02
  4.9081877e-01   2.7325107e-02
  6.9345587e-01   9.1664493e-03
 -2.0587757e-02   1.4192385e-02
  1.3817492e-01   1.0243614e-02
  7.9709850e-02   4.5808032e-03
  7.4882701e-02   5.9597804e-03
  1.0535662e-01   2.7391557e-03
  4.0670227e-02   5.9829643e-03
  6.1174506e-01   9.8703150e-04
 -5.7897598e-01   4.7684024e-04
 -2.8170325e-02   3.2780785e-03
  1.3891584e-02   9.6529163e-03
 -1.2577157e-02   3.3992773e-03
  1.2380464e-02   1.5610791e-02
 -1.8404992e-01   6.9802916e-03
  4.6831113e-01   9.3159691e-04
 -9.8262085e-03   2.2287988e-03
  4.7332358e-02   1.3012385e-03
  3.0405339e-02   8.4700286e-03
  4.7588594e-02   7.0213131e-03
  1.6236370e-02   1.2668601e-02
  5.5720276e-01   9.1568148e-04
  6.7367323e-02   2.0569228e-02
 -1.5806769e-01   5.6000152e-03
 -3.0135902e-02   8.0963373e-03
  1.1219651e-01   9.8144617e-03
  1.4215000e-03   1.2219598e-02
 -1.3570446e-02   3.6373463e-02
 -2.8706392e-02   1.9599067e-02
  2.4196513e-02   1.2994931e-02
 -7.1703769e-02   1.1637962e-02
  6.2552646e-02   6.9235829e-03
 -2.5228379e-02   9.2165209e-03
 -6.2003727e-03   6.4851344e-03
 -1.8759458e-03   2.5242256e-02
 -7.4132465e-02   1.9595153e-03
 -4.9052555e-02   4.5819483e-03
  9.8466992e-02   1.2963277e-02
 -1.3293886e-02   4.0906416e-03
  1.8420292e-01   5.3280443e-03
  2.4323937e-02   3.8347954e-03
 -5.3644240e-02   1.4048769e-02
  9.8292604e-02   5.4891221e-03
 -6.8083927e-02   1.3400468e-02
 -5.0770231e-02   1.8284863e-02
 -3.1947490e-02   1.2087236e-02
  5.8870237e-02   6.0514491e-03
  1.4117878e-02   2.0080537e-02
 -6.5594003e-02   9.4834836e-03
  2.4255438e-02   1.2372001e-02
  1.0647670e-02   2.4819135e-04
  4.7387097e-02   1.8473285e-03
 -3.6159858e-01   9.3074387e-04
 -3.7841827e-02   1.4254480e-02
  1.7485481e-03   2.6312955e-02
  1.0509656e-01   8.0645885e-03
 -3.6849405e-03   1.1082267e-02
 -3.2255895e-02   1.1236303e-02
 -3.9383969e-01   2.5625844e-02
  7.2531901e-02   3.1507473e-02
 -5.0325502e-02   2.6301004e-02
  3.9210752e-02   6.8900117e-04
 -2.9031918e+00   2.7398524e-04
  2.3966683e-01   1.9217076e-04
  1.9170856e+00   1.9749240e-03
  1.4392500e+00   3.4447128e-04
  8.8826887e-02   2.5994857e-04
  1.5676695e+00   6.2864879e-03
 -1.2699424e+00   4.7739150e-04
  8.6808108e-02   1.7377259e-03
  1.3197309e+00   2.9922607e-03
 -1.4641656e-02   8.2243746e-03
  2.4642190e-01   6.1257090e-03
  1.3033220e-01   1.9703382e-03
  2.9606846e-01   3.0344606e-03
  1.0625589e+00   2.6387186e-03
 -1.3097314e+00   2.3562452e-03
 -1.3283117e-01   4.7166604e-03
 -7.5532100e-03   1.6464918e-03
 -2.1588685e-02   8.6835660e-03
  1.1523169e-02   3.0807776e-03
 -9.4843894e-02   4.5646969e-03
  5.4290819e-01   2.0184389e-03
  2.7880719e-02   6.2755281e-03
 -1.3457754e-01   6.5120212e-03
  1.0867616e+00   4.5218086e-03
  4.4375085e-03   1.9272277e-02
  6.1459173e-02   1.9522155e-02
 -1.0897541e-01   1.0903986e-02
 -5.9918281e-02   1.8272813e-02
 -1.5018177e-01   4.1211501e-02
 -1.0311236e+00   2.1113752e-04
 -7.8394974e-04   9.6774753e-03
  7.0038298e-03   2.6700005e-03
  8.6785577e-02   1.2416349e-02
 -3.4288712e-02   5.5846814e-03
 -3.4511735e+00   9.3520514e-04
 -2.7916728e-02   1.9939305e-02
  5.3631272e-02   2.1792846e-02
 -1.2069906e-01   2.0878578e-02
  6.0869377e-02   7.8245727e-03
  3.1708807e-03   4.4360342e-03
 -3.1033192e-02   2.6934601e-02
  2.8483666e-02   5.8284150e-03
 -7.9867765e-02   2.6879940e-02
 -2.0845729e-01   9.0321666e-03
  9.8588190e-04   8.6566070e-03
 -2.9650725e-02   7.7621401e-03
  5.0361347e-03   9.9045802e-03
  5.8548693e-02   2.0715000e-02
 -2.9886146e-03   1.1427133e-02
 -1.2882052e-01   1.4322657e-02
  2.0670617e-01   3.5403800e-04
  5.2035779e-02   5.8327829e-03
 -1.0331922e-01   1.4558014e-03
 -6.3112631e-02   2.0341575e-02
  4.9438223e-02   1.6586352e-02
 -5.9532158e-02   6.5296772e-03
 -1.0785725e-02   2.0378783e-02
  1.3193206e-01   1.1223504e-02
  8.3743714e-02   1.9615168e-02
  1.7533723e-01   3.7409896e-03
  6.0218468e-02   1.1733498e-02
 -3.5662898e-03   3.7079379e-02
 -2.3754889e-01   2.5970375e-02
  9.7194441e-02   5.5160969e-03
 -1.3197851e-01   1.3185805e-02
  3.0913791e-02   2.0759346e-02
  1.6207876e-02   1.7148454e-02
 -3.2584473e-02   1.0276664e-02
  7.2322331e-02   5.1379553e-03
  5.9054479e-02   2.5002647e-02
 -1.3455460e-02   4.4992201e-02
 -1.5071241e-02   9.2430422e-03
 -2.0810656e-01   6.1047198e-03
  3.4557983e-02   1.9446377e-02
  6.4764533e-04   1.3126460e-02
 -1.2554015e-02   1.5846882e-02
  3.0988026e-02   1.0693963e-02
 -3.0202323e-01   3.8687259e-02
 -3.2856341e-02   1.4496948e-02
  4.6630993e-02   1.6836472e-02
 -1.6173112e-01   9.8919990e-03
 -1.7878444e-01   5.4959906e-03
 -5.0442761e-01   1.5819104e-03
  8.4568657e-02   3.4801871e-02
  2.4829099e-03   6.5850811e-03
  4.3501236e-02   5.9713176e-03
  7.2535217e-02   8.1233531e-03
 -6.6026457e-02   1.4937697e-02
  3.2601722e-02   1.6722770e-02
 -8.1726152e-01   2.5544409e-03
 -5.2385274e-02   5.7175532e-03
  1.7818651e-04   4.9247826e-03
 -7.8053929e-02   3.7303511e-03
 -1.8525653e-02   2.5378901e-03
  3.2397599e-03   8.6646453e-03
  1.8158402e-01   1.7748049e-02
  3.8126089e-02   8.1656883e-03
 -1.1210107e-03   6.6496027e-03
  4.2042404e-02   4.1534342e-03
  1.2717170e-01   1.3618582e-02
  3.3462118e-02   3.2199323e-03
 -1.7317219e-01   9.4503686e-03
 -2.1178182e-03   1.2579697e-02
 -3.1396899e-02   4.8911790e-03
 -1.9692078e-02   1.1300967e-02
 -1.0123979e-01   4.8269550e-03
  7.0746953e-04   1.8636854e-02
 -3.1266946e-02   9.1589401e-03
  9.1229565e-03   1.5072910e-02
  2.3148519e-01   4.9999217e-04
 -4.4114579e-02   4.4911569e-03
 -7.8879431e-02   1.5140887e-02
  2.0748317e-02   2.5271023e-02
 -1.5789557e-02   2.4928417e-02
  1.2172449e-01   1.2023562e-02
 -1.1309650e-02   1.3804844e-02
  1.4563271e+00   4.3646349e-05
 -2.3514954e-03   2.0060703e-02
  4.0346429e-02   1.3239209e-02
  4.3550023e-01   2.6271492e-04
  3.9895594e-01   3.6301853e-03
 -4.3340456e-01   6.9403724e-04
  8.7535685e-01   3.9526224e-03
 -1.8661590e-02   1.4006937e-03
 -4.1338667e-02   8.4418636e-03
 -8.5517083e-04   1.9411152e-03
 -5.6959126e-02   3.0449068e-03
 -9.1136232e-02   2.7935174e-03
 -8.9013793e-02   1.8549956e-03
 -2.6685041e-01   7.1595218e-03
 -1.7225105e-01   9.0918439e-03
 -1.6300809e-01   5.0764298e-03
  1.9443853e-02   1.2938582e-03
  2.6790878e-01   1.4185153e-03
  6.3309290e-02   3.8034252e-03
 -1.1132162e-01   4.0412624e-03
  2.0690430e-02   6.3568386e-03
 -1.4616085e-02   6.4671575e-03
  4.9694350e-01   3.0725086e-03
  4.6372747e-01   7.1439957e-03
  3.1741776e-02   5.2659339e-03
  4.7856607e-03   1.0934523e-02
 -1.9740641e-02   4.7545996e-03
 -1.0784677e-01   8.5327094e-03
  2.8114989e-03   7.6824310e-03
  3.0847907e-01   7.3343976e-03
 -5.8564365e-02   6.5556392e-03
  1.6648586e-01   1.7222766e-02
 -4.8113342e-02   1.7867621e-02
 -2.6935571e-01   4.0875128e-04
  1.1534370e-02   1.2951241e-03
  6.0474461e-01   3.4541576e-04
 -1.5012368e-03   1.3407362e-03
  5.7793357e-03   3.3570468e-04
 -5.5267382e-02   1.9686338e-03
 -2.4517009e-01   1.2253851e-03
  1.3698074e-01   5.2872079e-04
  6.8093295e-04   7.1952434e-04
 -4.3082707e-02   3.8772495e-04
  4.0129897e-01   3.0892265e-03
 -1.1909708e-01   2.1755085e-03
  3.4993824e-02   1.4029149e-03
 -3.3561882e-01   9.3901408e-04
  8.8341981e-02   2.0066942e-03
  6.1050698e-02   9.9816895e-04
 -2.2552550e-01   1.3914697e-03
  4.1712489e-02   8.6300808e-04
 -4.0709618e-02   2.2809757e-03
  4.4596979e-01   1.3542506e-03
  2.6303166e-01   1.7805415e-03
 -3.6230676e-02   3.3917637e-03
  7.7578562e-01   1.5873966e-03
  4.4148833e-01   7.3848348e-03
  7.9569891e-02   2.2317236e-03
  3.4780815e-01   6.9913305e-03
 -1.9297476e-01   8.3478065e-03
  1.4099586e-01   1.0843171e-02
 -1.1928818e+00   2.4373885e-03
 -4.3893370e-01   3.8931594e-04
  3.6755762e-01   5.4828380e-03
  9.6671432e-02   1.9798294e-02
  2.1863820e-02   3.8275903e-03
  1.6578512e-01   2.0446904e-02
 -1.2067214e-01   2.8300157e-03
  2.5416300e-01   7.0085009e-03
  1.2980852e-01   7.8805871e-03
 -7.6265827e-02   1.4338971e-02
  1.9300528e-01   6.7519611e-03
  4.9336582e-02   2.1822674e-02
  6.5060139e-02   2.6956875e-02
  2.0886683e-01   1.0000061e-02
 -3.0289881e-02   1.4630022e-02
 -2.2588242e-02   7.5947377e-03
  8.4603550e-03   1.5250677e-02
  4.4715777e-02   5.0720470e-03
 -3.9993250e+00   2.8275439e-04
  2.7505083e+00   3.4239501e-04
 -4.0082157e-02   1.7245833e-02
 -4.6535473e-02   7.2622309e-03
  3.6789633e-02   4.9402430e-03
 -1.9128857e-02   9.2802653e-03
  1.4234198e-02   4.6565821e-03
  1.3975376e-02   1.8541357e-02
 -6.7336999e-02   1.9055262e-02
  5.4912770e-01   1.0210070e-03
  1.5055212e-02   8.4945625e-03
 -6.6352792e-02   1.2601136e-02
 -1.9831625e-01   1.6005663e-02
 -2.7826028e-02   5.1956698e-03
  2.7057779e-01   1.6161177e-03
  5.1709608e-04   4.4091693e-03
  7.0627788e-03   2.1659432e-03
  1.4583338e-02   9.0389565e-04
 -5.1577535e-02   6.6892931e-04
  2.1772001e-02   2.1892034e-03
 -3.3428360e-02   4.1781957e-03
  5.1139217e-02   5.1201216e-04
 -4.9259610e-02   1.1441201e-03
  2.4039433e-03   1.3551604e-03
 -2.0682029e-01   3.9862380e-03
 -2.4099015e-02   1.1662490e-03
  1.2964618e-02   2.4841228e-03
  3.0787846e-02   7.2945203e-03
 -1.3354503e-01   5.3244573e-03
 -2.8447499e-02   1.1456261e-03
 -7.3729247e-02   2.5799675e-03
  3.7056211e-01   3.1800950e-03
 -3.2137439e-02   3.9453222e-03
 -2.8076953e-01   3.8406795e-03
 -5.0418019e-02   8.1962496e-03
 -1.2424628e-01   3.8224382e-03
 -1.5886661e-01   2.8288187e-03
 -3.6546624e-01   9.2912298e-03
 -5.9230268e-02   1.1013749e-02
  7.0653394e-02   1.3697349e-02
  1.9274008e-02   1.8197289e-02
 -6.1966352e-02   1.6560707e-02
 -1.2925306e-01   1.8597289e-03
 -4.4714388e-02   2.2279253e-02
  1.1586984e-01   8.3768731e-03
 -3.0704141e-02   4.1704942e-03
  7.1944326e-02   9.8381266e-03
 -3.7751377e-02   6.9630370e-03
  4.8695406e-01   1.7600716e-03
 -1.6785596e-02   6.9740079e-03
 -8.9177787e-03   8.8120615e-03
 -1.1021960e-01   9.9334158e-03
  1.3507086e-01   1.1504482e-02
 -1.2632375e-02   7.1148388e-03
 -3.8306687e-02   1.2052608e-02
 -1.4764476e-02   1.0553700e-02
  6.9398329e-02   1.2733678e-02
 -8.0400869e-02   1.7575126e-02
 -3.1272795e-02   3.3204757e-02
 -1.1793115e-02   1.1440583e-02
 -1.1332639e-02   3.3757756e-03
  2.0897638e-02   2.0583265e-02
  3.5044476e-02   2.1769548e-02
  7.6090276e-02   1.8817248e-02
  2.3959536e-02   5.1608295e-03
 -6.7054778e-02   6.7918818e-03
 -9.8172292e-02   4.9138921e-03
  9.8785184e-02   1.0064994e-02
 -1.8403865e-02   2.0451091e-02
  1.3668421e-01   1.7476626e-02
 -8.6460456e-02   4.2198077e-03
  1.9569511e-02   4.1842807e-02
 -9.8726181e-03   1.3456444e-02
 -5.2080218e-02   8.7798247e-03
 -4.0990293e-02   8.5385898e-03
 -1.4402457e-01   2.3211142e-02
 -5.3045131e-02   3.4043966e-03
 -3.9334740e-02   2.2843326e-02
  2.6786055e-02   1.5970200e-02
 -2.4221193e-02   9.4122505e-03
 -5.1020557e-01   1.5161344e-03
 -1.9755256e-01   8.2737291e-03
 -1.5091110e-02   3.5656733e-03
 -6.5816551e-02   1.0294761e-02
  1.4148802e-01   6.2843780e-03
  7.0966020e-02   1.6789425e-03
 -1.7490199e-02   8.7372009e-03
 -2.5068162e-02   1.1779355e-02
 -1.0475681e-01   1.6969668e-02
  6.1879352e-02   1.2916236e-02
  9.3387812e-03   5.4453481e-03
 -1.8007370e-02   1.7995439e-02
  3.2503627e-02   1.9715989e-02
 -1.3203994e-02   2.8211006e-03
 -4.6661906e-02   4.1406434e-03
  8.4515743e-02   1.3909143e-02
  4.3266091e-02   1.7832469e-02
  1.5274556e-01   6.1117681e-03
 -1.4442192e-02   4.7238073e-03
  2.8759424e-02   3.0342452e-03
  1.7293880e-02   7.9741911e-04
  1.4518220e-02   3.5033587e-03
  4.2701006e-02   3.1129058e-02
  5.9737209e-03   3.7175040e-03
 -1.4862808e+00   2.5461923e-04
 -8.3788417e-02   1.8412181e-03
 -9.9486971e-01   2.9080070e-04
  8.0426909e-02   7.2759710e-04
  3.5785955e-01   4.0197151e-04
  1.3896358e-01   9.0961047e-03
  5.7374597e-01   5.6825303e-03
  8.4159493e-02   4.3551358e-03
  2.5425661e-02   8.1388215e-03
  1.0343568e-02   1.8596944e-03
  4.8228970e-01   8.1273466e-03
  3.6532483e-01   2.1841312e-03
 -1.2994573e-01   2.4752163e-03
 -5.3351708e-02   1.0500720e-02
 -1.4689912e-01   9.0001738e-03
  2.3203388e-02   7.4568070e-03
  3.2989496e-01   1.0863868e-02
 -1.6332375e+00   1.9971631e-03
  5.4059923e-02   6.4966762e-03
 -5.1381707e-01   3.7725237e-03
  1.1440934e-01   1.0449189e-02
 -5.2069188e-03   9.2266230e-03
 -3.5207659e-01   1.0228236e-02
  5.5838581e-02   1.9090690e-02
  2.0123156e-02   6.9566010e-03
  3.7190281e-02   1.3218502e-03
  2.5692466e-03   4.1976692e-03
  5.4873373e-02   1.0360288e-02
  5.1187789e-03   6.5294956e-03
  2.4463710e-01   3.0296631e-02
 -5.7666123e-01   6.0307683e-04
  2.0235214e-02   4.6504992e-03
  2.9855216e-01   6.5798690e-03
 -1.8582795e-02   5.3546801e-03
 -1.4146166e-01   2.2681230e-03
  2.1453459e-02   3.8251637e-03
  3.3438511e-02   8.8006984e-03
 -5.9062749e-02   2.1721181e-03
 -2.5903952e-01   2.6299255e-03
  6.4460948e-02   2.4534208e-03
  4.3422479e-02   2.0236727e-02
  5.8975094e-03   1.3877741e-02
  6.3554533e-02   1.0669613e-02
  1.6454986e-01   8.7477239e-03
  1.0954399e-02   7.1028196e-03
 -6.3851416e-02   4.4505550e-03
  2.0828422e-03   1.5845817e-02
 -1.1025863e-02   8.6014746e-03
  3.2283291e-02   2.1290326e-02
 -1.6841772e-01   4.3200068e-03
  5.2541159e-02   1.0757362e-02
  2.6956633e-01   2.6162911e-02
  5.7254195e-02   2.1110291e-03
  5.7758976e-02   9.7050574e-03
 -5.3431071e-02   5.6421114e-03
  4.6635275e-03   1.0201525e-02
  5.7924207e-02   4.4314093e-03
 -1.0800023e-02   2.5905704e-02
 -9.4636396e-02   4.9522477e-03
  2.9829221e-02   1.5333417e-02
 -7.1114413e-02   4.8048998e-04
 -2.1593082e+00   5.7175459e-04
  4.1573453e-01   1.2844080e-03
 -5.6839082e-02   3.2598381e-03
  5.2254516e-01   6.3460745e-04
 -7.0901081e-02   2.9929655e-03
  2.6095212e-02   5.3142728e-03
  4.1990319e-01   8.4777363e-04
  3.4956545e-01   1.1030992e-03
  3.1576477e-02   1.3196009e-03
  2.9653952e-02   7.8763478e-03
  5.9052613e-03   4.0248814e-03
  2.7881067e-02   3.4715345e-03
  4.3693401e-02   6.2237270e-03
  4.2705435e-02   5.4766545e-03
  9.0447396e-02   5.9320603e-04
  1.7270231e-01   5.2097724e-03
 -4.8560858e-01   3.6502597e-03
 -1.7918442e-01   2.5131146e-03
 -5.1407810e-02   2.0253905e-03
  9.0176404e-01   8.3330483e-04
 -3.2493114e-03   1.0806321e-02
  1.0084367e-01   7.0100613e-03
  2.6754828e-02   4.8439153e-03
  6.8601690e-02   6.6558928e-03
  2.2936380e-02   1.5077138e-02
 -8.8908040e-05   1.9865835e-03
  1.8047570e-01   6.7543439e-03
 -6.2287720e-03   2.7950302e-02
 -8.6384658e-03   1.3943778e-02
 -1.4358847e-02   3.7375630e-03
  3.8641315e-02   7.2242785e-03
 -6.5303333e-02   7.8536225e-03
 -1.1729684e-01   1.0071886e-02
  5.0448559e-02   3.3932959e-03
 -4.6841905e-02   7.6994123e-03
  7.0361547e-02   5.7124146e-03
 -1.5242030e-01   1.8581705e-03
 -1.1006746e-01   3.2825870e-03
 -4.5486670e-03   5.4518632e-03
 -8.0708601e-03   2.7933181e-03
  3.6592069e-01   9.9052140e-04
 -5.6603408e-01   8.1738308e-03
  2.4368573e-02   1.6544011e-03
  3.3732671e-02   3.8801595e-03
 -5.6820545e-02   9.6959202e-03
  1.7836174e-02   8.2780123e-03
 -2.2069907e-02   6.2044016e-03
 -9.7904652e-03   3.4395379e-03
 -1.1455302e-01   1.6040819e-02
 -1.8712020e-02   2.1268353e-03
 -1.1104506e-01   1.1863329e-02
  2.5825066e-02   9.8073538e-03
  4.6847500e-02   5.6261271e-03
  4.7234822e-02   1.2298546e-02
  8.1530802e-02   1.6605916e-02
 -4.5225558e-01   2.2786823e-03
 -1.5921690e-02   1.5989816e-02
  2.7099812e-01   1.7574256e-03
  8.1838511e-02   1.0680162e-02
 -3.4486616e-01   4.0578531e-04
  2.4946914e+00   1.9598973e-04
  8.2651657e-01   8.5718679e-04
 -9.3753651e-02   3.3095661e-03
 -2.9266390e-01   1.1832161e-03
 -9.7993098e-02   1.4533144e-03
  4.1809049e-01   2.8005056e-03
 -8.4534061e-01   6.9915771e-04
 -1.8046777e-01   4.2393254e-03
  1.1465558e-01   1.2403390e-04
  1.0374169e-01   1.5468358e-02
 -8.4472142e-02   1.1562823e-02
 -4.0441713e-01   1.8174286e-03
  6.8947603e-03   1.0245021e-02
  3.3930966e-01   4.0217047e-04
  6.0946870e-01   2.0399853e-04
 -1.3093100e-01   5.3684837e-03
 -4.0740219e-01   4.0783291e-03
  3.5005890e-02   1.1441314e-02
 -1.1526226e+00   2.6378632e-04
 -1.7221284e-01   4.9509564e-03
  6.0197227e-02   1.7457342e-02
 -5.2307364e-02   2.1566069e-02
  4.0812135e-02   7.5680478e-03
 -1.0053993e+00   1.5212380e-03
 -2.9636387e-02   2.0043114e-02
  1.3839202e-01   2.9241021e-03
 -1.1713898e-03   7.9309242e-03
 -8.2537822e-02   1.0376148e-02
  6.8655752e-02   1.0502757e-02
  2.2635891e-01   9.1252313e-04
 -2.8532030e-02   5.3131902e-03
 -3.1016182e-02   2.0466279e-03
 -1.7629586e-01   6.2038901e-04
  1.1914275e+00   7.8188238e-04
 -9.1691792e-02   1.8179907e-03
  6.7137694e-01   2.3454542e-03
  2.7741325e-01   2.3454993e-03
  4.1492674e-02   1.9879516e-03
  1.2808214e+00   2.9875389e-03
  3.2011859e-02   1.2841043e-02
 -9.4248205e-02   6.6253543e-03
 -2.4728699e-01   1.3796206e-02
  1.1072775e-01   1.7072726e-02
 -3.2406971e-02   4.2567598e-03
  3.6325147e-03   6.8658139e-03
 -3.3427276e-02   4.5664618e-03
  4.1751929e-02   4.9340390e-03
 -6.9857031e-02   4.2632571e-03
  1.2380568e-02   3.2999981e-03
 -2.8114739e-01   4.6804589e-03
  1.4573092e-02   1.1187993e-02
  2.5883093e-02   3.4319736e-02
 -7.9763725e-02   1.8044723e-02
 -6.1815914e-02   4.8003923e-03
  7.7068076e-02   3.8889248e-03
  4.1388538e-01   5.2017299e-03
 -1.4667788e-01   1.6915428e-02
 -1.1575820e-01   3.0115154e-02
  3.2898227e-03   1.1409834e-02
 -9.7974598e-01   3.7653456e-04
  9.8721534e-02   1.5470088e-03
  6.8371868e-01   3.0287965e-05
  5.5073953e-01   1.6223209e-03
 -1.9489105e+00   5.9289951e-04
 -1.4315340e-01   1.3726003e-03
  1.1166611e+00   1.9044499e-04
 -8.1032842e-01   3.2356160e-04
 -1.3999200e+00   8.0140115e-04
  1.1335526e+00   4.5110812e-04
  3.6797518e-01   5.3576357e-03
 -5.0853288e-01   4.9942238e-03
  1.0324811e+00   2.0949701e-03
 -5.4163396e-01   1.5337829e-03
  6.2051982e-01   3.7798984e-04
  2.0923696e+00   5.1577418e-04
  5.4352075e-01   3.7660336e-04
 -5.6851459e-01   5.3453509e-04
 -9.0651982e-02   7.1282764e-03
  4.1343872e-02   4.6827328e-05
  1.1987220e+00   5.6079687e-03
 -8.9937352e-02   2.6714150e-03
  2.9214714e+00   3.2265254e-03
  2.3572631e+00   4.4592633e-03
  3.2195613e-01   2.6425833e-03
  2.1510335e-02   2.0144256e-02
 -7.5310849e-02   6.7061153e-03
  7.4444093e-02   6.3573308e-03
 -1.4458704e-02   6.1744419e-03
 -2.6493558e-01   6.7598247e-03
  1.9896932e-02   8.2758125e-03
 -8.4914297e-02   1.8357104e-02
  1.1876574e-01   3.2752026e-03
 -1.4938630e-02   1.1870148e-02
  6.0179036e-02   4.9070385e-03
  1.2371710e-02   2.0669412e-02
 -8.3216513e-03   7.4531068e-03
 -1.8538496e-02   1.6494593e-02
  2.1032998e-01   1.0585010e-03
 -1.3218658e-01   3.7432942e-03
 -3.1058516e-02   1.6173940e-02
  4.7826584e-02   2.4010809e-02
 -1.2038764e-01   1.1651637e-02
  1.5276015e-02   2.2134472e-02
  1.4810703e-02   6.5497123e-04
  3.3296395e-02   1.0665996e-02
 -5.1120747e-02   9.4794827e-03
  6.4805865e-02   1.9180141e-02
  2.6417393e-02   8.9802220e-03
 -8.7304570e-02   3.7766902e-03
  1.3921930e-02   1.4808841e-02
  7.2643623e-02   1.7470410e-02
  1.1102084e-01   4.4513639e-02
 -6.7508849e-04   3.8574473e-03
  3.9572152e-04   2.0544713e-02
 -3.0418319e-01   1.1313657e-02
  2.0336185e-02   8.2275048e-03
  7.9470135e-02   1.8588271e-02
 -1.3330786e-01   3.9195241e-03
  3.0466693e-02   1.2409312e-02
 -1.3041094e-02   1.5442949e-03
  3.4420423e-02   1.0327968e-02
  8.6970776e-02   1.0623710e-03
  5.3794324e-02   4.4756588e-03
 -4.2112932e-01   4.0049819e-04
  3.7375867e-02   5.2089030e-03
  3.5905623e-01   5.2412204e-03
 -6.8109997e-02   1.1118450e-03
 -2.9584652e-01   9.8243891e-04
 -1.0367238e-01   5.6141760e-04
 -1.2425224e-01   4.7061271e-03
  1.1920225e-01   2.3082539e-03
  5.2191196e-03   4.8225331e-03
 -5.2095927e-02   5.2053039e-03
  3.3174485e-02   4.8808903e-03
 -3.9116606e-02   3.7655111e-03
 -1.0092053e-01   4.2881602e-03
  1.1543615e-02   3.9267405e-03
 -2.4592753e-01   9.2485473e-03
  1.4076594e-01   2.8804156e-03
 -5.1208764e-02   1.8529114e-03
 -1.0714672e-01   2.3743345e-03
 -5.2706216e-02   5.9475899e-03
 -9.7150974e-02   2.1053098e-02
 -5.5493701e-02   1.1662519e-02
 -2.2422683e-01   5.4390235e-03
  4.7548559e-02   2.5860831e-02
 -3.1627506e-02   1.6552497e-02
  5.0072032e-01   1.9435465e-03
 -2.8382152e-02   1.6687876e-02
  3.5136232e-01   6.2376785e-04
 -2.8446436e+00   1.5186444e-03
  4.8698912e+00   4.4863590e-04
 -1.2958581e+00   2.4387178e-03
  1.8407249e+00   9.3006622e-04
  7.5508170e-02   7.5593917e-03
  2.1639197e-01   5.1808045e-03
 -8.7908560e-01   3.8756449e-03
 -1.9654024e-01   3.3449591e-03
  2.4636155e-01   3.3443612e-03
  9.7287059e-02   3.7241839e-03
 -1.6917411e-02   5.8161146e-03
 -3.4704125e-01   1.3193922e-03
  4.4935131e-01   4.7534803e-04
  7.7296205e-02   5.0171525e-03
  1.3699265e-01   7.1781445e-03
 -2.3272800e-01   4.0904884e-03
 -6.1173323e-03   4.9325312e-03
 -2.4579260e-02   1.3494679e-02
 -2.1821833e-01   9.4544925e-03
 -9.7459108e-01   9.3206791e-03
  4.8985574e-02   1.1370290e-03
 -2.0648451e-03   1.3694756e-02
  1.9167848e-01   8.2676085e-03
 -4.8775285e-02   1.3024378e-02
 -1.3393502e-01   8.6790938e-03
 -5.8289524e-03   2.6757877e-02
  5.9002057e-02   1.0733011e-02
  2.6429784e-02   1.4800918e-02
  2.0462314e-02   1.9127814e-02
 -1.1207875e+00   4.3362856e-05
 -8.8441080e-01   4.9697357e-04
  1.6244887e+00   8.2067832e-05
 -5.1081526e-01   2.9292138e-04
 -2.3233118e+00   1.0771603e-04
  4.5237083e-02   1.0659229e-03
  4.5016420e-01   5.7750044e-04
 -1.1809289e+00   5.9395540e-04
  4.8159492e-01   1.1765229e-03
  5.8850652e-01   8.4241317e-04
  4.7179160e-01   3.0794234e-03
 -4.3989398e-02   4.6373713e-03
 -9.8237342e-01   1.6179195e-03
 -1.3289006e-02   2.3762090e-03
  1.1671733e+00   1.8341097e-03
  4.2700571e-01   1.1564274e-03
 -3.2339403e-01   1.9940499e-03
 -8.6228061e-01   9.4078184e-04
  2.5004652e-01   3.7320924e-03
  1.8479766e-01   1.8635293e-03
  6.2114942e-01   1.0373449e-03
  7.6622017e-02   2.6238950e-03
  4.8807511e-01   4.0447139e-03
  1.3507692e+00   7.7089411e-03
  4.9186051e-01   4.2832424e-03
  1.8401314e-02   9.7874377e-04
 -5.2479979e-02   1.1011915e-02
 -1.3469835e-01   1.5040563e-02
  9.7643007e-03   1.5063793e-02
  1.4074068e-01   1.0184185e-02
 -2.6003188e-01   3.3131859e-04
  1.4124568e-01   3.0775759e-03
  1.5024316e-01   1.5064932e-03
 -4.1638870e-02   2.9713972e-03
 -4.2820377e-03   6.5917731e-04
  1.6172638e-02   3.4490807e-03
  4.4172290e-03   2.4264653e-03
  9.3269199e-02   8.8374165e-04
 -7.5355150e-02   8.9970895e-04
 -4.4420135e-01   1.2211357e-03
  1.9804393e-01   7.6958160e-03
 -2.8093943e-01   5.8310064e-03
 -1.5421528e-02   7.0530176e-03
 -2.7588965e-02   5.8963466e-03
  1.0300356e-01   8.6132879e-04
 -8.5097104e-02   7.8004558e-04
  1.1320549e-01   3.0917106e-03
  5.2070197e-02   3.7853448e-03
  1.0451557e-01   3.2709807e-03
  2.8443819e-01   4.6128449e-03
 -1.2076072e-01   1.4686735e-03
  5.0649464e-02   3.8604503e-03
  4.9421546e-01   8.4895808e-03
  1.1989904e-01   6.7137592e-03
  1.6229516e-03   6.0109869e-03
  4.0416956e-01   5.4516522e-03
 -4.2332348e-01   2.6053863e-03
  8.3007284e-02   7.3617697e-03
 -8.1247248e-02   8.8476045e-03
  3.3750240e-02   1.9135104e-02
 -3.4452200e-01   1.1086294e-04
 -3.3640057e-01   7.3835993e-04
 -7.8258580e-01   1.3243975e-04
  2.4379554e-01   1.2098644e-03
 -1.1314962e+00   3.4909140e-04
 -9.0899849e-01   1.3715419e-03
  2.2998378e-03   1.9084662e-03
 -1.1382008e+00   3.5001675e-04
  5.8209783e-01   8.2638673e-04
  4.7818232e-01   1.5375321e-04
 -3.1210732e-01   2.4231584e-03
 -1.0211254e+00   2.6767678e-03
 -8.5304517e-01   1.2868789e-03
 -2.9408541e-01   3.5059555e-03
  1.5936740e-01   2.6646724e-03
 -8.4932789e-02   1.6073131e-03
 -3.2669115e-01   2.7901673e-04
 -7.4459618e-01   2.6917916e-03
 -2.4006592e-01   1.7260328e-03
 -3.5332307e-01   1.7167763e-03
  6.8177438e-01   9.1571454e-04
 -5.7841316e-02   1.9538791e-03
 -1.3422605e+00   2.6752416e-03
 -7.6357162e-01   7.5214701e-03
 -1.2465355e+00   2.0336874e-03
 -2.2842315e-01   1.4218826e-02
  4.8919651e-01   4.4173864e-03
 -1.1511705e-01   1.3847058e-02
  1.9166552e-01   2.5778024e-03
  5.0076418e-02   2.5554954e-03
  2.0210113e-01   4.2778705e-05
 -4.6859983e-01   8.4318832e-04
  1.3298912e+00   7.8994653e-04
  1.7870878e+00   9.7178548e-05
  1.4445407e+00   6.1517954e-04
  9.0555027e-02   1.1654197e-03
 -8.1680186e-02   7.3674466e-03
 -3.6529806e-01   2.1959885e-03
 -7.2639918e-01   2.5585527e-03
 -9.0794170e-01   8.0732396e-04
 -1.0904366e-03   5.3361976e-03
 -2.1704962e-04   1.3917612e-02
 -3.8109858e-02   5.7363166e-03
 -1.7907371e-01   2.9735405e-03
 -5.6807246e-02   5.3113420e-03
 -1.4714396e-02   2.3399587e-03
 -7.9946481e-02   1.0735644e-02
 -5.7531315e-01   4.1455915e-03
 -5.8380179e-02   7.8568785e-03
 -1.0381856e+00   5.2664359e-03
  1.9696091e-01   6.5426314e-03
 -6.6293880e-02   6.3026673e-03
 -1.5728192e+00   1.1336729e-02
 -6.6618598e-01   3.9214373e-04
  3.9657898e-02   5.3041573e-03
  3.5173785e-02   7.7558439e-03
 -4.6678927e-02   1.8744670e-02
 -7.0693642e-02   1.2694004e-02
  9.8664686e-04   2.1006756e-02
  1.4411213e-01   8.1251366e-03
  2.1768640e-01   3.1606801e-04
 -2.3823015e-01   2.4571840e-03
 -1.3910896e+00   4.4891666e-04
  4.8067513e-01   1.0342411e-03
 -1.3335297e+00   3.9542164e-04
 -3.3079785e-01   1.0373682e-03
 -2.2614716e-01   2.6460008e-03
  6.6623187e-01   2.5005005e-03
 -2.5117242e-01   1.4443005e-03
  1.9743805e+00   2.3679880e-03
  4.2682666e-02   3.2853438e-03
 -4.2013135e-03   3.1166526e-03
  4.7820565e-01   3.5998053e-03
 -1.0053908e-02   1.4333803e-02
  1.6316006e-01   3.4466102e-03
 -1.5747467e-01   2.7798018e-03
  9.6675843e-02   5.3386792e-04
  2.7538424e+00   2.4965887e-03
 -3.1615731e-01   3.1675654e-03
  4.0355629e-01   5.7671533e-04
 -2.9180253e-02   2.9266167e-03
 -3.9334109e-01   2.0340157e-03
 -1.5344226e-01   1.2564271e-03
  1.0935864e-01   2.5359800e-02
  3.2101162e-02   4.9476922e-03
 -3.8577843e-02   1.8667284e-02
  1.8268654e-01   1.5478564e-02
 -3.9002530e-02   1.8275751e-03
  3.8628511e-02   5.7810138e-04
  2.8460199e-02   9.2957849e-03
  9.3532495e-02   2.1011429e-03
 -1.0880441e-01   3.1132603e-03
 -6.1206751e-02   3.4055661e-03
  6.0142554e-02   1.0413102e-02
  2.3945668e-01   5.5348669e-04
 -8.8676549e-02   6.3465806e-03
  4.8372611e-02   1.2177796e-03