 running on   52 total cores
 distrk:  each k-point on   52 cores,    1 groups
 distr:  one band on   13 cores,    4 groups
 using from now: INCAR     
 vasp.5.4.4.18Apr17-6-g9f103f2a35 (build Oct 31 2019 15:01:46) complex          
  
 POSCAR found type information on POSCAR  Sc F  C 
 POSCAR found :  3 types and      80 ions
 scaLAPACK is switched off
 LDA part: xc-table for Pade appr. of Perdew
 generate k-points for:    3    3    1
 POSCAR, INCAR and KPOINTS ok, starting setup
 FFT: planning ...
 WAVECAR not read
 entering main loop
       N       E                     dE             d eps       ncg     rms          rms(c)
DAV:   1     0.136974724111E+05    0.13697E+05   -0.27862E+05  4280   0.156E+03
DAV:   2     0.251741948358E+04   -0.11180E+05   -0.10876E+05  4592   0.534E+02
DAV:   3    -0.375923434415E+03   -0.28933E+04   -0.27787E+04  6792   0.296E+02
DAV:   4    -0.738720297516E+03   -0.36280E+03   -0.35859E+03  6072   0.140E+02
DAV:   5    -0.753381043470E+03   -0.14661E+02   -0.14600E+02  6080   0.355E+01    0.766E+01
DAV:   6    -0.597453124687E+03    0.15593E+03   -0.84297E+02  5672   0.644E+01    0.251E+01
DAV:   7    -0.597328502008E+03    0.12462E+00   -0.55106E+01  5920   0.216E+01    0.165E+01
DAV:   8    -0.595764880099E+03    0.15636E+01   -0.10809E+01  5520   0.838E+00    0.454E+00
DAV:   9    -0.595241115162E+03    0.52376E+00   -0.28268E+00  5512   0.529E+00    0.227E+00
DAV:  10    -0.595201346034E+03    0.39769E-01   -0.31309E-01  5896   0.181E+00    0.123E+00
DAV:  11    -0.595088951940E+03    0.11239E+00   -0.13983E-01  5592   0.103E+00    0.719E-01
DAV:  12    -0.595048916536E+03    0.40035E-01   -0.55633E-02  5760   0.602E-01    0.339E-01
DAV:  13    -0.595036523060E+03    0.12393E-01   -0.33908E-02  5640   0.443E-01    0.260E-01
DAV:  14    -0.595031881194E+03    0.46419E-02   -0.10137E-02  5672   0.249E-01    0.163E-01
DAV:  15    -0.595036692226E+03   -0.48110E-02   -0.11124E-02  5544   0.222E-01    0.139E-01
DAV:  16    -0.595040569159E+03   -0.38769E-02   -0.24686E-03  5336   0.159E-01    0.935E-02
DAV:  17    -0.595045595120E+03   -0.50260E-02   -0.37707E-03  5624   0.136E-01    0.996E-02
DAV:  18    -0.595049475554E+03   -0.38804E-02   -0.71277E-04  5408   0.780E-02    0.727E-02
DAV:  19    -0.595050979898E+03   -0.15043E-02   -0.65138E-04  5584   0.572E-02    0.233E-02
DAV:  20    -0.595053761953E+03   -0.27821E-02   -0.21536E-04  5344   0.297E-02    0.236E-02
DAV:  21    -0.595056090043E+03   -0.23281E-02   -0.80607E-05  5080   0.173E-02    0.183E-02
DAV:  22    -0.595057958785E+03   -0.18687E-02   -0.11332E-04  4040   0.158E-02    0.683E-03
DAV:  23    -0.595058673572E+03   -0.71479E-03   -0.45641E-05  4736   0.990E-03    0.492E-03
DAV:  24    -0.595059039328E+03   -0.36576E-03   -0.12347E-05  4344   0.592E-03    0.258E-03
DAV:  25    -0.595059312701E+03   -0.27337E-03   -0.86492E-06  4168   0.399E-03    0.165E-03
DAV:  26    -0.595059379712E+03   -0.67012E-04   -0.11799E-06  2984   0.246E-03    0.112E-03
DAV:  27    -0.595059421447E+03   -0.41734E-04   -0.85595E-07  2848   0.205E-03    0.988E-04
DAV:  28    -0.595059441722E+03   -0.20276E-04   -0.54621E-07  2760   0.210E-03    0.854E-04
DAV:  29    -0.595059451748E+03   -0.10025E-04   -0.41584E-07  2656   0.158E-03    0.650E-04
DAV:  30    -0.595059454446E+03   -0.26986E-05   -0.27327E-07  2544   0.155E-03    0.542E-04
DAV:  31    -0.595059458070E+03   -0.36242E-05   -0.22305E-07  2624   0.114E-03    0.625E-04
DAV:  32    -0.595059459716E+03   -0.16456E-05   -0.15102E-07  2576   0.120E-03    0.571E-04
DAV:  33    -0.595059459996E+03   -0.27989E-06   -0.89948E-08  2496   0.717E-04
   1 F= -.59505946E+03 E0= -.59505946E+03  d E =-.618800E-21
