 vasp.5.4.4.18Apr17-6-g9f103f2a35 (build Oct 31 2019 15:01:46) complex          
  
 executed on             LinuxIFC date 2024.04.20  04:27:54
 running on   52 total cores
 distrk:  each k-point on   52 cores,    1 groups
 distr:  one band on NCORES_PER_BAND=  13 cores,    4 groups


--------------------------------------------------------------------------------------------------------


 INCAR:
 POTCAR:    PAW_PBE Sc_sv 07Sep2000               
 POTCAR:    PAW_PBE F 08Apr2002                   
 POTCAR:    PAW_PBE C 08Apr2002                   
 POTCAR:    PAW_PBE Sc_sv 07Sep2000               
   VRHFIN =Sc: 3p4s3d                                                           
   LEXCH  = PE                                                                  
   EATOM  =  1273.2868 eV,   93.5839 Ry                                         
                                                                                
   TITEL  = PAW_PBE Sc_sv 07Sep2000                                             
   LULTRA =        F    use ultrasoft PP ?                                      
   IUNSCR =        1    unscreen: 0-lin 1-nonlin 2-no                           
   RPACOR =    2.200    partial core radius                                     
   POMASS =   44.956; ZVAL   =   11.000    mass and valenz                      
   RCORE  =    2.500    outmost cutoff radius                                   
   RWIGS  =    2.700; RWIGS  =    1.429    wigner-seitz radius (au A)           
   ENMAX  =  222.660; ENMIN  =  166.995 eV                                      
   RCLOC  =    1.805    cutoff for local pot                                    
   LCOR   =        T    correct aug charges                                     
   LPAW   =        T    paw PP                                                  
   EAUG   =  443.063                                                            
   RMAX   =    2.551    core radius for proj-oper                               
   RAUG   =    1.300    factor for augmentation sphere                          
   RDEP   =    2.650    radius for radial grids                                 
   RDEPT  =    2.038    core radius for aug-charge                              
                                                                                
   Atomic configuration                                                         
    8 entries                                                                   
     n  l   j            E        occ.                                          
     1  0  0.50     -4394.2533   2.0000                                         
     2  0  0.50      -471.0040   2.0000                                         
     2  1  1.50      -384.9788   6.0000                                         
     3  0  0.50       -52.1410   2.0000                                         
     4  0  0.50        -3.5584   1.0000                                         
     3  1  1.50       -30.8841   6.0000                                         
     3  2  2.50        -1.3655   2.0000                                         
     4  3  2.50        -1.3606   0.0000                                         
   Description                                                                  
     l       E           TYP  RCUT    TYP  RCUT                                 
     0    -52.1409870     23  1.800                                             
     0     -3.5583698     23  2.500                                             
     1    -30.8840697     23  2.300                                             
     1      4.0817478     23  2.300                                             
     2     -1.3655397     23  2.500                                             
     2      0.3564476     23  2.500                                             
  local pseudopotential read in
  partial core-charges read in
  partial kinetic energy density read in
  atomic valenz-charges read in
  non local Contribution for L=           0  read in
    real space projection operators read in
  non local Contribution for L=           0  read in
    real space projection operators read in
  non local Contribution for L=           1  read in
    real space projection operators read in
  non local Contribution for L=           1  read in
    real space projection operators read in
  non local Contribution for L=           2  read in
    real space projection operators read in
  non local Contribution for L=           2  read in
    real space projection operators read in
    PAW grid and wavefunctions read in
 
   number of l-projection  operators is LMAX  =           6
   number of lm-projection operators is LMMAX =          18
 
 POTCAR:    PAW_PBE F 08Apr2002                   
   VRHFIN =F: s2p5                                                              
   LEXCH  = PE                                                                  
   EATOM  =   659.6475 eV,   48.4827 Ry                                         
                                                                                
   TITEL  = PAW_PBE F 08Apr2002                                                 
   LULTRA =        F    use ultrasoft PP ?                                      
   IUNSCR =        1    unscreen: 0-lin 1-nonlin 2-no                           
   RPACOR =    1.200    partial core radius                                     
   POMASS =   18.998; ZVAL   =    7.000    mass and valenz                      
   RCORE  =    1.520    outmost cutoff radius                                   
   RWIGS  =    1.500; RWIGS  =    0.794    wigner-seitz radius (au A)           
   ENMAX  =  400.000; ENMIN  =  300.000 eV                                      
   ICORE  =        2    local potential                                         
   LCOR   =        T    correct aug charges                                     
   LPAW   =        T    paw PP                                                  
   EAUG   =  613.614                                                            
   RMAX   =    1.555    core radius for proj-oper                               
   RAUG   =    1.300    factor for augmentation sphere                          
   RDEP   =    1.539    radius for radial grids                                 
   RDEPT  =    1.299    core radius for aug-charge                              
                                                                                
   Atomic configuration                                                         
    4 entries                                                                   
     n  l   j            E        occ.                                          
     1  0  0.50      -663.3661   2.0000                                         
     2  0  0.50       -29.8995   2.0000                                         
     2  1  0.50       -11.1114   5.0000                                         
     3  2  1.50       -10.8847   0.0000                                         
   Description                                                                  
     l       E           TYP  RCUT    TYP  RCUT                                 
     0    -29.8995018     23  1.200                                             
     0     -9.5240782     23  1.200                                             
     1    -11.1113914     23  1.520                                             
     1      1.3605826     23  1.520                                             
     2    -10.8846608      7  1.500                                             
  local pseudopotential read in
  partial core-charges read in
  partial kinetic energy density read in
  atomic valenz-charges read in
  non local Contribution for L=           0  read in
    real space projection operators read in
  non local Contribution for L=           0  read in
    real space projection operators read in
  non local Contribution for L=           1  read in
    real space projection operators read in
  non local Contribution for L=           1  read in
    real space projection operators read in
    PAW grid and wavefunctions read in
 
   number of l-projection  operators is LMAX  =           4
   number of lm-projection operators is LMMAX =           8
 
 POTCAR:    PAW_PBE C 08Apr2002                   
   VRHFIN =C: s2p2                                                              
   LEXCH  = PE                                                                  
   EATOM  =   147.1560 eV,   10.8157 Ry                                         
                                                                                
   TITEL  = PAW_PBE C 08Apr2002                                                 
   LULTRA =        F    use ultrasoft PP ?                                      
   IUNSCR =        1    unscreen: 0-lin 1-nonlin 2-no                           
   RPACOR =    1.200    partial core radius                                     
   POMASS =   12.011; ZVAL   =    4.000    mass and valenz                      
   RCORE  =    1.500    outmost cutoff radius                                   
   RWIGS  =    1.630; RWIGS  =    0.863    wigner-seitz radius (au A)           
   ENMAX  =  400.000; ENMIN  =  300.000 eV                                      
   ICORE  =        2    local potential                                         
   LCOR   =        T    correct aug charges                                     
   LPAW   =        T    paw PP                                                  
   EAUG   =  644.873                                                            
   DEXC   =    0.000                                                            
   RMAX   =    1.529    core radius for proj-oper                               
   RAUG   =    1.300    factor for augmentation sphere                          
   RDEP   =    1.501    radius for radial grids                                 
   RDEPT  =    1.300    core radius for aug-charge                              
                                                                                
   Atomic configuration                                                         
    4 entries                                                                   
     n  l   j            E        occ.                                          
     1  0  0.50      -273.3789   2.0000                                         
     2  0  0.50       -13.7508   2.0000                                         
     2  1  0.50        -5.2854   2.0000                                         
     3  2  1.50        -5.4423   0.0000                                         
   Description                                                                  
     l       E           TYP  RCUT    TYP  RCUT                                 
     0    -13.7508458     23  1.200                                             
     0     -8.2022199     23  1.200                                             
     1     -5.2854383     23  1.500                                             
     1     34.0145650     23  1.500                                             
     2     -5.4423304      7  1.500                                             
  local pseudopotential read in
  partial core-charges read in
  partial kinetic energy density read in
  atomic valenz-charges read in
  non local Contribution for L=           0  read in
    real space projection operators read in
  non local Contribution for L=           0  read in
    real space projection operators read in
  non local Contribution for L=           1  read in
    real space projection operators read in
  non local Contribution for L=           1  read in
    real space projection operators read in
    PAW grid and wavefunctions read in
 
   number of l-projection  operators is LMAX  =           4
   number of lm-projection operators is LMMAX =           8
 
 Optimization of the real space projectors (new method)

 maximal supplied QI-value         = 15.12
 optimisation between [QCUT,QGAM] = [ 12.55, 25.10] = [ 44.09,176.36] Ry 
 Optimized for a Real-space Cutoff    1.56 Angstroem

   l    n(q)    QCUT    max X(q) W(low)/X(q) W(high)/X(q)  e(spline) 
   0     12    12.548     2.962    0.12E-05    0.11E-06    0.46E-07
   0     12    12.548    26.414    0.30E-04    0.15E-05    0.76E-07
   1     11    12.548     3.969    0.45E-05    0.12E-05    0.60E-07
   1     11    12.548     5.137    0.15E-04    0.18E-04    0.36E-06
   2     11    12.548   143.970    0.20E-03    0.19E-03    0.76E-06
   2     11    12.548   121.201    0.20E-03    0.19E-03    0.76E-06
 Optimization of the real space projectors (new method)

 maximal supplied QI-value         = 24.76
 optimisation between [QCUT,QGAM] = [ 12.38, 25.00] = [ 42.90,175.06] Ry 
 Optimized for a Real-space Cutoff    1.16 Angstroem

   l    n(q)    QCUT    max X(q) W(low)/X(q) W(high)/X(q)  e(spline) 
   0      9    12.378    14.049    0.11E-03    0.38E-05    0.23E-06
   0      9    12.378     8.945    0.15E-03    0.56E-05    0.30E-06
   1      8    12.378     7.086    0.18E-03    0.14E-03    0.29E-06
   1      8    12.378     6.747    0.16E-03    0.13E-03    0.26E-06
 Optimization of the real space projectors (new method)

 maximal supplied QI-value         = 25.13
 optimisation between [QCUT,QGAM] = [ 12.32, 24.88] = [ 42.47,173.37] Ry 
 Optimized for a Real-space Cutoff    1.16 Angstroem

   l    n(q)    QCUT    max X(q) W(low)/X(q) W(high)/X(q)  e(spline) 
   0      9    12.315   115.676    0.19E-03    0.80E-05    0.34E-06
   0      9    12.315    87.132    0.19E-03    0.82E-05    0.34E-06
   1      8    12.315     4.429    0.18E-03    0.13E-03    0.22E-06
   1      8    12.315     2.733    0.14E-03    0.10E-03    0.18E-06
  PAW_PBE Sc_sv 07Sep2000               :
 energy of atom  1       EATOM=-1273.2868
 kinetic energy error for atom=    0.0014 (will be added to EATOM!!)
  PAW_PBE F 08Apr2002                   :
 energy of atom  2       EATOM= -659.6475
 kinetic energy error for atom=    0.0256 (will be added to EATOM!!)
  PAW_PBE C 08Apr2002                   :
 energy of atom  3       EATOM= -147.1560
 kinetic energy error for atom=    0.0057 (will be added to EATOM!!)
 
 
 POSCAR: Sc  F  C                                
  positions in cartesian coordinates
  No initial velocities read in
 exchange correlation table for  LEXCH =        8
   RHO(1)=    0.500       N(1)  =     2000
   RHO(2)=  100.500       N(2)  =     4000
 


--------------------------------------------------------------------------------------------------------


 ion  position               nearest neighbor table
   1  0.084  0.168  0.453-  49 2.13  70 2.20  65 2.26  66 2.26  50 2.31  61 2.38  29 3.12   2 3.18
                            16 3.19  17 3.20   4 3.22   5 3.22  18 3.27  13 3.30   6 3.34
   2  0.078  0.408  0.456-  50 2.09  62 2.14  66 2.20  71 2.27  67 2.32  51 2.40  30 3.07  18 3.11
                            19 3.12  13 3.16   1 3.18  14 3.27   7 3.28   6 3.40
   3  0.076  0.669  0.451-  63 2.00  51 2.20  52 2.21  68 2.27  72 2.31  67 2.34  15 3.12  20 3.14
                            19 3.18  31 3.25   8 3.25   4 3.29   7 3.32  14 3.32
   4  0.086  0.925  0.449-  65 2.20  52 2.20  69 2.25  49 2.28  68 2.35  64 2.36  16 3.12   5 3.17
                            20 3.19   1 3.22   8 3.24  15 3.26   3 3.29  17 3.32
   5  0.327  0.165  0.456-  54 2.11  69 2.11  70 2.23  74 2.27  49 2.34  53 2.39  22 3.07  21 3.08
                             4 3.17  17 3.17   1 3.22   6 3.25   9 3.27  10 3.31   8 3.31
   6  0.342  0.419  0.449-  75 2.17  54 2.24  55 2.29  50 2.34  70 2.37  71 2.38  22 3.15  10 3.18
                            18 3.25   5 3.25   7 3.28  11 3.30  23 3.31   1 3.34   2 3.40
   7  0.324  0.660  0.453-  56 2.08  51 2.15  71 2.16  55 2.24  72 2.28  76 2.51  19 3.11  23 3.16
                            24 3.27   2 3.28   6 3.28   8 3.30   3 3.32  12 3.41
   8  0.327  0.913  0.455-  56 2.17  53 2.19  69 2.20  52 2.29  72 2.30  73 2.34  20 3.00  21 3.06
                             4 3.24   3 3.25   9 3.28   7 3.30   5 3.31  24 3.34  12 3.40
   9  0.576  0.163  0.452-  53 2.05  57 2.18  58 2.29  73 2.34  74 2.34  78 2.39  21 3.16  26 3.21
                            10 3.26   5 3.27   8 3.28  14 3.29  25 3.29  12 3.33  13 3.34
  10  0.582  0.415  0.454-  75 2.11  58 2.11  59 2.27  54 2.29  74 2.32  79 2.33  22 3.09  27 3.10
                             6 3.18  11 3.22  26 3.26   9 3.26  14 3.28   5 3.31  15 3.40
  11  0.597  0.666  0.442-  55 2.24  80 2.26  60 2.29  59 2.34  75 2.39  76 2.57  15 3.15  10 3.22
                             6 3.30  16 3.32  27 3.35  28 3.37  12 3.37
  12  0.587  0.916  0.456-  60 2.25  57 2.26  76 2.27  56 2.28  73 2.31  77 2.32  24 3.07  25 3.10
                            28 3.13  13 3.29   9 3.33  11 3.37  16 3.38   8 3.40   7 3.41
  13  0.834  0.171  0.455-  61 2.12  66 2.21  57 2.24  62 2.27  77 2.33  78 2.37  30 3.08  25 3.10
                            29 3.12   2 3.16  14 3.16  12 3.29   1 3.30   9 3.34  16 3.38
  14  0.830  0.410  0.455-  58 2.15  78 2.19  67 2.20  62 2.30  79 2.32  63 2.46  30 3.12  31 3.14
                            13 3.16  26 3.26   2 3.27  10 3.28   9 3.29   3 3.32  15 3.39
  15  0.841  0.673  0.447-  59 2.08  63 2.09  64 2.23  68 2.24  80 2.26  79 2.49   3 3.12  11 3.15
                            16 3.21   4 3.26  32 3.33  31 3.36  14 3.39  10 3.40  27 3.43
  16  0.847  0.920  0.451-  64 2.15  65 2.24  60 2.31  80 2.34  61 2.35  77 2.39   4 3.12  28 3.13
                             1 3.19  15 3.21  29 3.30  32 3.31  11 3.32  12 3.38  13 3.38
  17  0.164  0.088  0.551-  37 2.09  33 2.10  36 2.25  65 2.26  70 2.29  69 2.46   5 3.17   1 3.20
                            29 3.21  21 3.28  22 3.28  18 3.29   4 3.32  20 3.34  32 3.42
  18  0.179  0.347  0.549-  33 2.17  71 2.24  38 2.25  70 2.28  34 2.33  66 2.47   2 3.11  23 3.19
                            22 3.20   6 3.25  19 3.25   1 3.27  29 3.29  17 3.29  30 3.37
  19  0.160  0.584  0.546-  35 2.10  72 2.17  34 2.18  67 2.27  39 2.32  71 2.34   7 3.11   2 3.12
                             3 3.18  31 3.22  18 3.25  30 3.27  20 3.27  23 3.35
  20  0.167  0.837  0.544-  40 2.08  36 2.20  72 2.23  68 2.30  69 2.31  35 2.60   8 3.00   3 3.14
                            21 3.14   4 3.19  19 3.27  32 3.30  17 3.34
  21  0.406  0.076  0.545-  41 2.09  40 2.11  69 2.22  74 2.26  73 2.26  37 2.26   8 3.06   5 3.08
                            20 3.14   9 3.16  26 3.25  17 3.28  22 3.33  24 3.40
  22  0.416  0.334  0.545-  74 2.17  37 2.19  38 2.23  75 2.29  70 2.32  42 2.32   5 3.07  10 3.09
                            27 3.14   6 3.15  18 3.20  26 3.26  17 3.28  21 3.33  23 3.37
  23  0.419  0.593  0.548-  39 2.16  76 2.17  38 2.21  43 2.25  71 2.35  75 2.53  24 3.05   7 3.16
                            18 3.19  27 3.27   6 3.31  28 3.34  19 3.35  22 3.37
  24  0.434  0.832  0.550-  44 2.16  76 2.17  73 2.27  39 2.35  72 2.55  40 2.64  23 3.05  12 3.07
                            25 3.20  28 3.25   7 3.27   8 3.34  21 3.40
  25  0.673  0.080  0.548-  77 2.20  44 2.22  41 2.27  73 2.32  78 2.33  45 2.43  12 3.10  13 3.10
                            29 3.19  24 3.20  30 3.23  26 3.26  28 3.28   9 3.29
  26  0.657  0.320  0.551-  41 2.08  78 2.16  46 2.19  74 2.27  79 2.42  42 2.47   9 3.21  21 3.25
                            14 3.26  10 3.26  22 3.26  25 3.26  27 3.30  31 3.32  30 3.32
  27  0.657  0.572  0.548-  43 2.07  47 2.10  42 2.21  79 2.24  75 2.30  80 2.41  10 3.10  22 3.14
                            23 3.27  31 3.30  26 3.30  32 3.31  28 3.31  11 3.35  15 3.43
  28  0.683  0.835  0.545-  48 2.08  43 2.16  77 2.21  80 2.24  76 2.26  44 2.36  32 3.07  16 3.13
                            12 3.13  24 3.25  25 3.28  27 3.31  23 3.34  29 3.34  11 3.37
  29  0.925  0.100  0.548-  66 2.09  45 2.13  77 2.26  33 2.29  48 2.34  65 2.46  30 3.10  13 3.12
                             1 3.12  25 3.19  17 3.21  18 3.29  16 3.30  28 3.34
  30  0.915  0.330  0.548-  45 2.11  34 2.19  78 2.25  46 2.26  66 2.27  67 2.30   2 3.07  13 3.08
                            29 3.10  14 3.12  31 3.22  25 3.23  19 3.27  26 3.32  18 3.37
  31  0.909  0.573  0.549-  35 2.11  46 2.16  79 2.20  47 2.23  67 2.23  68 2.48  14 3.14  30 3.22
                            19 3.22   3 3.25  32 3.28  27 3.30  26 3.32  15 3.36
  32  0.910  0.822  0.554-  48 2.19  47 2.20  36 2.25  68 2.31  80 2.39  65 2.52  28 3.07  31 3.28
                            20 3.30  27 3.31  16 3.31  15 3.33  17 3.42
  33  0.100  0.183  0.591-  17 2.10  18 2.17  29 2.29
  34  0.078  0.425  0.591-  19 2.18  30 2.19  18 2.33
  35  0.065  0.637  0.591-  19 2.10  31 2.11  20 2.60
  36  0.087  0.915  0.591-  20 2.20  17 2.25  32 2.25
  37  0.327  0.169  0.587-  17 2.09  22 2.19  21 2.26
  38  0.349  0.428  0.592-  23 2.21  22 2.23  18 2.25
  39  0.327  0.655  0.594-  23 2.16  19 2.32  24 2.35
  40  0.314  0.924  0.590-  20 2.08  21 2.11  24 2.64
  41  0.566  0.154  0.584-  26 2.08  21 2.09  25 2.27
  42  0.573  0.420  0.600-  27 2.21  22 2.32  26 2.47
  43  0.597  0.670  0.585-  27 2.07  28 2.16  23 2.25
  44  0.593  0.918  0.594-  24 2.16  25 2.22  28 2.36
  45  0.856  0.183  0.594-  30 2.11  29 2.13  25 2.43
  46  0.824  0.410  0.591-  31 2.16  26 2.19  30 2.26
  47  0.814  0.648  0.590-  27 2.10  32 2.20  31 2.23
  48  0.833  0.919  0.589-  28 2.08  32 2.19  29 2.34
  49  0.160  0.096  0.405-   1 2.13   4 2.28   5 2.34
  50  0.159  0.343  0.410-   2 2.09   1 2.31   6 2.34
  51  0.164  0.589  0.411-   7 2.15   3 2.20   2 2.40
  52  0.160  0.832  0.407-   4 2.20   3 2.21   8 2.29
  53  0.422  0.077  0.412-   9 2.05   8 2.19   5 2.39
  54  0.410  0.315  0.409-   5 2.11   6 2.24  10 2.29
  55  0.420  0.593  0.406-  11 2.24   7 2.24   6 2.29
  56  0.407  0.823  0.418-   7 2.08   8 2.17  12 2.28
  57  0.664  0.085  0.412-   9 2.18  13 2.24  12 2.26
  58  0.669  0.342  0.413-  10 2.11  14 2.15   9 2.29
  59  0.691  0.573  0.404-  15 2.08  10 2.27  11 2.34
  60  0.676  0.847  0.405-  12 2.25  11 2.29  16 2.31
  61  0.906  0.095  0.407-  13 2.12  16 2.35   1 2.38
  62  0.927  0.338  0.408-   2 2.14  13 2.27  14 2.30
  63  0.929  0.599  0.411-   3 2.00  15 2.09  14 2.46
  64  0.911  0.837  0.402-  16 2.15  15 2.23   4 2.36
  65  0.009  0.001  0.499-   4 2.20  16 2.24  17 2.26   1 2.26  29 2.46  32 2.52
  66  0.995  0.245  0.500-  29 2.09   2 2.20  13 2.21   1 2.26  30 2.27  18 2.47
  67  0.992  0.498  0.500-  14 2.20  31 2.23  19 2.27  30 2.30   2 2.32   3 2.34
  68  0.996  0.754  0.498-  15 2.24   3 2.27  20 2.30  32 2.31   4 2.35  31 2.48
  69  0.251  0.005  0.495-   5 2.11   8 2.20  21 2.22   4 2.25  20 2.31  17 2.46
  70  0.243  0.248  0.499-   1 2.20   5 2.23  18 2.28  17 2.29  22 2.32   6 2.37
  71  0.251  0.503  0.498-   7 2.16  18 2.24   2 2.27  19 2.34  23 2.35   6 2.38
  72  0.242  0.743  0.501-  19 2.17  20 2.23   7 2.28   8 2.30   3 2.31  24 2.55
  73  0.498  0.996  0.503-  21 2.26  24 2.27  12 2.31  25 2.32   8 2.34   9 2.34
  74  0.493  0.248  0.503-  22 2.17  21 2.26  26 2.27   5 2.27  10 2.32   9 2.34
  75  0.502  0.495  0.493-  10 2.11   6 2.17  22 2.29  27 2.30  11 2.39  23 2.53
  76  0.510  0.752  0.504-  24 2.17  23 2.17  28 2.26  12 2.27   7 2.51  11 2.57
  77  0.758  0.002  0.503-  25 2.20  28 2.21  29 2.26  12 2.32  13 2.33  16 2.39
  78  0.746  0.256  0.504-  26 2.16  14 2.19  30 2.25  25 2.33  13 2.37   9 2.39
  79  0.750  0.499  0.503-  31 2.20  27 2.24  14 2.32  10 2.33  26 2.42  15 2.49
  80  0.750  0.744  0.496-  28 2.24  11 2.26  15 2.26  16 2.34  32 2.39  27 2.41
 
  LATTYP: Found a hexagonal cell.
 ALAT       =    13.1286233990
 C/A-ratio  =     2.0434811347
  
  Lattice vectors:
  
 A1 = (  13.1286234000,   0.0000000000,   0.0000000000)
 A2 = (  -6.5643117000,  11.3697213800,   0.0000000000)
 A3 = (   0.0000000000,   0.0000000000,  26.8280942400)


Analysis of symmetry for initial positions (statically):
=====================================================================
 Subroutine PRICEL returns:
 Original cell was already a primitive cell.
 

 Routine SETGRP: Setting up the symmetry group for a 
 hexagonal supercell.


 Subroutine GETGRP returns: Found  1 space group operations
 (whereof  1 operations were pure point group operations)
 out of a pool of 24 trial point group operations.


The static configuration has the point symmetry C_1 .


Analysis of symmetry for dynamics (positions and initial velocities):
=====================================================================
 Subroutine PRICEL returns:
 Original cell was already a primitive cell.
 

 Routine SETGRP: Setting up the symmetry group for a 
 hexagonal supercell.


 Subroutine GETGRP returns: Found  1 space group operations
 (whereof  1 operations were pure point group operations)
 out of a pool of 24 trial point group operations.


The dynamic configuration has the point symmetry C_1 .


 Subroutine INISYM returns: Found  1 space group operations
 (whereof  1 operations are pure point group operations),
 and found     1 'primitive' translations

 
 

Automatic generation of k-mesh.
 generate k-points for:    3    3    1
Space group operators:
 irot       det(A)        alpha          n_x          n_y          n_z        tau_x        tau_y        tau_z
    1     1.000000     0.000000     1.000000     0.000000     0.000000     0.000000     0.000000     0.000000
 
 Subroutine IBZKPT returns following result:
 ===========================================
 
 Found      5 irreducible k-points:
 
 Following reciprocal coordinates:
            Coordinates               Weight
  0.000000  0.000000  0.000000      1.000000
  0.333333 -0.000000  0.000000      2.000000
  0.000000  0.333333  0.000000      2.000000
  0.333333  0.333333  0.000000      2.000000
 -0.333333  0.333333  0.000000      2.000000
 
 Following cartesian coordinates:
            Coordinates               Weight
  0.000000  0.000000  0.000000      1.000000
  0.025390  0.014659  0.000000      2.000000
  0.000000  0.029318  0.000000      2.000000
  0.025390  0.043976  0.000000      2.000000
 -0.025390  0.014659  0.000000      2.000000
 


--------------------------------------------------------------------------------------------------------




 Dimension of arrays:
   k-points           NKPTS =      5   k-points in BZ     NKDIM =      5   number of bands    NBANDS=    384
   number of dos      NEDOS =    301   number of ions     NIONS =     80
   non local maximal  LDIM  =      6   non local SUM 2l+1 LMDIM =     18
   total plane-waves  NPLWV = ******
   max r-space proj   IRMAX =  10060   max aug-charges    IRDMAX= 222480
   dimension x,y,z NGX =   108 NGY =  108 NGZ =  216
   dimension x,y,z NGXF=   216 NGYF=  216 NGZF=  432
   support grid    NGXF=   432 NGYF=  432 NGZF=  864
   ions per type =              32  32  16
   NGX,Y,Z   is equivalent  to a cutoff of  13.68, 13.68, 13.38 a.u.
   NGXF,Y,Z  is equivalent  to a cutoff of  27.35, 27.35, 26.77 a.u.

 SYSTEM =  unknown system                          
 POSCAR =  Sc  F  C                                

 Startparameter for this run:
   NWRITE =      2    write-flag & timer
   PREC   = anorma    normal or accurate (medium, high low for compatibility)
   ISTART =      0    job   : 0-new  1-cont  2-samecut
   ICHARG =      2    charge: 1-file 2-atom 10-const
   ISPIN  =      1    spin polarized calculation?
   LNONCOLLINEAR =      F non collinear calculations
   LSORBIT =      F    spin-orbit coupling
   INIWAV =      1    electr: 0-lowe 1-rand  2-diag
   LASPH  =      F    aspherical Exc in radial PAW
   METAGGA=      F    non-selfconsistent MetaGGA calc.

 Electronic Relaxation 1
   ENCUT  =  600.0 eV  44.10 Ry    6.64 a.u.  26.22 26.22 53.58*2*pi/ulx,y,z
   ENINI  =  600.0     initial cutoff
   ENAUG  =  644.9 eV  augmentation charge cutoff
   NELM   =     60;   NELMIN=  2; NELMDL= -5     # of ELM steps 
   EDIFF  = 0.1E-05   stopping-criterion for ELM
   LREAL  =      T    real-space projection
   NLSPLINE    = F    spline interpolate recip. space projectors
   LCOMPAT=      F    compatible to vasp.4.4
   GGA_COMPAT  = T    GGA compatible to vasp.4.4-vasp.4.6
   LMAXPAW     = -100 max onsite density
   LMAXMIX     =    2 max onsite mixed and CHGCAR
   VOSKOWN=      0    Vosko Wilk Nusair interpolation
   ROPT   =   -0.00025  -0.00025  -0.00025
 Ionic relaxation
   EDIFFG = -.1E-01   stopping-criterion for IOM
   NSW    =      1    number of steps for IOM
   NBLOCK =      1;   KBLOCK =      1    inner block; outer block 
   IBRION =     -1    ionic relax: 0-MD 1-quasi-New 2-CG
   NFREE  =      0    steps in history (QN), initial steepest desc. (CG)
   ISIF   =      2    stress and relaxation
   IWAVPR =     10    prediction:  0-non 1-charg 2-wave 3-comb
   ISYM   =      2    0-nonsym 1-usesym 2-fastsym
   LCORR  =      T    Harris-Foulkes like correction to forces

   POTIM  = 1.0000    time-step for ionic-motion
   TEIN   =    0.0    initial temperature
   TEBEG  =    0.0;   TEEND  =   0.0 temperature during run
   SMASS  =  -3.00    Nose mass-parameter (am)
   estimated Nose-frequenzy (Omega)   =  0.10E-29 period in steps =****** mass=  -0.394E-26a.u.
   SCALEE = 1.0000    scale energy and forces
   NPACO  =    256;   APACO  = 16.0  distance and # of slots for P.C.
   PSTRESS=    0.0 pullay stress

  Mass of Ions in am
   POMASS =  44.96 19.00 12.01
  Ionic Valenz
   ZVAL   =  11.00  7.00  4.00
  Atomic Wigner-Seitz radii
   RWIGS  =  -1.00 -1.00 -1.00
  virtual crystal weights 
   VCA    =   1.00  1.00  1.00
   NELECT =     640.0000    total number of electrons
   NUPDOWN=      -1.0000    fix difference up-down

 DOS related values:
   EMIN   =  10.00;   EMAX   =-10.00  energy-range for DOS
   EFERMI =   0.00
   ISMEAR =     0;   SIGMA  =   0.05  broadening in eV -4-tet -1-fermi 0-gaus

 Electronic relaxation 2 (details)
   IALGO  =     38    algorithm
   LDIAG  =      T    sub-space diagonalisation (order eigenvalues)
   LSUBROT=      F    optimize rotation matrix (better conditioning)
   TURBO    =      0    0=normal 1=particle mesh
   IRESTART =      0    0=no restart 2=restart with 2 vectors
   NREBOOT  =      0    no. of reboots
   NMIN     =      0    reboot dimension
   EREF     =   0.00    reference energy to select bands
   IMIX   =      4    mixing-type and parameters
     AMIX     =   0.40;   BMIX     =  1.00
     AMIX_MAG =   1.60;   BMIX_MAG =  1.00
     AMIN     =   0.10
     WC   =   100.;   INIMIX=   1;  MIXPRE=   1;  MAXMIX= -45

 Intra band minimization:
   WEIMIN = 0.0000     energy-eigenvalue tresh-hold
   EBREAK =  0.65E-09  absolut break condition
   DEPER  =   0.30     relativ break condition  

   TIME   =   0.40     timestep for ELM

  volume/ion in A,a.u.               =      50.06       337.80
  Fermi-wavevector in a.u.,A,eV,Ry     =   0.888414  1.678858 10.738790  0.789279
  Thomas-Fermi vector in A             =   2.009840
 
 Write flags
   LWAVE        =      F    write WAVECAR
   LDOWNSAMPLE  =      F    k-point downsampling of WAVECAR
   LCHARG       =      F    write CHGCAR
   LVTOT        =      F    write LOCPOT, total local potential
   LVHAR        =      F    write LOCPOT, Hartree potential only
   LELF         =      F    write electronic localiz. function (ELF)
   LORBIT       =      0    0 simple, 1 ext, 2 COOP (PROOUT), +10 PAW based schemes


 Dipole corrections
   LMONO  =      F    monopole corrections only (constant potential shift)
   LDIPOL =      F    correct potential (dipole corrections)
   IDIPOL =      0    1-x, 2-y, 3-z, 4-all directions 
   EPSILON=  1.0000000 bulk dielectric constant

 Exchange correlation treatment:
   GGA     =    --    GGA type
   LEXCH   =     8    internal setting for exchange type
   VOSKOWN=      0    Vosko Wilk Nusair interpolation
   LHFCALC =     F    Hartree Fock is set to
   LHFONE  =     F    Hartree Fock one center treatment
   AEXX    =    0.0000 exact exchange contribution

 Linear response parameters
   LEPSILON=     F    determine dielectric tensor
   LRPA    =     F    only Hartree local field effects (RPA)
   LNABLA  =     F    use nabla operator in PAW spheres
   LVEL    =     F    velocity operator in full k-point grid
   LINTERFAST=   F  fast interpolation
   KINTER  =     0    interpolate to denser k-point grid
   CSHIFT  =0.1000    complex shift for real part using Kramers Kronig
   OMEGAMAX=  -1.0    maximum frequency
   DEG_THRESHOLD= 0.2000000E-02 threshold for treating states as degnerate
   RTIME   =   -0.100 relaxation time in fs
  (WPLASMAI=    0.000 imaginary part of plasma frequency in eV, 0.658/RTIME)
   DFIELD  = 0.0000000 0.0000000 0.0000000 field for delta impulse in time
 
 Orbital magnetization related:
   ORBITALMAG=     F  switch on orbital magnetization
   LCHIMAG   =     F  perturbation theory with respect to B field
   DQ        =  0.001000  dq finite difference perturbation B field
   LLRAUG    =     F  two centre corrections for induced B field



--------------------------------------------------------------------------------------------------------


 Static calculation
 charge density and potential will be updated during run
 non-spin polarized calculation
 Variant of blocked Davidson
 Davidson routine will perform the subspace rotation
 perform sub-space diagonalisation
    after iterative eigenvector-optimisation
 modified Broyden-mixing scheme, WC =      100.0
 initial mixing is a Kerker type mixing with AMIX =  0.4000 and BMIX =      1.0000
 Hartree-type preconditioning will be used
 using additional bands           64
 real space projection scheme for non local part
 use partial core corrections
 calculate Harris-corrections to forces 
   (improved forces if not selfconsistent)
 use gradient corrections 
 use of overlap-Matrix (Vanderbilt PP)
 Gauss-broadening in eV      SIGMA  =   0.05


--------------------------------------------------------------------------------------------------------


  energy-cutoff  :      600.00
  volume of cell :     4004.60
      direct lattice vectors                 reciprocal lattice vectors
    13.128623400  0.000000000  0.000000000     0.076169448  0.043976451  0.000000000
    -6.564311700 11.369721380  0.000000000     0.000000000  0.087952903  0.000000000
     0.000000000  0.000000000 26.828094240     0.000000000  0.000000000  0.037274358

  length of vectors
    13.128623400 13.128623399 26.828094240     0.087952903  0.087952903  0.037274358


 
 k-points in units of 2pi/SCALE and weight: read from INCAR                         
   0.00000000  0.00000000  0.00000000       0.111
   0.02538982  0.01465882  0.00000000       0.222
   0.00000000  0.02931763  0.00000000       0.222
   0.02538982  0.04397645  0.00000000       0.222
  -0.02538982  0.01465882  0.00000000       0.222
 
 k-points in reciprocal lattice and weights: read from INCAR                         
   0.00000000  0.00000000  0.00000000       0.111
   0.33333333 -0.00000000  0.00000000       0.222
   0.00000000  0.33333333  0.00000000       0.222
   0.33333333  0.33333333  0.00000000       0.222
  -0.33333333  0.33333333  0.00000000       0.222
 
 position of ions in fractional coordinates (direct lattice) 
   0.08363110  0.16846906  0.45314411
   0.07769423  0.40786259  0.45628526
   0.07599668  0.66870207  0.45124326
   0.08621555  0.92454313  0.44907264
   0.32739093  0.16526557  0.45557078
   0.34181688  0.41932885  0.44920054
   0.32442305  0.66023420  0.45307846
   0.32701689  0.91310855  0.45471945
   0.57569799  0.16339046  0.45189645
   0.58178002  0.41458383  0.45369001
   0.59748092  0.66586958  0.44202697
   0.58724289  0.91605517  0.45562052
   0.83361177  0.17103122  0.45454300
   0.82958900  0.41004236  0.45470550
   0.84065773  0.67323209  0.44697213
   0.84669690  0.92023846  0.45149538
   0.16350024  0.08834120  0.55131691
   0.17934343  0.34666674  0.54871604
   0.15965451  0.58367522  0.54559703
   0.16727061  0.83666985  0.54386893
   0.40634175  0.07589026  0.54532534
   0.41617557  0.33413092  0.54494795
   0.41942141  0.59250257  0.54822937
   0.43404151  0.83207366  0.54997696
   0.67315210  0.08026690  0.54766850
   0.65656851  0.31971864  0.55145948
   0.65741733  0.57159073  0.54821773
   0.68308771  0.83549440  0.54511358
   0.92529042  0.09994696  0.54805526
   0.91479019  0.33034635  0.54751455
   0.90927636  0.57267134  0.54945928
   0.90970000  0.82243522  0.55394546
   0.09984201  0.18336102  0.59061626
   0.07814950  0.42453889  0.59060706
   0.06539007  0.63719306  0.59117005
   0.08708295  0.91502215  0.59120117
   0.32708183  0.16943111  0.58688681
   0.34871508  0.42793570  0.59200318
   0.32747568  0.65526146  0.59448681
   0.31392904  0.92390874  0.58999572
   0.56643649  0.15354525  0.58357020
   0.57305430  0.42044266  0.59988042
   0.59713686  0.67015202  0.58480619
   0.59297474  0.91820264  0.59364239
   0.85623678  0.18273933  0.59434056
   0.82444845  0.40964799  0.59107992
   0.81412657  0.64829712  0.58983873
   0.83263039  0.91860365  0.58931922
   0.16031432  0.09600961  0.40533732
   0.15939506  0.34309071  0.40958236
   0.16418841  0.58921804  0.41071213
   0.16007051  0.83233312  0.40691061
   0.42248800  0.07683949  0.41212192
   0.40991513  0.31542058  0.40941764
   0.42048910  0.59339371  0.40639776
   0.40725493  0.82347527  0.41799822
   0.66438524  0.08536507  0.41188009
   0.66856977  0.34243374  0.41290286
   0.69068647  0.57304682  0.40431530
   0.67592352  0.84698951  0.40521029
   0.90556169  0.09465899  0.40685571
   0.92721419  0.33770232  0.40840504
   0.92867987  0.59922551  0.41058876
   0.91123738  0.83695854  0.40156284
   0.00884388  0.00126357  0.49860541
   0.99518694  0.24494976  0.50035187
   0.99168133  0.49796988  0.49966228
   0.99591955  0.75408736  0.49845737
   0.25125250  0.00493488  0.49532450
   0.24331062  0.24834225  0.49930153
   0.25069282  0.50269052  0.49801929
   0.24176067  0.74298878  0.50110360
   0.49828134  0.99647026  0.50283637
   0.49306474  0.24754535  0.50304507
   0.50184514  0.49451560  0.49344505
   0.51003365  0.75156233  0.50361934
   0.75766270  0.00205329  0.50321532
   0.74582060  0.25606181  0.50381608
   0.75010988  0.49899361  0.50315309
   0.74963475  0.74374268  0.49607742
 
 position of ions in cartesian coordinates  (Angst):
  -0.00792227  1.91544633 12.15699299
  -1.65731880  4.63728396 12.24126395
  -3.39183699  7.60295623 12.10599668
  -4.93709782 10.51179778 12.04776305
   3.21333747  1.87902348 12.22209575
   1.73497981  4.76765221 12.05119431
  -0.07475505  7.50667890 12.15523165
  -1.70064758 10.38178983 12.19925613
   6.48557619  1.85770404 12.12352056
   4.91651329  4.71370267 12.17163828
   3.47312650  7.57075159 11.85874134
   1.69641910 10.41529201 12.22343012
   9.82147283  1.94457728 12.19452240
   8.19971566  4.66206734 12.19888212
   6.61737345  7.65446127 11.99141038
   5.07523271 10.46285486 12.11276054
   1.56663391  1.00441487 14.79078201
   0.07890385  3.94150427 14.72100560
  -1.73538214  6.63622460 14.63732862
  -3.29612878  9.51270307 14.59096690
   4.83654051  0.86285108 14.63003951
   3.27047281  3.79897549 14.61991494
   1.61705413  6.73658917 14.70794933
   0.23637660  9.46044569 14.75483381
   8.31066338  0.91261232 14.69290218
   6.52110794  3.63511182 14.79460687
   4.87888479  6.49882730 14.70763683
   3.48355561  9.49933857 14.62435854
  11.49170647  1.13636914 14.70327825
   9.84143945  3.75594598 14.68877183
   8.17835379  6.51111355 14.74094525
   6.54438757  9.35085933 14.86130103
   0.10714930  2.08476366 15.84510871
  -1.76081030  4.82688892 15.84486175
  -3.32425234  7.24470761 15.85996571
  -4.86321130 10.40354685 15.86080063
   3.18193556  1.92638457 15.74505465
   1.76904561  4.86550963 15.88231706
  -0.00203555  7.45014027 15.94894824
  -1.94336889 10.50458500 15.82846077
   6.42861253  1.74576668 15.65607631
   4.76349742  4.78031586 16.09364847
   3.44049829  7.61944172 15.68923566
   1.75757370 10.43970814 15.92629404
  10.04165226  2.07769527 15.94502459
   8.13481613  4.65758346 15.85754789
   6.43273676  7.37095768 15.82424900
   4.90129017 10.44426754 15.81031165
   1.47446936  1.09160251 10.87442792
  -0.15951671  3.90084579 10.98831412
  -1.71224307  6.69924493 11.01862374
  -3.36218857  9.46339572 10.91663632
   5.04228746  0.87364354 11.05644573
   3.31110243  3.58624406 10.98389499
   1.62522174  6.74672117 10.90287734
  -0.05885171  9.36268438 11.21409562
   8.16210076  0.97057702 11.04995781
   6.52955893  3.89337622 11.07739684
   5.30610462  6.51538271 10.84700896
   3.31404213  9.63003476 10.87101994
  11.26740724  1.07624635 10.91516336
   9.95626267  3.83958130 10.95672892
   8.25878532  6.81302704 11.01531405
   6.46923561  9.51598542 10.77316561
   0.10781349  0.01436649 13.37663298
  11.45750794  2.78501056 13.42348704
   9.75058123  5.66177880 13.40498663
   8.12498821  8.57376319 13.37266143
   3.26620542  0.05610816 13.28861246
   1.56413763  2.82358214 13.39530839
  -0.00856560  5.71545114 13.36090844
  -1.70322521  8.44757542 13.44365468
   0.00060668 11.32958917 13.49014164
   4.84829644  2.81452162 13.49574057
   3.34238136  5.62250456 13.23819017
   1.76255029  8.54505428 13.51114702
   9.93358989  0.02334532 13.50030801
   8.11072823  2.91135146 13.51642537
   6.57236048  5.67341831 13.49863853
   4.95951356  8.45614700 13.30881174
 


--------------------------------------------------------------------------------------------------------


 k-point  1 :   0.0000 0.0000 0.0000  plane waves:  133769
 k-point  2 :   0.3333-0.0000 0.0000  plane waves:  133588
 k-point  3 :   0.0000 0.3333 0.0000  plane waves:  133588
 k-point  4 :   0.3333 0.3333 0.0000  plane waves:  133608
 k-point  5 :  -0.3333 0.3333 0.0000  plane waves:  133588

 maximum and minimum number of plane-waves per node :     10323    10242

 maximum number of plane-waves:    133769
 maximum index in each direction: 
   IXMAX=   26   IYMAX=   26   IZMAX=   53
   IXMIN=  -26   IYMIN=  -26   IZMIN=  -53


 real space projection operators:
  total allocation   :      55702.34 KBytes
  max/ min on nodes  :       4708.11       4064.45


 parallel 3D FFT for wavefunctions:
    minimum data exchange during FFTs selected (reduces bandwidth)
 parallel 3D FFT for charge:
    minimum data exchange during FFTs selected (reduces bandwidth)


 total amount of memory used by VASP MPI-rank0   234718. kBytes
=======================================================================

   base      :      30000. kBytes
   nonlr-proj:      19450. kBytes
   fftplans  :      66973. kBytes
   grid      :      38377. kBytes
   one-center:        108. kBytes
   wavefun   :      79810. kBytes
 
     INWAV:  cpu time    0.0000: real time    0.0000
 Broyden mixing: mesh for mixing (old mesh)
   NGX = 53   NGY = 53   NGZ =107
  (NGX  =216   NGY  =216   NGZ  =432)
  gives a total of 300563 points

 initial charge density was supplied:
 charge density of overlapping atoms calculated
 number of electron     640.0000000 magnetization 
 keeping initial charge density in first step


--------------------------------------------------------------------------------------------------------


 Maximum index for non-local projection operator         1122
 Maximum index for augmentation-charges         5805 (set IRDMAX)


--------------------------------------------------------------------------------------------------------


 First call to EWALD:  gamma=   0.112
 Maximum number of real-space cells 4x 4x 2
 Maximum number of reciprocal cells 2x 2x 4

    FEWALD:  cpu time    0.0062: real time    0.0069


--------------------------------------- Iteration      1(   1)  ---------------------------------------


    POTLOK:  cpu time    0.4509: real time    0.4589
    SETDIJ:  cpu time    0.4200: real time    0.4223
     EDDAV:  cpu time   46.8487: real time   46.8499
       DOS:  cpu time    0.0014: real time    0.0014
    --------------------------------------------
      LOOP:  cpu time   47.7210: real time   47.7325

 eigenvalue-minimisations  :  4280
 total energy-change (2. order) : 0.1369747E+05  (-0.2786166E+05)
 number of electron     640.0000000 magnetization 
 augmentation part      640.0000000 magnetization 

 Free energy of the ion-electron system (eV)
  ---------------------------------------------------
  alpha Z        PSCENC =       871.83850952
  Ewald energy   TEWEN  =    285842.62028132
  -Hartree energ DENC   =   -340198.91105553
  -exchange      EXHF   =         0.00000000
  -V(xc)+E(xc)   XCENC  =      3042.69447888
  PAW double counting   =     50525.51240023   -50422.77561733
  entropy T*S    EENTRO =        -0.07088145
  eigenvalues    EBANDS =      -170.87163020
  atomic energy  EATOM  =     64207.43592568
  Solvation  Ediel_sol  =         0.00000000
  ---------------------------------------------------
  free energy    TOTEN  =     13697.47241113 eV

  energy without entropy =    13697.54329258  energy(sigma->0) =    13697.50785185


--------------------------------------------------------------------------------------------------------




--------------------------------------- Iteration      1(   2)  ---------------------------------------


     EDDAV:  cpu time   49.1818: real time   49.2104
       DOS:  cpu time    0.0013: real time    0.0013
    --------------------------------------------
      LOOP:  cpu time   49.1831: real time   49.2117

 eigenvalue-minimisations  :  4592
 total energy-change (2. order) :-0.1118005E+05  (-0.1087597E+05)
 number of electron     640.0000000 magnetization 
 augmentation part      640.0000000 magnetization 

 Free energy of the ion-electron system (eV)
  ---------------------------------------------------
  alpha Z        PSCENC =       871.83850952
  Ewald energy   TEWEN  =    285842.62028132
  -Hartree energ DENC   =   -340198.91105553
  -exchange      EXHF   =         0.00000000
  -V(xc)+E(xc)   XCENC  =      3042.69447888
  PAW double counting   =     50525.51240023   -50422.77561733
  entropy T*S    EENTRO =        -0.05564279
  eigenvalues    EBANDS =    -11350.93979640
  atomic energy  EATOM  =     64207.43592568
  Solvation  Ediel_sol  =         0.00000000
  ---------------------------------------------------
  free energy    TOTEN  =      2517.41948358 eV

  energy without entropy =     2517.47512637  energy(sigma->0) =     2517.44730497


--------------------------------------------------------------------------------------------------------




--------------------------------------- Iteration      1(   3)  ---------------------------------------


     EDDAV:  cpu time   67.8581: real time   67.8617
       DOS:  cpu time    0.0006: real time    0.0006
    --------------------------------------------
      LOOP:  cpu time   67.8587: real time   67.8623

 eigenvalue-minimisations  :  6792
 total energy-change (2. order) :-0.2893343E+04  (-0.2778692E+04)
 number of electron     640.0000000 magnetization 
 augmentation part      640.0000000 magnetization 

 Free energy of the ion-electron system (eV)
  ---------------------------------------------------
  alpha Z        PSCENC =       871.83850952
  Ewald energy   TEWEN  =    285842.62028132
  -Hartree energ DENC   =   -340198.91105553
  -exchange      EXHF   =         0.00000000
  -V(xc)+E(xc)   XCENC  =      3042.69447888
  PAW double counting   =     50525.51240023   -50422.77561733
  entropy T*S    EENTRO =        -0.00000000
  eigenvalues    EBANDS =    -14244.33835719
  atomic energy  EATOM  =     64207.43592568
  Solvation  Ediel_sol  =         0.00000000
  ---------------------------------------------------
  free energy    TOTEN  =      -375.92343442 eV

  energy without entropy =     -375.92343442  energy(sigma->0) =     -375.92343442


--------------------------------------------------------------------------------------------------------




--------------------------------------- Iteration      1(   4)  ---------------------------------------


     EDDAV:  cpu time   61.9173: real time   61.9300
       DOS:  cpu time    0.0006: real time    0.0006
    --------------------------------------------
      LOOP:  cpu time   61.9180: real time   61.9306

 eigenvalue-minimisations  :  6072
 total energy-change (2. order) :-0.3627969E+03  (-0.3585918E+03)
 number of electron     640.0000000 magnetization 
 augmentation part      640.0000000 magnetization 

 Free energy of the ion-electron system (eV)
  ---------------------------------------------------
  alpha Z        PSCENC =       871.83850952
  Ewald energy   TEWEN  =    285842.62028132
  -Hartree energ DENC   =   -340198.91105553
  -exchange      EXHF   =         0.00000000
  -V(xc)+E(xc)   XCENC  =      3042.69447888
  PAW double counting   =     50525.51240023   -50422.77561733
  entropy T*S    EENTRO =        -0.00000000
  eigenvalues    EBANDS =    -14607.13522029
  atomic energy  EATOM  =     64207.43592568
  Solvation  Ediel_sol  =         0.00000000
  ---------------------------------------------------
  free energy    TOTEN  =      -738.72029752 eV

  energy without entropy =     -738.72029752  energy(sigma->0) =     -738.72029752


--------------------------------------------------------------------------------------------------------




--------------------------------------- Iteration      1(   5)  ---------------------------------------


     EDDAV:  cpu time   62.0495: real time   62.0641
       DOS:  cpu time    0.0006: real time    0.0006
    CHARGE:  cpu time    3.6297: real time    3.6296
    MIXING:  cpu time    0.0254: real time    0.0256
    --------------------------------------------
      LOOP:  cpu time   65.7052: real time   65.7199

 eigenvalue-minimisations  :  6080
 total energy-change (2. order) :-0.1466075E+02  (-0.1460033E+02)
 number of electron     640.0000008 magnetization 
 augmentation part      134.5413035 magnetization 

 Broyden mixing:
  rms(total) = 0.76562E+01    rms(broyden)= 0.76559E+01
  rms(prec ) = 0.80636E+01
  weight for this iteration     100.00

 Free energy of the ion-electron system (eV)
  ---------------------------------------------------
  alpha Z        PSCENC =       871.83850952
  Ewald energy   TEWEN  =    285842.62028132
  -Hartree energ DENC   =   -340198.91105553
  -exchange      EXHF   =         0.00000000
  -V(xc)+E(xc)   XCENC  =      3042.69447888
  PAW double counting   =     50525.51240023   -50422.77561733
  entropy T*S    EENTRO =        -0.00000000
  eigenvalues    EBANDS =    -14621.79596625
  atomic energy  EATOM  =     64207.43592568
  Solvation  Ediel_sol  =         0.00000000
  ---------------------------------------------------
  free energy    TOTEN  =      -753.38104347 eV

  energy without entropy =     -753.38104347  energy(sigma->0) =     -753.38104347


--------------------------------------------------------------------------------------------------------




--------------------------------------- Iteration      1(   6)  ---------------------------------------


    POTLOK:  cpu time    0.3660: real time    0.3748
    SETDIJ:  cpu time    0.4180: real time    0.4180
     EDDAV:  cpu time   58.5647: real time   58.5651
       DOS:  cpu time    0.0007: real time    0.0007
    CHARGE:  cpu time    3.5922: real time    3.5921
    MIXING:  cpu time    0.0279: real time    0.0279
    --------------------------------------------
      LOOP:  cpu time   62.9694: real time   62.9786

 eigenvalue-minimisations  :  5672
 total energy-change (2. order) : 0.1559279E+03  (-0.8429676E+02)
 number of electron     640.0000008 magnetization 
 augmentation part      140.5631612 magnetization 

 Broyden mixing:
  rms(total) = 0.25093E+01    rms(broyden)= 0.25085E+01
  rms(prec ) = 0.25636E+01
  weight for this iteration     100.00

 eigenvalues of (default mixing * dielectric matrix)
  average eigenvalue GAMMA=   0.9765
  0.9765

 Free energy of the ion-electron system (eV)
  ---------------------------------------------------
  alpha Z        PSCENC =       871.83850952
  Ewald energy   TEWEN  =    285842.62028132
  -Hartree energ DENC   =   -340376.10607800
  -exchange      EXHF   =         0.00000000
  -V(xc)+E(xc)   XCENC  =      3055.10930326
  PAW double counting   =     56366.75609199   -56333.27916173
  entropy T*S    EENTRO =        -0.00000000
  eigenvalues    EBANDS =    -14231.82799672
  atomic energy  EATOM  =     64207.43592568
  Solvation  Ediel_sol  =         0.00000000
  ---------------------------------------------------
  free energy    TOTEN  =      -597.45312469 eV

  energy without entropy =     -597.45312469  energy(sigma->0) =     -597.45312469


--------------------------------------------------------------------------------------------------------




--------------------------------------- Iteration      1(   7)  ---------------------------------------


    POTLOK:  cpu time    0.4298: real time    0.4427
    SETDIJ:  cpu time    0.4494: real time    0.4529
     EDDAV:  cpu time   60.8044: real time   60.8085
       DOS:  cpu time    0.0007: real time    0.0007
    CHARGE:  cpu time    3.6332: real time    3.6332
    MIXING:  cpu time    0.0263: real time    0.0263
    --------------------------------------------
      LOOP:  cpu time   65.3438: real time   65.3643

 eigenvalue-minimisations  :  5920
 total energy-change (2. order) : 0.1246227E+00  (-0.5510644E+01)
 number of electron     640.0000008 magnetization 
 augmentation part      141.0443567 magnetization 

 Broyden mixing:
  rms(total) = 0.16479E+01    rms(broyden)= 0.16479E+01
  rms(prec ) = 0.16777E+01
  weight for this iteration     100.00

 eigenvalues of (default mixing * dielectric matrix)
  average eigenvalue GAMMA=   1.6406
  0.9584  2.3229

 Free energy of the ion-electron system (eV)
  ---------------------------------------------------
  alpha Z        PSCENC =       871.83850952
  Ewald energy   TEWEN  =    285842.62028132
  -Hartree energ DENC   =   -340524.22293408
  -exchange      EXHF   =         0.00000000
  -V(xc)+E(xc)   XCENC  =      3052.30385434
  PAW double counting   =     60056.43939067   -60029.71225320
  entropy T*S    EENTRO =        -0.00000000
  eigenvalues    EBANDS =    -14074.03127625
  atomic energy  EATOM  =     64207.43592568
  Solvation  Ediel_sol  =         0.00000000
  ---------------------------------------------------
  free energy    TOTEN  =      -597.32850201 eV

  energy without entropy =     -597.32850201  energy(sigma->0) =     -597.32850201


--------------------------------------------------------------------------------------------------------




--------------------------------------- Iteration      1(   8)  ---------------------------------------


    POTLOK:  cpu time    0.3920: real time    0.4012
    SETDIJ:  cpu time    0.4179: real time    0.4179
     EDDAV:  cpu time   57.2933: real time   57.2965
       DOS:  cpu time    0.0007: real time    0.0007
    CHARGE:  cpu time    3.6334: real time    3.6333
    MIXING:  cpu time    0.0250: real time    0.0250
    --------------------------------------------
      LOOP:  cpu time   61.7622: real time   61.7746

 eigenvalue-minimisations  :  5520
 total energy-change (2. order) : 0.1563622E+01  (-0.1080859E+01)
 number of electron     640.0000008 magnetization 
 augmentation part      141.1243617 magnetization 

 Broyden mixing:
  rms(total) = 0.45407E+00    rms(broyden)= 0.45398E+00
  rms(prec ) = 0.48948E+00
  weight for this iteration     100.00

 eigenvalues of (default mixing * dielectric matrix)
  average eigenvalue GAMMA=   1.4138
  2.4524  0.8945  0.8945

 Free energy of the ion-electron system (eV)
  ---------------------------------------------------
  alpha Z        PSCENC =       871.83850952
  Ewald energy   TEWEN  =    285842.62028132
  -Hartree energ DENC   =   -340784.97539640
  -exchange      EXHF   =         0.00000000
  -V(xc)+E(xc)   XCENC  =      3048.55238607
  PAW double counting   =     66389.82645297   -66380.01223591
  entropy T*S    EENTRO =        -0.00000000
  eigenvalues    EBANDS =    -13791.05080335
  atomic energy  EATOM  =     64207.43592568
  Solvation  Ediel_sol  =         0.00000000
  ---------------------------------------------------
  free energy    TOTEN  =      -595.76488010 eV

  energy without entropy =     -595.76488010  energy(sigma->0) =     -595.76488010


--------------------------------------------------------------------------------------------------------




--------------------------------------- Iteration      1(   9)  ---------------------------------------


    POTLOK:  cpu time    0.3858: real time    0.3960
    SETDIJ:  cpu time    0.4177: real time    0.4177
     EDDAV:  cpu time   57.2505: real time   57.2504
       DOS:  cpu time    0.0007: real time    0.0007
    CHARGE:  cpu time    3.6347: real time    3.6347
    MIXING:  cpu time    0.0263: real time    0.0263
    --------------------------------------------
      LOOP:  cpu time   61.7156: real time   61.7257

 eigenvalue-minimisations  :  5512
 total energy-change (2. order) : 0.5237649E+00  (-0.2826806E+00)
 number of electron     640.0000008 magnetization 
 augmentation part      141.5250513 magnetization 

 Broyden mixing:
  rms(total) = 0.22690E+00    rms(broyden)= 0.22689E+00
  rms(prec ) = 0.24522E+00
  weight for this iteration     100.00

 eigenvalues of (default mixing * dielectric matrix)
  average eigenvalue GAMMA=   1.2438
  2.1105  1.1034  0.8807  0.8807

 Free energy of the ion-electron system (eV)
  ---------------------------------------------------
  alpha Z        PSCENC =       871.83850952
  Ewald energy   TEWEN  =    285842.62028132
  -Hartree energ DENC   =   -340893.78354544
  -exchange      EXHF   =         0.00000000
  -V(xc)+E(xc)   XCENC  =      3050.56423945
  PAW double counting   =     66815.42608264   -66808.86072136
  entropy T*S    EENTRO =        -0.00000000
  eigenvalues    EBANDS =    -13680.48188697
  atomic energy  EATOM  =     64207.43592568
  Solvation  Ediel_sol  =         0.00000000
  ---------------------------------------------------
  free energy    TOTEN  =      -595.24111516 eV

  energy without entropy =     -595.24111516  energy(sigma->0) =     -595.24111516


--------------------------------------------------------------------------------------------------------




--------------------------------------- Iteration      1(  10)  ---------------------------------------


    POTLOK:  cpu time    0.3632: real time    0.3734
    SETDIJ:  cpu time    0.4179: real time    0.4179
     EDDAV:  cpu time   60.5081: real time   60.5103
       DOS:  cpu time    0.0006: real time    0.0006
    CHARGE:  cpu time    3.5968: real time    3.5968
    MIXING:  cpu time    0.0271: real time    0.0271
    --------------------------------------------
      LOOP:  cpu time   64.9138: real time   64.9262

 eigenvalue-minimisations  :  5896
 total energy-change (2. order) : 0.3976913E-01  (-0.3130881E-01)
 number of electron     640.0000008 magnetization 
 augmentation part      141.3467808 magnetization 

 Broyden mixing:
  rms(total) = 0.12278E+00    rms(broyden)= 0.12277E+00
  rms(prec ) = 0.14709E+00
  weight for this iteration     100.00

 eigenvalues of (default mixing * dielectric matrix)
  average eigenvalue GAMMA=   1.3751
  2.1990  2.1990  0.9055  0.9055  0.6665

 Free energy of the ion-electron system (eV)
  ---------------------------------------------------
  alpha Z        PSCENC =       871.83850952
  Ewald energy   TEWEN  =    285842.62028132
  -Hartree energ DENC   =   -340955.71624968
  -exchange      EXHF   =         0.00000000
  -V(xc)+E(xc)   XCENC  =      3051.89364755
  PAW double counting   =     66231.78267467   -66224.10950692
  entropy T*S    EENTRO =        -0.00000000
  eigenvalues    EBANDS =    -13620.94662817
  atomic energy  EATOM  =     64207.43592568
  Solvation  Ediel_sol  =         0.00000000
  ---------------------------------------------------
  free energy    TOTEN  =      -595.20134603 eV

  energy without entropy =     -595.20134603  energy(sigma->0) =     -595.20134603


--------------------------------------------------------------------------------------------------------




--------------------------------------- Iteration      1(  11)  ---------------------------------------


    POTLOK:  cpu time    0.4045: real time    0.4153
    SETDIJ:  cpu time    0.4187: real time    0.4208
     EDDAV:  cpu time   57.9505: real time   57.9517
       DOS:  cpu time    0.0005: real time    0.0005
    CHARGE:  cpu time    3.6240: real time    3.6240
    MIXING:  cpu time    0.0273: real time    0.0273
    --------------------------------------------
      LOOP:  cpu time   62.4255: real time   62.4396

 eigenvalue-minimisations  :  5592
 total energy-change (2. order) : 0.1123941E+00  (-0.1398349E-01)
 number of electron     640.0000008 magnetization 
 augmentation part      141.2616386 magnetization 

 Broyden mixing:
  rms(total) = 0.71949E-01    rms(broyden)= 0.71946E-01
  rms(prec ) = 0.90299E-01
  weight for this iteration     100.00

 eigenvalues of (default mixing * dielectric matrix)
  average eigenvalue GAMMA=   1.3586
  2.5278  2.0193  1.0392  0.9336  0.9336  0.6979

 Free energy of the ion-electron system (eV)
  ---------------------------------------------------
  alpha Z        PSCENC =       871.83850952
  Ewald energy   TEWEN  =    285842.62028132
  -Hartree energ DENC   =   -341100.33852808
  -exchange      EXHF   =         0.00000000
  -V(xc)+E(xc)   XCENC  =      3053.24008772
  PAW double counting   =     66193.32906032   -66185.77349532
  entropy T*S    EENTRO =        -0.00000000
  eigenvalues    EBANDS =    -13477.44079309
  atomic energy  EATOM  =     64207.43592568
  Solvation  Ediel_sol  =         0.00000000
  ---------------------------------------------------
  free energy    TOTEN  =      -595.08895194 eV

  energy without entropy =     -595.08895194  energy(sigma->0) =     -595.08895194


--------------------------------------------------------------------------------------------------------




--------------------------------------- Iteration      1(  12)  ---------------------------------------


    POTLOK:  cpu time    0.3689: real time    0.3814
    SETDIJ:  cpu time    0.4184: real time    0.4185
     EDDAV:  cpu time   59.4208: real time   59.4226
       DOS:  cpu time    0.0006: real time    0.0006
    CHARGE:  cpu time    3.5871: real time    3.5871
    MIXING:  cpu time    0.0250: real time    0.0250
    --------------------------------------------
      LOOP:  cpu time   63.8208: real time   63.8352

 eigenvalue-minimisations  :  5760
 total energy-change (2. order) : 0.4003540E-01  (-0.5563328E-02)
 number of electron     640.0000008 magnetization 
 augmentation part      141.3222878 magnetization 

 Broyden mixing:
  rms(total) = 0.33893E-01    rms(broyden)= 0.33891E-01
  rms(prec ) = 0.52349E-01
  weight for this iteration     100.00

 eigenvalues of (default mixing * dielectric matrix)
  average eigenvalue GAMMA=   1.3817
  2.4375  2.4375  1.1707  1.1707  0.8971  0.8971  0.6617

 Free energy of the ion-electron system (eV)
  ---------------------------------------------------
  alpha Z        PSCENC =       871.83850952
  Ewald energy   TEWEN  =    285842.62028132
  -Hartree energ DENC   =   -341171.03503658
  -exchange      EXHF   =         0.00000000
  -V(xc)+E(xc)   XCENC  =      3053.47822134
  PAW double counting   =     66352.65080693   -66345.53998510
  entropy T*S    EENTRO =        -0.00000000
  eigenvalues    EBANDS =    -13406.49763965
  atomic energy  EATOM  =     64207.43592568
  Solvation  Ediel_sol  =         0.00000000
  ---------------------------------------------------
  free energy    TOTEN  =      -595.04891654 eV

  energy without entropy =     -595.04891654  energy(sigma->0) =     -595.04891654


--------------------------------------------------------------------------------------------------------




--------------------------------------- Iteration      1(  13)  ---------------------------------------


    POTLOK:  cpu time    0.4066: real time    0.4181
    SETDIJ:  cpu time    0.4335: real time    0.4335
     EDDAV:  cpu time   58.3668: real time   58.3700
       DOS:  cpu time    0.0007: real time    0.0007
    CHARGE:  cpu time    3.5648: real time    3.5647
    MIXING:  cpu time    0.0241: real time    0.0241
    --------------------------------------------
      LOOP:  cpu time   62.7964: real time   62.8110

 eigenvalue-minimisations  :  5640
 total energy-change (2. order) : 0.1239348E-01  (-0.3390772E-02)
 number of electron     640.0000008 magnetization 
 augmentation part      141.2728283 magnetization 

 Broyden mixing:
  rms(total) = 0.26017E-01    rms(broyden)= 0.26014E-01
  rms(prec ) = 0.39493E-01
  weight for this iteration     100.00

 eigenvalues of (default mixing * dielectric matrix)
  average eigenvalue GAMMA=   1.3425
  2.7907  2.3841  1.1881  1.1881  0.8467  0.8467  0.8398  0.6556

 Free energy of the ion-electron system (eV)
  ---------------------------------------------------
  alpha Z        PSCENC =       871.83850952
  Ewald energy   TEWEN  =    285842.62028132
  -Hartree energ DENC   =   -341237.26055251
  -exchange      EXHF   =         0.00000000
  -V(xc)+E(xc)   XCENC  =      3053.74424498
  PAW double counting   =     66293.90742235   -66286.49795893
  entropy T*S    EENTRO =        -0.00000000
  eigenvalues    EBANDS =    -13340.82439547
  atomic energy  EATOM  =     64207.43592568
  Solvation  Ediel_sol  =         0.00000000
  ---------------------------------------------------
  free energy    TOTEN  =      -595.03652306 eV

  energy without entropy =     -595.03652306  energy(sigma->0) =     -595.03652306


--------------------------------------------------------------------------------------------------------




--------------------------------------- Iteration      1(  14)  ---------------------------------------


    POTLOK:  cpu time    0.3661: real time    0.3793
    SETDIJ:  cpu time    0.4185: real time    0.4185
     EDDAV:  cpu time   58.5748: real time   58.5777
       DOS:  cpu time    0.0007: real time    0.0007
    CHARGE:  cpu time    3.6271: real time    3.6271
    MIXING:  cpu time    0.0266: real time    0.0266
    --------------------------------------------
      LOOP:  cpu time   63.0138: real time   63.0298

 eigenvalue-minimisations  :  5672
 total energy-change (2. order) : 0.4641865E-02  (-0.1013745E-02)
 number of electron     640.0000008 magnetization 
 augmentation part      141.2930823 magnetization 

 Broyden mixing:
  rms(total) = 0.16307E-01    rms(broyden)= 0.16306E-01
  rms(prec ) = 0.27296E-01
  weight for this iteration     100.00

 eigenvalues of (default mixing * dielectric matrix)
  average eigenvalue GAMMA=   1.4343
  2.8417  2.8417  1.5178  1.5178  0.9277  0.9277  0.8417  0.8417  0.6506

 Free energy of the ion-electron system (eV)
  ---------------------------------------------------
  alpha Z        PSCENC =       871.83850952
  Ewald energy   TEWEN  =    285842.62028132
  -Hartree energ DENC   =   -341282.29466872
  -exchange      EXHF   =         0.00000000
  -V(xc)+E(xc)   XCENC  =      3053.90127412
  PAW double counting   =     66298.07703283   -66290.73912896
  entropy T*S    EENTRO =        -0.00000000
  eigenvalues    EBANDS =    -13295.87110697
  atomic energy  EATOM  =     64207.43592568
  Solvation  Ediel_sol  =         0.00000000
  ---------------------------------------------------
  free energy    TOTEN  =      -595.03188119 eV

  energy without entropy =     -595.03188119  energy(sigma->0) =     -595.03188119


--------------------------------------------------------------------------------------------------------




--------------------------------------- Iteration      1(  15)  ---------------------------------------


    POTLOK:  cpu time    0.4186: real time    0.4297
    SETDIJ:  cpu time    0.4180: real time    0.4180
     EDDAV:  cpu time   57.5921: real time   57.5990
       DOS:  cpu time    0.0007: real time    0.0007
    CHARGE:  cpu time    3.6278: real time    3.6278
    MIXING:  cpu time    0.0267: real time    0.0267
    --------------------------------------------
      LOOP:  cpu time   62.0840: real time   62.1019

 eigenvalue-minimisations  :  5544
 total energy-change (2. order) :-0.4811031E-02  (-0.1112356E-02)
 number of electron     640.0000008 magnetization 
 augmentation part      141.2930334 magnetization 

 Broyden mixing:
  rms(total) = 0.13851E-01    rms(broyden)= 0.13848E-01
  rms(prec ) = 0.19041E-01
  weight for this iteration     100.00

 eigenvalues of (default mixing * dielectric matrix)
  average eigenvalue GAMMA=   1.4695
  3.8760  2.7416  1.9118  1.0117  1.0117  1.0392  0.8515  0.8515  0.6383  0.7612

 Free energy of the ion-electron system (eV)
  ---------------------------------------------------
  alpha Z        PSCENC =       871.83850952
  Ewald energy   TEWEN  =    285842.62028132
  -Hartree energ DENC   =   -341342.90509003
  -exchange      EXHF   =         0.00000000
  -V(xc)+E(xc)   XCENC  =      3054.03779354
  PAW double counting   =     66258.04659427   -66250.64801907
  entropy T*S    EENTRO =        -0.00000000
  eigenvalues    EBANDS =    -13235.46268746
  atomic energy  EATOM  =     64207.43592568
  Solvation  Ediel_sol  =         0.00000000
  ---------------------------------------------------
  free energy    TOTEN  =      -595.03669223 eV

  energy without entropy =     -595.03669223  energy(sigma->0) =     -595.03669223


--------------------------------------------------------------------------------------------------------




--------------------------------------- Iteration      1(  16)  ---------------------------------------


    POTLOK:  cpu time    0.4000: real time    0.4097
    SETDIJ:  cpu time    0.4180: real time    0.4180
     EDDAV:  cpu time   55.8623: real time   55.8640
       DOS:  cpu time    0.0007: real time    0.0007
    CHARGE:  cpu time    3.6286: real time    3.6286
    MIXING:  cpu time    0.0261: real time    0.0261
    --------------------------------------------
      LOOP:  cpu time   60.3357: real time   60.3471

 eigenvalue-minimisations  :  5336
 total energy-change (2. order) :-0.3876933E-02  (-0.2468579E-03)
 number of electron     640.0000008 magnetization 
 augmentation part      141.2953916 magnetization 

 Broyden mixing:
  rms(total) = 0.93538E-02    rms(broyden)= 0.93534E-02
  rms(prec ) = 0.12525E-01
  weight for this iteration     100.00

 eigenvalues of (default mixing * dielectric matrix)
  average eigenvalue GAMMA=   1.4910
  4.2157  2.7380  2.0527  1.1410  1.1410  0.9991  0.9991  0.8912  0.8912  0.7006
  0.6316

 Free energy of the ion-electron system (eV)
  ---------------------------------------------------
  alpha Z        PSCENC =       871.83850952
  Ewald energy   TEWEN  =    285842.62028132
  -Hartree energ DENC   =   -341377.13249497
  -exchange      EXHF   =         0.00000000
  -V(xc)+E(xc)   XCENC  =      3054.08715417
  PAW double counting   =     66262.42972229   -66255.05277058
  entropy T*S    EENTRO =        -0.00000000
  eigenvalues    EBANDS =    -13201.26689659
  atomic energy  EATOM  =     64207.43592568
  Solvation  Ediel_sol  =         0.00000000
  ---------------------------------------------------
  free energy    TOTEN  =      -595.04056916 eV

  energy without entropy =     -595.04056916  energy(sigma->0) =     -595.04056916


--------------------------------------------------------------------------------------------------------




--------------------------------------- Iteration      1(  17)  ---------------------------------------


    POTLOK:  cpu time    0.3680: real time    0.3772
    SETDIJ:  cpu time    0.4168: real time    0.4191
     EDDAV:  cpu time   58.2995: real time   58.3003
       DOS:  cpu time    0.0007: real time    0.0006
    CHARGE:  cpu time    3.5957: real time    3.5957
    MIXING:  cpu time    0.0213: real time    0.0213
    --------------------------------------------
      LOOP:  cpu time   62.7020: real time   62.7144

 eigenvalue-minimisations  :  5624
 total energy-change (2. order) :-0.5025961E-02  (-0.3770700E-03)
 number of electron     640.0000008 magnetization 
 augmentation part      141.2957751 magnetization 

 Broyden mixing:
  rms(total) = 0.99590E-02    rms(broyden)= 0.99557E-02
  rms(prec ) = 0.11635E-01
  weight for this iteration     100.00

 eigenvalues of (default mixing * dielectric matrix)
  average eigenvalue GAMMA=   1.5755
  5.2715  2.8625  2.0732  1.8304  0.9688  0.9688  0.9967  0.9967  0.8345  0.8345
  0.6739  0.5941

 Free energy of the ion-electron system (eV)
  ---------------------------------------------------
  alpha Z        PSCENC =       871.83850952
  Ewald energy   TEWEN  =    285842.62028132
  -Hartree energ DENC   =   -341396.10925082
  -exchange      EXHF   =         0.00000000
  -V(xc)+E(xc)   XCENC  =      3054.13013119
  PAW double counting   =     66266.71647612   -66259.39600569
  entropy T*S    EENTRO =        -0.00000000
  eigenvalues    EBANDS =    -13182.28166244
  atomic energy  EATOM  =     64207.43592568
  Solvation  Ediel_sol  =         0.00000000
  ---------------------------------------------------
  free energy    TOTEN  =      -595.04559512 eV

  energy without entropy =     -595.04559512  energy(sigma->0) =     -595.04559512


--------------------------------------------------------------------------------------------------------




--------------------------------------- Iteration      1(  18)  ---------------------------------------


    POTLOK:  cpu time    0.4286: real time    0.4399
    SETDIJ:  cpu time    0.4382: real time    0.4382
     EDDAV:  cpu time   56.5477: real time   56.5479
       DOS:  cpu time    0.0006: real time    0.0006
    CHARGE:  cpu time    3.6126: real time    3.6125
    MIXING:  cpu time    0.0251: real time    0.0251
    --------------------------------------------
      LOOP:  cpu time   61.0528: real time   61.0642

 eigenvalue-minimisations  :  5408
 total energy-change (2. order) :-0.3880435E-02  (-0.7127651E-04)
 number of electron     640.0000008 magnetization 
 augmentation part      141.2876766 magnetization 

 Broyden mixing:
  rms(total) = 0.72689E-02    rms(broyden)= 0.72687E-02
  rms(prec ) = 0.82464E-02
  weight for this iteration     100.00

 eigenvalues of (default mixing * dielectric matrix)
  average eigenvalue GAMMA=   1.5874
  5.9524  2.7276  2.5170  1.7023  0.9315  0.9315  1.0124  1.0124  0.8944  0.8944
  0.7764  0.6572  0.6263

 Free energy of the ion-electron system (eV)
  ---------------------------------------------------
  alpha Z        PSCENC =       871.83850952
  Ewald energy   TEWEN  =    285842.62028132
  -Hartree energ DENC   =   -341413.03926723
  -exchange      EXHF   =         0.00000000
  -V(xc)+E(xc)   XCENC  =      3054.17231527
  PAW double counting   =     66257.93656874   -66250.62823921
  entropy T*S    EENTRO =        -0.00000000
  eigenvalues    EBANDS =    -13165.38556965
  atomic energy  EATOM  =     64207.43592568
  Solvation  Ediel_sol  =         0.00000000
  ---------------------------------------------------
  free energy    TOTEN  =      -595.04947555 eV

  energy without entropy =     -595.04947555  energy(sigma->0) =     -595.04947555


--------------------------------------------------------------------------------------------------------




--------------------------------------- Iteration      1(  19)  ---------------------------------------


    POTLOK:  cpu time    0.4038: real time    0.4181
    SETDIJ:  cpu time    0.4370: real time    0.4391
     EDDAV:  cpu time   57.9889: real time   57.9905
       DOS:  cpu time    0.0006: real time    0.0006
    CHARGE:  cpu time    3.5628: real time    3.5628
    MIXING:  cpu time    0.0247: real time    0.0247
    --------------------------------------------
      LOOP:  cpu time   62.4178: real time   62.4359

 eigenvalue-minimisations  :  5584
 total energy-change (2. order) :-0.1504344E-02  (-0.6513812E-04)
 number of electron     640.0000008 magnetization 
 augmentation part      141.2886863 magnetization 

 Broyden mixing:
  rms(total) = 0.23320E-02    rms(broyden)= 0.23285E-02
  rms(prec ) = 0.35569E-02
  weight for this iteration     100.00

 eigenvalues of (default mixing * dielectric matrix)
  average eigenvalue GAMMA=   1.6067
  6.4210  3.0023  2.4203  1.9551  0.9682  0.9682  1.0130  1.0130  0.9165  0.9165
  0.8196  0.8196  0.6635  0.5966

 Free energy of the ion-electron system (eV)
  ---------------------------------------------------
  alpha Z        PSCENC =       871.83850952
  Ewald energy   TEWEN  =    285842.62028132
  -Hartree energ DENC   =   -341418.52446855
  -exchange      EXHF   =         0.00000000
  -V(xc)+E(xc)   XCENC  =      3054.17798008
  PAW double counting   =     66261.65569943   -66254.36807385
  entropy T*S    EENTRO =        -0.00000000
  eigenvalues    EBANDS =    -13159.88683352
  atomic energy  EATOM  =     64207.43592568
  Solvation  Ediel_sol  =         0.00000000
  ---------------------------------------------------
  free energy    TOTEN  =      -595.05097990 eV

  energy without entropy =     -595.05097990  energy(sigma->0) =     -595.05097990


--------------------------------------------------------------------------------------------------------




--------------------------------------- Iteration      1(  20)  ---------------------------------------


    POTLOK:  cpu time    0.3875: real time    0.3966
    SETDIJ:  cpu time    0.4145: real time    0.4166
     EDDAV:  cpu time   55.9811: real time   55.9808
       DOS:  cpu time    0.0006: real time    0.0006
    CHARGE:  cpu time    3.5680: real time    3.5680
    MIXING:  cpu time    0.0256: real time    0.0256
    --------------------------------------------
      LOOP:  cpu time   60.3773: real time   60.3882

 eigenvalue-minimisations  :  5344
 total energy-change (2. order) :-0.2782054E-02  (-0.2153615E-04)
 number of electron     640.0000008 magnetization 
 augmentation part      141.2887540 magnetization 

 Broyden mixing:
  rms(total) = 0.23630E-02    rms(broyden)= 0.23623E-02
  rms(prec ) = 0.30111E-02
  weight for this iteration     100.00

 eigenvalues of (default mixing * dielectric matrix)
  average eigenvalue GAMMA=   1.6348
  6.8540  3.2134  2.4778  2.0506  1.3794  0.9444  0.9444  1.0500  0.9542  0.9542
  0.8604  0.8604  0.7346  0.6532  0.5907

 Free energy of the ion-electron system (eV)
  ---------------------------------------------------
  alpha Z        PSCENC =       871.83850952
  Ewald energy   TEWEN  =    285842.62028132
  -Hartree energ DENC   =   -341422.93182587
  -exchange      EXHF   =         0.00000000
  -V(xc)+E(xc)   XCENC  =      3054.17797569
  PAW double counting   =     66257.45333003   -66250.15785269
  entropy T*S    EENTRO =        -0.00000000
  eigenvalues    EBANDS =    -13155.49010564
  atomic energy  EATOM  =     64207.43592568
  Solvation  Ediel_sol  =         0.00000000
  ---------------------------------------------------
  free energy    TOTEN  =      -595.05376195 eV

  energy without entropy =     -595.05376195  energy(sigma->0) =     -595.05376195


--------------------------------------------------------------------------------------------------------




--------------------------------------- Iteration      1(  21)  ---------------------------------------


    POTLOK:  cpu time    0.4402: real time    0.4510
    SETDIJ:  cpu time    0.4537: real time    0.4537
     EDDAV:  cpu time   53.8299: real time   53.8325
       DOS:  cpu time    0.0006: real time    0.0006
    CHARGE:  cpu time    3.6051: real time    3.6052
    MIXING:  cpu time    0.0281: real time    0.0281
    --------------------------------------------
      LOOP:  cpu time   58.3576: real time   58.3710

 eigenvalue-minimisations  :  5080
 total energy-change (2. order) :-0.2328090E-02  (-0.8060662E-05)
 number of electron     640.0000008 magnetization 
 augmentation part      141.2890337 magnetization 

 Broyden mixing:
  rms(total) = 0.18317E-02    rms(broyden)= 0.18310E-02
[...]
    -6.564311700 11.369721380  0.000000000     0.000000000  0.087952903  0.000000000
     0.000000000  0.000000000 26.828094240     0.000000000  0.000000000  0.037274358

  length of vectors
    13.128623400 13.128623399 26.828094240     0.087952903  0.087952903  0.037274358


 FORCES acting on ions
    electron-ion (+dipol)            ewald-force                    non-local-force                 convergence-correction
 -----------------------------------------------------------------------------------------------
   0.204E+02 0.207E+01 0.125E+04   -.196E+02 -.203E+01 -.124E+04   -.996E+00 0.156E+00 -.555E+01   0.679E-04 -.317E-04 0.102E-03
   -.123E+02 -.675E+02 0.115E+04   0.122E+02 0.683E+02 -.115E+04   -.926E-01 0.648E+00 -.432E+01   0.400E-04 -.199E-04 -.270E-04
   -.539E+02 -.122E+02 0.123E+04   0.546E+02 0.117E+02 -.122E+04   0.466E+00 0.502E+00 -.466E+01   -.160E-04 0.466E-04 -.198E-04
   0.113E+02 0.587E+01 0.132E+04   -.105E+02 -.609E+01 -.132E+04   -.727E+00 -.244E+00 -.639E+01   -.493E-04 0.304E-04 0.790E-04
   -.819E+01 0.310E+02 0.122E+04   0.816E+01 -.300E+02 -.122E+04   0.214E+00 -.627E+00 -.611E+01   -.642E-04 -.151E-04 0.542E-04
   0.228E+02 -.386E+02 0.137E+04   -.234E+02 0.386E+02 -.136E+04   -.446E+00 -.183E+00 -.648E+01   0.931E-04 0.487E-04 0.111E-03
   -.659E+02 -.361E+01 0.121E+04   0.646E+02 0.368E+01 -.121E+04   0.135E+01 0.385E+00 -.491E+01   0.141E-03 -.155E-04 0.212E-04
   -.274E+02 0.248E+02 0.121E+04   0.282E+02 -.252E+02 -.120E+04   -.275E-01 0.747E-01 -.577E+01   -.451E-04 0.776E-04 0.139E-04
   -.350E+02 -.162E+02 0.128E+04   0.351E+02 0.154E+02 -.127E+04   0.477E+00 0.100E+01 -.543E+01   0.362E-05 -.189E-04 -.435E-05
   0.246E+02 -.181E+02 0.123E+04   -.228E+02 0.180E+02 -.122E+04   -.575E+00 -.220E+00 -.609E+01   -.152E-03 0.987E-04 0.571E-04
   0.463E+02 -.253E+01 0.151E+04   -.471E+02 0.303E+01 -.150E+04   0.149E+00 -.116E+00 -.676E+01   -.415E-05 0.112E-04 0.177E-03
   0.784E+01 0.329E+02 0.120E+04   -.790E+01 -.331E+02 -.120E+04   -.962E-02 0.114E+00 -.618E+01   0.709E-04 -.122E-03 0.111E-03
   0.582E+02 0.257E+02 0.121E+04   -.570E+02 -.270E+02 -.121E+04   -.117E+01 0.765E+00 -.465E+01   -.841E-05 -.191E-04 0.485E-04
   0.171E+01 -.185E+02 0.125E+04   -.238E+01 0.195E+02 -.124E+04   0.218E+00 0.377E-01 -.725E+01   -.159E-07 -.660E-04 -.279E-04
   0.265E+02 -.212E+02 0.130E+04   -.264E+02 0.205E+02 -.129E+04   0.367E-01 0.157E+00 -.514E+01   -.143E-03 0.825E-04 0.637E-04
   0.329E+02 -.110E+02 0.123E+04   -.336E+02 0.107E+02 -.123E+04   -.379E+00 0.354E+00 -.540E+01   0.211E-04 -.973E-04 0.105E-03
   0.292E+02 0.844E+02 -.134E+04   -.290E+02 -.841E+02 0.134E+04   0.397E-01 -.839E+00 0.560E+01   -.767E-04 -.229E-04 -.101E-03
   0.222E+01 -.369E+02 -.129E+04   -.197E+01 0.367E+02 0.128E+04   -.453E+00 -.548E-01 0.618E+01   0.453E-04 -.575E-04 -.433E-04
   -.669E+02 -.747E+02 -.119E+04   0.657E+02 0.750E+02 0.118E+04   0.133E+01 -.365E+00 0.485E+01   0.395E-04 -.930E-05 0.863E-04
   0.108E+02 0.878E+02 -.119E+04   -.105E+02 -.878E+02 0.118E+04   -.706E+00 -.730E+00 0.587E+01   -.753E-04 0.465E-04 0.225E-04
   -.223E+02 0.287E+02 -.121E+04   0.234E+02 -.284E+02 0.121E+04   -.774E+00 0.176E+00 0.530E+01   -.113E-04 -.315E-04 -.284E-04
   0.442E+00 -.343E+02 -.119E+04   0.872E-01 0.335E+02 0.118E+04   -.561E+00 0.803E+00 0.547E+01   -.642E-04 0.943E-04 -.135E-03
   -.159E+02 -.138E+02 -.122E+04   0.152E+02 0.140E+02 0.121E+04   0.113E+01 -.754E+00 0.531E+01   0.612E-04 0.118E-03 -.160E-03
   0.967E+02 0.903E+01 -.136E+04   -.966E+02 -.839E+01 0.135E+04   -.155E+01 -.602E+00 0.671E+01   0.151E-03 -.754E-04 -.958E-04
   0.891E+01 0.240E+01 -.130E+04   -.104E+02 -.331E+01 0.129E+04   0.403E+00 0.927E+00 0.685E+01   0.419E-04 -.852E-05 -.359E-04
   0.397E+02 -.377E+02 -.137E+04   -.391E+02 0.386E+02 0.137E+04   -.758E+00 0.410E+00 0.628E+01   0.309E-04 -.165E-04 0.183E-04
   0.106E+02 0.401E+01 -.119E+04   -.861E+01 -.444E+01 0.118E+04   -.108E+01 0.403E+00 0.460E+01   -.902E-04 0.781E-04 -.121E-03
   0.391E+02 0.854E+01 -.115E+04   -.401E+02 -.886E+01 0.115E+04   -.261E-01 -.262E+00 0.558E+01   -.902E-05 -.894E-04 -.205E-03
   -.492E+02 0.968E+02 -.129E+04   0.484E+02 -.979E+02 0.128E+04   0.133E+01 -.686E+00 0.642E+01   0.200E-04 -.530E-04 -.267E-04
   0.208E+02 -.956E+01 -.124E+04   -.213E+02 0.109E+02 0.124E+04   0.742E-01 -.141E+00 0.498E+01   -.225E-04 -.639E-04 0.157E-04
   0.287E+02 -.831E+02 -.128E+04   -.288E+02 0.818E+02 0.127E+04   -.389E+00 0.145E+01 0.545E+01   -.109E-04 0.602E-04 0.950E-04
   -.325E+02 -.224E+02 -.141E+04   0.340E+02 0.226E+02 0.140E+04   -.604E+00 0.188E+00 0.656E+01   -.350E-04 0.726E-06 -.829E-04
   0.225E+02 0.138E+02 -.160E+04   -.245E+02 -.123E+02 0.161E+04   0.159E+01 -.186E+01 -.165E+02   -.339E-05 -.935E-06 -.447E-04
   -.354E+02 0.461E+01 -.159E+04   0.352E+02 -.436E+01 0.160E+04   0.727E+00 -.720E+00 -.169E+02   -.201E-05 0.153E-04 -.461E-04
   -.827E+00 -.962E+02 -.160E+04   0.129E+01 0.991E+02 0.161E+04   -.499E+00 -.201E+01 -.167E+02   -.337E-05 -.151E-04 -.377E-04
   0.136E+02 0.210E+02 -.158E+04   -.117E+02 -.208E+02 0.159E+04   -.243E+01 -.144E+00 -.153E+02   -.540E-05 -.454E-05 -.337E-04
   -.320E+02 -.117E+01 -.156E+04   0.355E+02 0.240E+01 0.158E+04   -.318E+01 -.126E+01 -.154E+02   -.112E-04 -.164E-04 -.500E-04
   0.407E+01 -.982E+01 -.159E+04   -.191E+01 0.100E+02 0.161E+04   -.262E+01 -.416E+00 -.180E+02   -.461E-05 -.211E-04 -.605E-04
   0.310E+02 -.388E+02 -.161E+04   -.352E+02 0.381E+02 0.163E+04   0.448E+01 0.111E+01 -.171E+02   -.237E-04 -.490E-05 -.506E-04
   -.661E+02 0.562E+02 -.159E+04   0.697E+02 -.584E+02 0.161E+04   -.307E+01 0.210E+01 -.167E+02   -.210E-04 0.151E-04 -.434E-04
   -.269E+02 0.409E+02 -.152E+04   0.282E+02 -.450E+02 0.154E+04   -.618E+00 0.423E+01 -.125E+02   0.128E-05 0.792E-05 -.430E-04
   -.129E+02 0.274E+02 -.167E+04   0.131E+02 -.289E+02 0.168E+04   -.232E+00 0.133E+01 -.188E+02   0.542E-05 0.687E-06 -.303E-04
   0.397E+02 -.213E+02 -.151E+04   -.414E+02 0.227E+02 0.152E+04   0.102E+01 -.151E+01 -.148E+02   -.173E-05 -.490E-05 -.882E-04
   0.317E+01 0.429E+01 -.162E+04   0.265E+00 -.457E+01 0.164E+04   -.354E+01 0.319E+00 -.167E+02   -.395E-05 -.655E-06 -.509E-04
   0.387E+02 0.432E+02 -.165E+04   -.406E+02 -.440E+02 0.167E+04   0.152E+01 0.221E+00 -.188E+02   0.593E-05 0.765E-05 -.552E-04
   0.115E+02 0.164E+02 -.160E+04   -.106E+02 -.169E+02 0.162E+04   -.732E+00 0.472E+00 -.155E+02   0.476E-05 0.734E-05 -.336E-04
   -.287E+02 -.302E+02 -.157E+04   0.296E+02 0.277E+02 0.159E+04   -.446E+00 0.345E+01 -.154E+02   0.291E-04 0.140E-04 -.312E-04
   -.250E+02 -.391E+02 -.157E+04   0.248E+02 0.443E+02 0.158E+04   0.918E+00 -.521E+01 -.152E+02   0.362E-04 0.220E-04 -.324E-04
   -.257E+02 -.116E+00 0.164E+04   0.276E+02 0.110E+01 -.165E+04   -.147E+01 -.136E+01 0.180E+02   0.816E-05 0.244E-05 0.478E-04
   -.441E+02 -.104E+02 0.159E+04   0.457E+02 0.103E+02 -.160E+04   -.928E+00 -.373E+00 0.167E+02   -.212E-04 0.185E-04 0.391E-04
   -.988E+01 0.197E+02 0.157E+04   0.854E+01 -.228E+02 -.158E+04   0.151E+01 0.297E+01 0.157E+02   0.923E-05 -.163E-04 0.637E-05
   -.342E+02 -.220E+02 0.161E+04   0.354E+02 0.219E+02 -.163E+04   -.912E+00 0.290E+00 0.168E+02   0.370E-05 -.656E-05 0.363E-04
   0.238E+02 0.135E+02 0.158E+04   -.279E+02 -.147E+02 -.159E+04   0.356E+01 0.121E+01 0.160E+02   -.332E-07 -.314E-05 0.332E-04
   -.718E+01 -.208E+02 0.160E+04   0.882E+01 0.206E+02 -.162E+04   -.175E+01 0.960E+00 0.161E+02   -.105E-04 0.132E-04 0.540E-04
   0.285E+01 -.103E+02 0.158E+04   -.526E+01 0.114E+02 -.160E+04   0.270E+01 -.134E+01 0.149E+02   0.493E-05 0.179E-04 0.525E-04
   -.328E+02 -.299E+02 0.148E+04   0.340E+02 0.319E+02 -.149E+04   -.767E+00 -.136E+01 0.134E+02   0.218E-04 -.203E-04 0.422E-04
   0.591E+01 0.167E+02 0.156E+04   -.457E+01 -.179E+02 -.157E+04   -.132E+01 0.114E+01 0.165E+02   -.250E-05 0.167E-04 0.387E-04
   -.180E+02 0.313E+02 0.156E+04   0.184E+02 -.310E+02 -.157E+04   -.860E-01 -.112E+01 0.157E+02   0.240E-04 -.111E-04 0.233E-04
   0.458E+02 0.316E+02 0.163E+04   -.444E+02 -.363E+02 -.164E+04   -.276E+01 0.489E+01 0.165E+02   -.287E-04 0.117E-04 0.297E-04
   0.333E+02 -.178E+01 0.159E+04   -.333E+02 0.486E+01 -.161E+04   -.636E-01 -.357E+01 0.162E+02   -.107E-05 -.264E-04 0.582E-04
   -.134E+02 0.213E+02 0.160E+04   0.145E+02 -.218E+02 -.162E+04   -.437E+00 0.106E+00 0.177E+02   -.950E-05 0.184E-05 0.348E-04
   0.383E+02 -.896E+01 0.162E+04   -.384E+02 0.956E+01 -.164E+04   -.501E+00 -.938E+00 0.186E+02   0.715E-05 0.521E-05 0.368E-04
   -.352E+01 0.755E+02 0.158E+04   0.264E+01 -.816E+02 -.160E+04   0.391E+00 0.516E+01 0.166E+02   0.158E-04 0.221E-05 0.143E-04
   -.626E+01 -.160E+02 0.165E+04   0.757E+01 0.161E+02 -.167E+04   -.102E+01 -.561E-01 0.190E+02   -.110E-04 -.742E-05 0.366E-04
   0.120E+02 0.238E+02 -.187E+02   -.117E+02 -.238E+02 0.187E+02   -.142E+01 0.276E+00 0.475E+00   0.132E-05 -.499E-05 0.784E-05
   -.215E+02 -.761E+01 -.289E+01   0.216E+02 0.748E+01 0.260E+01   -.274E-01 0.125E+01 0.471E+00   0.149E-05 0.719E-07 0.257E-05
   -.593E+01 -.149E+02 0.188E+02   0.580E+01 0.148E+02 -.190E+02   0.819E+00 -.245E+00 0.183E+00   0.531E-05 -.525E-05 0.744E-05
   0.906E+01 -.674E+01 -.153E+02   -.911E+01 0.684E+01 0.153E+02   0.255E+00 0.482E-01 0.577E+00   -.136E-04 0.138E-04 0.114E-04
   0.213E+02 0.171E+02 0.358E+02   -.213E+02 -.169E+02 -.360E+02   -.439E+00 -.134E+01 0.103E+01   -.541E-05 0.291E-05 -.508E-06
   0.648E+01 -.165E+02 0.111E+02   -.660E+01 0.164E+02 -.113E+02   0.437E+00 0.969E+00 0.526E+00   0.170E-06 0.271E-05 0.940E-06
   -.228E+02 -.575E+01 0.204E+02   0.226E+02 0.575E+01 -.206E+02   0.769E+00 -.591E+00 0.118E+01   0.684E-05 0.223E-05 -.325E-05
   -.248E+02 -.193E+02 -.315E+02   0.246E+02 0.191E+02 0.315E+02   0.366E+00 0.115E+01 0.558E-02   0.514E-05 -.503E-05 0.582E-05
   -.568E+01 0.126E+02 -.269E+02   0.563E+01 -.128E+02 0.271E+02   0.632E+00 -.557E-01 -.554E+00   0.292E-05 -.136E-06 -.180E-05
   -.179E+02 -.474E+01 -.185E+02   0.178E+02 0.468E+01 0.187E+02   0.416E+00 0.523E-01 -.104E+01   -.757E-05 -.129E-05 -.335E-05
   0.264E+02 -.451E+02 0.569E+02   -.263E+02 0.449E+02 -.568E+02   -.901E+00 0.101E+01 0.513E+00   -.811E-05 0.201E-04 -.597E-05
   -.108E+02 0.189E+02 0.616E+01   0.109E+02 -.189E+02 -.606E+01   -.766E+00 0.938E-01 -.869E+00   0.172E-04 -.120E-04 -.195E-04
   -.677E+01 0.129E+02 -.121E+02   0.694E+01 -.130E+02 0.122E+02   -.527E+00 0.647E+00 -.831E+00   0.179E-05 -.531E-05 -.313E-05
   0.750E+01 0.240E+02 -.242E+02   -.772E+01 -.238E+02 0.243E+02   0.112E+01 -.158E+01 -.789E+00   0.808E-05 -.401E-05 -.107E-05
   0.749E+01 -.698E+01 -.167E+02   -.734E+01 0.706E+01 0.170E+02   -.600E+00 -.674E+00 -.870E+00   -.771E-05 0.926E-05 0.452E-05
   -.941E+00 0.404E+01 0.350E+02   0.747E+00 -.439E+01 -.351E+02   0.157E+00 0.121E+01 -.445E-01   -.153E-04 -.334E-05 -.758E-05
 -----------------------------------------------------------------------------------------------
   0.148E+02 -.116E+02 -.508E+01   -.645E-12 0.639E-13 -.739E-12   -.148E+02 0.116E+02 0.507E+01   -.450E-04 -.107E-04 -.871E-04
 
 
 POSITION                                       TOTAL-FORCE (eV/Angst)
 -----------------------------------------------------------------------------------
     -0.00792      1.91545     12.15699        -0.136608      0.195610     -0.377913
     -1.65732      4.63728     12.24126        -0.236536      1.433828     -1.122758
     -3.39184      7.60296     12.10600         1.187346     -0.063816      0.764011
     -4.93710     10.51180     12.04776         0.041889     -0.457233      0.515664
      3.21334      1.87902     12.22210         0.178959      0.377145     -0.963530
      1.73498      4.76765     12.05119        -1.096570     -0.123952      0.186797
     -0.07476      7.50668     12.15523         0.053373      0.450737     -0.150496
     -1.70065     10.38179     12.19926         0.827583     -0.261186     -0.450878
      6.48558      1.85770     12.12352         0.612243      0.135671      0.916689
      4.91651      4.71370     12.17164         1.221740     -0.308601     -0.026385
      3.47313      7.57075     11.85874        -0.689241      0.380203      1.706165
      1.69642     10.41529     12.22343        -0.070794     -0.083658     -0.412508
      9.82147      1.94458     12.19452         0.023878     -0.587666     -0.648530
      8.19972      4.66207     12.19888        -0.451742      1.036043      0.124202
      6.61737      7.65446     11.99141         0.096132     -0.506265      1.718400
      5.07523     10.46285     12.11276        -1.073379      0.104975      0.170089
      1.56663      1.00441     14.79078         0.225492     -0.529430     -1.244546
      0.07890      3.94150     14.72101        -0.203848     -0.246211     -0.253304
     -1.73538      6.63622     14.63733         0.179407     -0.090658      0.521422
     -3.29613      9.51270     14.59097        -0.405530     -0.741305      0.274790
      4.83654      0.86285     14.63004         0.264673      0.379595      0.415981
      3.27047      3.79898     14.61991        -0.031796      0.029366      0.731836
      1.61705      6.73659     14.70795         0.440293     -0.603417     -0.617919
      0.23638      9.46045     14.75483        -1.427248      0.040477     -0.210867
      8.31066      0.91261     14.69290        -1.106652      0.014278      0.165982
      6.52111      3.63511     14.79461        -0.162412      1.340912     -0.534101
      4.87888      6.49883     14.70764         0.921627     -0.024619     -1.096758
      3.48356      9.49934     14.62436        -1.036799     -0.579523     -0.293673
     11.49171      1.13637     14.70328         0.505944     -1.756728      0.235131
      9.84144      3.75595     14.68877        -0.403638      1.206670      0.458566
      8.17835      6.51111     14.74095        -0.425689      0.155362     -0.745852
      6.54439      9.35086     14.86130         0.966636      0.349567     -2.089714
      0.10715      2.08476     15.84511        -0.465416     -0.329334      0.325370
     -1.76081      4.82689     15.84486         0.535713     -0.476879     -0.180595
     -3.32425      7.24471     15.85997        -0.034218      0.901857      0.294192
     -4.86321     10.40355     15.86080        -0.482087      0.054509     -0.090146
      3.18194      1.92638     15.74505         0.271359     -0.033792      0.543195
      1.76905      4.86551     15.88232        -0.453427     -0.229619     -0.491733
     -0.00204      7.45014     15.94895         0.285442      0.421150     -0.617178
     -1.94337     10.50459     15.82846         0.487213     -0.077383      0.296036
      6.42861      1.74577     15.65608         0.669023      0.120693      1.395246
      4.76350      4.78032     16.09365         0.039377     -0.155578     -1.267732
      3.44050      7.61944     15.68924        -0.665641     -0.085634      0.846536
      1.75757     10.43971     15.92629        -0.107144      0.039911     -0.202018
     10.04165      2.07770     15.94502        -0.408681     -0.595766     -0.061065
      8.13482      4.65758     15.85755         0.171980     -0.055057      0.278324
      6.43274      7.37096     15.82425         0.435439      0.964864      0.494507
      4.90129     10.44427     15.81031         0.668294      0.012720      0.531463
      1.47447      1.09160     10.87443         0.426228     -0.379380      0.381125
     -0.15952      3.90085     10.98831         0.648189     -0.475165      0.027539
     -1.71224      6.69924     11.01862         0.178342     -0.185063      0.055870
     -3.36219      9.46340     10.91664         0.250638      0.145562      0.227314
      5.04229      0.87364     11.05645        -0.530333      0.046480     -0.462449
      3.31110      3.58624     10.98389        -0.105675      0.758253     -0.268347
      1.62522      6.74672     10.90288         0.289536     -0.295010      0.253798
     -0.05885      9.36268     11.21410         0.386129      0.670681     -0.816026
      8.16210      0.97058     11.04996         0.025035     -0.002313      0.195425
      6.52956      3.89338     11.07740         0.245849     -0.840959     -0.464776
      5.30610      6.51538     10.84701        -1.331066      0.127186     -0.045753
      3.31404      9.63003     10.87102        -0.034894     -0.491676      0.607514
     11.26741      1.07625     10.91516         0.619760     -0.409193      0.537822
      9.95626      3.83958     10.95673        -0.620206     -0.345031      0.466593
      8.25879      6.81303     11.01531        -0.481513     -0.906056     -0.971120
      6.46924      9.51599     10.77317         0.288864      0.042000      0.649066
      0.10781      0.01437     13.37663        -1.083649      0.290630      0.458142
     11.45751      2.78501     13.42349         0.070543      1.120595      0.181553
      9.75058      5.66178     13.40499         0.687737     -0.332449      0.029462
      8.12499      8.57376     13.37266         0.206428      0.150170      0.569457
      3.26621      0.05611     13.28861        -0.349969     -1.205064      0.854252
      1.56414      2.82358     13.39531         0.316975      0.896117      0.364601
     -0.00857      5.71545     13.36091         0.588732     -0.586666      0.942297
     -1.70323      8.44758     13.44365         0.125545      0.913640      0.050798
      0.00061     11.32959     13.49014         0.578778     -0.217042     -0.399752
      4.84830      2.81452     13.49574         0.316982     -0.006300     -0.851053
      3.34238      5.62250     13.23819        -0.847489      0.844721      0.642131
      1.76255      8.54505     13.51115        -0.656860      0.101526     -0.766542
      9.93359      0.02335     13.50031        -0.365118      0.549379     -0.719499
      8.11073      2.91135     13.51643         0.910487     -1.381900     -0.663345
      6.57236      5.67342     13.49864        -0.452965     -0.596147     -0.657110
      4.95951      8.45615     13.30881        -0.037000      0.855642     -0.169384
 -----------------------------------------------------------------------------------
    total drift:                               -0.003929     -0.001965     -0.006710


--------------------------------------------------------------------------------------------------------



  FREE ENERGIE OF THE ION-ELECTRON SYSTEM (eV)
  ---------------------------------------------------
  free  energy   TOTEN  =      -595.05946000 eV

  energy  without entropy=     -595.05946000  energy(sigma->0) =     -595.05946000
 


--------------------------------------------------------------------------------------------------------


    POTLOK:  cpu time    0.7870: real time    0.7870


--------------------------------------------------------------------------------------------------------


     LOOP+:  cpu time 1863.2773: real time 1863.7212
    4ORBIT:  cpu time    0.0000: real time    0.0000

 total amount of memory used by VASP MPI-rank0   234718. kBytes
=======================================================================

   base      :      30000. kBytes
   nonlr-proj:      19450. kBytes
   fftplans  :      66973. kBytes
   grid      :      38377. kBytes
   one-center:        108. kBytes
   wavefun   :      79810. kBytes
 
  
  
 General timing and accounting informations for this job:
 ========================================================
  
                  Total CPU time used (sec):     1895.617
                            User time (sec):     1889.311
                          System time (sec):        6.306
                         Elapsed time (sec):     1896.277
  
                   Maximum memory used (kb):      439048.
                   Average memory used (kb):           0.
  
                          Minor page faults:       145184
                          Major page faults:            0
                 Voluntary context switches:         2275
