 running on   52 total cores
 distrk:  each k-point on   52 cores,    1 groups
 distr:  one band on   13 cores,    4 groups
 using from now: INCAR     
 vasp.5.4.4.18Apr17-6-g9f103f2a35 (build Oct 31 2019 15:01:46) complex          
  
 POSCAR found type information on POSCAR  Sc Cl C 
 POSCAR found :  3 types and      80 ions
 scaLAPACK is switched off
 LDA part: xc-table for Pade appr. of Perdew
 generate k-points for:    3    3    1
 POSCAR, INCAR and KPOINTS ok, starting setup
 FFT: planning ...
 WAVECAR not read
 entering main loop
       N       E                     dE             d eps       ncg     rms          rms(c)
DAV:   1     0.122200908650E+05    0.12220E+05   -0.26799E+05  4432   0.152E+03
DAV:   2     0.174176444097E+04   -0.10478E+05   -0.10211E+05  5184   0.523E+02
DAV:   3    -0.408567127224E+03   -0.21503E+04   -0.20641E+04  6800   0.284E+02
DAV:   4    -0.645423797855E+03   -0.23686E+03   -0.23227E+03  6088   0.992E+01
DAV:   5    -0.655835675492E+03   -0.10412E+02   -0.10361E+02  6072   0.279E+01    0.693E+01
DAV:   6    -0.525740819958E+03    0.13009E+03   -0.69771E+02  5840   0.494E+01    0.298E+01
DAV:   7    -0.530299533083E+03   -0.45587E+01   -0.83729E+01  5856   0.225E+01    0.151E+01
DAV:   8    -0.528143163215E+03    0.21564E+01   -0.93517E+00  5880   0.710E+00    0.907E+00
DAV:   9    -0.527630774634E+03    0.51239E+00   -0.34444E+00  5408   0.383E+00    0.295E+00
DAV:  10    -0.527513058599E+03    0.11772E+00   -0.56851E-01  5680   0.207E+00    0.167E+00
DAV:  11    -0.527492830836E+03    0.20228E-01   -0.19305E-01  5576   0.889E-01    0.754E-01
DAV:  12    -0.527479032101E+03    0.13799E-01   -0.34902E-02  6080   0.521E-01    0.299E-01
DAV:  13    -0.527476914557E+03    0.21175E-02   -0.82633E-03  5496   0.258E-01    0.181E-01
DAV:  14    -0.527474850996E+03    0.20636E-02   -0.75718E-03  5192   0.159E-01    0.168E-01
DAV:  15    -0.527476437715E+03   -0.15867E-02   -0.18714E-03  5560   0.932E-02    0.105E-01
DAV:  16    -0.527478830799E+03   -0.23931E-02   -0.11472E-03  5752   0.593E-02    0.546E-02
DAV:  17    -0.527482264339E+03   -0.34335E-02   -0.72810E-04  5208   0.553E-02    0.368E-02
DAV:  18    -0.527484324576E+03   -0.20602E-02   -0.23164E-04  4960   0.314E-02    0.263E-02
DAV:  19    -0.527485399305E+03   -0.10747E-02   -0.12407E-04  5072   0.187E-02    0.181E-02
DAV:  20    -0.527486590755E+03   -0.11914E-02   -0.47322E-05  4496   0.130E-02    0.115E-02
DAV:  21    -0.527487018502E+03   -0.42775E-03   -0.21322E-05  4104   0.841E-03    0.845E-03
DAV:  22    -0.527487487357E+03   -0.46885E-03   -0.49283E-06  3512   0.493E-03    0.496E-03
DAV:  23    -0.527488053505E+03   -0.56615E-03   -0.18117E-05  3616   0.533E-03    0.418E-03
DAV:  24    -0.527488151376E+03   -0.97870E-04   -0.22014E-06  3440   0.342E-03    0.354E-03
DAV:  25    -0.527488266262E+03   -0.11489E-03   -0.36915E-06  3416   0.308E-03    0.224E-03
DAV:  26    -0.527488321591E+03   -0.55329E-04   -0.85173E-07  2856   0.205E-03    0.200E-03
DAV:  27    -0.527488344381E+03   -0.22790E-04   -0.43549E-07  2680   0.207E-03    0.117E-03
DAV:  28    -0.527488356987E+03   -0.12606E-04   -0.41100E-07  2688   0.140E-03    0.568E-04
DAV:  29    -0.527488373740E+03   -0.16753E-04   -0.63190E-07  2840   0.160E-03    0.568E-04
DAV:  30    -0.527488381034E+03   -0.72944E-05   -0.37077E-07  2648   0.148E-03    0.311E-04
DAV:  31    -0.527488383922E+03   -0.28878E-05   -0.23500E-07  2536   0.114E-03    0.217E-04
DAV:  32    -0.527488384948E+03   -0.10261E-05   -0.15237E-07  2432   0.924E-04    0.233E-04
DAV:  33    -0.527488385703E+03   -0.75455E-06   -0.10332E-07  2488   0.731E-04
   1 F= -.52748839E+03 E0= -.52748839E+03  d E =-.149234E-22
