<?xml version="1.0" encoding="ISO-8859-1"?>
<modeling>
 <generator>
  <i name="program" type="string">vasp </i>
  <i name="version" type="string">5.4.4.18Apr17-6-g9f103f2a35  </i>
  <i name="subversion" type="string">(build Oct 31 2019 15:01:46) complex            parallel </i>
  <i name="platform" type="string">LinuxIFC </i>
  <i name="date" type="string">2024 04 30 </i>
  <i name="time" type="string">08:17:53 </i>
 </generator>
 <incar>
  <i type="int" name="ISTART">     0</i>
  <i type="string" name="PREC">anormal</i>
  <i type="logical" name="ADDGRID"> T  </i>
  <i type="int" name="IBRION">    -1</i>
  <i name="EDIFF">      0.00000100</i>
  <i name="EDIFFG">     -0.01000000</i>
  <i type="int" name="NSW">     1</i>
  <i type="int" name="ISIF">     2</i>
  <i type="int" name="ISYM">     2</i>
  <i name="ENCUT">    600.00000000</i>
  <i name="POTIM">      1.00000000</i>
  <i type="string" name="LREAL"> Auto.</i>
  <i type="int" name="ISMEAR">     0</i>
  <i name="SIGMA">      0.05000000</i>
  <i name="KSPACING">      0.25000000</i>
  <i type="logical" name="LWAVE"> F  </i>
  <i type="logical" name="LCHARG"> F  </i>
  <i type="logical" name="LSCALAPACK"> F  </i>
  <v type="int" name="KPOINT_BSE">    -1     0     0     0</v>
 </incar>
 <structure name="primitive_cell" >
  <crystal>
   <varray name="basis" >
    <v>      13.79398668       0.00000000       0.00000000 </v>
    <v>      -6.89699334      11.94594288       0.00000000 </v>
    <v>       0.00000000       0.00000000      27.81022107 </v>
   </varray>
   <i name="volume">   4582.62876984 </i>
   <varray name="rec_basis" >
    <v>       0.07249536       0.04185521       0.00000000 </v>
    <v>       0.00000000       0.08371043       0.00000000 </v>
    <v>       0.00000000       0.00000000       0.03595800 </v>
   </varray>
  </crystal>
  <varray name="positions" >
   <v>       0.08391981       0.16448145      -0.45287534 </v>
   <v>       0.00116000      -0.00068463      -0.49752731 </v>
   <v>       0.25253258       0.24890312      -0.49813675 </v>
   <v>       0.00233862       0.25823538      -0.49799925 </v>
   <v>       0.17120509       0.33216337      -0.39533944 </v>
   <v>      -0.07644451       0.08065537      -0.39071500 </v>
   <v>       0.17502602       0.07980236      -0.39269632 </v>
   <v>      -0.08018918       0.08327286       0.46106824 </v>
   <v>       0.16187264       0.07545080       0.45730577 </v>
   <v>       0.17153530       0.33824844       0.45690534 </v>
   <v>       0.32895447       0.17129070      -0.45437077 </v>
   <v>      -0.16865130      -0.08804326      -0.45588786 </v>
   <v>       0.07679547      -0.09287931      -0.45553354 </v>
   <v>      -0.17020087       0.16522955      -0.45306828 </v>
   <v>       0.08476862       0.42054804      -0.45264015 </v>
   <v>       0.33625462       0.42476676      -0.45624107 </v>
   <v>      -0.24516475       0.00498975      -0.49799165 </v>
   <v>       0.24002639      -0.00881175      -0.49755945 </v>
   <v>       0.08233833       0.16115381       0.39420203 </v>
   <v>       0.25137709      -0.49826147       0.49804885 </v>
   <v>      -0.07973132      -0.16785472      -0.39729987 </v>
   <v>       0.41871322       0.33197686      -0.39731344 </v>
   <v>      -0.08889782       0.34471979      -0.39414130 </v>
   <v>      -0.08172750       0.33111066       0.45619695 </v>
   <v>      -0.08752624      -0.16973980       0.45572444 </v>
   <v>       0.41918083       0.32900762       0.45210401 </v>
   <v>       0.07569335      -0.08166343       0.39757180 </v>
   <v>      -0.00357624      -0.24720711       0.49698650 </v>
   <v>      -0.16115153       0.17051371       0.39692220 </v>
   <v>      -0.49727616       0.25474498      -0.49992005 </v>
   <v>      -0.25236495      -0.25173389      -0.49892084 </v>
   <v>      -0.17391335      -0.08710012       0.39817326 </v>
   <v>       0.33267284       0.16877293       0.39475877 </v>
   <v>       0.34238300       0.41630977       0.39711239 </v>
   <v>       0.07227927       0.40515011       0.39302339 </v>
   <v>      -0.25063343       0.24990280       0.49793294 </v>
   <v>      -0.49764656       0.49756645       0.49361581 </v>
   <v>       0.42337300       0.08818915      -0.39865118 </v>
   <v>       0.00179440      -0.49422284      -0.49812295 </v>
   <v>      -0.33185555       0.08938016      -0.39625393 </v>
   <v>       0.16419805      -0.41886233      -0.39423406 </v>
   <v>       0.16797803      -0.17085191      -0.39310709 </v>
   <v>      -0.34605472      -0.17028008      -0.39815833 </v>
   <v>       0.42678224      -0.41017646      -0.39413747 </v>
   <v>      -0.32189098       0.09098780       0.45772779 </v>
   <v>       0.16594747      -0.16288886       0.45413166 </v>
   <v>       0.41993458      -0.42548045       0.45522385 </v>
   <v>       0.32916008      -0.07855766      -0.45457622 </v>
   <v>       0.41901248       0.08285474       0.45765895 </v>
   <v>      -0.33541957      -0.16441305       0.45345434 </v>
   <v>       0.16257428      -0.41553499       0.45567983 </v>
   <v>      -0.16899878      -0.33196024      -0.45939588 </v>
   <v>      -0.41523874      -0.08192846      -0.45696939 </v>
   <v>      -0.41582750       0.41788184      -0.45603337 </v>
   <v>       0.33254590      -0.32780780      -0.45523581 </v>
   <v>      -0.16912584       0.42841450      -0.45541645 </v>
   <v>      -0.41721656      -0.32855064      -0.45866041 </v>
   <v>       0.08303612      -0.33397014      -0.45462355 </v>
   <v>      -0.41656298       0.16578444      -0.45858404 </v>
   <v>       0.33019824      -0.34860446       0.39862895 </v>
   <v>      -0.48760151      -0.24161769       0.49956236 </v>
   <v>       0.24646284      -0.24737855      -0.49920579 </v>
   <v>      -0.49334387      -0.00160205       0.49600845 </v>
   <v>      -0.15396971      -0.31914085       0.38857930 </v>
   <v>      -0.33044137      -0.41641452      -0.39747306 </v>
   <v>       0.34204717      -0.07763456       0.39418409 </v>
   <v>      -0.42175783      -0.08862460       0.39743905 </v>
   <v>      -0.33321644       0.34397830      -0.39001536 </v>
   <v>      -0.17000003       0.41446442       0.39514908 </v>
   <v>      -0.41519524       0.41012706       0.39133725 </v>
   <v>      -0.09454985      -0.42378728      -0.39422597 </v>
   <v>      -0.33415016       0.32655586       0.45679612 </v>
   <v>      -0.08553521      -0.41696347       0.45142660 </v>
   <v>      -0.33446414      -0.41702464       0.45260834 </v>
   <v>       0.41001977      -0.17872061      -0.39533238 </v>
   <v>      -0.25317155       0.49804523       0.49712099 </v>
   <v>       0.07773210      -0.33471375       0.39429343 </v>
   <v>      -0.41747954       0.15832053       0.39576151 </v>
   <v>      -0.41702397      -0.33838927       0.39451180 </v>
   <v>       0.42249377      -0.15643084       0.45571777 </v>
  </varray>
 </structure>
 <varray name="primitive_index" >
  <v type="int" >        1 </v>
  <v type="int" >       65 </v>
  <v type="int" >       70 </v>
  <v type="int" >       66 </v>
  <v type="int" >       50 </v>
  <v type="int" >       61 </v>
  <v type="int" >       49 </v>
  <v type="int" >       29 </v>
  <v type="int" >       17 </v>
  <v type="int" >       18 </v>
  <v type="int" >        5 </v>
  <v type="int" >       16 </v>
  <v type="int" >        4 </v>
  <v type="int" >       13 </v>
  <v type="int" >        2 </v>
  <v type="int" >        6 </v>
  <v type="int" >       77 </v>
  <v type="int" >       69 </v>
  <v type="int" >       33 </v>
  <v type="int" >       71 </v>
  <v type="int" >       64 </v>
  <v type="int" >       54 </v>
  <v type="int" >       62 </v>
  <v type="int" >       30 </v>
  <v type="int" >       32 </v>
  <v type="int" >       22 </v>
  <v type="int" >       36 </v>
  <v type="int" >       68 </v>
  <v type="int" >       45 </v>
  <v type="int" >       74 </v>
  <v type="int" >       80 </v>
  <v type="int" >       48 </v>
  <v type="int" >       37 </v>
  <v type="int" >       38 </v>
  <v type="int" >       34 </v>
  <v type="int" >       78 </v>
  <v type="int" >       75 </v>
  <v type="int" >       53 </v>
  <v type="int" >       67 </v>
  <v type="int" >       57 </v>
  <v type="int" >       51 </v>
  <v type="int" >       52 </v>
  <v type="int" >       60 </v>
  <v type="int" >       55 </v>
  <v type="int" >       25 </v>
  <v type="int" >       20 </v>
  <v type="int" >       23 </v>
  <v type="int" >        8 </v>
  <v type="int" >       21 </v>
  <v type="int" >       28 </v>
  <v type="int" >       19 </v>
  <v type="int" >       15 </v>
  <v type="int" >       12 </v>
  <v type="int" >       10 </v>
  <v type="int" >        7 </v>
  <v type="int" >       14 </v>
  <v type="int" >       11 </v>
  <v type="int" >        3 </v>
  <v type="int" >        9 </v>
  <v type="int" >       39 </v>
  <v type="int" >       76 </v>
  <v type="int" >       72 </v>
  <v type="int" >       73 </v>
  <v type="int" >       47 </v>
  <v type="int" >       59 </v>
  <v type="int" >       40 </v>
  <v type="int" >       44 </v>
  <v type="int" >       58 </v>
  <v type="int" >       46 </v>
  <v type="int" >       42 </v>
  <v type="int" >       63 </v>
  <v type="int" >       26 </v>
  <v type="int" >       31 </v>
  <v type="int" >       27 </v>
  <v type="int" >       56 </v>
  <v type="int" >       79 </v>
  <v type="int" >       35 </v>
  <v type="int" >       41 </v>
  <v type="int" >       43 </v>
  <v type="int" >       24 </v>
 </varray>
 <kpoints>
  <generation param="Gamma">
   <v type="int" name="divisions">       3        3        1 </v>
   <v name="usershift">      0.00000000       0.00000000       0.00000000 </v>
   <v name="genvec1">      0.33333333      -0.00000000       0.00000000 </v>
   <v name="genvec2">      0.00000000       0.33333333       0.00000000 </v>
   <v name="genvec3">      0.00000000       0.00000000       1.00000000 </v>
   <v name="shift">      0.00000000       0.00000000       0.00000000 </v>
  </generation>
  <varray name="kpointlist" >
   <v>       0.00000000       0.00000000       0.00000000 </v>
   <v>       0.33333333      -0.00000000       0.00000000 </v>
   <v>       0.00000000       0.33333333       0.00000000 </v>
   <v>       0.33333333       0.33333333       0.00000000 </v>
   <v>      -0.33333333       0.33333333       0.00000000 </v>
  </varray>
  <varray name="weights" >
   <v>       0.11111111 </v>
   <v>       0.22222222 </v>
   <v>       0.22222222 </v>
   <v>       0.22222222 </v>
   <v>       0.22222222 </v>
  </varray>
 </kpoints>
 <parameters>
  <separator name="general" >
   <i type="string" name="SYSTEM">unknown system</i>
   <i type="logical" name="LCOMPAT"> F  </i>
  </separator>
  <separator name="electronic" >
   <i type="string" name="PREC">anorma</i>
   <i name="ENMAX">    600.00000000</i>
   <i name="ENAUG">    644.87300000</i>
   <i name="EDIFF">      0.00000100</i>
   <i type="int" name="IALGO">    38</i>
   <i type="int" name="IWAVPR">    10</i>
   <i type="int" name="NBANDS">   384</i>
   <i name="NELECT">    640.00000000</i>
   <i type="int" name="TURBO">     0</i>
   <i type="int" name="IRESTART">     0</i>
   <i type="int" name="NREBOOT">     0</i>
   <i type="int" name="NMIN">     0</i>
   <i name="EREF">      0.00000000</i>
   <separator name="electronic smearing" >
    <i type="int" name="ISMEAR">     0</i>
    <i name="SIGMA">      0.05000000</i>
    <i name="KSPACING">      0.25000000</i>
    <i type="logical" name="KGAMMA"> T  </i>
   </separator>
   <separator name="electronic projectors" >
    <i type="logical" name="LREAL"> T  </i>
    <v name="ROPT">     -0.00025000     -0.00025000     -0.00025000</v>
    <i type="int" name="LMAXPAW">  -100</i>
    <i type="int" name="LMAXMIX">     2</i>
    <i type="logical" name="NLSPLINE"> F  </i>
   </separator>
   <separator name="electronic startup" >
    <i type="int" name="ISTART">     0</i>
    <i type="int" name="ICHARG">     2</i>
    <i type="int" name="INIWAV">     1</i>
   </separator>
   <separator name="electronic spin" >
    <i type="int" name="ISPIN">     1</i>
    <i type="logical" name="LNONCOLLINEAR"> F  </i>
    <v name="MAGMOM">      1.00000000      1.00000000      1.00000000      1.00000000      1.00000000      1.00000000      1.00000000      1.00000000      1.00000000      1.00000000      1.00000000      1.00000000      1.00000000      1.00000000      1.00000000      1.00000000      1.00000000      1.00000000      1.00000000      1.00000000
      1.00000000      1.00000000      1.00000000      1.00000000      1.00000000      1.00000000      1.00000000      1.00000000      1.00000000      1.00000000      1.00000000      1.00000000      1.00000000      1.00000000      1.00000000      1.00000000      1.00000000      1.00000000      1.00000000      1.00000000
      1.00000000      1.00000000      1.00000000      1.00000000      1.00000000      1.00000000      1.00000000      1.00000000      1.00000000      1.00000000      1.00000000      1.00000000      1.00000000      1.00000000      1.00000000      1.00000000      1.00000000      1.00000000      1.00000000      1.00000000
      1.00000000      1.00000000      1.00000000      1.00000000      1.00000000      1.00000000      1.00000000      1.00000000      1.00000000      1.00000000      1.00000000      1.00000000      1.00000000      1.00000000      1.00000000      1.00000000      1.00000000      1.00000000      1.00000000      1.00000000
</v>
    <i name="NUPDOWN">     -1.00000000</i>
    <i type="logical" name="LSORBIT"> F  </i>
    <v name="SAXIS">      0.00000000      0.00000000      1.00000000</v>
    <i type="logical" name="LSPIRAL"> F  </i>
    <v name="QSPIRAL">      0.00000000      0.00000000      0.00000000</v>
    <i type="logical" name="LZEROZ"> F  </i>
   </separator>
   <separator name="electronic exchange-correlation" >
    <i type="logical" name="LASPH"> F  </i>
    <i type="logical" name="LMETAGGA"> F  </i>
   </separator>
   <separator name="electronic convergence" >
    <i type="int" name="NELM">    60</i>
    <i type="int" name="NELMDL">    -5</i>
    <i type="int" name="NELMIN">     2</i>
    <i name="ENINI">    600.00000000</i>
    <separator name="electronic convergence detail" >
     <i type="logical" name="LDIAG"> T  </i>
     <i type="logical" name="LSUBROT"> F  </i>
     <i name="WEIMIN">      0.00000000</i>
     <i name="EBREAK">      0.00000000</i>
     <i name="DEPER">      0.30000000</i>
     <i type="int" name="NRMM">     4</i>
     <i name="TIME">      0.40000000</i>
    </separator>
   </separator>
   <separator name="electronic mixer" >
    <i name="AMIX">      0.40000000</i>
    <i name="BMIX">      1.00000000</i>
    <i name="AMIN">      0.10000000</i>
    <i name="AMIX_MAG">      1.60000000</i>
    <i name="BMIX_MAG">      1.00000000</i>
    <separator name="electronic mixer details" >
     <i type="int" name="IMIX">     4</i>
     <i type="logical" name="MIXFIRST"> F  </i>
     <i type="int" name="MAXMIX">   -45</i>
     <i name="WC">    100.00000000</i>
     <i type="int" name="INIMIX">     1</i>
     <i type="int" name="MIXPRE">     1</i>
     <i type="int" name="MREMOVE">     5</i>
    </separator>
   </separator>
   <separator name="electronic dipolcorrection" >
    <i type="logical" name="LDIPOL"> F  </i>
    <i type="logical" name="LMONO"> F  </i>
    <i type="int" name="IDIPOL">     0</i>
    <i name="EPSILON">      1.00000000</i>
    <v name="DIPOL">   -100.00000000   -100.00000000   -100.00000000</v>
    <i name="EFIELD">      0.00000000</i>
   </separator>
  </separator>
  <separator name="grids" >
   <i type="int" name="NGX">   112</i>
   <i type="int" name="NGY">   112</i>
   <i type="int" name="NGZ">   224</i>
   <i type="int" name="NGXF">   224</i>
   <i type="int" name="NGYF">   224</i>
   <i type="int" name="NGZF">   448</i>
   <i type="logical" name="ADDGRID"> T  </i>
  </separator>
  <separator name="ionic" >
   <i type="int" name="NSW">     1</i>
   <i type="int" name="IBRION">    -1</i>
   <i type="int" name="MDALGO">     0</i>
   <i type="int" name="ISIF">     2</i>
   <i name="PSTRESS">      0.00000000</i>
   <i name="EDIFFG">     -0.01000000</i>
   <i type="int" name="NFREE">     0</i>
   <i name="POTIM">      1.00000000</i>
   <i name="SMASS">     -3.00000000</i>
   <i name="SCALEE">      1.00000000</i>
  </separator>
  <separator name="ionic md" >
   <i name="TEBEG">      0.00010000</i>
   <i name="TEEND">      0.00010000</i>
   <i type="int" name="NBLOCK">     1</i>
   <i type="int" name="KBLOCK">     1</i>
   <i type="int" name="NPACO">   256</i>
   <i name="APACO">     16.00000000</i>
  </separator>
  <separator name="symmetry" >
   <i type="int" name="ISYM">     2</i>
   <i name="SYMPREC">      0.00001000</i>
  </separator>
  <separator name="dos" >
   <i type="int" name="LORBIT">     0</i>
   <v name="RWIGS">     -1.00000000     -1.00000000     -1.00000000</v>
   <i type="int" name="NEDOS">   301</i>
   <i name="EMIN">     10.00000000</i>
   <i name="EMAX">    -10.00000000</i>
   <i name="EFERMI">      0.00000000</i>
  </separator>
  <separator name="writing" >
   <i type="int" name="NWRITE">     2</i>
   <i type="logical" name="LWAVE"> F  </i>
   <i type="logical" name="LDOWNSAMPLE"> F  </i>
   <i type="logical" name="LCHARG"> F  </i>
   <i type="logical" name="LPARD"> F  </i>
   <i type="logical" name="LVTOT"> F  </i>
   <i type="logical" name="LVHAR"> F  </i>
   <i type="logical" name="LELF"> F  </i>
   <i type="logical" name="LOPTICS"> F  </i>
   <v name="STM">      0.00000000      0.00000000      0.00000000      0.00000000      0.00000000      0.00000000      0.00000000</v>
  </separator>
  <separator name="performance" >
   <i type="int" name="NPAR">     4</i>
   <i type="int" name="NSIM">     4</i>
   <i type="int" name="NBLK">    -1</i>
   <i type="logical" name="LPLANE"> T  </i>
   <i type="logical" name="LSCALAPACK"> F  </i>
   <i type="logical" name="LSCAAWARE"> F  </i>
   <i type="logical" name="LSCALU"> F  </i>
   <i type="logical" name="LASYNC"> F  </i>
   <i type="logical" name="LORBITALREAL"> F  </i>
  </separator>
  <separator name="miscellaneous" >
   <i type="int" name="IDIOT">     3</i>
   <i type="int" name="ISPECIAL">     0</i>
   <i type="logical" name="LMUSIC"> F  </i>
   <v name="POMASS">     44.95600000     35.45300000     12.01100000</v>
   <v name="DARWINR">      0.00000000      0.00000000      0.00000000</v>
   <v name="DARWINV">      1.00000000      1.00000000      1.00000000</v>
   <i type="logical" name="LCORR"> T  </i>
  </separator>
  <i type="logical" name="GGA_COMPAT"> T  </i>
  <i type="logical" name="LBERRY"> F  </i>
  <i type="int" name="ICORELEVEL">     0</i>
  <i type="logical" name="LDAU"> F  </i>
  <i type="int" name="I_CONSTRAINED_M">     0</i>
  <separator name="electronic exchange-correlation" >
   <i type="string" name="GGA">--</i>
   <i type="int" name="VOSKOWN">     0</i>
   <i type="logical" name="LHFCALC"> F  </i>
   <i type="string" name="PRECFOCK"></i>
   <i type="logical" name="LSYMGRAD"> F  </i>
   <i type="logical" name="LHFONE"> F  </i>
   <i type="logical" name="LRHFCALC"> F  </i>
   <i type="logical" name="LTHOMAS"> F  </i>
   <i type="logical" name="LMODELHF"> F  </i>
   <i name="ENCUT4O">     -1.00000000</i>
   <i type="int" name="EXXOEP">     0</i>
   <i type="int" name="FOURORBIT">     0</i>
   <i name="AEXX">      0.00000000</i>
   <i name="HFALPHA">      0.00000000</i>
   <i name="MCALPHA">      0.00000000</i>
   <i name="ALDAX">      1.00000000</i>
   <i name="AGGAX">      1.00000000</i>
   <i name="ALDAC">      1.00000000</i>
   <i name="AGGAC">      1.00000000</i>
   <i type="int" name="NKREDX">     1</i>
   <i type="int" name="NKREDY">     1</i>
   <i type="int" name="NKREDZ">     1</i>
   <i type="logical" name="SHIFTRED"> F  </i>
   <i type="logical" name="ODDONLY"> F  </i>
   <i type="logical" name="EVENONLY"> F  </i>
   <i type="int" name="LMAXFOCK">     0</i>
   <i type="int" name="NMAXFOCKAE">     0</i>
   <i type="logical" name="LFOCKAEDFT"> F  </i>
   <i name="HFSCREEN">      0.00000000</i>
   <i name="HFSCREENC">      0.00000000</i>
   <i type="int" name="NBANDSGWLOW">     0</i>
  </separator>
  <separator name="vdW DFT" >
   <i type="logical" name="LUSE_VDW"> F  </i>
   <i name="Zab_VDW">     -0.84910000</i>
   <i name="PARAM1">      0.12340000</i>
   <i name="PARAM2">      1.00000000</i>
   <i name="PARAM3">      0.00000000</i>
  </separator>
  <separator name="model GW" >
   <i type="int" name="MODEL_GW">     0</i>
   <i name="MODEL_EPS0">     34.36971577</i>
   <i name="MODEL_ALPHA">      1.00000000</i>
  </separator>
  <separator name="linear response parameters" >
   <i type="logical" name="LEPSILON"> F  </i>
   <i type="logical" name="LRPA"> F  </i>
   <i type="logical" name="LNABLA"> F  </i>
   <i type="logical" name="LVEL"> F  </i>
   <i type="int" name="KINTER">     0</i>
   <i name="CSHIFT">      0.10000000</i>
   <i name="OMEGAMAX">     -1.00000000</i>
   <i name="DEG_THRESHOLD">      0.00200000</i>
   <i name="RTIME">     -0.10000000</i>
   <i name="WPLASMAI">      0.00000000</i>
   <v name="DFIELD">      0.00000000      0.00000000      0.00000000</v>
   <v name="WPLASMA">      0.00000000      0.00000000      0.00000000      0.00000000      0.00000000      0.00000000      0.00000000      0.00000000      0.00000000</v>
  </separator>
  <separator name="orbital magnetization" >
   <i type="logical" name="NUCIND"> F  </i>
   <v name="MAGPOS">      0.00000000      0.00000000      0.00000000</v>
   <i type="logical" name="LNICSALL"> T  </i>
   <i type="logical" name="ORBITALMAG"> F  </i>
   <i type="logical" name="LMAGBLOCH"> F  </i>
   <i type="logical" name="LCHIMAG"> F  </i>
   <i type="logical" name="LGAUGE"> T  </i>
   <i type="int" name="MAGATOM">     0</i>
   <v name="MAGDIPOL">      0.00000000      0.00000000      0.00000000</v>
   <v name="AVECCONST">      0.00000000      0.00000000      0.00000000</v>
  </separator>
  <separator name="response functions" >
   <i type="logical" name="LADDER"> F  </i>
   <i type="logical" name="LRPAFORCE"> F  </i>
   <i type="logical" name="LFXC"> F  </i>
   <i type="logical" name="LHARTREE"> T  </i>
   <i type="int" name="IBSE">     0</i>
   <v type="int" name="KPOINT">    -1     0     0     0</v>
   <i type="logical" name="LTCTE"> F  </i>
   <i type="logical" name="LTETE"> F  </i>
   <i type="logical" name="LTRIPLET"> F  </i>
   <i type="logical" name="LFXCEPS"> F  </i>
   <i type="logical" name="LFXHEG"> F  </i>
   <i type="int" name="NATURALO">     2</i>
   <i type="logical" name="L2ORDER"> F  </i>
   <i type="logical" name="LMP2LT"> F  </i>
   <i type="logical" name="LUSEW"> F  </i>
   <i name="ENCUTGW">     -2.00000000</i>
   <i name="ENCUTGWSOFT">     -2.00000000</i>
   <i name="ENCUTLF">     -1.00000000</i>
   <i type="int" name="LMAXMP2">    -1</i>
   <i name="SCISSOR">      0.00000000</i>
   <i type="int" name="NOMEGA">     0</i>
   <i type="int" name="NOMEGAR">     0</i>
   <i type="int" name="NBANDSGW">    -1</i>
   <i type="int" name="NBANDSO">    -1</i>
   <i type="int" name="NBANDSV">    -1</i>
   <i type="int" name="NELM">     1</i>
   <i type="int" name="NELMHF">     1</i>
   <i type="int" name="DIM">     3</i>
   <i type="int" name="ANTIRES">     0</i>
   <i name="OMEGAMAX">    -30.00000000</i>
   <i name="OMEGAMIN">    -30.00000000</i>
   <i name="OMEGATL">   -200.00000000</i>
   <i type="int" name="OMEGAGRID">   140</i>
   <i name="CSHIFT">     -0.10000000</i>
   <i type="logical" name="SELFENERGY"> F  </i>
   <i type="logical" name="LSPECTRAL"> F  </i>
   <i type="logical" name="LSPECTRALGW"> F  </i>
   <i type="logical" name="LSINGLES"> F  </i>
   <i type="logical" name="LFERMIGW"> F  </i>
   <i type="logical" name="ODDONLYGW"> F  </i>
   <i type="logical" name="EVENONLYGW"> F  </i>
   <i type="int" name="NKREDLFX">     1</i>
   <i type="int" name="NKREDLFY">     1</i>
   <i type="int" name="NKREDLFZ">     1</i>
   <i type="int" name="MAXMEM">  2800</i>
   <i type="int" name="TELESCOPE">     0</i>
   <i type="int" name="TAUPAR">     1</i>
   <i type="int" name="OMEGAPAR">    -1</i>
   <i name="LAMBDA">      1.00000000</i>
  </separator>
  <separator name="External order field" >
   <i name="OFIELD_KAPPA">      0.00000000</i>
   <v name="OFIELD_K">      0.00000000      0.00000000      0.00000000</v>
   <i name="OFIELD_Q6_NEAR">      0.00000000</i>
   <i name="OFIELD_Q6_FAR">      0.00000000</i>
   <i name="OFIELD_A">      0.00000000</i>
  </separator>
 </parameters>
 <atominfo>
  <atoms>      80 </atoms>
  <types>       3 </types>
  <array name="atoms" >
   <dimension dim="1">ion</dimension>
   <field type="string">element</field>
   <field type="int">atomtype</field>
   <set>
    <rc><c>Sc</c><c>   1</c></rc>
    <rc><c>Sc</c><c>   1</c></rc>
    <rc><c>Sc</c><c>   1</c></rc>
    <rc><c>Sc</c><c>   1</c></rc>
    <rc><c>Sc</c><c>   1</c></rc>
    <rc><c>Sc</c><c>   1</c></rc>
    <rc><c>Sc</c><c>   1</c></rc>
    <rc><c>Sc</c><c>   1</c></rc>
    <rc><c>Sc</c><c>   1</c></rc>
    <rc><c>Sc</c><c>   1</c></rc>
    <rc><c>Sc</c><c>   1</c></rc>
    <rc><c>Sc</c><c>   1</c></rc>
    <rc><c>Sc</c><c>   1</c></rc>
    <rc><c>Sc</c><c>   1</c></rc>
    <rc><c>Sc</c><c>   1</c></rc>
    <rc><c>Sc</c><c>   1</c></rc>
    <rc><c>Sc</c><c>   1</c></rc>
    <rc><c>Sc</c><c>   1</c></rc>
    <rc><c>Sc</c><c>   1</c></rc>
    <rc><c>Sc</c><c>   1</c></rc>
    <rc><c>Sc</c><c>   1</c></rc>
    <rc><c>Sc</c><c>   1</c></rc>
    <rc><c>Sc</c><c>   1</c></rc>
    <rc><c>Sc</c><c>   1</c></rc>
    <rc><c>Sc</c><c>   1</c></rc>
    <rc><c>Sc</c><c>   1</c></rc>
    <rc><c>Sc</c><c>   1</c></rc>
    <rc><c>Sc</c><c>   1</c></rc>
    <rc><c>Sc</c><c>   1</c></rc>
    <rc><c>Sc</c><c>   1</c></rc>
    <rc><c>Sc</c><c>   1</c></rc>
    <rc><c>Sc</c><c>   1</c></rc>
    <rc><c>Cl</c><c>   2</c></rc>
    <rc><c>Cl</c><c>   2</c></rc>
    <rc><c>Cl</c><c>   2</c></rc>
    <rc><c>Cl</c><c>   2</c></rc>
    <rc><c>Cl</c><c>   2</c></rc>
    <rc><c>Cl</c><c>   2</c></rc>
    <rc><c>Cl</c><c>   2</c></rc>
    <rc><c>Cl</c><c>   2</c></rc>
    <rc><c>Cl</c><c>   2</c></rc>
    <rc><c>Cl</c><c>   2</c></rc>
    <rc><c>Cl</c><c>   2</c></rc>
    <rc><c>Cl</c><c>   2</c></rc>
    <rc><c>Cl</c><c>   2</c></rc>
    <rc><c>Cl</c><c>   2</c></rc>
    <rc><c>Cl</c><c>   2</c></rc>
    <rc><c>Cl</c><c>   2</c></rc>
    <rc><c>Cl</c><c>   2</c></rc>
    <rc><c>Cl</c><c>   2</c></rc>
    <rc><c>Cl</c><c>   2</c></rc>
    <rc><c>Cl</c><c>   2</c></rc>
    <rc><c>Cl</c><c>   2</c></rc>
    <rc><c>Cl</c><c>   2</c></rc>
    <rc><c>Cl</c><c>   2</c></rc>
    <rc><c>Cl</c><c>   2</c></rc>
    <rc><c>Cl</c><c>   2</c></rc>
    <rc><c>Cl</c><c>   2</c></rc>
    <rc><c>Cl</c><c>   2</c></rc>
    <rc><c>Cl</c><c>   2</c></rc>
    <rc><c>Cl</c><c>   2</c></rc>
    <rc><c>Cl</c><c>   2</c></rc>
    <rc><c>Cl</c><c>   2</c></rc>
    <rc><c>Cl</c><c>   2</c></rc>
    <rc><c>C </c><c>   3</c></rc>
    <rc><c>C </c><c>   3</c></rc>
    <rc><c>C </c><c>   3</c></rc>
    <rc><c>C </c><c>   3</c></rc>
    <rc><c>C </c><c>   3</c></rc>
    <rc><c>C </c><c>   3</c></rc>
    <rc><c>C </c><c>   3</c></rc>
    <rc><c>C </c><c>   3</c></rc>
    <rc><c>C </c><c>   3</c></rc>
    <rc><c>C </c><c>   3</c></rc>
    <rc><c>C </c><c>   3</c></rc>
    <rc><c>C </c><c>   3</c></rc>
    <rc><c>C </c><c>   3</c></rc>
    <rc><c>C </c><c>   3</c></rc>
    <rc><c>C </c><c>   3</c></rc>
    <rc><c>C </c><c>   3</c></rc>
   </set>
  </array>
  <array name="atomtypes" >
   <dimension dim="1">type</dimension>
   <field type="int">atomspertype</field>
   <field type="string">element</field>
   <field>mass</field>
   <field>valence</field>
   <field type="string">pseudopotential</field>
   <set>
    <rc><c>  32</c><c>Sc</c><c>     44.95600000</c><c>     11.00000000</c><c>  PAW_PBE Sc_sv 07Sep2000               </c></rc>
    <rc><c>  32</c><c>Cl</c><c>     35.45300000</c><c>      7.00000000</c><c>  PAW_PBE Cl 06Sep2000                  </c></rc>
    <rc><c>  16</c><c>C </c><c>     12.01100000</c><c>      4.00000000</c><c>  PAW_PBE C 08Apr2002                   </c></rc>
   </set>
  </array>
 </atominfo>
 <structure name="initialpos" >
  <crystal>
   <varray name="basis" >
    <v>      13.79398668       0.00000000       0.00000000 </v>
    <v>      -6.89699334      11.94594288       0.00000000 </v>
    <v>       0.00000000       0.00000000      27.81022107 </v>
   </varray>
   <i name="volume">   4582.62876984 </i>
   <varray name="rec_basis" >
    <v>       0.07249536       0.04185521       0.00000000 </v>
    <v>       0.00000000       0.08371043       0.00000000 </v>
    <v>       0.00000000       0.00000000       0.03595800 </v>
   </varray>
  </crystal>
  <varray name="positions" >
   <v>       0.08391981       0.16448145       0.54712466 </v>
   <v>       0.08476862       0.42054804       0.54735985 </v>
   <v>       0.08303612       0.66602986       0.54537645 </v>
   <v>       0.07679547       0.90712069       0.54446646 </v>
   <v>       0.32895447       0.17129070       0.54562923 </v>
   <v>       0.33625462       0.42476676       0.54375893 </v>
   <v>       0.33254590       0.67219220       0.54476419 </v>
   <v>       0.32916008       0.92144234       0.54542378 </v>
   <v>       0.58343702       0.16578444       0.54141596 </v>
   <v>       0.58417250       0.41788184       0.54396663 </v>
   <v>       0.58278344       0.67144936       0.54133959 </v>
   <v>       0.58476126       0.91807154       0.54303061 </v>
   <v>       0.82979913       0.16522955       0.54693172 </v>
   <v>       0.83087416       0.42841450       0.54458355 </v>
   <v>       0.83100122       0.66803976       0.54060412 </v>
   <v>       0.83134870       0.91195674       0.54411214 </v>
   <v>       0.16187264       0.07545080       0.45730577 </v>
   <v>       0.17153530       0.33824844       0.45690534 </v>
   <v>       0.16257428       0.58446501       0.45567983 </v>
   <v>       0.16594747       0.83711114       0.45413166 </v>
   <v>       0.41901248       0.08285474       0.45765895 </v>
   <v>       0.41918083       0.32900762       0.45210401 </v>
   <v>       0.41993458       0.57451955       0.45522385 </v>
   <v>       0.42249377       0.84356916       0.45571777 </v>
   <v>       0.67810902       0.09098780       0.45772779 </v>
   <v>       0.66584984       0.32655586       0.45679612 </v>
   <v>       0.66553586       0.58297536       0.45260834 </v>
   <v>       0.66458043       0.83558695       0.45345434 </v>
   <v>       0.91981082       0.08327286       0.46106824 </v>
   <v>       0.91827250       0.33111066       0.45619695 </v>
   <v>       0.91446479       0.58303653       0.45142660 </v>
   <v>       0.91247376       0.83026020       0.45572444 </v>
   <v>       0.08233833       0.16115381       0.39420203 </v>
   <v>       0.07227927       0.40515011       0.39302339 </v>
   <v>       0.07773210       0.66528625       0.39429343 </v>
   <v>       0.07569335       0.91833657       0.39757180 </v>
   <v>       0.33267284       0.16877293       0.39475877 </v>
   <v>       0.34238300       0.41630977       0.39711239 </v>
   <v>       0.33019824       0.65139554       0.39862895 </v>
   <v>       0.34204717       0.92236544       0.39418409 </v>
   <v>       0.58252046       0.15832053       0.39576151 </v>
   <v>       0.58480476       0.41012706       0.39133725 </v>
   <v>       0.58297603       0.66161073       0.39451180 </v>
   <v>       0.57824217       0.91137540       0.39743905 </v>
   <v>       0.83884847       0.17051371       0.39692220 </v>
   <v>       0.82999997       0.41446442       0.39514908 </v>
   <v>       0.84603029       0.68085915       0.38857930 </v>
   <v>       0.82608665       0.91289988       0.39817326 </v>
   <v>       0.17502602       0.07980236       0.60730368 </v>
   <v>       0.17120509       0.33216337       0.60466056 </v>
   <v>       0.16419805       0.58113767       0.60576594 </v>
   <v>       0.16797803       0.82914809       0.60689291 </v>
   <v>       0.42337300       0.08818915       0.60134882 </v>
   <v>       0.41871322       0.33197686       0.60268656 </v>
   <v>       0.42678224       0.58982354       0.60586253 </v>
   <v>       0.41001977       0.82127939       0.60466762 </v>
   <v>       0.66814445       0.08938016       0.60374607 </v>
   <v>       0.66678356       0.34397830       0.60998464 </v>
   <v>       0.66955863       0.58358548       0.60252694 </v>
   <v>       0.65394528       0.82971992       0.60184167 </v>
   <v>       0.92355549       0.08065537       0.60928500 </v>
   <v>       0.91110218       0.34471979       0.60585870 </v>
   <v>       0.90545015       0.57621272       0.60577403 </v>
   <v>       0.92026868       0.83214528       0.60270013 </v>
   <v>       0.00116000       0.99931537       0.50247269 </v>
   <v>       0.00233862       0.25823538       0.50200075 </v>
   <v>       0.00179440       0.50577716       0.50187705 </v>
   <v>       0.99642376       0.75279289       0.49698650 </v>
   <v>       0.24002639       0.99118825       0.50244055 </v>
   <v>       0.25253258       0.24890312       0.50186325 </v>
   <v>       0.25137709       0.50173853       0.49804885 </v>
   <v>       0.24646284       0.75262145       0.50079421 </v>
   <v>       0.50665613       0.99839795       0.49600845 </v>
   <v>       0.50272384       0.25474498       0.50007995 </v>
   <v>       0.50235344       0.49756645       0.49361581 </v>
   <v>       0.51239849       0.75838231       0.49956236 </v>
   <v>       0.75483525       0.00498975       0.50200835 </v>
   <v>       0.74936657       0.24990280       0.49793294 </v>
   <v>       0.74682845       0.49804523       0.49712099 </v>
   <v>       0.74763505       0.74826611       0.50107916 </v>
  </varray>
  <varray name="velocities" >
   <v>       0.00000000       0.00000000       0.00000000 </v>
   <v>       0.00000000       0.00000000       0.00000000 </v>
   <v>       0.00000000       0.00000000       0.00000000 </v>
   <v>       0.00000000       0.00000000       0.00000000 </v>
   <v>       0.00000000       0.00000000       0.00000000 </v>
   <v>       0.00000000       0.00000000       0.00000000 </v>
   <v>       0.00000000       0.00000000       0.00000000 </v>
   <v>       0.00000000       0.00000000       0.00000000 </v>
   <v>       0.00000000       0.00000000       0.00000000 </v>
   <v>       0.00000000       0.00000000       0.00000000 </v>
   <v>       0.00000000       0.00000000       0.00000000 </v>
   <v>       0.00000000       0.00000000       0.00000000 </v>
   <v>       0.00000000       0.00000000       0.00000000 </v>
   <v>       0.00000000       0.00000000       0.00000000 </v>
   <v>       0.00000000       0.00000000       0.00000000 </v>
   <v>       0.00000000       0.00000000       0.00000000 </v>
   <v>       0.00000000       0.00000000       0.00000000 </v>
   <v>       0.00000000       0.00000000       0.00000000 </v>
   <v>       0.00000000       0.00000000       0.00000000 </v>
   <v>       0.00000000       0.00000000       0.00000000 </v>
   <v>       0.00000000       0.00000000       0.00000000 </v>
   <v>       0.00000000       0.00000000       0.00000000 </v>
   <v>       0.00000000       0.00000000       0.00000000 </v>
   <v>       0.00000000       0.00000000       0.00000000 </v>
   <v>       0.00000000       0.00000000       0.00000000 </v>
   <v>       0.00000000       0.00000000       0.00000000 </v>
   <v>       0.00000000       0.00000000       0.00000000 </v>
   <v>       0.00000000       0.00000000       0.00000000 </v>
   <v>       0.00000000       0.00000000       0.00000000 </v>
   <v>       0.00000000       0.00000000       0.00000000 </v>
   <v>       0.00000000       0.00000000       0.00000000 </v>
   <v>       0.00000000       0.00000000       0.00000000 </v>
   <v>       0.00000000       0.00000000       0.00000000 </v>
   <v>       0.00000000       0.00000000       0.00000000 </v>
   <v>       0.00000000       0.00000000       0.00000000 </v>
   <v>       0.00000000       0.00000000       0.00000000 </v>
   <v>       0.00000000       0.00000000       0.00000000 </v>
   <v>       0.00000000       0.00000000       0.00000000 </v>
   <v>       0.00000000       0.00000000       0.00000000 </v>
   <v>       0.00000000       0.00000000       0.00000000 </v>
   <v>       0.00000000       0.00000000       0.00000000 </v>
   <v>       0.00000000       0.00000000       0.00000000 </v>
   <v>       0.00000000       0.00000000       0.00000000 </v>
   <v>       0.00000000       0.00000000       0.00000000 </v>
   <v>       0.00000000       0.00000000       0.00000000 </v>
   <v>       0.00000000       0.00000000       0.00000000 </v>
   <v>       0.00000000       0.00000000       0.00000000 </v>
   <v>       0.00000000       0.00000000       0.00000000 </v>
   <v>       0.00000000       0.00000000       0.00000000 </v>
   <v>       0.00000000       0.00000000       0.00000000 </v>
   <v>       0.00000000       0.00000000       0.00000000 </v>
   <v>       0.00000000       0.00000000       0.00000000 </v>
   <v>       0.00000000       0.00000000       0.00000000 </v>
   <v>       0.00000000       0.00000000       0.00000000 </v>
   <v>       0.00000000       0.00000000       0.00000000 </v>
   <v>       0.00000000       0.00000000       0.00000000 </v>
   <v>       0.00000000       0.00000000       0.00000000 </v>
   <v>       0.00000000       0.00000000       0.00000000 </v>
   <v>       0.00000000       0.00000000       0.00000000 </v>
   <v>       0.00000000       0.00000000       0.00000000 </v>
   <v>       0.00000000       0.00000000       0.00000000 </v>
   <v>       0.00000000       0.00000000       0.00000000 </v>
   <v>       0.00000000       0.00000000       0.00000000 </v>
   <v>       0.00000000       0.00000000       0.00000000 </v>
   <v>       0.00000000       0.00000000       0.00000000 </v>
   <v>       0.00000000       0.00000000       0.00000000 </v>
   <v>       0.00000000       0.00000000       0.00000000 </v>
   <v>       0.00000000       0.00000000       0.00000000 </v>
   <v>       0.00000000       0.00000000       0.00000000 </v>
   <v>       0.00000000       0.00000000       0.00000000 </v>
   <v>       0.00000000       0.00000000       0.00000000 </v>
   <v>       0.00000000       0.00000000       0.00000000 </v>
   <v>       0.00000000       0.00000000       0.00000000 </v>
   <v>       0.00000000       0.00000000       0.00000000 </v>
   <v>       0.00000000       0.00000000       0.00000000 </v>
   <v>       0.00000000       0.00000000       0.00000000 </v>
   <v>       0.00000000       0.00000000       0.00000000 </v>
   <v>       0.00000000       0.00000000       0.00000000 </v>
   <v>       0.00000000       0.00000000       0.00000000 </v>
   <v>       0.00000000       0.00000000       0.00000000 </v>
  </varray>
 </structure>
 <calculation>
  <scstep>
   <time name="dav">  158.40  158.43</time>
   <time name="total">  160.79  160.83</time>
   <energy>
    <i name="alphaZ">    784.57699423 </i>
    <i name="ewald"> 253052.74982943 </i>
    <i name="hartreedc">-300704.82282105 </i>
    <i name="XCdc">   2503.18023938 </i>
    <i name="pawpsdc">  43679.68029659 </i>
    <i name="pawaedc"> -43417.33247688 </i>
    <i name="eentropy">     -0.06167294 </i>
    <i name="bandstr">    111.39653896 </i>
    <i name="atom">  56210.72393729 </i>
    <i name="e_fr_energy">  12220.09086502 </i>
    <i name="e_wo_entrp">  12220.15253796 </i>
    <i name="e_0_energy">  12220.12170149 </i>
   </energy>
  </scstep>
  <scstep>
   <time name="dav">  178.63  178.64</time>
   <time name="total">  178.63  178.65</time>
   <energy>
    <i name="e_fr_energy">   1741.76444097 </i>
    <i name="e_wo_entrp">   1741.81139870 </i>
    <i name="e_0_energy">   1741.78791983 </i>
   </energy>
  </scstep>
  <scstep>
   <time name="dav">  223.59  223.60</time>
   <time name="total">  223.59  223.61</time>
   <energy>
    <i name="e_fr_energy">   -408.56712722 </i>
    <i name="e_wo_entrp">   -408.56712608 </i>
    <i name="e_0_energy">   -408.56712665 </i>
   </energy>
  </scstep>
  <scstep>
   <time name="dav">  203.75  203.76</time>
   <time name="total">  203.75  203.76</time>
   <energy>
    <i name="e_fr_energy">   -645.42379785 </i>
    <i name="e_wo_entrp">   -645.42379785 </i>
    <i name="e_0_energy">   -645.42379785 </i>
   </energy>
  </scstep>
  <scstep>
   <time name="dav">  203.24  203.26</time>
   <time name="total">  217.13  217.15</time>
   <energy>
    <i name="e_fr_energy">   -655.83567549 </i>
    <i name="e_wo_entrp">   -655.83567549 </i>
    <i name="e_0_energy">   -655.83567549 </i>
   </energy>
  </scstep>
  <scstep>
   <time name="dav">  198.57  198.57</time>
   <time name="total">  215.02  215.04</time>
   <energy>
    <i name="e_fr_energy">   -525.74081996 </i>
    <i name="e_wo_entrp">   -525.74081996 </i>
    <i name="e_0_energy">   -525.74081996 </i>
   </energy>
  </scstep>
  <scstep>
   <time name="dav">  198.83  198.84</time>
   <time name="total">  215.31  215.33</time>
   <energy>
    <i name="e_fr_energy">   -530.29953308 </i>
    <i name="e_wo_entrp">   -530.29953308 </i>
    <i name="e_0_energy">   -530.29953308 </i>
   </energy>
  </scstep>
  <scstep>
   <time name="dav">  199.56  199.57</time>
   <time name="total">  216.00  216.02</time>
   <energy>
    <i name="e_fr_energy">   -528.14316321 </i>
    <i name="e_wo_entrp">   -528.14316321 </i>
    <i name="e_0_energy">   -528.14316321 </i>
   </energy>
  </scstep>
  <scstep>
   <time name="dav">  186.31  186.31</time>
   <time name="total">  202.75  202.76</time>
   <energy>
    <i name="e_fr_energy">   -527.63077463 </i>
    <i name="e_wo_entrp">   -527.63077463 </i>
    <i name="e_0_energy">   -527.63077463 </i>
   </energy>
  </scstep>
  <scstep>
   <time name="dav">  194.01  194.01</time>
   <time name="total">  210.44  210.46</time>
   <energy>
    <i name="e_fr_energy">   -527.51305860 </i>
    <i name="e_wo_entrp">   -527.51305860 </i>
    <i name="e_0_energy">   -527.51305860 </i>
   </energy>
  </scstep>
  <scstep>
   <time name="dav">  191.37  191.38</time>
   <time name="total">  206.92  206.94</time>
   <energy>
    <i name="e_fr_energy">   -527.49283084 </i>
    <i name="e_wo_entrp">   -527.49283084 </i>
    <i name="e_0_energy">   -527.49283084 </i>
   </energy>
  </scstep>
  <scstep>
   <time name="dav">  205.47  205.48</time>
   <time name="total">  221.15  221.17</time>
   <energy>
    <i name="e_fr_energy">   -527.47903210 </i>
    <i name="e_wo_entrp">   -527.47903210 </i>
    <i name="e_0_energy">   -527.47903210 </i>
   </energy>
  </scstep>
  <scstep>
   <time name="dav">  189.13  189.14</time>
   <time name="total">  204.55  204.57</time>
   <energy>
    <i name="e_fr_energy">   -527.47691456 </i>
    <i name="e_wo_entrp">   -527.47691456 </i>
    <i name="e_0_energy">   -527.47691456 </i>
   </energy>
  </scstep>
  <scstep>
   <time name="dav">  180.62  180.63</time>
   <time name="total">  196.38  196.39</time>
   <energy>
    <i name="e_fr_energy">   -527.47485100 </i>
    <i name="e_wo_entrp">   -527.47485100 </i>
    <i name="e_0_energy">   -527.47485100 </i>
   </energy>
  </scstep>
  <scstep>
   <time name="dav">  190.93  190.94</time>
   <time name="total">  206.42  206.44</time>
   <energy>
    <i name="e_fr_energy">   -527.47643771 </i>
    <i name="e_wo_entrp">   -527.47643771 </i>
    <i name="e_0_energy">   -527.47643771 </i>
   </energy>
  </scstep>
  <scstep>
   <time name="dav">  195.18  195.18</time>
   <time name="total">  211.04  211.05</time>
   <energy>
    <i name="e_fr_energy">   -527.47883080 </i>
    <i name="e_wo_entrp">   -527.47883080 </i>
    <i name="e_0_energy">   -527.47883080 </i>
   </energy>
  </scstep>
  <scstep>
   <time name="dav">  179.86  179.87</time>
   <time name="total">  195.75  195.78</time>
   <energy>
    <i name="e_fr_energy">   -527.48226434 </i>
    <i name="e_wo_entrp">   -527.48226434 </i>
    <i name="e_0_energy">   -527.48226434 </i>
   </energy>
  </scstep>
  <scstep>
   <time name="dav">  173.01  173.01</time>
   <time name="total">  189.26  189.27</time>
   <energy>
    <i name="e_fr_energy">   -527.48432458 </i>
    <i name="e_wo_entrp">   -527.48432458 </i>
    <i name="e_0_energy">   -527.48432458 </i>
   </energy>
  </scstep>
  <scstep>
   <time name="dav">  176.39  176.39</time>
   <time name="total">  192.12  192.14</time>
   <energy>
    <i name="e_fr_energy">   -527.48539931 </i>
    <i name="e_wo_entrp">   -527.48539931 </i>
    <i name="e_0_energy">   -527.48539931 </i>
   </energy>
  </scstep>
  <scstep>
   <time name="dav">  160.36  160.36</time>
   <time name="total">  176.39  176.40</time>
   <energy>
    <i name="e_fr_energy">   -527.48659075 </i>
    <i name="e_wo_entrp">   -527.48659075 </i>
    <i name="e_0_energy">   -527.48659075 </i>
   </energy>
  </scstep>
  <scstep>
   <time name="dav">  146.91  146.92</time>
   <time name="total">  162.70  162.71</time>
   <energy>
    <i name="e_fr_energy">   -527.48701850 </i>
    <i name="e_wo_entrp">   -527.48701850 </i>
    <i name="e_0_energy">   -527.48701850 </i>
   </energy>
  </scstep>
  <scstep>
   <time name="dav">  130.71  130.72</time>
   <time name="total">  146.52  146.54</time>
   <energy>
    <i name="e_fr_energy">   -527.48748736 </i>
    <i name="e_wo_entrp">   -527.48748736 </i>
    <i name="e_0_energy">   -527.48748736 </i>
   </energy>
  </scstep>
  <scstep>
   <time name="dav">  133.51  133.52</time>
   <time name="total">  149.09  149.11</time>
   <energy>
    <i name="e_fr_energy">   -527.48805351 </i>
    <i name="e_wo_entrp">   -527.48805351 </i>
    <i name="e_0_energy">   -527.48805351 </i>
   </energy>
  </scstep>
  <scstep>
   <time name="dav">  128.77  128.77</time>
   <time name="total">  144.71  144.74</time>
   <energy>
    <i name="e_fr_energy">   -527.48815138 </i>
    <i name="e_wo_entrp">   -527.48815138 </i>
    <i name="e_0_energy">   -527.48815138 </i>
   </energy>
  </scstep>
  <scstep>
   <time name="dav">  128.04  128.04</time>
   <time name="total">  144.11  144.12</time>
   <energy>
    <i name="e_fr_energy">   -527.48826626 </i>
    <i name="e_wo_entrp">   -527.48826626 </i>
    <i name="e_0_energy">   -527.48826626 </i>
   </energy>
  </scstep>
  <scstep>
   <time name="dav">  109.88  109.88</time>
   <time name="total">  125.19  125.21</time>
   <energy>
    <i name="e_fr_energy">   -527.48832159 </i>
    <i name="e_wo_entrp">   -527.48832159 </i>
    <i name="e_0_energy">   -527.48832159 </i>
   </energy>
  </scstep>
  <scstep>
   <time name="dav">  105.22  105.22</time>
   <time name="total">  120.49  120.50</time>
   <energy>
    <i name="e_fr_energy">   -527.48834438 </i>
    <i name="e_wo_entrp">   -527.48834438 </i>
    <i name="e_0_energy">   -527.48834438 </i>
   </energy>
  </scstep>
  <scstep>
   <time name="dav">  104.49  104.49</time>
   <time name="total">  119.32  119.34</time>
   <energy>
    <i name="e_fr_energy">   -527.48835699 </i>
    <i name="e_wo_entrp">   -527.48835699 </i>
    <i name="e_0_energy">   -527.48835699 </i>
   </energy>
  </scstep>
  <scstep>
   <time name="dav">  108.12  108.13</time>
   <time name="total">  122.77  122.78</time>
   <energy>
    <i name="e_fr_energy">   -527.48837374 </i>
    <i name="e_wo_entrp">   -527.48837374 </i>
    <i name="e_0_energy">   -527.48837374 </i>
   </energy>
  </scstep>
  <scstep>
   <time name="dav">  102.96  102.97</time>
   <time name="total">  118.00  118.01</time>
   <energy>
    <i name="e_fr_energy">   -527.48838103 </i>
    <i name="e_wo_entrp">   -527.48838103 </i>
    <i name="e_0_energy">   -527.48838103 </i>
   </energy>
  </scstep>
  <scstep>
   <time name="dav">  102.25  102.26</time>
   <time name="total">  116.81  116.84</time>
   <energy>
    <i name="e_fr_energy">   -527.48838392 </i>
    <i name="e_wo_entrp">   -527.48838392 </i>
    <i name="e_0_energy">   -527.48838392 </i>
   </energy>
  </scstep>
  <scstep>
   <time name="dav">   99.49   99.49</time>
   <time name="total">  113.67  113.68</time>
   <energy>
    <i name="e_fr_energy">   -527.48838495 </i>
    <i name="e_wo_entrp">   -527.48838495 </i>
    <i name="e_0_energy">   -527.48838495 </i>
   </energy>
  </scstep>
  <scstep>
   <time name="dav">  100.98  100.99</time>
   <time name="total">  103.24  103.26</time>
   <energy>
    <i name="alphaZ">    784.57699423 </i>
    <i name="ewald"> 253052.74982943 </i>
    <i name="hartreedc">-301029.49994605 </i>
    <i name="XCdc">   2490.28035472 </i>
    <i name="pawpsdc">  59468.33164251 </i>
    <i name="pawaedc"> -59300.83125616 </i>
    <i name="eentropy">     -0.00000000 </i>
    <i name="bandstr"> -12203.81994166 </i>
    <i name="atom">  56210.72393729 </i>
    <i name="e_fr_energy">   -527.48838570 </i>
    <i name="e_wo_entrp">   -527.48838570 </i>
    <i name="e_0_energy">   -527.48838570 </i>
   </energy>
  </scstep>
  <structure>
   <crystal>
    <varray name="basis" >
     <v>      13.79398668       0.00000000       0.00000000 </v>
     <v>      -6.89699334      11.94594288       0.00000000 </v>
     <v>       0.00000000       0.00000000      27.81022107 </v>
    </varray>
    <i name="volume">   4582.62876984 </i>
    <varray name="rec_basis" >
     <v>       0.07249536       0.04185521       0.00000000 </v>
     <v>       0.00000000       0.08371043       0.00000000 </v>
     <v>       0.00000000       0.00000000       0.03595800 </v>
    </varray>
   </crystal>
   <varray name="positions" >
    <v>       0.08391981       0.16448145       0.54712466 </v>
    <v>       0.08476862       0.42054804       0.54735985 </v>
    <v>       0.08303612       0.66602986       0.54537645 </v>
    <v>       0.07679547       0.90712069       0.54446646 </v>
    <v>       0.32895447       0.17129070       0.54562923 </v>
    <v>       0.33625462       0.42476676       0.54375893 </v>
    <v>       0.33254590       0.67219220       0.54476419 </v>
    <v>       0.32916008       0.92144234       0.54542378 </v>
    <v>       0.58343702       0.16578444       0.54141596 </v>
    <v>       0.58417250       0.41788184       0.54396663 </v>
    <v>       0.58278344       0.67144936       0.54133959 </v>
    <v>       0.58476126       0.91807154       0.54303061 </v>
    <v>       0.82979913       0.16522955       0.54693172 </v>
    <v>       0.83087416       0.42841450       0.54458355 </v>
    <v>       0.83100122       0.66803976       0.54060412 </v>
    <v>       0.83134870       0.91195674       0.54411214 </v>
    <v>       0.16187264       0.07545080       0.45730577 </v>
    <v>       0.17153530       0.33824844       0.45690534 </v>
    <v>       0.16257428       0.58446501       0.45567983 </v>
    <v>       0.16594747       0.83711114       0.45413166 </v>
    <v>       0.41901248       0.08285474       0.45765895 </v>
    <v>       0.41918083       0.32900762       0.45210401 </v>
    <v>       0.41993458       0.57451955       0.45522385 </v>
    <v>       0.42249377       0.84356916       0.45571777 </v>
    <v>       0.67810902       0.09098780       0.45772779 </v>
    <v>       0.66584984       0.32655586       0.45679612 </v>
    <v>       0.66553586       0.58297536       0.45260834 </v>
    <v>       0.66458043       0.83558695       0.45345434 </v>
    <v>       0.91981082       0.08327286       0.46106824 </v>
    <v>       0.91827250       0.33111066       0.45619695 </v>
    <v>       0.91446479       0.58303653       0.45142660 </v>
    <v>       0.91247376       0.83026020       0.45572444 </v>
    <v>       0.08233833       0.16115381       0.39420203 </v>
    <v>       0.07227927       0.40515011       0.39302339 </v>
    <v>       0.07773210       0.66528625       0.39429343 </v>
    <v>       0.07569335       0.91833657       0.39757180 </v>
    <v>       0.33267284       0.16877293       0.39475877 </v>
    <v>       0.34238300       0.41630977       0.39711239 </v>
    <v>       0.33019824       0.65139554       0.39862895 </v>
    <v>       0.34204717       0.92236544       0.39418409 </v>
    <v>       0.58252046       0.15832053       0.39576151 </v>
    <v>       0.58480476       0.41012706       0.39133725 </v>
    <v>       0.58297603       0.66161073       0.39451180 </v>
    <v>       0.57824217       0.91137540       0.39743905 </v>
    <v>       0.83884847       0.17051371       0.39692220 </v>
    <v>       0.82999997       0.41446442       0.39514908 </v>
    <v>       0.84603029       0.68085915       0.38857930 </v>
    <v>       0.82608665       0.91289988       0.39817326 </v>
    <v>       0.17502602       0.07980236       0.60730368 </v>
    <v>       0.17120509       0.33216337       0.60466056 </v>
    <v>       0.16419805       0.58113767       0.60576594 </v>
    <v>       0.16797803       0.82914809       0.60689291 </v>
    <v>       0.42337300       0.08818915       0.60134882 </v>
    <v>       0.41871322       0.33197686       0.60268656 </v>
    <v>       0.42678224       0.58982354       0.60586253 </v>
    <v>       0.41001977       0.82127939       0.60466762 </v>
    <v>       0.66814445       0.08938016       0.60374607 </v>
    <v>       0.66678356       0.34397830       0.60998464 </v>
    <v>       0.66955863       0.58358548       0.60252694 </v>
    <v>       0.65394528       0.82971992       0.60184167 </v>
    <v>       0.92355549       0.08065537       0.60928500 </v>
    <v>       0.91110218       0.34471979       0.60585870 </v>
    <v>       0.90545015       0.57621272       0.60577403 </v>
    <v>       0.92026868       0.83214528       0.60270013 </v>
    <v>       0.00116000       0.99931537       0.50247269 </v>
    <v>       0.00233862       0.25823538       0.50200075 </v>
    <v>       0.00179440       0.50577716       0.50187705 </v>
    <v>       0.99642376       0.75279289       0.49698650 </v>
    <v>       0.24002639       0.99118825       0.50244055 </v>
    <v>       0.25253258       0.24890312       0.50186325 </v>
    <v>       0.25137709       0.50173853       0.49804885 </v>
    <v>       0.24646284       0.75262145       0.50079421 </v>
    <v>       0.50665613       0.99839795       0.49600845 </v>
    <v>       0.50272384       0.25474498       0.50007995 </v>
    <v>       0.50235344       0.49756645       0.49361581 </v>
    <v>       0.51239849       0.75838231       0.49956236 </v>
    <v>       0.75483525       0.00498975       0.50200835 </v>
    <v>       0.74936657       0.24990280       0.49793294 </v>
    <v>       0.74682845       0.49804523       0.49712099 </v>
    <v>       0.74763505       0.74826611       0.50107916 </v>
   </varray>
  </structure>
  <varray name="forces" >
   <v>       0.16222695       0.22511649      -0.04597164 </v>
   <v>      -0.30831551      -0.47046227      -0.60588971 </v>
   <v>      -0.30826513       0.02851777      -0.38898183 </v>
   <v>       0.30511408       0.59481565       0.09617487 </v>
   <v>       0.46041241      -0.22842331      -0.32644903 </v>
   <v>       0.29738205      -0.65964986       0.02730635 </v>
   <v>       0.27141531      -0.38879755      -0.65815180 </v>
   <v>       0.24922131      -0.83457747      -0.08835202 </v>
   <v>       0.06204636       0.53313391       0.84270051 </v>
   <v>       0.04275406      -0.01849658      -0.30877146 </v>
   <v>       0.47758828      -0.32846662       0.32118881 </v>
   <v>      -0.04157727      -0.11398534       0.12624096 </v>
   <v>       0.66661258       0.68586535       0.10850871 </v>
   <v>       0.57744987      -0.88481031      -0.17418780 </v>
   <v>       0.05814321      -0.37985006       0.49200015 </v>
   <v>      -0.19488090       0.29709430       0.53462847 </v>
   <v>      -0.19663737       0.94226666       0.01702130 </v>
   <v>      -0.42695421      -0.65578776      -0.25421527 </v>
   <v>       0.36044936      -0.02387842      -0.00556407 </v>
   <v>       0.17132823      -0.42747918       0.34573406 </v>
   <v>      -0.25423335       0.22748611      -0.69667250 </v>
   <v>       0.03975711       0.23827982       0.89931810 </v>
   <v>      -0.74881213       0.98044207      -0.26221398 </v>
   <v>      -0.11482768      -1.19484535      -0.09133014 </v>
   <v>      -0.36460230      -0.55025387      -0.91668267 </v>
   <v>      -0.31090988       0.71519636      -0.87265884 </v>
   <v>       0.24674525      -0.43829911      -0.13819935 </v>
   <v>       0.15088605      -0.30663887       0.59172221 </v>
   <v>      -0.07281476       0.35066335      -0.99357929 </v>
   <v>      -0.13271341       0.48097132       0.35181688 </v>
   <v>      -0.09508508       0.00622046       0.58531842 </v>
   <v>      -0.01116944       0.12921671      -0.23230801 </v>
   <v>      -0.08869657       0.18587199       0.64745599 </v>
   <v>       0.39795361       0.51622532       0.40526612 </v>
   <v>       0.49432740       0.18031158      -0.10134679 </v>
   <v>       0.50152117       0.02693855      -0.48113998 </v>
   <v>       0.16262966      -0.60274290       0.12468744 </v>
   <v>      -0.65868729      -0.26760612      -0.64300066 </v>
   <v>      -0.34131826       0.63566539      -0.30497923 </v>
   <v>      -0.48283289      -0.24385175       0.15220621 </v>
   <v>      -0.08498910       0.26955248       0.09879264 </v>
   <v>       0.03699221       0.18583171       0.34548803 </v>
   <v>      -0.06061575       0.33492035      -0.22474461 </v>
   <v>       0.26128384       0.37351752      -0.64270802 </v>
   <v>       0.00509125      -0.44935222      -0.02814893 </v>
   <v>       0.12048069      -0.00765087       0.01210658 </v>
   <v>      -0.35491171      -0.57600690       0.58787831 </v>
   <v>       0.30225809       0.53105297      -0.33979924 </v>
   <v>      -0.44721462      -0.00254518      -0.15419556 </v>
   <v>      -0.15330687       0.26608000       0.11031998 </v>
   <v>       0.16407650       0.25976858       0.09560877 </v>
   <v>      -0.18600139       0.09906500      -0.13053518 </v>
   <v>      -0.02398319      -0.20039353       0.34630215 </v>
   <v>      -0.23513268       0.39100242       0.25653389 </v>
   <v>      -0.34741527      -0.45903440      -0.40627023 </v>
   <v>      -0.06389965       0.91454267       0.11041883 </v>
   <v>      -0.14041041      -0.27098473       0.20818769 </v>
   <v>       0.10658117      -0.46023317      -0.87006379 </v>
   <v>      -0.32242674       0.23223712      -0.06431748 </v>
   <v>       0.77422291       0.30469106       0.48380032 </v>
   <v>      -0.39924929       0.01416773      -0.44172284 </v>
   <v>       0.49669973      -0.51687684      -0.23195680 </v>
   <v>       0.24278344       0.90982478      -0.11469977 </v>
   <v>      -0.41058051      -0.25971209       0.41954347 </v>
   <v>      -0.35036717       0.03046875      -0.12987934 </v>
   <v>       0.35171960      -0.69306430       0.18677456 </v>
   <v>      -0.11274986      -0.15143637      -0.39561580 </v>
   <v>       0.27533371      -0.41357630       0.41265919 </v>
   <v>       0.74796062       0.63285058      -0.60756115 </v>
   <v>      -0.46269679       0.08744103      -0.26986158 </v>
   <v>       0.15894597      -0.11807891       0.82629069 </v>
   <v>       0.39533776      -0.15181912      -0.07339338 </v>
   <v>      -1.03398596       0.75556049       1.09886691 </v>
   <v>       0.25947858      -0.91548054      -0.17518419 </v>
   <v>      -0.10824189       0.17456820       1.24000921 </v>
   <v>      -1.00892953      -0.44251748      -0.02612721 </v>
   <v>       0.07990368      -0.15970839       0.01216100 </v>
   <v>       0.10412259      -0.10407140       0.78709739 </v>
   <v>       0.22895221       0.39212587       0.21537006 </v>
   <v>       0.19225294       0.23187698      -0.60607405 </v>
  </varray>
  <varray name="stress" >
   <v>       1.67630758       0.54704193       0.78155622 </v>
   <v>       0.54704192       2.31019407      -0.86814279 </v>
   <v>       0.78155621      -0.86814277      -0.13657491 </v>
  </varray>
  <energy>
   <i name="e_fr_energy">   -527.48838570 </i>
   <i name="e_wo_entrp">   -527.48838570 </i>
   <i name="e_0_energy">     -0.00000000 </i>
  </energy>
  <time name="totalsc"> 5931.38 5931.98</time>
  <eigenvalues>
   <array>
    <dimension dim="1">band</dimension>
    <dimension dim="2">kpoint</dimension>
    <dimension dim="3">spin</dimension>
    <field>eigene</field>
    <field>occ</field>
    <set>
     <set comment="spin 1">
      <set comment="kpoint 1">
       <r>  -51.6741    1.0000 </r>
       <r>  -51.6614    1.0000 </r>
       <r>  -51.5978    1.0000 </r>
       <r>  -51.5881    1.0000 </r>
       <r>  -51.5845    1.0000 </r>
       <r>  -51.5773    1.0000 </r>
       <r>  -51.5770    1.0000 </r>
       <r>  -51.5158    1.0000 </r>
       <r>  -51.4753    1.0000 </r>
       <r>  -51.4721    1.0000 </r>
       <r>  -51.4708    1.0000 </r>
       <r>  -51.4600    1.0000 </r>
       <r>  -51.4548    1.0000 </r>
       <r>  -51.4433    1.0000 </r>
       <r>  -51.4392    1.0000 </r>
       <r>  -51.4139    1.0000 </r>
       <r>  -51.3985    1.0000 </r>
       <r>  -51.3984    1.0000 </r>
       <r>  -51.3770    1.0000 </r>
       <r>  -51.3619    1.0000 </r>
       <r>  -51.3531    1.0000 </r>
       <r>  -51.3426    1.0000 </r>
       <r>  -51.3425    1.0000 </r>
       <r>  -51.3359    1.0000 </r>
       <r>  -51.3053    1.0000 </r>
       <r>  -51.2641    1.0000 </r>
       <r>  -51.2443    1.0000 </r>
       <r>  -51.2387    1.0000 </r>
       <r>  -51.2236    1.0000 </r>
       <r>  -51.1954    1.0000 </r>
       <r>  -51.1706    1.0000 </r>
       <r>  -51.1597    1.0000 </r>
       <r>  -30.4168    1.0000 </r>
       <r>  -30.3762    1.0000 </r>
       <r>  -30.3629    1.0000 </r>
       <r>  -30.3580    1.0000 </r>
       <r>  -30.3440    1.0000 </r>
       <r>  -30.3263    1.0000 </r>
       <r>  -30.3198    1.0000 </r>
       <r>  -30.3132    1.0000 </r>
       <r>  -30.3026    1.0000 </r>
       <r>  -30.2893    1.0000 </r>
       <r>  -30.2858    1.0000 </r>
       <r>  -30.2806    1.0000 </r>
       <r>  -30.2730    1.0000 </r>
       <r>  -30.2711    1.0000 </r>
       <r>  -30.2649    1.0000 </r>
       <r>  -30.2607    1.0000 </r>
       <r>  -30.2521    1.0000 </r>
       <r>  -30.2442    1.0000 </r>
       <r>  -30.2418    1.0000 </r>
       <r>  -30.2330    1.0000 </r>
       <r>  -30.2220    1.0000 </r>
       <r>  -30.2156    1.0000 </r>
       <r>  -30.2003    1.0000 </r>
       <r>  -30.1954    1.0000 </r>
       <r>  -30.1873    1.0000 </r>
       <r>  -30.1826    1.0000 </r>
       <r>  -30.1810    1.0000 </r>
       <r>  -30.1727    1.0000 </r>
       <r>  -30.1689    1.0000 </r>
       <r>  -30.1617    1.0000 </r>
       <r>  -30.1607    1.0000 </r>
       <r>  -30.1496    1.0000 </r>
       <r>  -30.1490    1.0000 </r>
       <r>  -30.1392    1.0000 </r>
       <r>  -30.1312    1.0000 </r>
       <r>  -30.1298    1.0000 </r>
       <r>  -30.1275    1.0000 </r>
       <r>  -30.1201    1.0000 </r>
       <r>  -30.1175    1.0000 </r>
       <r>  -30.1119    1.0000 </r>
       <r>  -30.1018    1.0000 </r>
       <r>  -30.1007    1.0000 </r>
       <r>  -30.0965    1.0000 </r>
       <r>  -30.0890    1.0000 </r>
       <r>  -30.0865    1.0000 </r>
       <r>  -30.0796    1.0000 </r>
       <r>  -30.0741    1.0000 </r>
       <r>  -30.0699    1.0000 </r>
       <r>  -30.0668    1.0000 </r>
       <r>  -30.0643    1.0000 </r>
       <r>  -30.0580    1.0000 </r>
       <r>  -30.0548    1.0000 </r>
       <r>  -30.0499    1.0000 </r>
       <r>  -30.0441    1.0000 </r>
       <r>  -30.0317    1.0000 </r>
       <r>  -30.0276    1.0000 </r>
       <r>  -30.0234    1.0000 </r>
       <r>  -30.0186    1.0000 </r>
       <r>  -30.0150    1.0000 </r>
       <r>  -30.0142    1.0000 </r>
       <r>  -30.0075    1.0000 </r>
       <r>  -30.0024    1.0000 </r>
       <r>  -29.9979    1.0000 </r>
       <r>  -29.9944    1.0000 </r>
       <r>  -29.9915    1.0000 </r>
       <r>  -29.9858    1.0000 </r>
       <r>  -29.9827    1.0000 </r>
       <r>  -29.9776    1.0000 </r>
       <r>  -29.9724    1.0000 </r>
       <r>  -29.9675    1.0000 </r>
       <r>  -29.9559    1.0000 </r>
       <r>  -29.9551    1.0000 </r>
       <r>  -29.9489    1.0000 </r>
       <r>  -29.9461    1.0000 </r>
       <r>  -29.9416    1.0000 </r>
       <r>  -29.9355    1.0000 </r>
       <r>  -29.9203    1.0000 </r>
       <r>  -29.9143    1.0000 </r>
       <r>  -29.9014    1.0000 </r>
       <r>  -29.8920    1.0000 </r>
       <r>  -29.8819    1.0000 </r>
       <r>  -29.8780    1.0000 </r>
       <r>  -29.8715    1.0000 </r>
       <r>  -29.8663    1.0000 </r>
       <r>  -29.8588    1.0000 </r>
       <r>  -29.8417    1.0000 </r>
       <r>  -29.8349    1.0000 </r>
       <r>  -29.8279    1.0000 </r>
       <r>  -29.8258    1.0000 </r>
       <r>  -29.8201    1.0000 </r>
       <r>  -29.8162    1.0000 </r>
       <r>  -29.8121    1.0000 </r>
       <r>  -29.8046    1.0000 </r>
       <r>  -29.8010    1.0000 </r>
       <r>  -29.7861    1.0000 </r>
       <r>  -29.7493    1.0000 </r>
       <r>  -18.5050    1.0000 </r>
       <r>  -18.4700    1.0000 </r>
       <r>  -18.3394    1.0000 </r>
       <r>  -18.3334    1.0000 </r>
       <r>  -18.2928    1.0000 </r>
       <r>  -18.2848    1.0000 </r>
       <r>  -18.2824    1.0000 </r>
       <r>  -18.2423    1.0000 </r>
       <r>  -18.2215    1.0000 </r>
       <r>  -18.1907    1.0000 </r>
       <r>  -18.1842    1.0000 </r>
       <r>  -18.1348    1.0000 </r>
       <r>  -18.1134    1.0000 </r>
       <r>  -18.0400    1.0000 </r>
       <r>  -18.0394    1.0000 </r>
       <r>  -18.0200    1.0000 </r>
       <r>  -18.0106    1.0000 </r>
       <r>  -17.9736    1.0000 </r>
       <r>  -17.9643    1.0000 </r>
       <r>  -17.9196    1.0000 </r>
       <r>  -17.9121    1.0000 </r>
       <r>  -17.8544    1.0000 </r>
       <r>  -17.8412    1.0000 </r>
       <r>  -17.8113    1.0000 </r>
       <r>  -17.7972    1.0000 </r>
       <r>  -17.7699    1.0000 </r>
       <r>  -17.7392    1.0000 </r>
       <r>  -17.7307    1.0000 </r>
       <r>  -17.7155    1.0000 </r>
       <r>  -17.6640    1.0000 </r>
       <r>  -17.5854    1.0000 </r>
       <r>  -17.4893    1.0000 </r>
       <r>  -11.7967    1.0000 </r>
       <r>  -11.4349    1.0000 </r>
       <r>  -11.4145    1.0000 </r>
       <r>  -11.3987    1.0000 </r>
       <r>  -11.3650    1.0000 </r>
       <r>  -11.3406    1.0000 </r>
       <r>  -11.3343    1.0000 </r>
       <r>  -10.9749    1.0000 </r>
       <r>  -10.9436    1.0000 </r>
       <r>  -10.9186    1.0000 </r>
       <r>  -10.9096    1.0000 </r>
       <r>  -10.8970    1.0000 </r>
       <r>  -10.8884    1.0000 </r>
       <r>  -10.8667    1.0000 </r>
       <r>  -10.8411    1.0000 </r>
       <r>  -10.8245    1.0000 </r>
       <r>   -7.9777    1.0000 </r>
       <r>   -7.9452    1.0000 </r>
       <r>   -7.9385    1.0000 </r>
       <r>   -7.7868    1.0000 </r>
       <r>   -7.7535    1.0000 </r>
       <r>   -7.7310    1.0000 </r>
       <r>   -7.5309    1.0000 </r>
       <r>   -7.4987    1.0000 </r>
       <r>   -7.4847    1.0000 </r>
       <r>   -7.4777    1.0000 </r>
       <r>   -7.4571    1.0000 </r>
       <r>   -7.4474    1.0000 </r>
       <r>   -7.4376    1.0000 </r>
       <r>   -7.4247    1.0000 </r>
       <r>   -7.3913    1.0000 </r>
       <r>   -7.3570    1.0000 </r>
       <r>   -7.3439    1.0000 </r>
       <r>   -7.3106    1.0000 </r>
       <r>   -7.2991    1.0000 </r>
       <r>   -7.0987    1.0000 </r>
       <r>   -7.0602    1.0000 </r>
       <r>   -7.0516    1.0000 </r>
       <r>   -7.0280    1.0000 </r>
       <r>   -7.0032    1.0000 </r>
       <r>   -6.9623    1.0000 </r>
       <r>   -6.9527    1.0000 </r>
       <r>   -6.9293    1.0000 </r>
       <r>   -6.9046    1.0000 </r>
       <r>   -6.8888    1.0000 </r>
       <r>   -6.8659    1.0000 </r>
       <r>   -6.8535    1.0000 </r>
       <r>   -6.7950    1.0000 </r>
       <r>   -6.7914    1.0000 </r>
       <r>   -6.7665    1.0000 </r>
       <r>   -6.7467    1.0000 </r>
       <r>   -6.7402    1.0000 </r>
       <r>   -6.7186    1.0000 </r>
       <r>   -6.7128    1.0000 </r>
       <r>   -6.7028    1.0000 </r>
       <r>   -6.6900    1.0000 </r>
       <r>   -6.6672    1.0000 </r>
       <r>   -6.6631    1.0000 </r>
       <r>   -6.6488    1.0000 </r>
       <r>   -6.6301    1.0000 </r>
       <r>   -6.6187    1.0000 </r>
       <r>   -6.6116    1.0000 </r>
       <r>   -6.5906    1.0000 </r>
       <r>   -6.5760    1.0000 </r>
       <r>   -6.5689    1.0000 </r>
       <r>   -6.5493    1.0000 </r>
       <r>   -6.5362    1.0000 </r>
       <r>   -6.5304    1.0000 </r>
       <r>   -6.5112    1.0000 </r>
       <r>   -6.4966    1.0000 </r>
       <r>   -6.4826    1.0000 </r>
       <r>   -6.4678    1.0000 </r>
       <r>   -6.4617    1.0000 </r>
       <r>   -6.4515    1.0000 </r>
       <r>   -6.4400    1.0000 </r>
       <r>   -6.4187    1.0000 </r>
       <r>   -6.4146    1.0000 </r>
       <r>   -6.4034    1.0000 </r>
       <r>   -6.3876    1.0000 </r>
       <r>   -6.3838    1.0000 </r>
       <r>   -6.3671    1.0000 </r>
       <r>   -6.3498    1.0000 </r>
       <r>   -6.3399    1.0000 </r>
       <r>   -6.3318    1.0000 </r>
       <r>   -6.3086    1.0000 </r>
       <r>   -6.2780    1.0000 </r>
       <r>   -6.2677    1.0000 </r>
       <r>   -6.2440    1.0000 </r>
       <r>   -6.2252    1.0000 </r>
       <r>   -6.1974    1.0000 </r>
       <r>   -5.8910    1.0000 </r>
       <r>   -5.8496    1.0000 </r>
       <r>   -5.8259    1.0000 </r>
       <r>   -5.8005    1.0000 </r>
       <r>   -5.7600    1.0000 </r>
       <r>   -5.7257    1.0000 </r>
       <r>   -5.6664    1.0000 </r>
       <r>   -5.6197    1.0000 </r>
       <r>   -5.6101    1.0000 </r>
       <r>   -5.5812    1.0000 </r>
       <r>   -5.5197    1.0000 </r>
       <r>   -5.5026    1.0000 </r>
       <r>   -5.4723    1.0000 </r>
       <r>   -5.4543    1.0000 </r>
       <r>   -5.4234    1.0000 </r>
       <r>   -5.3954    1.0000 </r>
       <r>   -5.3853    1.0000 </r>
       <r>   -5.3647    1.0000 </r>
       <r>   -5.2613    1.0000 </r>
       <r>   -5.2276    1.0000 </r>
       <r>   -5.1448    1.0000 </r>
       <r>   -5.1172    1.0000 </r>
       <r>   -4.8490    1.0000 </r>
       <r>   -4.8328    1.0000 </r>
       <r>   -4.7925    1.0000 </r>
       <r>   -4.6372    1.0000 </r>
       <r>   -4.6147    1.0000 </r>
       <r>   -4.5857    1.0000 </r>
       <r>   -4.5735    1.0000 </r>
       <r>   -4.5549    1.0000 </r>
       <r>   -4.5317    1.0000 </r>
       <r>   -4.2015    1.0000 </r>
       <r>   -4.1862    1.0000 </r>
       <r>   -4.1559    1.0000 </r>
       <r>   -4.1363    1.0000 </r>
       <r>   -4.1214    1.0000 </r>
       <r>   -4.1015    1.0000 </r>
       <r>   -4.0669    1.0000 </r>
       <r>   -4.0449    1.0000 </r>
       <r>   -4.0294    1.0000 </r>
       <r>   -4.0020    1.0000 </r>
       <r>   -3.9884    1.0000 </r>
       <r>   -3.9432    1.0000 </r>
       <r>   -3.9329    1.0000 </r>
       <r>   -3.8663    1.0000 </r>
       <r>   -3.8469    1.0000 </r>
       <r>   -3.8181    1.0000 </r>
       <r>   -3.7627    1.0000 </r>
       <r>   -3.7557    1.0000 </r>
       <r>   -3.7317    1.0000 </r>
       <r>   -3.7247    1.0000 </r>
       <r>   -3.6938    1.0000 </r>
       <r>   -3.6883    1.0000 </r>
       <r>   -3.6613    1.0000 </r>
       <r>   -3.6464    1.0000 </r>
       <r>   -3.6342    1.0000 </r>
       <r>   -3.5954    1.0000 </r>
       <r>   -3.5815    1.0000 </r>
       <r>   -3.5687    1.0000 </r>
       <r>   -3.3922    1.0000 </r>
       <r>   -3.3608    1.0000 </r>
       <r>   -3.3168    1.0000 </r>
       <r>   -3.2978    1.0000 </r>
       <r>   -3.2760    1.0000 </r>
       <r>   -3.2508    1.0000 </r>
       <r>   -3.2375    1.0000 </r>
       <r>   -3.2103    1.0000 </r>
       <r>   -3.1963    1.0000 </r>
       <r>   -3.0312    1.0000 </r>
       <r>   -3.0002    1.0000 </r>
       <r>   -2.1147    0.0000 </r>
       <r>   -2.1009    0.0000 </r>
       <r>   -2.0790    0.0000 </r>
       <r>   -1.4861    0.0000 </r>
       <r>   -1.4728    0.0000 </r>
       <r>   -1.4548    0.0000 </r>
       <r>   -1.4284    0.0000 </r>
       <r>   -1.4099    0.0000 </r>
       <r>   -1.4016    0.0000 </r>
       <r>   -0.6731    0.0000 </r>
       <r>   -0.6694    0.0000 </r>
       <r>   -0.6231    0.0000 </r>
       <r>   -0.5896    0.0000 </r>
       <r>   -0.5582    0.0000 </r>
       <r>   -0.5347    0.0000 </r>
       <r>   -0.5059    0.0000 </r>
       <r>   -0.4876    0.0000 </r>
       <r>   -0.4682    0.0000 </r>
       <r>   -0.4468    0.0000 </r>
       <r>   -0.4257    0.0000 </r>
       <r>   -0.3909    0.0000 </r>
       <r>   -0.3821    0.0000 </r>
       <r>   -0.3554    0.0000 </r>
       <r>   -0.2700    0.0000 </r>
       <r>    0.0910    0.0000 </r>
       <r>    0.1319    0.0000 </r>
       <r>    0.1431    0.0000 </r>
       <r>    0.1596    0.0000 </r>
       <r>    0.1783    0.0000 </r>
       <r>    0.1891    0.0000 </r>
       <r>    0.2130    0.0000 </r>
       <r>    0.2438    0.0000 </r>
       <r>    0.2531    0.0000 </r>
       <r>    0.2614    0.0000 </r>
       <r>    0.2833    0.0000 </r>
       <r>    0.3012    0.0000 </r>
       <r>    0.6137    0.0000 </r>
       <r>    0.6588    0.0000 </r>
       <r>    0.6832    0.0000 </r>
       <r>    0.6905    0.0000 </r>
       <r>    0.6933    0.0000 </r>
       <r>    0.7167    0.0000 </r>
       <r>    0.7258    0.0000 </r>
       <r>    0.7483    0.0000 </r>
       <r>    0.7638    0.0000 </r>
       <r>    0.7790    0.0000 </r>
       <r>    0.7923    0.0000 </r>
       <r>    0.8166    0.0000 </r>
       <r>    0.8426    0.0000 </r>
       <r>    0.8498    0.0000 </r>
       <r>    0.8551    0.0000 </r>
       <r>    0.8713    0.0000 </r>
       <r>    0.8821    0.0000 </r>
       <r>    0.9049    0.0000 </r>
       <r>    0.9147    0.0000 </r>
       <r>    0.9198    0.0000 </r>
       <r>    0.9533    0.0000 </r>
       <r>    0.9604    0.0000 </r>
       <r>    0.9704    0.0000 </r>
       <r>    0.9753    0.0000 </r>
       <r>    0.9819    0.0000 </r>
       <r>    1.0075    0.0000 </r>
       <r>    1.0275    0.0000 </r>
       <r>    1.0446    0.0000 </r>
      </set>
      <set comment="kpoint 2">
       <r>  -51.6741    1.0000 </r>
       <r>  -51.6614    1.0000 </r>
       <r>  -51.5978    1.0000 </r>
       <r>  -51.5881    1.0000 </r>
       <r>  -51.5845    1.0000 </r>
       <r>  -51.5773    1.0000 </r>
       <r>  -51.5770    1.0000 </r>
       <r>  -51.5158    1.0000 </r>
       <r>  -51.4753    1.0000 </r>
       <r>  -51.4721    1.0000 </r>
       <r>  -51.4708    1.0000 </r>
       <r>  -51.4600    1.0000 </r>
       <r>  -51.4548    1.0000 </r>
       <r>  -51.4433    1.0000 </r>
       <r>  -51.4392    1.0000 </r>
       <r>  -51.4139    1.0000 </r>
       <r>  -51.3986    1.0000 </r>
       <r>  -51.3983    1.0000 </r>
       <r>  -51.3770    1.0000 </r>
       <r>  -51.3619    1.0000 </r>
       <r>  -51.3531    1.0000 </r>
       <r>  -51.3426    1.0000 </r>
       <r>  -51.3425    1.0000 </r>
       <r>  -51.3359    1.0000 </r>
       <r>  -51.3053    1.0000 </r>
       <r>  -51.2641    1.0000 </r>
       <r>  -51.2443    1.0000 </r>
       <r>  -51.2387    1.0000 </r>
       <r>  -51.2236    1.0000 </r>
       <r>  -51.1954    1.0000 </r>
       <r>  -51.1706    1.0000 </r>
       <r>  -51.1597    1.0000 </r>
       <r>  -30.4165    1.0000 </r>
       <r>  -30.3747    1.0000 </r>
       <r>  -30.3627    1.0000 </r>
       <r>  -30.3578    1.0000 </r>
       <r>  -30.3430    1.0000 </r>
       <r>  -30.3252    1.0000 </r>
       <r>  -30.3191    1.0000 </r>
       <r>  -30.3137    1.0000 </r>
       <r>  -30.3028    1.0000 </r>
       <r>  -30.2901    1.0000 </r>
       <r>  -30.2850    1.0000 </r>
       <r>  -30.2807    1.0000 </r>
       <r>  -30.2749    1.0000 </r>
       <r>  -30.2697    1.0000 </r>
       <r>  -30.2664    1.0000 </r>
       <r>  -30.2620    1.0000 </r>
       <r>  -30.2512    1.0000 </r>
       <r>  -30.2451    1.0000 </r>
       <r>  -30.2416    1.0000 </r>
       <r>  -30.2364    1.0000 </r>
       <r>  -30.2235    1.0000 </r>
       <r>  -30.2168    1.0000 </r>
       <r>  -30.2003    1.0000 </r>
       <r>  -30.1968    1.0000 </r>
       <r>  -30.1930    1.0000 </r>
       <r>  -30.1828    1.0000 </r>
       <r>  -30.1787    1.0000 </r>
       <r>  -30.1685    1.0000 </r>
       <r>  -30.1656    1.0000 </r>
       <r>  -30.1597    1.0000 </r>
       <r>  -30.1578    1.0000 </r>
       <r>  -30.1517    1.0000 </r>
       <r>  -30.1461    1.0000 </r>
       <r>  -30.1419    1.0000 </r>
       <r>  -30.1341    1.0000 </r>
       <r>  -30.1310    1.0000 </r>
       <r>  -30.1264    1.0000 </r>
       <r>  -30.1230    1.0000 </r>
       <r>  -30.1133    1.0000 </r>
       <r>  -30.1116    1.0000 </r>
       <r>  -30.1032    1.0000 </r>
       <r>  -30.1012    1.0000 </r>
       <r>  -30.0989    1.0000 </r>
       <r>  -30.0882    1.0000 </r>
       <r>  -30.0834    1.0000 </r>
       <r>  -30.0796    1.0000 </r>
       <r>  -30.0760    1.0000 </r>
       <r>  -30.0711    1.0000 </r>
       <r>  -30.0688    1.0000 </r>
       <r>  -30.0649    1.0000 </r>
       <r>  -30.0566    1.0000 </r>
       <r>  -30.0546    1.0000 </r>
       <r>  -30.0441    1.0000 </r>
       <r>  -30.0418    1.0000 </r>
       <r>  -30.0331    1.0000 </r>
       <r>  -30.0283    1.0000 </r>
       <r>  -30.0237    1.0000 </r>
       <r>  -30.0204    1.0000 </r>
       <r>  -30.0168    1.0000 </r>
       <r>  -30.0134    1.0000 </r>
       <r>  -30.0092    1.0000 </r>
       <r>  -30.0028    1.0000 </r>
       <r>  -29.9985    1.0000 </r>
       <r>  -29.9941    1.0000 </r>
       <r>  -29.9883    1.0000 </r>
       <r>  -29.9852    1.0000 </r>
       <r>  -29.9801    1.0000 </r>
       <r>  -29.9746    1.0000 </r>
       <r>  -29.9704    1.0000 </r>
       <r>  -29.9672    1.0000 </r>
       <r>  -29.9620    1.0000 </r>
       <r>  -29.9573    1.0000 </r>
       <r>  -29.9486    1.0000 </r>
       <r>  -29.9459    1.0000 </r>
       <r>  -29.9404    1.0000 </r>
       <r>  -29.9329    1.0000 </r>
       <r>  -29.9209    1.0000 </r>
       <r>  -29.9119    1.0000 </r>
       <r>  -29.9020    1.0000 </r>
       <r>  -29.8921    1.0000 </r>
       <r>  -29.8827    1.0000 </r>
       <r>  -29.8769    1.0000 </r>
       <r>  -29.8706    1.0000 </r>
       <r>  -29.8680    1.0000 </r>
       <r>  -29.8592    1.0000 </r>
       <r>  -29.8419    1.0000 </r>
       <r>  -29.8349    1.0000 </r>
       <r>  -29.8277    1.0000 </r>
       <r>  -29.8265    1.0000 </r>
       <r>  -29.8206    1.0000 </r>
       <r>  -29.8164    1.0000 </r>
       <r>  -29.8122    1.0000 </r>
       <r>  -29.8047    1.0000 </r>
       <r>  -29.8018    1.0000 </r>
       <r>  -29.7862    1.0000 </r>
       <r>  -29.7493    1.0000 </r>
       <r>  -18.4800    1.0000 </r>
       <r>  -18.4462    1.0000 </r>
       <r>  -18.3846    1.0000 </r>
       <r>  -18.3684    1.0000 </r>
       <r>  -18.3327    1.0000 </r>
       <r>  -18.3080    1.0000 </r>
       <r>  -18.2772    1.0000 </r>
       <r>  -18.2157    1.0000 </r>
       <r>  -18.2081    1.0000 </r>
       <r>  -18.1629    1.0000 </r>
       <r>  -18.1605    1.0000 </r>
       <r>  -18.1128    1.0000 </r>
       <r>  -18.0877    1.0000 </r>
       <r>  -18.0523    1.0000 </r>
       <r>  -18.0450    1.0000 </r>
       <r>  -18.0279    1.0000 </r>
       <r>  -18.0190    1.0000 </r>
       <r>  -17.9855    1.0000 </r>
       <r>  -17.9595    1.0000 </r>
       <r>  -17.9138    1.0000 </r>
       <r>  -17.9105    1.0000 </r>
       <r>  -17.8579    1.0000 </r>
       <r>  -17.8358    1.0000 </r>
       <r>  -17.8261    1.0000 </r>
       <r>  -17.8120    1.0000 </r>
       <r>  -17.7588    1.0000 </r>
       <r>  -17.7455    1.0000 </r>
       <r>  -17.7306    1.0000 </r>
       <r>  -17.7085    1.0000 </r>
[...]
       <r>   -32.2673     0.0000    64.0000 </r>
       <r>   -32.0739     0.0000    64.0000 </r>
       <r>   -31.8805     0.0000    64.0000 </r>
       <r>   -31.6872     0.0000    64.0000 </r>
       <r>   -31.4938     0.0000    64.0000 </r>
       <r>   -31.3004     0.0000    64.0000 </r>
       <r>   -31.1071     0.0000    64.0000 </r>
       <r>   -30.9137     0.0000    64.0000 </r>
       <r>   -30.7203     0.0000    64.0000 </r>
       <r>   -30.5270     0.0093    64.0018 </r>
       <r>   -30.3336    58.6405    75.3408 </r>
       <r>   -30.1402   291.3812   131.6838 </r>
       <r>   -29.9469   396.2215   208.2993 </r>
       <r>   -29.7535   235.7438   253.8839 </r>
       <r>   -29.5601    10.9433   256.0000 </r>
       <r>   -29.3668     0.0000   256.0000 </r>
       <r>   -29.1734     0.0000   256.0000 </r>
       <r>   -28.9800     0.0000   256.0000 </r>
       <r>   -28.7867     0.0000   256.0000 </r>
       <r>   -28.5933     0.0000   256.0000 </r>
       <r>   -28.3999     0.0000   256.0000 </r>
       <r>   -28.2066     0.0000   256.0000 </r>
       <r>   -28.0132     0.0000   256.0000 </r>
       <r>   -27.8199     0.0000   256.0000 </r>
       <r>   -27.6265     0.0000   256.0000 </r>
       <r>   -27.4331     0.0000   256.0000 </r>
       <r>   -27.2398     0.0000   256.0000 </r>
       <r>   -27.0464     0.0000   256.0000 </r>
       <r>   -26.8530     0.0000   256.0000 </r>
       <r>   -26.6597     0.0000   256.0000 </r>
       <r>   -26.4663     0.0000   256.0000 </r>
       <r>   -26.2729     0.0000   256.0000 </r>
       <r>   -26.0796     0.0000   256.0000 </r>
       <r>   -25.8862     0.0000   256.0000 </r>
       <r>   -25.6928     0.0000   256.0000 </r>
       <r>   -25.4995     0.0000   256.0000 </r>
       <r>   -25.3061     0.0000   256.0000 </r>
       <r>   -25.1127     0.0000   256.0000 </r>
       <r>   -24.9194     0.0000   256.0000 </r>
       <r>   -24.7260     0.0000   256.0000 </r>
       <r>   -24.5326     0.0000   256.0000 </r>
       <r>   -24.3393     0.0000   256.0000 </r>
       <r>   -24.1459     0.0000   256.0000 </r>
       <r>   -23.9525     0.0000   256.0000 </r>
       <r>   -23.7592     0.0000   256.0000 </r>
       <r>   -23.5658     0.0000   256.0000 </r>
       <r>   -23.3725     0.0000   256.0000 </r>
       <r>   -23.1791     0.0000   256.0000 </r>
       <r>   -22.9857     0.0000   256.0000 </r>
       <r>   -22.7924     0.0000   256.0000 </r>
       <r>   -22.5990     0.0000   256.0000 </r>
       <r>   -22.4056     0.0000   256.0000 </r>
       <r>   -22.2123     0.0000   256.0000 </r>
       <r>   -22.0189     0.0000   256.0000 </r>
       <r>   -21.8255     0.0000   256.0000 </r>
       <r>   -21.6322     0.0000   256.0000 </r>
       <r>   -21.4388     0.0000   256.0000 </r>
       <r>   -21.2454     0.0000   256.0000 </r>
       <r>   -21.0521     0.0000   256.0000 </r>
       <r>   -20.8587     0.0000   256.0000 </r>
       <r>   -20.6653     0.0000   256.0000 </r>
       <r>   -20.4720     0.0000   256.0000 </r>
       <r>   -20.2786     0.0000   256.0000 </r>
       <r>   -20.0852     0.0000   256.0000 </r>
       <r>   -19.8919     0.0000   256.0000 </r>
       <r>   -19.6985     0.0000   256.0000 </r>
       <r>   -19.5051     0.0000   256.0000 </r>
       <r>   -19.3118     0.0000   256.0000 </r>
       <r>   -19.1184     0.0000   256.0000 </r>
       <r>   -18.9251     0.0000   256.0000 </r>
       <r>   -18.7317     0.0000   256.0000 </r>
       <r>   -18.5383     0.6016   256.1163 </r>
       <r>   -18.3450    42.9135   264.4143 </r>
       <r>   -18.1516    64.0734   276.8039 </r>
       <r>   -17.9582    82.6211   292.7799 </r>
       <r>   -17.7649    77.0621   307.6811 </r>
       <r>   -17.5715    49.3577   317.2251 </r>
       <r>   -17.3781    14.3413   319.9982 </r>
       <r>   -17.1848     0.0091   320.0000 </r>
       <r>   -16.9914     0.0000   320.0000 </r>
       <r>   -16.7980     0.0000   320.0000 </r>
       <r>   -16.6047     0.0000   320.0000 </r>
       <r>   -16.4113     0.0000   320.0000 </r>
       <r>   -16.2179     0.0000   320.0000 </r>
       <r>   -16.0246     0.0000   320.0000 </r>
       <r>   -15.8312     0.0000   320.0000 </r>
       <r>   -15.6378     0.0000   320.0000 </r>
       <r>   -15.4445     0.0000   320.0000 </r>
       <r>   -15.2511     0.0000   320.0000 </r>
       <r>   -15.0577     0.0000   320.0000 </r>
       <r>   -14.8644     0.0000   320.0000 </r>
       <r>   -14.6710     0.0000   320.0000 </r>
       <r>   -14.4777     0.0000   320.0000 </r>
       <r>   -14.2843     0.0000   320.0000 </r>
       <r>   -14.0909     0.0000   320.0000 </r>
       <r>   -13.8976     0.0000   320.0000 </r>
       <r>   -13.7042     0.0000   320.0000 </r>
       <r>   -13.5108     0.0000   320.0000 </r>
       <r>   -13.3175     0.0000   320.0000 </r>
       <r>   -13.1241     0.0000   320.0000 </r>
       <r>   -12.9307     0.0000   320.0000 </r>
       <r>   -12.7374     0.0000   320.0000 </r>
       <r>   -12.5440     0.0000   320.0000 </r>
       <r>   -12.3506     0.0000   320.0000 </r>
       <r>   -12.1573     0.0000   320.0000 </r>
       <r>   -11.9639     0.0000   320.0000 </r>
       <r>   -11.7705     2.5217   320.4876 </r>
       <r>   -11.5772    16.8212   323.7402 </r>
       <r>   -11.3838    19.3681   327.4854 </r>
       <r>   -11.1904    24.2274   332.1701 </r>
       <r>   -10.9971    32.7601   338.5048 </r>
       <r>   -10.8037    56.1348   349.3593 </r>
       <r>   -10.6103    13.6565   352.0000 </r>
       <r>   -10.4170     0.0001   352.0000 </r>
       <r>   -10.2236     0.0000   352.0000 </r>
       <r>   -10.0302     0.0000   352.0000 </r>
       <r>    -9.8369     0.0000   352.0000 </r>
       <r>    -9.6435     0.0000   352.0000 </r>
       <r>    -9.4502     0.0000   352.0000 </r>
       <r>    -9.2568     0.0000   352.0000 </r>
       <r>    -9.0634     0.0000   352.0000 </r>
       <r>    -8.8701     0.0000   352.0000 </r>
       <r>    -8.6767     0.0000   352.0000 </r>
       <r>    -8.4833     0.0000   352.0000 </r>
       <r>    -8.2900     0.0000   352.0000 </r>
       <r>    -8.0966     0.0005   352.0001 </r>
       <r>    -7.9032     5.4797   353.0597 </r>
       <r>    -7.7099    34.7636   359.7817 </r>
       <r>    -7.5165    59.7329   371.3320 </r>
       <r>    -7.3231    74.1551   385.6710 </r>
       <r>    -7.1298    54.7171   396.2514 </r>
       <r>    -6.9364    64.2057   408.6666 </r>
       <r>    -6.7430   101.6414   428.3205 </r>
       <r>    -6.5497   120.3456   451.5911 </r>
       <r>    -6.3563   104.2692   471.7531 </r>
       <r>    -6.1629    84.7028   488.1317 </r>
       <r>    -5.9696    52.5179   498.2869 </r>
       <r>    -5.7762    61.1762   510.1162 </r>
       <r>    -5.5828    65.3772   522.7579 </r>
       <r>    -5.3895    54.9510   533.3835 </r>
       <r>    -5.1961    42.1975   541.5430 </r>
       <r>    -5.0028    12.7055   543.9998 </r>
       <r>    -4.8094     5.9772   545.1556 </r>
       <r>    -4.6160    50.7004   554.9593 </r>
       <r>    -4.4227    42.9565   563.2656 </r>
       <r>    -4.2293    26.1944   568.3307 </r>
       <r>    -4.0359    24.2933   573.0282 </r>
       <r>    -3.8426    66.0069   585.7916 </r>
       <r>    -3.6492   110.7826   607.2131 </r>
       <r>    -3.4558    81.5697   622.9858 </r>
       <r>    -3.2625    49.4430   632.5464 </r>
       <r>    -3.0691    32.4820   638.8273 </r>
       <r>    -2.8757     6.0645   640.0000 </r>
       <r>    -2.6824     0.0003   640.0000 </r>
       <r>    -2.4890     0.0000   640.0000 </r>
       <r>    -2.2956     0.0000   640.0000 </r>
       <r>    -2.1023     1.6910   640.3270 </r>
       <r>    -1.9089     8.7421   642.0174 </r>
       <r>    -1.7155    23.5107   646.5636 </r>
       <r>    -1.5222    11.2238   648.7339 </r>
       <r>    -1.3288    20.5799   652.7133 </r>
       <r>    -1.1354    21.5831   656.8867 </r>
       <r>    -0.9421    37.4159   664.1216 </r>
       <r>    -0.7487     8.6298   665.7903 </r>
       <r>    -0.5554    27.8406   671.1738 </r>
       <r>    -0.3620    37.8226   678.4873 </r>
       <r>    -0.1686    31.1914   684.5187 </r>
       <r>     0.0247    30.7874   690.4719 </r>
       <r>     0.2181    35.7617   697.3869 </r>
       <r>     0.4115    36.5842   704.4611 </r>
       <r>     0.6048    31.3062   710.5146 </r>
       <r>     0.7982   124.9703   734.6795 </r>
       <r>     0.9916   136.8342   761.1385 </r>
       <r>     1.1849    35.4835   767.9998 </r>
       <r>     1.3783     0.0013   768.0000 </r>
       <r>     1.5717     0.0000   768.0000 </r>
       <r>     1.7650     0.0000   768.0000 </r>
       <r>     1.9584     0.0000   768.0000 </r>
       <r>     2.1518     0.0000   768.0000 </r>
       <r>     2.3451     0.0000   768.0000 </r>
       <r>     2.5385     0.0000   768.0000 </r>
       <r>     2.7319     0.0000   768.0000 </r>
       <r>     2.9252     0.0000   768.0000 </r>
       <r>     3.1186     0.0000   768.0000 </r>
       <r>     3.3120     0.0000   768.0000 </r>
       <r>     3.5053     0.0000   768.0000 </r>
       <r>     3.6987     0.0000   768.0000 </r>
      </set>
     </set>
    </array>
   </total>
  </dos>
 </calculation>
 <structure name="finalpos" >
  <crystal>
   <varray name="basis" >
    <v>      13.79398668       0.00000000       0.00000000 </v>
    <v>      -6.89699334      11.94594288       0.00000000 </v>
    <v>       0.00000000       0.00000000      27.81022107 </v>
   </varray>
   <i name="volume">   4582.62876984 </i>
   <varray name="rec_basis" >
    <v>       0.07249536       0.04185521       0.00000000 </v>
    <v>       0.00000000       0.08371043       0.00000000 </v>
    <v>       0.00000000       0.00000000       0.03595800 </v>
   </varray>
  </crystal>
  <varray name="positions" >
   <v>       0.08391981       0.16448145       0.54712466 </v>
   <v>       0.08476862       0.42054804       0.54735985 </v>
   <v>       0.08303612       0.66602986       0.54537645 </v>
   <v>       0.07679547       0.90712069       0.54446646 </v>
   <v>       0.32895447       0.17129070       0.54562923 </v>
   <v>       0.33625462       0.42476676       0.54375893 </v>
   <v>       0.33254590       0.67219220       0.54476419 </v>
   <v>       0.32916008       0.92144234       0.54542378 </v>
   <v>       0.58343702       0.16578444       0.54141596 </v>
   <v>       0.58417250       0.41788184       0.54396663 </v>
   <v>       0.58278344       0.67144936       0.54133959 </v>
   <v>       0.58476126       0.91807154       0.54303061 </v>
   <v>       0.82979913       0.16522955       0.54693172 </v>
   <v>       0.83087416       0.42841450       0.54458355 </v>
   <v>       0.83100122       0.66803976       0.54060412 </v>
   <v>       0.83134870       0.91195674       0.54411214 </v>
   <v>       0.16187264       0.07545080       0.45730577 </v>
   <v>       0.17153530       0.33824844       0.45690534 </v>
   <v>       0.16257428       0.58446501       0.45567983 </v>
   <v>       0.16594747       0.83711114       0.45413166 </v>
   <v>       0.41901248       0.08285474       0.45765895 </v>
   <v>       0.41918083       0.32900762       0.45210401 </v>
   <v>       0.41993458       0.57451955       0.45522385 </v>
   <v>       0.42249377       0.84356916       0.45571777 </v>
   <v>       0.67810902       0.09098780       0.45772779 </v>
   <v>       0.66584984       0.32655586       0.45679612 </v>
   <v>       0.66553586       0.58297536       0.45260834 </v>
   <v>       0.66458043       0.83558695       0.45345434 </v>
   <v>       0.91981082       0.08327286       0.46106824 </v>
   <v>       0.91827250       0.33111066       0.45619695 </v>
   <v>       0.91446479       0.58303653       0.45142660 </v>
   <v>       0.91247376       0.83026020       0.45572444 </v>
   <v>       0.08233833       0.16115381       0.39420203 </v>
   <v>       0.07227927       0.40515011       0.39302339 </v>
   <v>       0.07773210       0.66528625       0.39429343 </v>
   <v>       0.07569335       0.91833657       0.39757180 </v>
   <v>       0.33267284       0.16877293       0.39475877 </v>
   <v>       0.34238300       0.41630977       0.39711239 </v>
   <v>       0.33019824       0.65139554       0.39862895 </v>
   <v>       0.34204717       0.92236544       0.39418409 </v>
   <v>       0.58252046       0.15832053       0.39576151 </v>
   <v>       0.58480476       0.41012706       0.39133725 </v>
   <v>       0.58297603       0.66161073       0.39451180 </v>
   <v>       0.57824217       0.91137540       0.39743905 </v>
   <v>       0.83884847       0.17051371       0.39692220 </v>
   <v>       0.82999997       0.41446442       0.39514908 </v>
   <v>       0.84603029       0.68085915       0.38857930 </v>
   <v>       0.82608665       0.91289988       0.39817326 </v>
   <v>       0.17502602       0.07980236       0.60730368 </v>
   <v>       0.17120509       0.33216337       0.60466056 </v>
   <v>       0.16419805       0.58113767       0.60576594 </v>
   <v>       0.16797803       0.82914809       0.60689291 </v>
   <v>       0.42337300       0.08818915       0.60134882 </v>
   <v>       0.41871322       0.33197686       0.60268656 </v>
   <v>       0.42678224       0.58982354       0.60586253 </v>
   <v>       0.41001977       0.82127939       0.60466762 </v>
   <v>       0.66814445       0.08938016       0.60374607 </v>
   <v>       0.66678356       0.34397830       0.60998464 </v>
   <v>       0.66955863       0.58358548       0.60252694 </v>
   <v>       0.65394528       0.82971992       0.60184167 </v>
   <v>       0.92355549       0.08065537       0.60928500 </v>
   <v>       0.91110218       0.34471979       0.60585870 </v>
   <v>       0.90545015       0.57621272       0.60577403 </v>
   <v>       0.92026868       0.83214528       0.60270013 </v>
   <v>       0.00116000       0.99931537       0.50247269 </v>
   <v>       0.00233862       0.25823538       0.50200075 </v>
   <v>       0.00179440       0.50577716       0.50187705 </v>
   <v>       0.99642376       0.75279289       0.49698650 </v>
   <v>       0.24002639       0.99118825       0.50244055 </v>
   <v>       0.25253258       0.24890312       0.50186325 </v>
   <v>       0.25137709       0.50173853       0.49804885 </v>
   <v>       0.24646284       0.75262145       0.50079421 </v>
   <v>       0.50665613       0.99839795       0.49600845 </v>
   <v>       0.50272384       0.25474498       0.50007995 </v>
   <v>       0.50235344       0.49756645       0.49361581 </v>
   <v>       0.51239849       0.75838231       0.49956236 </v>
   <v>       0.75483525       0.00498975       0.50200835 </v>
   <v>       0.74936657       0.24990280       0.49793294 </v>
   <v>       0.74682845       0.49804523       0.49712099 </v>
   <v>       0.74763505       0.74826611       0.50107916 </v>
  </varray>
  <varray name="velocities" >
   <v>       0.00000000       0.00000000       0.00000000 </v>
   <v>       0.00000000       0.00000000       0.00000000 </v>
   <v>       0.00000000       0.00000000       0.00000000 </v>
   <v>       0.00000000       0.00000000       0.00000000 </v>
   <v>       0.00000000       0.00000000       0.00000000 </v>
   <v>       0.00000000       0.00000000       0.00000000 </v>
   <v>       0.00000000       0.00000000       0.00000000 </v>
   <v>       0.00000000       0.00000000       0.00000000 </v>
   <v>       0.00000000       0.00000000       0.00000000 </v>
   <v>       0.00000000       0.00000000       0.00000000 </v>
   <v>       0.00000000       0.00000000       0.00000000 </v>
   <v>       0.00000000       0.00000000       0.00000000 </v>
   <v>       0.00000000       0.00000000       0.00000000 </v>
   <v>       0.00000000       0.00000000       0.00000000 </v>
   <v>       0.00000000       0.00000000       0.00000000 </v>
   <v>       0.00000000       0.00000000       0.00000000 </v>
   <v>       0.00000000       0.00000000       0.00000000 </v>
   <v>       0.00000000       0.00000000       0.00000000 </v>
   <v>       0.00000000       0.00000000       0.00000000 </v>
   <v>       0.00000000       0.00000000       0.00000000 </v>
   <v>       0.00000000       0.00000000       0.00000000 </v>
   <v>       0.00000000       0.00000000       0.00000000 </v>
   <v>       0.00000000       0.00000000       0.00000000 </v>
   <v>       0.00000000       0.00000000       0.00000000 </v>
   <v>       0.00000000       0.00000000       0.00000000 </v>
   <v>       0.00000000       0.00000000       0.00000000 </v>
   <v>       0.00000000       0.00000000       0.00000000 </v>
   <v>       0.00000000       0.00000000       0.00000000 </v>
   <v>       0.00000000       0.00000000       0.00000000 </v>
   <v>       0.00000000       0.00000000       0.00000000 </v>
   <v>       0.00000000       0.00000000       0.00000000 </v>
   <v>       0.00000000       0.00000000       0.00000000 </v>
   <v>       0.00000000       0.00000000       0.00000000 </v>
   <v>       0.00000000       0.00000000       0.00000000 </v>
   <v>       0.00000000       0.00000000       0.00000000 </v>
   <v>       0.00000000       0.00000000       0.00000000 </v>
   <v>       0.00000000       0.00000000       0.00000000 </v>
   <v>       0.00000000       0.00000000       0.00000000 </v>
   <v>       0.00000000       0.00000000       0.00000000 </v>
   <v>       0.00000000       0.00000000       0.00000000 </v>
   <v>       0.00000000       0.00000000       0.00000000 </v>
   <v>       0.00000000       0.00000000       0.00000000 </v>
   <v>       0.00000000       0.00000000       0.00000000 </v>
   <v>       0.00000000       0.00000000       0.00000000 </v>
   <v>       0.00000000       0.00000000       0.00000000 </v>
   <v>       0.00000000       0.00000000       0.00000000 </v>
   <v>       0.00000000       0.00000000       0.00000000 </v>
   <v>       0.00000000       0.00000000       0.00000000 </v>
   <v>       0.00000000       0.00000000       0.00000000 </v>
   <v>       0.00000000       0.00000000       0.00000000 </v>
   <v>       0.00000000       0.00000000       0.00000000 </v>
   <v>       0.00000000       0.00000000       0.00000000 </v>
   <v>       0.00000000       0.00000000       0.00000000 </v>
   <v>       0.00000000       0.00000000       0.00000000 </v>
   <v>       0.00000000       0.00000000       0.00000000 </v>
   <v>       0.00000000       0.00000000       0.00000000 </v>
   <v>       0.00000000       0.00000000       0.00000000 </v>
   <v>       0.00000000       0.00000000       0.00000000 </v>
   <v>       0.00000000       0.00000000       0.00000000 </v>
   <v>       0.00000000       0.00000000       0.00000000 </v>
   <v>       0.00000000       0.00000000       0.00000000 </v>
   <v>       0.00000000       0.00000000       0.00000000 </v>
   <v>       0.00000000       0.00000000       0.00000000 </v>
   <v>       0.00000000       0.00000000       0.00000000 </v>
   <v>       0.00000000       0.00000000       0.00000000 </v>
   <v>       0.00000000       0.00000000       0.00000000 </v>
   <v>       0.00000000       0.00000000       0.00000000 </v>
   <v>       0.00000000       0.00000000       0.00000000 </v>
   <v>       0.00000000       0.00000000       0.00000000 </v>
   <v>       0.00000000       0.00000000       0.00000000 </v>
   <v>       0.00000000       0.00000000       0.00000000 </v>
   <v>       0.00000000       0.00000000       0.00000000 </v>
   <v>       0.00000000       0.00000000       0.00000000 </v>
   <v>       0.00000000       0.00000000       0.00000000 </v>
   <v>       0.00000000       0.00000000       0.00000000 </v>
   <v>       0.00000000       0.00000000       0.00000000 </v>
   <v>       0.00000000       0.00000000       0.00000000 </v>
   <v>       0.00000000       0.00000000       0.00000000 </v>
   <v>       0.00000000       0.00000000       0.00000000 </v>
   <v>       0.00000000       0.00000000       0.00000000 </v>
  </varray>
 </structure>
</modeling>
