 running on   48 total cores
 distrk:  each k-point on   48 cores,    1 groups
 distr:  one band on   12 cores,    4 groups
 using from now: INCAR     
 vasp.5.4.4.18Apr17-6-g9f103f2a35 (build Mar 16 2023 09:39:13) complex          
  
 POSCAR found type information on POSCAR  Ca Si O 
 POSCAR found :  3 types and     135 ions
 scaLAPACK is switched off
 LDA part: xc-table for Pade appr. of Perdew
 generate k-points for:    3    3    3
 POSCAR, INCAR and KPOINTS ok, starting setup
 FFT: planning ...
 WAVECAR not read
 entering main loop
       N       E                     dE             d eps       ncg     rms          rms(c)
DAV:   1     0.105907331159E+05    0.10591E+05   -0.49776E+05 14560   0.194E+03
DAV:   2     0.281067180699E+03   -0.10310E+05   -0.98761E+04 16280   0.548E+02
DAV:   3    -0.917604736133E+03   -0.11987E+04   -0.11878E+04 16968   0.187E+02
DAV:   4    -0.980531092283E+03   -0.62926E+02   -0.62726E+02 21048   0.362E+01
DAV:   5    -0.985055345943E+03   -0.45243E+01   -0.45217E+01 23592   0.857E+00    0.903E+01
DAV:   6    -0.854464472419E+03    0.13059E+03   -0.51401E+02 17408   0.368E+01    0.389E+01
DAV:   7    -0.855709302745E+03   -0.12448E+01   -0.64551E+01 17880   0.130E+01    0.168E+01
DAV:   8    -0.855191994617E+03    0.51731E+00   -0.94778E+00 19344   0.586E+00    0.692E+00
DAV:   9    -0.855082294599E+03    0.10970E+00   -0.22255E+00 17976   0.294E+00    0.205E+00
DAV:  10    -0.855133536045E+03   -0.51241E-01   -0.63418E-01 20520   0.141E+00    0.138E+00
DAV:  11    -0.855136272042E+03   -0.27360E-02   -0.10295E-01 17664   0.608E-01    0.670E-01
DAV:  12    -0.855136713910E+03   -0.44187E-03   -0.33881E-02 18440   0.344E-01    0.147E-01
DAV:  13    -0.855137026614E+03   -0.31270E-03   -0.45651E-03 18616   0.126E-01    0.941E-02
DAV:  14    -0.855137093528E+03   -0.66915E-04   -0.95851E-04 20944   0.490E-02    0.674E-02
DAV:  15    -0.855137081923E+03    0.11605E-04   -0.19259E-04 17296   0.256E-02    0.289E-02
DAV:  16    -0.855137084056E+03   -0.21328E-05   -0.33470E-05 18760   0.135E-02    0.756E-03
DAV:  17    -0.855137083154E+03    0.90184E-06   -0.18649E-05 18880   0.818E-03    0.582E-03
DAV:  18    -0.855137082960E+03    0.19428E-06   -0.22740E-06 10096   0.270E-03
   1 F= -.85513708E+03 E0= -.85513708E+03  d E =-.254114E-11
