 running on   48 total cores
 distrk:  each k-point on   48 cores,    1 groups
 distr:  one band on   12 cores,    4 groups
 using from now: INCAR     
 vasp.5.4.4.18Apr17-6-g9f103f2a35 (build Mar 16 2023 09:39:13) complex          
  
 POSCAR found type information on POSCAR  Ca Si O 
 POSCAR found :  3 types and     135 ions
 scaLAPACK is switched off
 LDA part: xc-table for Pade appr. of Perdew
 generate k-points for:    2    2    2
 POSCAR, INCAR and KPOINTS ok, starting setup
 FFT: planning ...
 WAVECAR not read
 entering main loop
       N       E                     dE             d eps       ncg     rms          rms(c)
DAV:   1     0.952418039134E+04    0.95242E+04   -0.47823E+05  8320   0.181E+03
DAV:   2    -0.132256548813E+02   -0.95374E+04   -0.92472E+04  9824   0.485E+02
DAV:   3    -0.103155007714E+04   -0.10183E+04   -0.10120E+04 10224   0.162E+02
DAV:   4    -0.108078745042E+04   -0.49237E+02   -0.49071E+02 11296   0.322E+01
DAV:   5    -0.108603030997E+04   -0.52429E+01   -0.52400E+01 14768   0.750E+00    0.852E+01
DAV:   6    -0.940614245019E+03    0.14542E+03   -0.69130E+02 10088   0.400E+01    0.364E+01
DAV:   7    -0.942710513582E+03   -0.20963E+01   -0.68713E+01 11376   0.133E+01    0.181E+01
DAV:   8    -0.941493895756E+03    0.12166E+01   -0.11022E+01 10304   0.605E+00    0.747E+00
DAV:   9    -0.941195206888E+03    0.29869E+00   -0.22434E+00 10424   0.328E+00    0.217E+00
DAV:  10    -0.941294013290E+03   -0.98806E-01   -0.12803E+00 11776   0.194E+00    0.147E+00
DAV:  11    -0.941297987389E+03   -0.39741E-02   -0.18789E-01 11432   0.806E-01    0.751E-01
DAV:  12    -0.941305371736E+03   -0.73843E-02   -0.46216E-02  9992   0.432E-01    0.270E-01
DAV:  13    -0.941307490919E+03   -0.21192E-02   -0.13525E-02 12464   0.287E-01    0.155E-01
DAV:  14    -0.941307848295E+03   -0.35738E-03   -0.69265E-03 11656   0.157E-01    0.111E-01
DAV:  15    -0.941307812712E+03    0.35582E-04   -0.11596E-03 10840   0.607E-02    0.677E-02
DAV:  16    -0.941307731869E+03    0.80843E-04   -0.50201E-04  9944   0.642E-02    0.234E-02
DAV:  17    -0.941307740547E+03   -0.86776E-05   -0.28896E-04 11792   0.314E-02    0.210E-02
DAV:  18    -0.941307738451E+03    0.20958E-05   -0.89626E-05  9872   0.155E-02    0.128E-02
DAV:  19    -0.941307735454E+03    0.29977E-05   -0.13070E-05  9832   0.966E-03    0.432E-03
DAV:  20    -0.941307735651E+03   -0.19786E-06   -0.75662E-06 10328   0.490E-03
   1 F= -.94130774E+03 E0= -.94130774E+03  d E =-.310004E-11
