<?xml version="1.0" encoding="ISO-8859-1"?>
<modeling>
 <generator>
  <i name="program" type="string">vasp </i>
  <i name="version" type="string">5.4.4.18Apr17-6-g9f103f2a35  </i>
  <i name="subversion" type="string">(build Oct 31 2019 15:01:46) complex            parallel </i>
  <i name="platform" type="string">LinuxIFC </i>
  <i name="date" type="string">2024 04 28 </i>
  <i name="time" type="string">21:41:47 </i>
 </generator>
 <incar>
  <i type="int" name="ISTART">     0</i>
  <i type="string" name="PREC">a</i>
  <i type="logical" name="ADDGRID"> T  </i>
  <i type="int" name="IBRION">    -1</i>
  <i name="EDIFF">      0.00000100</i>
  <i name="EDIFFG">     -0.01000000</i>
  <i type="int" name="NSW">     1</i>
  <i type="int" name="ISIF">     2</i>
  <i type="int" name="ISYM">     0</i>
  <i name="ENCUT">    600.00000000</i>
  <i name="POTIM">      1.00000000</i>
  <i type="string" name="LREAL">  Auto</i>
  <i type="int" name="ISMEAR">     0</i>
  <i name="SIGMA">      0.05000000</i>
  <i name="KSPACING">      0.30000000</i>
  <i type="logical" name="KGAMMA"> T  </i>
  <i type="logical" name="LWAVE"> F  </i>
  <i type="logical" name="LCHARG"> F  </i>
  <i type="logical" name="LSCALAPACK"> F  </i>
  <v type="int" name="KPOINT_BSE">    -1     0     0     0</v>
 </incar>
 <structure name="primitive_cell" >
  <crystal>
   <varray name="basis" >
    <v>      14.01277600       0.00000000       0.00000000 </v>
    <v>       0.00000000      14.01277600       0.00000000 </v>
    <v>       0.00000000       0.00000000      14.01277600 </v>
   </varray>
   <i name="volume">   2751.51914558 </i>
   <varray name="rec_basis" >
    <v>       0.07136345       0.00000000       0.00000000 </v>
    <v>       0.00000000       0.07136345       0.00000000 </v>
    <v>       0.00000000       0.00000000       0.07136345 </v>
   </varray>
  </crystal>
  <varray name="positions" >
   <v>      -0.45901119       0.34912842       0.07556490 </v>
   <v>       0.41210717       0.26274449       0.06033587 </v>
   <v>      -0.40798771       0.21952035      -0.00135750 </v>
   <v>      -0.32336328       0.43259152       0.14056234 </v>
   <v>       0.48791258       0.27761762       0.30713410 </v>
   <v>      -0.43695894       0.47056188      -0.14565594 </v>
   <v>      -0.40946943       0.10479545       0.00440825 </v>
   <v>       0.39450636       0.16403387      -0.03473369 </v>
   <v>      -0.22005505       0.45658020       0.08016803 </v>
   <v>       0.47162204       0.08832724      -0.00046632 </v>
   <v>      -0.26062915      -0.45534813       0.01541210 </v>
   <v>      -0.17408105       0.38910395      -0.00243109 </v>
   <v>       0.31182846       0.32375336       0.28209695 </v>
   <v>       0.49011357      -0.44739285      -0.15624360 </v>
   <v>       0.38380833       0.20933179      -0.15828293 </v>
   <v>       0.39430959       0.25625701       0.34460820 </v>
   <v>      -0.20495983       0.32941679      -0.12632745 </v>
   <v>       0.37575587       0.06920043       0.11835332 </v>
   <v>      -0.48848948      -0.35648681      -0.08742599 </v>
   <v>       0.38522262      -0.49404181      -0.17999749 </v>
   <v>      -0.37910237       0.32637860       0.41176844 </v>
   <v>       0.34115773       0.13731260       0.27214017 </v>
   <v>       0.22439729       0.20180547       0.13091775 </v>
   <v>      -0.35679343       0.00827378       0.04784146 </v>
   <v>      -0.13532064       0.45961720       0.18227261 </v>
   <v>       0.24755188       0.21986640       0.24994566 </v>
   <v>      -0.34930750       0.05188325      -0.11494892 </v>
   <v>      -0.48913571      -0.01020138       0.16708857 </v>
   <v>       0.30387413      -0.38583781      -0.03777877 </v>
   <v>      -0.42101047      -0.29534942       0.19226251 </v>
   <v>       0.28381126       0.09346665      -0.03939729 </v>
   <v>       0.42014882       0.38648691      -0.29103706 </v>
   <v>      -0.45146173      -0.32760868       0.29736536 </v>
   <v>      -0.24704804      -0.31792265       0.00224167 </v>
   <v>      -0.19932233       0.41635274       0.37478213 </v>
   <v>       0.41868103      -0.27169517       0.00865410 </v>
   <v>       0.18940964       0.15982774       0.00858582 </v>
   <v>       0.15002493       0.44325431       0.02728347 </v>
   <v>      -0.42764859       0.30202498      -0.32622460 </v>
   <v>      -0.13138328       0.48680899       0.28951092 </v>
   <v>      -0.43067089      -0.06790958       0.09802993 </v>
   <v>       0.23307826      -0.36086468       0.05310285 </v>
   <v>       0.49393180      -0.06160290      -0.02793052 </v>
   <v>       0.30254311      -0.30393266       0.14430391 </v>
   <v>       0.16014465       0.23901839      -0.08360072 </v>
   <v>       0.41357541      -0.33785915       0.35376309 </v>
   <v>      -0.08293510       0.22135052      -0.10992839 </v>
   <v>       0.22682520       0.22527874      -0.21274157 </v>
   <v>       0.47378181       0.19658469       0.49000751 </v>
   <v>       0.34813643       0.37550625       0.47897199 </v>
   <v>      -0.16786000      -0.41875719       0.33535131 </v>
   <v>       0.44656227       0.13239293      -0.31451065 </v>
   <v>       0.21512366      -0.39287307       0.26641234 </v>
   <v>      -0.37918310       0.46915230      -0.35931713 </v>
   <v>      -0.02180736       0.20822903       0.05700345 </v>
   <v>       0.14368528      -0.41792997       0.09692239 </v>
   <v>       0.17872652       0.19963820       0.32938485 </v>
   <v>       0.45071555      -0.39091356      -0.30170807 </v>
   <v>       0.34355440       0.27309741      -0.35084703 </v>
   <v>      -0.37366310       0.23140987      -0.38641061 </v>
   <v>       0.38298202       0.27320671      -0.47055070 </v>
   <v>      -0.34393944      -0.39319489      -0.32340634 </v>
   <v>      -0.46492958      -0.44399170      -0.48125610 </v>
   <v>       0.27221314      -0.43003623      -0.26949091 </v>
   <v>      -0.15233709      -0.03360086       0.04868969 </v>
   <v>      -0.37279913      -0.16856642       0.11166489 </v>
   <v>      -0.41779693      -0.27257896       0.39025671 </v>
   <v>      -0.24826533      -0.37797320       0.42995132 </v>
   <v>      -0.14877727       0.18290795      -0.27202419 </v>
   <v>      -0.37128190       0.12092911      -0.35888149 </v>
   <v>      -0.27677519      -0.32976536      -0.26415505 </v>
   <v>      -0.04836155       0.43870399      -0.21777230 </v>
   <v>      -0.34319399      -0.24895656      -0.22076611 </v>
   <v>      -0.29584230       0.29067644      -0.44056802 </v>
   <v>       0.09603296       0.09840946       0.00059015 </v>
   <v>      -0.03336842       0.43727805       0.35507639 </v>
   <v>       0.05485704       0.40274849      -0.09433769 </v>
   <v>      -0.29382217      -0.05015095       0.36101550 </v>
   <v>      -0.17907125      -0.38012376      -0.26923093 </v>
   <v>       0.15677028       0.44542346      -0.26886249 </v>
   <v>      -0.40018059      -0.15734755      -0.09681544 </v>
   <v>      -0.25196225      -0.17784873      -0.03125105 </v>
   <v>       0.17548574      -0.28878755      -0.04041609 </v>
   <v>       0.34144472      -0.49278491      -0.39663527 </v>
   <v>      -0.06017753      -0.31056797      -0.03956300 </v>
   <v>       0.13196175       0.49930780       0.39394115 </v>
   <v>      -0.27607081      -0.18798131       0.28497301 </v>
   <v>      -0.02835078       0.19493260      -0.21689892 </v>
   <v>       0.41805602      -0.25882677       0.43595006 </v>
   <v>       0.43759452      -0.41381788      -0.41714791 </v>
   <v>       0.19611369       0.41302258      -0.48637497 </v>
   <v>      -0.13230739      -0.20935820       0.19840867 </v>
   <v>      -0.04479786      -0.03231694       0.09822589 </v>
   <v>      -0.03403236      -0.38515726      -0.18394453 </v>
   <v>       0.05571118       0.39185064      -0.21187316 </v>
   <v>      -0.15233936      -0.11436616      -0.03821656 </v>
   <v>       0.19741110      -0.27916612       0.34633611 </v>
   <v>      -0.02605477      -0.25499889       0.09579812 </v>
   <v>       0.06998662       0.13352504      -0.21001634 </v>
   <v>      -0.00438005      -0.02450096       0.19917449 </v>
   <v>       0.17132049       0.14848443      -0.35754111 </v>
   <v>       0.31976888      -0.02550123      -0.34545455 </v>
   <v>       0.42938810      -0.29547475      -0.44554139 </v>
   <v>       0.05702846       0.28489129      -0.28676085 </v>
   <v>      -0.19687838      -0.23196276       0.43113210 </v>
   <v>       0.02753310      -0.46986483       0.40603495 </v>
   <v>      -0.20396760      -0.07125453      -0.29818737 </v>
   <v>      -0.12371701      -0.08402338       0.36217295 </v>
   <v>      -0.42909593      -0.22376642      -0.37244128 </v>
   <v>      -0.15517464       0.13545583      -0.42641237 </v>
   <v>       0.03209625      -0.36605658       0.32879600 </v>
   <v>      -0.07309871      -0.09508118      -0.12490092 </v>
   <v>       0.20895318      -0.11078877      -0.18163490 </v>
   <v>      -0.21553162      -0.11771415       0.44263277 </v>
   <v>      -0.26180510      -0.25892986      -0.39311075 </v>
   <v>       0.04847376      -0.06670119       0.04420735 </v>
   <v>       0.22335217      -0.08153000      -0.29348781 </v>
   <v>      -0.05483367      -0.11988758       0.27629945 </v>
   <v>       0.38770178      -0.15194479       0.46930040 </v>
   <v>       0.07629796       0.10423672      -0.32379652 </v>
   <v>       0.09341980      -0.26476561       0.36986987 </v>
   <v>      -0.01909297      -0.41282784      -0.48394957 </v>
   <v>      -0.19202378      -0.05227488      -0.45846971 </v>
   <v>       0.25248987      -0.11267178       0.46981929 </v>
   <v>       0.12099021      -0.02238384      -0.31295684 </v>
   <v>       0.07699108      -0.17339211      -0.09513716 </v>
   <v>      -0.09564701      -0.29401809      -0.40484421 </v>
   <v>      -0.02325006       0.07238131      -0.39802660 </v>
   <v>       0.04618966      -0.30991029      -0.29749861 </v>
   <v>       0.19841431      -0.20015290      -0.36022945 </v>
   <v>       0.03413547      -0.16049828       0.32954364 </v>
   <v>       0.06735608      -0.24689854       0.49053094 </v>
   <v>       0.00064817      -0.04863367      -0.45629754 </v>
   <v>       0.07916098      -0.24660371      -0.39485617 </v>
   <v>      -0.00425307      -0.16844235      -0.38056290 </v>
  </varray>
 </structure>
 <varray name="primitive_index" >
  <v type="int" >        1 </v>
  <v type="int" >      127 </v>
  <v type="int" >       75 </v>
  <v type="int" >       65 </v>
  <v type="int" >       58 </v>
  <v type="int" >       59 </v>
  <v type="int" >       31 </v>
  <v type="int" >       41 </v>
  <v type="int" >       45 </v>
  <v type="int" >      109 </v>
  <v type="int" >       62 </v>
  <v type="int" >       95 </v>
  <v type="int" >       78 </v>
  <v type="int" >       51 </v>
  <v type="int" >      111 </v>
  <v type="int" >       38 </v>
  <v type="int" >       14 </v>
  <v type="int" >       15 </v>
  <v type="int" >       56 </v>
  <v type="int" >       76 </v>
  <v type="int" >       25 </v>
  <v type="int" >      121 </v>
  <v type="int" >      117 </v>
  <v type="int" >      123 </v>
  <v type="int" >       55 </v>
  <v type="int" >       34 </v>
  <v type="int" >       57 </v>
  <v type="int" >       66 </v>
  <v type="int" >      113 </v>
  <v type="int" >       69 </v>
  <v type="int" >      105 </v>
  <v type="int" >        9 </v>
  <v type="int" >       36 </v>
  <v type="int" >       13 </v>
  <v type="int" >       64 </v>
  <v type="int" >       19 </v>
  <v type="int" >       54 </v>
  <v type="int" >        5 </v>
  <v type="int" >      134 </v>
  <v type="int" >       29 </v>
  <v type="int" >       39 </v>
  <v type="int" >       52 </v>
  <v type="int" >       73 </v>
  <v type="int" >      130 </v>
  <v type="int" >       68 </v>
  <v type="int" >      107 </v>
  <v type="int" >      115 </v>
  <v type="int" >       16 </v>
  <v type="int" >      101 </v>
  <v type="int" >      112 </v>
  <v type="int" >       67 </v>
  <v type="int" >       12 </v>
  <v type="int" >       21 </v>
  <v type="int" >       18 </v>
  <v type="int" >        3 </v>
  <v type="int" >       98 </v>
  <v type="int" >      133 </v>
  <v type="int" >       87 </v>
  <v type="int" >       77 </v>
  <v type="int" >       30 </v>
  <v type="int" >       49 </v>
  <v type="int" >      100 </v>
  <v type="int" >       60 </v>
  <v type="int" >        2 </v>
  <v type="int" >       74 </v>
  <v type="int" >      135 </v>
  <v type="int" >      125 </v>
  <v type="int" >       26 </v>
  <v type="int" >      119 </v>
  <v type="int" >       94 </v>
  <v type="int" >       46 </v>
  <v type="int" >      104 </v>
  <v type="int" >       99 </v>
  <v type="int" >       97 </v>
  <v type="int" >       61 </v>
  <v type="int" >      126 </v>
  <v type="int" >       80 </v>
  <v type="int" >      118 </v>
  <v type="int" >       81 </v>
  <v type="int" >      131 </v>
  <v type="int" >        4 </v>
  <v type="int" >       72 </v>
  <v type="int" >      116 </v>
  <v type="int" >       83 </v>
  <v type="int" >       86 </v>
  <v type="int" >       89 </v>
  <v type="int" >       27 </v>
  <v type="int" >       42 </v>
  <v type="int" >       44 </v>
  <v type="int" >       53 </v>
  <v type="int" >        7 </v>
  <v type="int" >      114 </v>
  <v type="int" >       28 </v>
  <v type="int" >        8 </v>
  <v type="int" >       40 </v>
  <v type="int" >       43 </v>
  <v type="int" >      102 </v>
  <v type="int" >       23 </v>
  <v type="int" >       84 </v>
  <v type="int" >      124 </v>
  <v type="int" >      108 </v>
  <v type="int" >      129 </v>
  <v type="int" >       93 </v>
  <v type="int" >       71 </v>
  <v type="int" >      106 </v>
  <v type="int" >       50 </v>
  <v type="int" >       17 </v>
  <v type="int" >       70 </v>
  <v type="int" >       24 </v>
  <v type="int" >       11 </v>
  <v type="int" >      132 </v>
  <v type="int" >       79 </v>
  <v type="int" >      122 </v>
  <v type="int" >       37 </v>
  <v type="int" >       96 </v>
  <v type="int" >      103 </v>
  <v type="int" >       35 </v>
  <v type="int" >       33 </v>
  <v type="int" >      110 </v>
  <v type="int" >       47 </v>
  <v type="int" >       48 </v>
  <v type="int" >      120 </v>
  <v type="int" >       88 </v>
  <v type="int" >        6 </v>
  <v type="int" >       91 </v>
  <v type="int" >       22 </v>
  <v type="int" >       20 </v>
  <v type="int" >       82 </v>
  <v type="int" >       92 </v>
  <v type="int" >       85 </v>
  <v type="int" >       90 </v>
  <v type="int" >       63 </v>
  <v type="int" >       10 </v>
  <v type="int" >       32 </v>
  <v type="int" >      128 </v>
 </varray>
 <kpoints>
  <generation param="Gamma">
   <v type="int" name="divisions">       2        2        2 </v>
   <v name="usershift">      0.00000000       0.00000000       0.00000000 </v>
   <v name="genvec1">      0.50000000       0.00000000       0.00000000 </v>
   <v name="genvec2">      0.00000000       0.50000000       0.00000000 </v>
   <v name="genvec3">      0.00000000       0.00000000       0.50000000 </v>
   <v name="shift">      0.00000000       0.00000000       0.00000000 </v>
  </generation>
  <varray name="kpointlist" >
   <v>       0.00000000       0.00000000       0.00000000 </v>
   <v>       0.50000000       0.00000000       0.00000000 </v>
   <v>       0.00000000       0.50000000       0.00000000 </v>
   <v>       0.50000000       0.50000000       0.00000000 </v>
   <v>       0.00000000       0.00000000       0.50000000 </v>
   <v>       0.50000000       0.00000000       0.50000000 </v>
   <v>       0.00000000       0.50000000       0.50000000 </v>
   <v>       0.50000000       0.50000000       0.50000000 </v>
  </varray>
  <varray name="weights" >
   <v>       0.12500000 </v>
   <v>       0.12500000 </v>
   <v>       0.12500000 </v>
   <v>       0.12500000 </v>
   <v>       0.12500000 </v>
   <v>       0.12500000 </v>
   <v>       0.12500000 </v>
   <v>       0.12500000 </v>
  </varray>
 </kpoints>
 <parameters>
  <separator name="general" >
   <i type="string" name="SYSTEM">unknown system</i>
   <i type="logical" name="LCOMPAT"> F  </i>
  </separator>
  <separator name="electronic" >
   <i type="string" name="PREC">a</i>
   <i name="ENMAX">    600.00000000</i>
   <i name="ENAUG">    605.39200000</i>
   <i name="EDIFF">      0.00000100</i>
   <i type="int" name="IALGO">    38</i>
   <i type="int" name="IWAVPR">    10</i>
   <i type="int" name="NBANDS">   520</i>
   <i name="NELECT">    864.00000000</i>
   <i type="int" name="TURBO">     0</i>
   <i type="int" name="IRESTART">     0</i>
   <i type="int" name="NREBOOT">     0</i>
   <i type="int" name="NMIN">     0</i>
   <i name="EREF">      0.00000000</i>
   <separator name="electronic smearing" >
    <i type="int" name="ISMEAR">     0</i>
    <i name="SIGMA">      0.05000000</i>
    <i name="KSPACING">      0.30000000</i>
    <i type="logical" name="KGAMMA"> T  </i>
   </separator>
   <separator name="electronic projectors" >
    <i type="logical" name="LREAL"> T  </i>
    <v name="ROPT">     -0.00025000     -0.00025000     -0.00025000</v>
    <i type="int" name="LMAXPAW">  -100</i>
    <i type="int" name="LMAXMIX">     2</i>
    <i type="logical" name="NLSPLINE"> F  </i>
   </separator>
   <separator name="electronic startup" >
    <i type="int" name="ISTART">     0</i>
    <i type="int" name="ICHARG">     2</i>
    <i type="int" name="INIWAV">     1</i>
   </separator>
   <separator name="electronic spin" >
    <i type="int" name="ISPIN">     1</i>
    <i type="logical" name="LNONCOLLINEAR"> F  </i>
    <v name="MAGMOM">      1.00000000      1.00000000      1.00000000      1.00000000      1.00000000      1.00000000      1.00000000      1.00000000      1.00000000      1.00000000      1.00000000      1.00000000      1.00000000      1.00000000      1.00000000      1.00000000      1.00000000      1.00000000      1.00000000      1.00000000
      1.00000000      1.00000000      1.00000000      1.00000000      1.00000000      1.00000000      1.00000000      1.00000000      1.00000000      1.00000000      1.00000000      1.00000000      1.00000000      1.00000000      1.00000000      1.00000000      1.00000000      1.00000000      1.00000000      1.00000000
      1.00000000      1.00000000      1.00000000      1.00000000      1.00000000      1.00000000      1.00000000      1.00000000      1.00000000      1.00000000      1.00000000      1.00000000      1.00000000      1.00000000      1.00000000      1.00000000      1.00000000      1.00000000      1.00000000      1.00000000
      1.00000000      1.00000000      1.00000000      1.00000000      1.00000000      1.00000000      1.00000000      1.00000000      1.00000000      1.00000000      1.00000000      1.00000000      1.00000000      1.00000000      1.00000000      1.00000000      1.00000000      1.00000000      1.00000000      1.00000000
      1.00000000      1.00000000      1.00000000      1.00000000      1.00000000      1.00000000      1.00000000      1.00000000      1.00000000      1.00000000      1.00000000      1.00000000      1.00000000      1.00000000      1.00000000      1.00000000      1.00000000      1.00000000      1.00000000      1.00000000
      1.00000000      1.00000000      1.00000000      1.00000000      1.00000000      1.00000000      1.00000000      1.00000000      1.00000000      1.00000000      1.00000000      1.00000000      1.00000000      1.00000000      1.00000000      1.00000000      1.00000000      1.00000000      1.00000000      1.00000000
      1.00000000      1.00000000      1.00000000      1.00000000      1.00000000      1.00000000      1.00000000      1.00000000      1.00000000      1.00000000      1.00000000      1.00000000      1.00000000      1.00000000      1.00000000</v>
    <i name="NUPDOWN">     -1.00000000</i>
    <i type="logical" name="LSORBIT"> F  </i>
    <v name="SAXIS">      0.00000000      0.00000000      1.00000000</v>
    <i type="logical" name="LSPIRAL"> F  </i>
    <v name="QSPIRAL">      0.00000000      0.00000000      0.00000000</v>
    <i type="logical" name="LZEROZ"> F  </i>
   </separator>
   <separator name="electronic exchange-correlation" >
    <i type="logical" name="LASPH"> F  </i>
    <i type="logical" name="LMETAGGA"> F  </i>
   </separator>
   <separator name="electronic convergence" >
    <i type="int" name="NELM">    60</i>
    <i type="int" name="NELMDL">    -5</i>
    <i type="int" name="NELMIN">     2</i>
    <i name="ENINI">    600.00000000</i>
    <separator name="electronic convergence detail" >
     <i type="logical" name="LDIAG"> T  </i>
     <i type="logical" name="LSUBROT"> F  </i>
     <i name="WEIMIN">      0.00000000</i>
     <i name="EBREAK">      0.00000000</i>
     <i name="DEPER">      0.30000000</i>
     <i type="int" name="NRMM">     4</i>
     <i name="TIME">      0.40000000</i>
    </separator>
   </separator>
   <separator name="electronic mixer" >
    <i name="AMIX">      0.40000000</i>
    <i name="BMIX">      1.00000000</i>
    <i name="AMIN">      0.10000000</i>
    <i name="AMIX_MAG">      1.60000000</i>
    <i name="BMIX_MAG">      1.00000000</i>
    <separator name="electronic mixer details" >
     <i type="int" name="IMIX">     4</i>
     <i type="logical" name="MIXFIRST"> F  </i>
     <i type="int" name="MAXMIX">   -45</i>
     <i name="WC">    100.00000000</i>
     <i type="int" name="INIMIX">     1</i>
     <i type="int" name="MIXPRE">     1</i>
     <i type="int" name="MREMOVE">     5</i>
    </separator>
   </separator>
   <separator name="electronic dipolcorrection" >
    <i type="logical" name="LDIPOL"> F  </i>
    <i type="logical" name="LMONO"> F  </i>
    <i type="int" name="IDIPOL">     0</i>
    <i name="EPSILON">      1.00000000</i>
    <v name="DIPOL">   -100.00000000   -100.00000000   -100.00000000</v>
    <i name="EFIELD">      0.00000000</i>
   </separator>
  </separator>
  <separator name="grids" >
   <i type="int" name="NGX">   112</i>
   <i type="int" name="NGY">   112</i>
   <i type="int" name="NGZ">   112</i>
   <i type="int" name="NGXF">   224</i>
   <i type="int" name="NGYF">   224</i>
   <i type="int" name="NGZF">   224</i>
   <i type="logical" name="ADDGRID"> T  </i>
  </separator>
  <separator name="ionic" >
   <i type="int" name="NSW">     1</i>
   <i type="int" name="IBRION">    -1</i>
   <i type="int" name="MDALGO">     0</i>
   <i type="int" name="ISIF">     2</i>
   <i name="PSTRESS">      0.00000000</i>
   <i name="EDIFFG">     -0.01000000</i>
   <i type="int" name="NFREE">     0</i>
   <i name="POTIM">      1.00000000</i>
   <i name="SMASS">     -3.00000000</i>
   <i name="SCALEE">      1.00000000</i>
  </separator>
  <separator name="ionic md" >
   <i name="TEBEG">      0.00010000</i>
   <i name="TEEND">      0.00010000</i>
   <i type="int" name="NBLOCK">     1</i>
   <i type="int" name="KBLOCK">     1</i>
   <i type="int" name="NPACO">   256</i>
   <i name="APACO">     16.00000000</i>
  </separator>
  <separator name="symmetry" >
   <i type="int" name="ISYM">     0</i>
   <i name="SYMPREC">      0.00001000</i>
  </separator>
  <separator name="dos" >
   <i type="int" name="LORBIT">     0</i>
   <v name="RWIGS">     -1.00000000     -1.00000000     -1.00000000</v>
   <i type="int" name="NEDOS">   301</i>
   <i name="EMIN">     10.00000000</i>
   <i name="EMAX">    -10.00000000</i>
   <i name="EFERMI">      0.00000000</i>
  </separator>
  <separator name="writing" >
   <i type="int" name="NWRITE">     2</i>
   <i type="logical" name="LWAVE"> F  </i>
   <i type="logical" name="LDOWNSAMPLE"> F  </i>
   <i type="logical" name="LCHARG"> F  </i>
   <i type="logical" name="LPARD"> F  </i>
   <i type="logical" name="LVTOT"> F  </i>
   <i type="logical" name="LVHAR"> F  </i>
   <i type="logical" name="LELF"> F  </i>
   <i type="logical" name="LOPTICS"> F  </i>
   <v name="STM">      0.00000000      0.00000000      0.00000000      0.00000000      0.00000000      0.00000000      0.00000000</v>
  </separator>
  <separator name="performance" >
   <i type="int" name="NPAR">     4</i>
   <i type="int" name="NSIM">     4</i>
   <i type="int" name="NBLK">    -1</i>
   <i type="logical" name="LPLANE"> T  </i>
   <i type="logical" name="LSCALAPACK"> F  </i>
   <i type="logical" name="LSCAAWARE"> F  </i>
   <i type="logical" name="LSCALU"> F  </i>
   <i type="logical" name="LASYNC"> F  </i>
   <i type="logical" name="LORBITALREAL"> F  </i>
  </separator>
  <separator name="miscellaneous" >
   <i type="int" name="IDIOT">     3</i>
   <i type="int" name="ISPECIAL">     0</i>
   <i type="logical" name="LMUSIC"> F  </i>
   <v name="POMASS">     40.07800000     28.08500000     16.00000000</v>
   <v name="DARWINR">      0.00000000      0.00000000      0.00000000</v>
   <v name="DARWINV">      1.00000000      1.00000000      1.00000000</v>
   <i type="logical" name="LCORR"> T  </i>
  </separator>
  <i type="logical" name="GGA_COMPAT"> T  </i>
  <i type="logical" name="LBERRY"> F  </i>
  <i type="int" name="ICORELEVEL">     0</i>
  <i type="logical" name="LDAU"> F  </i>
  <i type="int" name="I_CONSTRAINED_M">     0</i>
  <separator name="electronic exchange-correlation" >
   <i type="string" name="GGA">--</i>
   <i type="int" name="VOSKOWN">     0</i>
   <i type="logical" name="LHFCALC"> F  </i>
   <i type="string" name="PRECFOCK"></i>
   <i type="logical" name="LSYMGRAD"> F  </i>
   <i type="logical" name="LHFONE"> F  </i>
   <i type="logical" name="LRHFCALC"> F  </i>
   <i type="logical" name="LTHOMAS"> F  </i>
   <i type="logical" name="LMODELHF"> F  </i>
   <i name="ENCUT4O">     -1.00000000</i>
   <i type="int" name="EXXOEP">     0</i>
   <i type="int" name="FOURORBIT">     0</i>
   <i name="AEXX">      0.00000000</i>
   <i name="HFALPHA">      0.00000000</i>
   <i name="MCALPHA">      0.00000000</i>
   <i name="ALDAX">      1.00000000</i>
   <i name="AGGAX">      1.00000000</i>
   <i name="ALDAC">      1.00000000</i>
   <i name="AGGAC">      1.00000000</i>
   <i type="int" name="NKREDX">     1</i>
   <i type="int" name="NKREDY">     1</i>
   <i type="int" name="NKREDZ">     1</i>
   <i type="logical" name="SHIFTRED"> F  </i>
   <i type="logical" name="ODDONLY"> F  </i>
   <i type="logical" name="EVENONLY"> F  </i>
   <i type="int" name="LMAXFOCK">     0</i>
   <i type="int" name="NMAXFOCKAE">     0</i>
   <i type="logical" name="LFOCKAEDFT"> F  </i>
   <i name="HFSCREEN">      0.00000000</i>
   <i name="HFSCREENC">      0.00000000</i>
   <i type="int" name="NBANDSGWLOW">     0</i>
  </separator>
  <separator name="vdW DFT" >
   <i type="logical" name="LUSE_VDW"> F  </i>
   <i name="Zab_VDW">     -0.84910000</i>
   <i name="PARAM1">      0.12340000</i>
   <i name="PARAM2">      1.00000000</i>
   <i name="PARAM3">      0.00000000</i>
  </separator>
  <separator name="model GW" >
   <i type="int" name="MODEL_GW">     0</i>
   <i name="MODEL_EPS0">     12.22897398</i>
   <i name="MODEL_ALPHA">      1.00000000</i>
  </separator>
  <separator name="linear response parameters" >
   <i type="logical" name="LEPSILON"> F  </i>
   <i type="logical" name="LRPA"> F  </i>
   <i type="logical" name="LNABLA"> F  </i>
   <i type="logical" name="LVEL"> F  </i>
   <i type="int" name="KINTER">     0</i>
   <i name="CSHIFT">      0.10000000</i>
   <i name="OMEGAMAX">     -1.00000000</i>
   <i name="DEG_THRESHOLD">      0.00200000</i>
   <i name="RTIME">     -0.10000000</i>
   <i name="WPLASMAI">      0.00000000</i>
   <v name="DFIELD">      0.00000000      0.00000000      0.00000000</v>
   <v name="WPLASMA">      0.00000000      0.00000000      0.00000000      0.00000000      0.00000000      0.00000000      0.00000000      0.00000000      0.00000000</v>
  </separator>
  <separator name="orbital magnetization" >
   <i type="logical" name="NUCIND"> F  </i>
   <v name="MAGPOS">      0.00000000      0.00000000      0.00000000</v>
   <i type="logical" name="LNICSALL"> T  </i>
   <i type="logical" name="ORBITALMAG"> F  </i>
   <i type="logical" name="LMAGBLOCH"> F  </i>
   <i type="logical" name="LCHIMAG"> F  </i>
   <i type="logical" name="LGAUGE"> T  </i>
   <i type="int" name="MAGATOM">     0</i>
   <v name="MAGDIPOL">      0.00000000      0.00000000      0.00000000</v>
   <v name="AVECCONST">      0.00000000      0.00000000      0.00000000</v>
  </separator>
  <separator name="response functions" >
   <i type="logical" name="LADDER"> F  </i>
   <i type="logical" name="LRPAFORCE"> F  </i>
   <i type="logical" name="LFXC"> F  </i>
   <i type="logical" name="LHARTREE"> T  </i>
   <i type="int" name="IBSE">     0</i>
   <v type="int" name="KPOINT">    -1     0     0     0</v>
   <i type="logical" name="LTCTE"> F  </i>
   <i type="logical" name="LTETE"> F  </i>
   <i type="logical" name="LTRIPLET"> F  </i>
   <i type="logical" name="LFXCEPS"> F  </i>
   <i type="logical" name="LFXHEG"> F  </i>
   <i type="int" name="NATURALO">     2</i>
   <i type="logical" name="L2ORDER"> F  </i>
   <i type="logical" name="LMP2LT"> F  </i>
   <i type="logical" name="LUSEW"> F  </i>
   <i name="ENCUTGW">     -2.00000000</i>
   <i name="ENCUTGWSOFT">     -2.00000000</i>
   <i name="ENCUTLF">     -1.00000000</i>
   <i type="int" name="LMAXMP2">    -1</i>
   <i name="SCISSOR">      0.00000000</i>
   <i type="int" name="NOMEGA">     0</i>
   <i type="int" name="NOMEGAR">     0</i>
   <i type="int" name="NBANDSGW">    -1</i>
   <i type="int" name="NBANDSO">    -1</i>
   <i type="int" name="NBANDSV">    -1</i>
   <i type="int" name="NELM">     1</i>
   <i type="int" name="NELMHF">     1</i>
   <i type="int" name="DIM">     3</i>
   <i type="int" name="ANTIRES">     0</i>
   <i name="OMEGAMAX">    -30.00000000</i>
   <i name="OMEGAMIN">    -30.00000000</i>
   <i name="OMEGATL">   -200.00000000</i>
   <i type="int" name="OMEGAGRID">   140</i>
   <i name="CSHIFT">     -0.10000000</i>
   <i type="logical" name="SELFENERGY"> F  </i>
   <i type="logical" name="LSPECTRAL"> F  </i>
   <i type="logical" name="LSPECTRALGW"> F  </i>
   <i type="logical" name="LSINGLES"> F  </i>
   <i type="logical" name="LFERMIGW"> F  </i>
   <i type="logical" name="ODDONLYGW"> F  </i>
   <i type="logical" name="EVENONLYGW"> F  </i>
   <i type="int" name="NKREDLFX">     1</i>
   <i type="int" name="NKREDLFY">     1</i>
   <i type="int" name="NKREDLFZ">     1</i>
   <i type="int" name="MAXMEM">  2800</i>
   <i type="int" name="TELESCOPE">     0</i>
   <i type="int" name="TAUPAR">     1</i>
   <i type="int" name="OMEGAPAR">    -1</i>
   <i name="LAMBDA">      1.00000000</i>
  </separator>
  <separator name="External order field" >
   <i name="OFIELD_KAPPA">      0.00000000</i>
   <v name="OFIELD_K">      0.00000000      0.00000000      0.00000000</v>
   <i name="OFIELD_Q6_NEAR">      0.00000000</i>
   <i name="OFIELD_Q6_FAR">      0.00000000</i>
   <i name="OFIELD_A">      0.00000000</i>
  </separator>
 </parameters>
 <atominfo>
  <atoms>     135 </atoms>
  <types>       3 </types>
  <array name="atoms" >
   <dimension dim="1">ion</dimension>
   <field type="string">element</field>
   <field type="int">atomtype</field>
   <set>
    <rc><c>Ca</c><c>   1</c></rc>
    <rc><c>Ca</c><c>   1</c></rc>
    <rc><c>Ca</c><c>   1</c></rc>
    <rc><c>Ca</c><c>   1</c></rc>
    <rc><c>Ca</c><c>   1</c></rc>
    <rc><c>Ca</c><c>   1</c></rc>
    <rc><c>Ca</c><c>   1</c></rc>
    <rc><c>Ca</c><c>   1</c></rc>
    <rc><c>Ca</c><c>   1</c></rc>
    <rc><c>Ca</c><c>   1</c></rc>
    <rc><c>Ca</c><c>   1</c></rc>
    <rc><c>Ca</c><c>   1</c></rc>
    <rc><c>Ca</c><c>   1</c></rc>
    <rc><c>Ca</c><c>   1</c></rc>
    <rc><c>Ca</c><c>   1</c></rc>
    <rc><c>Ca</c><c>   1</c></rc>
    <rc><c>Ca</c><c>   1</c></rc>
    <rc><c>Ca</c><c>   1</c></rc>
    <rc><c>Ca</c><c>   1</c></rc>
    <rc><c>Ca</c><c>   1</c></rc>
    <rc><c>Ca</c><c>   1</c></rc>
    <rc><c>Ca</c><c>   1</c></rc>
    <rc><c>Ca</c><c>   1</c></rc>
    <rc><c>Ca</c><c>   1</c></rc>
    <rc><c>Ca</c><c>   1</c></rc>
    <rc><c>Ca</c><c>   1</c></rc>
    <rc><c>Ca</c><c>   1</c></rc>
    <rc><c>Si</c><c>   2</c></rc>
    <rc><c>Si</c><c>   2</c></rc>
    <rc><c>Si</c><c>   2</c></rc>
    <rc><c>Si</c><c>   2</c></rc>
    <rc><c>Si</c><c>   2</c></rc>
    <rc><c>Si</c><c>   2</c></rc>
    <rc><c>Si</c><c>   2</c></rc>
    <rc><c>Si</c><c>   2</c></rc>
    <rc><c>Si</c><c>   2</c></rc>
    <rc><c>Si</c><c>   2</c></rc>
    <rc><c>Si</c><c>   2</c></rc>
    <rc><c>Si</c><c>   2</c></rc>
    <rc><c>Si</c><c>   2</c></rc>
    <rc><c>Si</c><c>   2</c></rc>
    <rc><c>Si</c><c>   2</c></rc>
    <rc><c>Si</c><c>   2</c></rc>
    <rc><c>Si</c><c>   2</c></rc>
    <rc><c>Si</c><c>   2</c></rc>
    <rc><c>Si</c><c>   2</c></rc>
    <rc><c>Si</c><c>   2</c></rc>
    <rc><c>Si</c><c>   2</c></rc>
    <rc><c>Si</c><c>   2</c></rc>
    <rc><c>Si</c><c>   2</c></rc>
    <rc><c>Si</c><c>   2</c></rc>
    <rc><c>Si</c><c>   2</c></rc>
    <rc><c>Si</c><c>   2</c></rc>
    <rc><c>Si</c><c>   2</c></rc>
    <rc><c>O </c><c>   3</c></rc>
    <rc><c>O </c><c>   3</c></rc>
    <rc><c>O </c><c>   3</c></rc>
    <rc><c>O </c><c>   3</c></rc>
    <rc><c>O </c><c>   3</c></rc>
    <rc><c>O </c><c>   3</c></rc>
    <rc><c>O </c><c>   3</c></rc>
    <rc><c>O </c><c>   3</c></rc>
    <rc><c>O </c><c>   3</c></rc>
    <rc><c>O </c><c>   3</c></rc>
    <rc><c>O </c><c>   3</c></rc>
    <rc><c>O </c><c>   3</c></rc>
    <rc><c>O </c><c>   3</c></rc>
    <rc><c>O </c><c>   3</c></rc>
    <rc><c>O </c><c>   3</c></rc>
    <rc><c>O </c><c>   3</c></rc>
    <rc><c>O </c><c>   3</c></rc>
    <rc><c>O </c><c>   3</c></rc>
    <rc><c>O </c><c>   3</c></rc>
    <rc><c>O </c><c>   3</c></rc>
    <rc><c>O </c><c>   3</c></rc>
    <rc><c>O </c><c>   3</c></rc>
    <rc><c>O </c><c>   3</c></rc>
    <rc><c>O </c><c>   3</c></rc>
    <rc><c>O </c><c>   3</c></rc>
    <rc><c>O </c><c>   3</c></rc>
    <rc><c>O </c><c>   3</c></rc>
    <rc><c>O </c><c>   3</c></rc>
    <rc><c>O </c><c>   3</c></rc>
    <rc><c>O </c><c>   3</c></rc>
    <rc><c>O </c><c>   3</c></rc>
    <rc><c>O </c><c>   3</c></rc>
    <rc><c>O </c><c>   3</c></rc>
    <rc><c>O </c><c>   3</c></rc>
    <rc><c>O </c><c>   3</c></rc>
    <rc><c>O </c><c>   3</c></rc>
    <rc><c>O </c><c>   3</c></rc>
    <rc><c>O </c><c>   3</c></rc>
    <rc><c>O </c><c>   3</c></rc>
    <rc><c>O </c><c>   3</c></rc>
    <rc><c>O </c><c>   3</c></rc>
    <rc><c>O </c><c>   3</c></rc>
    <rc><c>O </c><c>   3</c></rc>
    <rc><c>O </c><c>   3</c></rc>
    <rc><c>O </c><c>   3</c></rc>
    <rc><c>O </c><c>   3</c></rc>
    <rc><c>O </c><c>   3</c></rc>
    <rc><c>O </c><c>   3</c></rc>
    <rc><c>O </c><c>   3</c></rc>
    <rc><c>O </c><c>   3</c></rc>
    <rc><c>O </c><c>   3</c></rc>
    <rc><c>O </c><c>   3</c></rc>
    <rc><c>O </c><c>   3</c></rc>
    <rc><c>O </c><c>   3</c></rc>
    <rc><c>O </c><c>   3</c></rc>
    <rc><c>O </c><c>   3</c></rc>
    <rc><c>O </c><c>   3</c></rc>
    <rc><c>O </c><c>   3</c></rc>
    <rc><c>O </c><c>   3</c></rc>
    <rc><c>O </c><c>   3</c></rc>
    <rc><c>O </c><c>   3</c></rc>
    <rc><c>O </c><c>   3</c></rc>
    <rc><c>O </c><c>   3</c></rc>
    <rc><c>O </c><c>   3</c></rc>
    <rc><c>O </c><c>   3</c></rc>
    <rc><c>O </c><c>   3</c></rc>
    <rc><c>O </c><c>   3</c></rc>
    <rc><c>O </c><c>   3</c></rc>
    <rc><c>O </c><c>   3</c></rc>
    <rc><c>O </c><c>   3</c></rc>
    <rc><c>O </c><c>   3</c></rc>
    <rc><c>O </c><c>   3</c></rc>
    <rc><c>O </c><c>   3</c></rc>
    <rc><c>O </c><c>   3</c></rc>
    <rc><c>O </c><c>   3</c></rc>
    <rc><c>O </c><c>   3</c></rc>
    <rc><c>O </c><c>   3</c></rc>
    <rc><c>O </c><c>   3</c></rc>
    <rc><c>O </c><c>   3</c></rc>
    <rc><c>O </c><c>   3</c></rc>
    <rc><c>O </c><c>   3</c></rc>
   </set>
  </array>
  <array name="atomtypes" >
   <dimension dim="1">type</dimension>
   <field type="int">atomspertype</field>
   <field type="string">element</field>
   <field>mass</field>
   <field>valence</field>
   <field type="string">pseudopotential</field>
   <set>
    <rc><c>  27</c><c>Ca</c><c>     40.07800000</c><c>     10.00000000</c><c>  PAW_PBE Ca_sv 06Sep2000               </c></rc>
    <rc><c>  27</c><c>Si</c><c>     28.08500000</c><c>      4.00000000</c><c>  PAW_PBE Si 05Jan2001                  </c></rc>
    <rc><c>  81</c><c>O </c><c>     16.00000000</c><c>      6.00000000</c><c>  PAW_PBE O 08Apr2002                   </c></rc>
   </set>
  </array>
 </atominfo>
 <structure name="initialpos" >
  <crystal>
   <varray name="basis" >
    <v>      14.01277600       0.00000000       0.00000000 </v>
    <v>       0.00000000      14.01277600       0.00000000 </v>
    <v>       0.00000000       0.00000000      14.01277600 </v>
   </varray>
   <i name="volume">   2751.51914558 </i>
   <varray name="rec_basis" >
    <v>       0.07136345       0.00000000       0.00000000 </v>
    <v>       0.00000000       0.07136345       0.00000000 </v>
    <v>       0.00000000       0.00000000       0.07136345 </v>
   </varray>
  </crystal>
  <varray name="positions" >
   <v>       0.54098881       0.34912842       0.07556490 </v>
   <v>       0.27221314       0.56996377       0.73050909 </v>
   <v>       0.97819264       0.20822903       0.05700345 </v>
   <v>       0.59981941       0.84265245       0.90318456 </v>
   <v>       0.15002493       0.44325431       0.02728347 </v>
   <v>       0.25248987       0.88732822       0.46981929 </v>
   <v>       0.19611369       0.41302258       0.51362503 </v>
   <v>       0.96596764       0.61484274       0.81605547 </v>
   <v>       0.42014882       0.38648691       0.70896294 </v>
   <v>       0.00064817       0.95136633       0.54370246 </v>
   <v>       0.84482536       0.13545583       0.57358763 </v>
   <v>       0.44656227       0.13239293       0.68548935 </v>
   <v>       0.75295196       0.68207735       0.00224167 </v>
   <v>       0.79504017       0.32941679       0.87367255 </v>
   <v>       0.37575587       0.06920043       0.11835332 </v>
   <v>       0.22682520       0.22527874       0.78725843 </v>
   <v>       0.79603240       0.92874547       0.70181263 </v>
   <v>       0.62081690       0.46915230       0.64068287 </v>
   <v>       0.41868103       0.72830483       0.00865410 </v>
   <v>       0.90435299       0.70598191       0.59515579 </v>
   <v>       0.21512366       0.60712693       0.26641234 </v>
   <v>       0.07699108       0.82660789       0.90486284 </v>
   <v>       0.97394523       0.74500111       0.09579812 </v>
   <v>       0.57090407       0.77623358       0.62755872 </v>
   <v>       0.62089763       0.32637860       0.41176844 </v>
   <v>       0.75173467       0.62202680       0.42995132 </v>
   <v>       0.72392919       0.81201869       0.28497301 </v>
   <v>       0.95520214       0.96768306       0.09822589 </v>
   <v>       0.86861672       0.48680899       0.28951092 </v>
   <v>       0.62633690       0.23140987       0.61358939 </v>
   <v>       0.59053057       0.10479545       0.00440825 </v>
   <v>       0.07916098       0.75339629       0.60514383 </v>
   <v>       0.94516633       0.88011242       0.27629945 </v>
   <v>       0.24755188       0.21986640       0.24994566 </v>
   <v>       0.22335217       0.91847000       0.70651219 </v>
   <v>       0.54853827       0.67239132       0.29736536 </v>
   <v>       0.78446838       0.88228585       0.44263277 </v>
   <v>       0.39430959       0.25625701       0.34460820 </v>
   <v>       0.56932911       0.93209042       0.09802993 </v>
   <v>       0.05571118       0.39185064       0.78812684 </v>
   <v>       0.39450636       0.16403387       0.96526631 </v>
   <v>       0.97164922       0.19493260       0.78310108 </v>
   <v>       0.84766064       0.88563384       0.96178344 </v>
   <v>       0.41805602       0.74117323       0.43595006 </v>
   <v>       0.77994495       0.45658020       0.08016803 </v>
   <v>       0.72322481       0.67023464       0.73584495 </v>
   <v>       0.07629796       0.10423672       0.67620348 </v>
   <v>       0.09341980       0.73523439       0.36986987 </v>
   <v>       0.38298202       0.27320671       0.52944930 </v>
   <v>       0.02753310       0.53013517       0.40603495 </v>
   <v>       0.49011357       0.55260715       0.84375640 </v>
   <v>       0.23307826       0.63913532       0.05310285 </v>
   <v>       0.43759452       0.58618212       0.58285209 </v>
   <v>       0.18940964       0.15982774       0.00858582 </v>
   <v>       0.86467936       0.45961720       0.18227261 </v>
   <v>       0.51151052       0.64351319       0.91257401 </v>
   <v>       0.65069250       0.05188325       0.88505108 </v>
   <v>       0.48791258       0.27761762       0.30713410 </v>
   <v>       0.56304106       0.47056188       0.85434406 </v>
   <v>       0.53507042       0.55600830       0.51874390 </v>
   <v>       0.09603296       0.09840946       0.00059015 </v>
   <v>       0.73937085       0.54465187       0.01541210 </v>
   <v>       0.06735608       0.75310146       0.49053094 </v>
   <v>       0.80067767       0.41635274       0.37478213 </v>
   <v>       0.67663672       0.43259152       0.14056234 </v>
   <v>       0.51086429       0.98979862       0.16708857 </v>
   <v>       0.83214000       0.58124281       0.33535131 </v>
   <v>       0.16014465       0.23901839       0.91639928 </v>
   <v>       0.57898953       0.70465058       0.19226251 </v>
   <v>       0.87628299       0.91597662       0.36217295 </v>
   <v>       0.05702846       0.28489129       0.71323915 </v>
   <v>       0.74803775       0.82215127       0.96874895 </v>
   <v>       0.49393180       0.93839710       0.97206948 </v>
   <v>       0.84766291       0.96639914       0.04868969 </v>
   <v>       0.59201229       0.21952035       0.99864250 </v>
   <v>       0.38522262       0.50595819       0.82000251 </v>
   <v>       0.34355440       0.27309741       0.64915297 </v>
   <v>       0.31182846       0.32375336       0.28209695 </v>
   <v>       0.92690129       0.90491882       0.87509908 </v>
   <v>       0.05485704       0.40274849       0.90566231 </v>
   <v>       0.82092875       0.61987624       0.73076907 </v>
   <v>       0.97674994       0.07238131       0.60197340 </v>
   <v>       0.34144472       0.50721509       0.60336473 </v>
   <v>       0.06998662       0.13352504       0.78998366 </v>
   <v>       0.19841431       0.79984710       0.63977055 </v>
   <v>       0.93982247       0.68943203       0.96043700 </v>
   <v>       0.45071555       0.60908644       0.69829193 </v>
   <v>       0.80797622       0.94772512       0.54153029 </v>
   <v>       0.13196175       0.49930780       0.39394115 </v>
   <v>       0.03413547       0.83950172       0.32954364 </v>
   <v>       0.12099021       0.97761616       0.68704316 </v>
   <v>       0.04618966       0.69008971       0.70250139 </v>
   <v>       0.42938810       0.70452525       0.55445861 </v>
   <v>       0.62871810       0.12092911       0.64111851 </v>
   <v>       0.82591895       0.38910395       0.99756891 </v>
   <v>       0.73819490       0.74107014       0.60688925 </v>
   <v>       0.70415770       0.29067644       0.55943198 </v>
   <v>       0.14368528       0.58207003       0.09692239 </v>
   <v>       0.65680601       0.75104344       0.77923389 </v>
   <v>       0.65606056       0.60680511       0.67659366 </v>
   <v>       0.47378181       0.19658469       0.49000751 </v>
   <v>       0.19741110       0.72083388       0.34633611 </v>
   <v>       0.04847376       0.93329881       0.04420735 </v>
   <v>       0.95163845       0.43870399       0.78222770 </v>
   <v>       0.28381126       0.09346665       0.96060271 </v>
   <v>       0.80312162       0.76803724       0.43113210 </v>
   <v>       0.41357541       0.66214085       0.35376309 </v>
   <v>       0.17132049       0.14848443       0.64245889 </v>
   <v>       0.47162204       0.08832724       0.99953368 </v>
   <v>       0.38770178       0.84805521       0.46930040 </v>
   <v>       0.38380833       0.20933179       0.84171707 </v>
   <v>       0.34813643       0.37550625       0.47897199 </v>
   <v>       0.30387413       0.61416219       0.96222123 </v>
   <v>       0.86769261       0.79064180       0.19840867 </v>
   <v>       0.91706490       0.22135052       0.89007161 </v>
   <v>       0.17548574       0.71121245       0.95958391 </v>
   <v>       0.22439729       0.20180547       0.13091775 </v>
   <v>       0.70617783       0.94984905       0.36101550 </v>
   <v>       0.85122273       0.18290795       0.72797581 </v>
   <v>       0.98090703       0.58717216       0.51605043 </v>
   <v>       0.34115773       0.13731260       0.27214017 </v>
   <v>       0.20895318       0.88921123       0.81836510 </v>
   <v>       0.64320657       0.00827378       0.04784146 </v>
   <v>       0.99561995       0.97549904       0.19917449 </v>
   <v>       0.58220307       0.72742104       0.39025671 </v>
   <v>       0.96663158       0.43727805       0.35507639 </v>
   <v>       0.41210717       0.26274449       0.06033587 </v>
   <v>       0.99574693       0.83155765       0.61943710 </v>
   <v>       0.31976888       0.97449877       0.65454545 </v>
   <v>       0.30254311       0.69606734       0.14430391 </v>
   <v>       0.15677028       0.44542346       0.73113751 </v>
   <v>       0.03209625       0.63394342       0.32879600 </v>
   <v>       0.17872652       0.19963820       0.32938485 </v>
   <v>       0.57235141       0.30202498       0.67377540 </v>
   <v>       0.62720087       0.83143358       0.11166489 </v>
  </varray>
  <varray name="velocities" >
   <v>       0.00000000       0.00000000       0.00000000 </v>
   <v>       0.00000000       0.00000000       0.00000000 </v>
   <v>       0.00000000       0.00000000       0.00000000 </v>
   <v>       0.00000000       0.00000000       0.00000000 </v>
   <v>       0.00000000       0.00000000       0.00000000 </v>
   <v>       0.00000000       0.00000000       0.00000000 </v>
   <v>       0.00000000       0.00000000       0.00000000 </v>
   <v>       0.00000000       0.00000000       0.00000000 </v>
   <v>       0.00000000       0.00000000       0.00000000 </v>
   <v>       0.00000000       0.00000000       0.00000000 </v>
   <v>       0.00000000       0.00000000       0.00000000 </v>
   <v>       0.00000000       0.00000000       0.00000000 </v>
   <v>       0.00000000       0.00000000       0.00000000 </v>
   <v>       0.00000000       0.00000000       0.00000000 </v>
   <v>       0.00000000       0.00000000       0.00000000 </v>
   <v>       0.00000000       0.00000000       0.00000000 </v>
   <v>       0.00000000       0.00000000       0.00000000 </v>
   <v>       0.00000000       0.00000000       0.00000000 </v>
   <v>       0.00000000       0.00000000       0.00000000 </v>
   <v>       0.00000000       0.00000000       0.00000000 </v>
   <v>       0.00000000       0.00000000       0.00000000 </v>
   <v>       0.00000000       0.00000000       0.00000000 </v>
   <v>       0.00000000       0.00000000       0.00000000 </v>
   <v>       0.00000000       0.00000000       0.00000000 </v>
   <v>       0.00000000       0.00000000       0.00000000 </v>
   <v>       0.00000000       0.00000000       0.00000000 </v>
   <v>       0.00000000       0.00000000       0.00000000 </v>
   <v>       0.00000000       0.00000000       0.00000000 </v>
   <v>       0.00000000       0.00000000       0.00000000 </v>
   <v>       0.00000000       0.00000000       0.00000000 </v>
   <v>       0.00000000       0.00000000       0.00000000 </v>
   <v>       0.00000000       0.00000000       0.00000000 </v>
   <v>       0.00000000       0.00000000       0.00000000 </v>
   <v>       0.00000000       0.00000000       0.00000000 </v>
   <v>       0.00000000       0.00000000       0.00000000 </v>
   <v>       0.00000000       0.00000000       0.00000000 </v>
   <v>       0.00000000       0.00000000       0.00000000 </v>
   <v>       0.00000000       0.00000000       0.00000000 </v>
   <v>       0.00000000       0.00000000       0.00000000 </v>
   <v>       0.00000000       0.00000000       0.00000000 </v>
   <v>       0.00000000       0.00000000       0.00000000 </v>
   <v>       0.00000000       0.00000000       0.00000000 </v>
   <v>       0.00000000       0.00000000       0.00000000 </v>
   <v>       0.00000000       0.00000000       0.00000000 </v>
   <v>       0.00000000       0.00000000       0.00000000 </v>
   <v>       0.00000000       0.00000000       0.00000000 </v>
   <v>       0.00000000       0.00000000       0.00000000 </v>
   <v>       0.00000000       0.00000000       0.00000000 </v>
   <v>       0.00000000       0.00000000       0.00000000 </v>
   <v>       0.00000000       0.00000000       0.00000000 </v>
   <v>       0.00000000       0.00000000       0.00000000 </v>
   <v>       0.00000000       0.00000000       0.00000000 </v>
   <v>       0.00000000       0.00000000       0.00000000 </v>
   <v>       0.00000000       0.00000000       0.00000000 </v>
   <v>       0.00000000       0.00000000       0.00000000 </v>
   <v>       0.00000000       0.00000000       0.00000000 </v>
   <v>       0.00000000       0.00000000       0.00000000 </v>
   <v>       0.00000000       0.00000000       0.00000000 </v>
   <v>       0.00000000       0.00000000       0.00000000 </v>
   <v>       0.00000000       0.00000000       0.00000000 </v>
   <v>       0.00000000       0.00000000       0.00000000 </v>
   <v>       0.00000000       0.00000000       0.00000000 </v>
   <v>       0.00000000       0.00000000       0.00000000 </v>
   <v>       0.00000000       0.00000000       0.00000000 </v>
   <v>       0.00000000       0.00000000       0.00000000 </v>
   <v>       0.00000000       0.00000000       0.00000000 </v>
   <v>       0.00000000       0.00000000       0.00000000 </v>
   <v>       0.00000000       0.00000000       0.00000000 </v>
   <v>       0.00000000       0.00000000       0.00000000 </v>
   <v>       0.00000000       0.00000000       0.00000000 </v>
   <v>       0.00000000       0.00000000       0.00000000 </v>
   <v>       0.00000000       0.00000000       0.00000000 </v>
   <v>       0.00000000       0.00000000       0.00000000 </v>
   <v>       0.00000000       0.00000000       0.00000000 </v>
   <v>       0.00000000       0.00000000       0.00000000 </v>
   <v>       0.00000000       0.00000000       0.00000000 </v>
   <v>       0.00000000       0.00000000       0.00000000 </v>
   <v>       0.00000000       0.00000000       0.00000000 </v>
   <v>       0.00000000       0.00000000       0.00000000 </v>
   <v>       0.00000000       0.00000000       0.00000000 </v>
   <v>       0.00000000       0.00000000       0.00000000 </v>
   <v>       0.00000000       0.00000000       0.00000000 </v>
   <v>       0.00000000       0.00000000       0.00000000 </v>
   <v>       0.00000000       0.00000000       0.00000000 </v>
   <v>       0.00000000       0.00000000       0.00000000 </v>
   <v>       0.00000000       0.00000000       0.00000000 </v>
   <v>       0.00000000       0.00000000       0.00000000 </v>
   <v>       0.00000000       0.00000000       0.00000000 </v>
   <v>       0.00000000       0.00000000       0.00000000 </v>
   <v>       0.00000000       0.00000000       0.00000000 </v>
   <v>       0.00000000       0.00000000       0.00000000 </v>
   <v>       0.00000000       0.00000000       0.00000000 </v>
   <v>       0.00000000       0.00000000       0.00000000 </v>
   <v>       0.00000000       0.00000000       0.00000000 </v>
   <v>       0.00000000       0.00000000       0.00000000 </v>
   <v>       0.00000000       0.00000000       0.00000000 </v>
   <v>       0.00000000       0.00000000       0.00000000 </v>
   <v>       0.00000000       0.00000000       0.00000000 </v>
   <v>       0.00000000       0.00000000       0.00000000 </v>
   <v>       0.00000000       0.00000000       0.00000000 </v>
   <v>       0.00000000       0.00000000       0.00000000 </v>
   <v>       0.00000000       0.00000000       0.00000000 </v>
   <v>       0.00000000       0.00000000       0.00000000 </v>
   <v>       0.00000000       0.00000000       0.00000000 </v>
   <v>       0.00000000       0.00000000       0.00000000 </v>
   <v>       0.00000000       0.00000000       0.00000000 </v>
   <v>       0.00000000       0.00000000       0.00000000 </v>
   <v>       0.00000000       0.00000000       0.00000000 </v>
   <v>       0.00000000       0.00000000       0.00000000 </v>
   <v>       0.00000000       0.00000000       0.00000000 </v>
   <v>       0.00000000       0.00000000       0.00000000 </v>
   <v>       0.00000000       0.00000000       0.00000000 </v>
   <v>       0.00000000       0.00000000       0.00000000 </v>
   <v>       0.00000000       0.00000000       0.00000000 </v>
   <v>       0.00000000       0.00000000       0.00000000 </v>
   <v>       0.00000000       0.00000000       0.00000000 </v>
   <v>       0.00000000       0.00000000       0.00000000 </v>
   <v>       0.00000000       0.00000000       0.00000000 </v>
   <v>       0.00000000       0.00000000       0.00000000 </v>
   <v>       0.00000000       0.00000000       0.00000000 </v>
   <v>       0.00000000       0.00000000       0.00000000 </v>
   <v>       0.00000000       0.00000000       0.00000000 </v>
   <v>       0.00000000       0.00000000       0.00000000 </v>
   <v>       0.00000000       0.00000000       0.00000000 </v>
   <v>       0.00000000       0.00000000       0.00000000 </v>
   <v>       0.00000000       0.00000000       0.00000000 </v>
   <v>       0.00000000       0.00000000       0.00000000 </v>
   <v>       0.00000000       0.00000000       0.00000000 </v>
   <v>       0.00000000       0.00000000       0.00000000 </v>
   <v>       0.00000000       0.00000000       0.00000000 </v>
   <v>       0.00000000       0.00000000       0.00000000 </v>
   <v>       0.00000000       0.00000000       0.00000000 </v>
   <v>       0.00000000       0.00000000       0.00000000 </v>
   <v>       0.00000000       0.00000000       0.00000000 </v>
   <v>       0.00000000       0.00000000       0.00000000 </v>
  </varray>
 </structure>
 <calculation>
  <scstep>
   <time name="dav">   54.49   54.50</time>
   <time name="total">   55.06   55.08</time>
   <energy>
    <i name="alphaZ">   1736.69897902 </i>
    <i name="ewald"> -28121.47499549 </i>
    <i name="hartreedc"> -31355.38516989 </i>
    <i name="XCdc">   3114.91953136 </i>
    <i name="pawpsdc">  50594.51003143 </i>
    <i name="pawaedc"> -49994.65612350 </i>
    <i name="eentropy">     -0.03710565 </i>
    <i name="bandstr">  -1751.55854222 </i>
    <i name="atom">  64968.54023382 </i>
    <i name="e_fr_energy">   9191.55683888 </i>
    <i name="e_wo_entrp">   9191.59394453 </i>
    <i name="e_0_energy">   9191.57539170 </i>
   </energy>
  </scstep>
  <scstep>
   <time name="dav">   66.06   66.09</time>
   <time name="total">   66.06   66.09</time>
   <energy>
    <i name="e_fr_energy">     50.71379555 </i>
    <i name="e_wo_entrp">     50.71379555 </i>
    <i name="e_0_energy">     50.71379555 </i>
   </energy>
  </scstep>
  <scstep>
   <time name="dav">   65.88   65.89</time>
   <time name="total">   65.88   65.89</time>
   <energy>
    <i name="e_fr_energy">  -1009.43241923 </i>
    <i name="e_wo_entrp">  -1009.43241923 </i>
    <i name="e_0_energy">  -1009.43241923 </i>
   </energy>
  </scstep>
  <scstep>
   <time name="dav">   69.11   69.13</time>
   <time name="total">   69.11   69.13</time>
   <energy>
    <i name="e_fr_energy">  -1057.41349822 </i>
    <i name="e_wo_entrp">  -1057.41349822 </i>
    <i name="e_0_energy">  -1057.41349822 </i>
   </energy>
  </scstep>
  <scstep>
   <time name="dav">   92.43   92.46</time>
   <time name="total">   95.15   95.17</time>
   <energy>
    <i name="e_fr_energy">  -1064.29680473 </i>
    <i name="e_wo_entrp">  -1064.29680473 </i>
    <i name="e_0_energy">  -1064.29680473 </i>
   </energy>
  </scstep>
  <scstep>
   <time name="dav">   65.40   65.40</time>
   <time name="total">   68.85   68.87</time>
   <energy>
    <i name="e_fr_energy">   -895.71667194 </i>
    <i name="e_wo_entrp">   -895.68992974 </i>
    <i name="e_0_energy">   -895.70330084 </i>
   </energy>
  </scstep>
  <scstep>
   <time name="dav">   69.70   69.70</time>
   <time name="total">   73.08   73.10</time>
   <energy>
    <i name="e_fr_energy">   -906.16285172 </i>
    <i name="e_wo_entrp">   -906.16283853 </i>
    <i name="e_0_energy">   -906.16284512 </i>
   </energy>
  </scstep>
  <scstep>
   <time name="dav">   73.88   73.88</time>
   <time name="total">   77.41   77.43</time>
   <energy>
    <i name="e_fr_energy">   -892.58700466 </i>
    <i name="e_wo_entrp">   -892.57584788 </i>
    <i name="e_0_energy">   -892.58142627 </i>
   </energy>
  </scstep>
  <scstep>
   <time name="dav">   71.67   71.67</time>
   <time name="total">   75.07   75.09</time>
   <energy>
    <i name="e_fr_energy">   -888.39633913 </i>
    <i name="e_wo_entrp">   -888.36193802 </i>
    <i name="e_0_energy">   -888.37913857 </i>
   </energy>
  </scstep>
  <scstep>
   <time name="dav">   66.54   66.54</time>
   <time name="total">   70.06   70.09</time>
   <energy>
    <i name="e_fr_energy">   -894.89823157 </i>
    <i name="e_wo_entrp">   -894.89819359 </i>
    <i name="e_0_energy">   -894.89821258 </i>
   </energy>
  </scstep>
  <scstep>
   <time name="dav">   71.61   71.62</time>
   <time name="total">   75.05   75.08</time>
   <energy>
    <i name="e_fr_energy">   -887.07536556 </i>
    <i name="e_wo_entrp">   -887.03434598 </i>
    <i name="e_0_energy">   -887.05485577 </i>
   </energy>
  </scstep>
  <scstep>
   <time name="dav">   68.37   68.37</time>
   <time name="total">   71.72   71.74</time>
   <energy>
    <i name="e_fr_energy">   -886.90900869 </i>
    <i name="e_wo_entrp">   -886.90469649 </i>
    <i name="e_0_energy">   -886.90685259 </i>
   </energy>
  </scstep>
  <scstep>
   <time name="dav">   72.89   72.90</time>
   <time name="total">   76.26   76.28</time>
   <energy>
    <i name="e_fr_energy">   -886.27814163 </i>
    <i name="e_wo_entrp">   -886.24791899 </i>
    <i name="e_0_energy">   -886.26303031 </i>
   </energy>
  </scstep>
  <scstep>
   <time name="dav">   64.00   64.00</time>
   <time name="total">   67.46   67.48</time>
   <energy>
    <i name="e_fr_energy">   -885.96353479 </i>
    <i name="e_wo_entrp">   -885.93797912 </i>
    <i name="e_0_energy">   -885.95075695 </i>
   </energy>
  </scstep>
  <scstep>
   <time name="dav">   69.95   69.95</time>
   <time name="total">   73.47   73.50</time>
   <energy>
    <i name="e_fr_energy">   -886.09855109 </i>
    <i name="e_wo_entrp">   -886.04232236 </i>
    <i name="e_0_energy">   -886.07043672 </i>
   </energy>
  </scstep>
  <scstep>
   <time name="dav">   69.36   69.37</time>
   <time name="total">   72.84   72.86</time>
   <energy>
    <i name="e_fr_energy">   -886.20019379 </i>
    <i name="e_wo_entrp">   -886.16060215 </i>
    <i name="e_0_energy">   -886.18039797 </i>
   </energy>
  </scstep>
  <scstep>
   <time name="dav">   70.82   70.83</time>
   <time name="total">   74.27   74.30</time>
   <energy>
    <i name="e_fr_energy">   -885.96890254 </i>
    <i name="e_wo_entrp">   -885.91329267 </i>
    <i name="e_0_energy">   -885.94109760 </i>
   </energy>
  </scstep>
  <scstep>
   <time name="dav">   67.95   67.95</time>
   <time name="total">   71.38   71.40</time>
   <energy>
    <i name="e_fr_energy">   -885.88831574 </i>
    <i name="e_wo_entrp">   -885.83117920 </i>
    <i name="e_0_energy">   -885.85974747 </i>
   </energy>
  </scstep>
  <scstep>
   <time name="dav">   73.66   73.67</time>
   <time name="total">   77.13   77.15</time>
   <energy>
    <i name="e_fr_energy">   -885.92940183 </i>
    <i name="e_wo_entrp">   -885.87472689 </i>
    <i name="e_0_energy">   -885.90206436 </i>
   </energy>
  </scstep>
  <scstep>
   <time name="dav">   65.11   65.11</time>
   <time name="total">   68.59   68.61</time>
   <energy>
    <i name="e_fr_energy">   -885.88980015 </i>
    <i name="e_wo_entrp">   -885.84400378 </i>
    <i name="e_0_energy">   -885.86690197 </i>
   </energy>
  </scstep>
  <scstep>
   <time name="dav">   70.51   70.52</time>
   <time name="total">   73.90   73.92</time>
   <energy>
    <i name="e_fr_energy">   -885.89019488 </i>
    <i name="e_wo_entrp">   -885.82183107 </i>
    <i name="e_0_energy">   -885.85601297 </i>
   </energy>
  </scstep>
  <scstep>
   <time name="dav">   65.41   65.41</time>
   <time name="total">   68.88   68.90</time>
   <energy>
    <i name="e_fr_energy">   -885.87599086 </i>
    <i name="e_wo_entrp">   -885.80764060 </i>
    <i name="e_0_energy">   -885.84181573 </i>
   </energy>
  </scstep>
  <scstep>
   <time name="dav">   66.08   66.08</time>
   <time name="total">   69.49   69.52</time>
   <energy>
    <i name="e_fr_energy">   -885.88038735 </i>
    <i name="e_wo_entrp">   -885.80480991 </i>
    <i name="e_0_energy">   -885.84259863 </i>
   </energy>
  </scstep>
  <scstep>
   <time name="dav">   70.39   70.40</time>
   <time name="total">   73.81   73.83</time>
   <energy>
    <i name="e_fr_energy">   -885.87960606 </i>
    <i name="e_wo_entrp">   -885.80908355 </i>
    <i name="e_0_energy">   -885.84434480 </i>
   </energy>
  </scstep>
  <scstep>
   <time name="dav">   61.63   61.64</time>
   <time name="total">   65.07   65.10</time>
   <energy>
    <i name="e_fr_energy">   -885.87938726 </i>
    <i name="e_wo_entrp">   -885.81175265 </i>
    <i name="e_0_energy">   -885.84556995 </i>
   </energy>
  </scstep>
  <scstep>
   <time name="dav">   66.09   66.09</time>
   <time name="total">   69.53   69.54</time>
   <energy>
    <i name="e_fr_energy">   -885.88019300 </i>
    <i name="e_wo_entrp">   -885.81074803 </i>
    <i name="e_0_energy">   -885.84547052 </i>
   </energy>
  </scstep>
  <scstep>
   <time name="dav">   64.71   64.71</time>
   <time name="total">   68.10   68.12</time>
   <energy>
    <i name="e_fr_energy">   -885.88114122 </i>
    <i name="e_wo_entrp">   -885.81350666 </i>
    <i name="e_0_energy">   -885.84732394 </i>
   </energy>
  </scstep>
  <scstep>
   <time name="dav">   62.12   62.12</time>
   <time name="total">   65.51   65.53</time>
   <energy>
    <i name="e_fr_energy">   -885.88065732 </i>
    <i name="e_wo_entrp">   -885.81143119 </i>
    <i name="e_0_energy">   -885.84604426 </i>
   </energy>
  </scstep>
  <scstep>
   <time name="dav">   61.60   61.61</time>
   <time name="total">   65.03   65.06</time>
   <energy>
    <i name="e_fr_energy">   -885.88097380 </i>
    <i name="e_wo_entrp">   -885.81224515 </i>
    <i name="e_0_energy">   -885.84660948 </i>
   </energy>
  </scstep>
  <scstep>
   <time name="dav">   62.10   62.11</time>
   <time name="total">   65.51   65.53</time>
   <energy>
    <i name="e_fr_energy">   -885.88083175 </i>
    <i name="e_wo_entrp">   -885.81167980 </i>
    <i name="e_0_energy">   -885.84625577 </i>
   </energy>
  </scstep>
  <scstep>
   <time name="dav">   62.06   62.07</time>
   <time name="total">   65.38   65.40</time>
   <energy>
    <i name="e_fr_energy">   -885.88082386 </i>
    <i name="e_wo_entrp">   -885.81200059 </i>
    <i name="e_0_energy">   -885.84641222 </i>
   </energy>
  </scstep>
  <scstep>
   <time name="dav">   57.77   57.78</time>
   <time name="total">   61.22   61.25</time>
   <energy>
    <i name="e_fr_energy">   -885.88085623 </i>
    <i name="e_wo_entrp">   -885.81182460 </i>
    <i name="e_0_energy">   -885.84634041 </i>
   </energy>
  </scstep>
  <scstep>
   <time name="dav">   54.68   54.68</time>
   <time name="total">   58.09   58.13</time>
   <energy>
    <i name="e_fr_energy">   -885.88085484 </i>
    <i name="e_wo_entrp">   -885.81179264 </i>
    <i name="e_0_energy">   -885.84632374 </i>
   </energy>
  </scstep>
  <scstep>
   <time name="dav">   48.27   48.27</time>
   <time name="total">   48.88   48.90</time>
   <energy>
    <i name="alphaZ">   1736.69897902 </i>
    <i name="ewald"> -28121.47499549 </i>
    <i name="hartreedc"> -33416.19620606 </i>
    <i name="XCdc">   3224.40276780 </i>
    <i name="pawpsdc">  85805.73375852 </i>
    <i name="pawaedc"> -85470.28591219 </i>
    <i name="eentropy">     -0.06901373 </i>
    <i name="bandstr">  -9613.23046696 </i>
    <i name="atom">  64968.54023382 </i>
    <i name="e_fr_energy">   -885.88085527 </i>
    <i name="e_wo_entrp">   -885.81184155 </i>
    <i name="e_0_energy">   -885.84634841 </i>
   </energy>
  </scstep>
  <structure>
   <crystal>
    <varray name="basis" >
     <v>      14.01277600       0.00000000       0.00000000 </v>
     <v>       0.00000000      14.01277600       0.00000000 </v>
     <v>       0.00000000       0.00000000      14.01277600 </v>
    </varray>
    <i name="volume">   2751.51914558 </i>
    <varray name="rec_basis" >
     <v>       0.07136345       0.00000000       0.00000000 </v>
     <v>       0.00000000       0.07136345       0.00000000 </v>
     <v>       0.00000000       0.00000000       0.07136345 </v>
    </varray>
   </crystal>
   <varray name="positions" >
    <v>       0.54098881       0.34912842       0.07556490 </v>
    <v>       0.27221314       0.56996377       0.73050909 </v>
    <v>       0.97819264       0.20822903       0.05700345 </v>
    <v>       0.59981941       0.84265245       0.90318456 </v>
    <v>       0.15002493       0.44325431       0.02728347 </v>
    <v>       0.25248987       0.88732822       0.46981929 </v>
    <v>       0.19611369       0.41302258       0.51362503 </v>
    <v>       0.96596764       0.61484274       0.81605547 </v>
    <v>       0.42014882       0.38648691       0.70896294 </v>
    <v>       0.00064817       0.95136633       0.54370246 </v>
    <v>       0.84482536       0.13545583       0.57358763 </v>
    <v>       0.44656227       0.13239293       0.68548935 </v>
    <v>       0.75295196       0.68207735       0.00224167 </v>
    <v>       0.79504017       0.32941679       0.87367255 </v>
    <v>       0.37575587       0.06920043       0.11835332 </v>
    <v>       0.22682520       0.22527874       0.78725843 </v>
    <v>       0.79603240       0.92874547       0.70181263 </v>
    <v>       0.62081690       0.46915230       0.64068287 </v>
    <v>       0.41868103       0.72830483       0.00865410 </v>
    <v>       0.90435299       0.70598191       0.59515579 </v>
    <v>       0.21512366       0.60712693       0.26641234 </v>
    <v>       0.07699108       0.82660789       0.90486284 </v>
    <v>       0.97394523       0.74500111       0.09579812 </v>
    <v>       0.57090407       0.77623358       0.62755872 </v>
    <v>       0.62089763       0.32637860       0.41176844 </v>
    <v>       0.75173467       0.62202680       0.42995132 </v>
    <v>       0.72392919       0.81201869       0.28497301 </v>
    <v>       0.95520214       0.96768306       0.09822589 </v>
    <v>       0.86861672       0.48680899       0.28951092 </v>
    <v>       0.62633690       0.23140987       0.61358939 </v>
    <v>       0.59053057       0.10479545       0.00440825 </v>
    <v>       0.07916098       0.75339629       0.60514383 </v>
    <v>       0.94516633       0.88011242       0.27629945 </v>
    <v>       0.24755188       0.21986640       0.24994566 </v>
    <v>       0.22335217       0.91847000       0.70651219 </v>
    <v>       0.54853827       0.67239132       0.29736536 </v>
    <v>       0.78446838       0.88228585       0.44263277 </v>
    <v>       0.39430959       0.25625701       0.34460820 </v>
    <v>       0.56932911       0.93209042       0.09802993 </v>
    <v>       0.05571118       0.39185064       0.78812684 </v>
    <v>       0.39450636       0.16403387       0.96526631 </v>
    <v>       0.97164922       0.19493260       0.78310108 </v>
    <v>       0.84766064       0.88563384       0.96178344 </v>
    <v>       0.41805602       0.74117323       0.43595006 </v>
    <v>       0.77994495       0.45658020       0.08016803 </v>
    <v>       0.72322481       0.67023464       0.73584495 </v>
    <v>       0.07629796       0.10423672       0.67620348 </v>
    <v>       0.09341980       0.73523439       0.36986987 </v>
    <v>       0.38298202       0.27320671       0.52944930 </v>
    <v>       0.02753310       0.53013517       0.40603495 </v>
    <v>       0.49011357       0.55260715       0.84375640 </v>
    <v>       0.23307826       0.63913532       0.05310285 </v>
    <v>       0.43759452       0.58618212       0.58285209 </v>
    <v>       0.18940964       0.15982774       0.00858582 </v>
    <v>       0.86467936       0.45961720       0.18227261 </v>
    <v>       0.51151052       0.64351319       0.91257401 </v>
    <v>       0.65069250       0.05188325       0.88505108 </v>
    <v>       0.48791258       0.27761762       0.30713410 </v>
    <v>       0.56304106       0.47056188       0.85434406 </v>
    <v>       0.53507042       0.55600830       0.51874390 </v>
    <v>       0.09603296       0.09840946       0.00059015 </v>
    <v>       0.73937085       0.54465187       0.01541210 </v>
    <v>       0.06735608       0.75310146       0.49053094 </v>
    <v>       0.80067767       0.41635274       0.37478213 </v>
    <v>       0.67663672       0.43259152       0.14056234 </v>
    <v>       0.51086429       0.98979862       0.16708857 </v>
    <v>       0.83214000       0.58124281       0.33535131 </v>
    <v>       0.16014465       0.23901839       0.91639928 </v>
    <v>       0.57898953       0.70465058       0.19226251 </v>
    <v>       0.87628299       0.91597662       0.36217295 </v>
    <v>       0.05702846       0.28489129       0.71323915 </v>
    <v>       0.74803775       0.82215127       0.96874895 </v>
    <v>       0.49393180       0.93839710       0.97206948 </v>
    <v>       0.84766291       0.96639914       0.04868969 </v>
    <v>       0.59201229       0.21952035       0.99864250 </v>
    <v>       0.38522262       0.50595819       0.82000251 </v>
    <v>       0.34355440       0.27309741       0.64915297 </v>
    <v>       0.31182846       0.32375336       0.28209695 </v>
    <v>       0.92690129       0.90491882       0.87509908 </v>
    <v>       0.05485704       0.40274849       0.90566231 </v>
    <v>       0.82092875       0.61987624       0.73076907 </v>
    <v>       0.97674994       0.07238131       0.60197340 </v>
    <v>       0.34144472       0.50721509       0.60336473 </v>
    <v>       0.06998662       0.13352504       0.78998366 </v>
    <v>       0.19841431       0.79984710       0.63977055 </v>
    <v>       0.93982247       0.68943203       0.96043700 </v>
    <v>       0.45071555       0.60908644       0.69829193 </v>
    <v>       0.80797622       0.94772512       0.54153029 </v>
    <v>       0.13196175       0.49930780       0.39394115 </v>
    <v>       0.03413547       0.83950172       0.32954364 </v>
    <v>       0.12099021       0.97761616       0.68704316 </v>
    <v>       0.04618966       0.69008971       0.70250139 </v>
    <v>       0.42938810       0.70452525       0.55445861 </v>
    <v>       0.62871810       0.12092911       0.64111851 </v>
    <v>       0.82591895       0.38910395       0.99756891 </v>
    <v>       0.73819490       0.74107014       0.60688925 </v>
    <v>       0.70415770       0.29067644       0.55943198 </v>
    <v>       0.14368528       0.58207003       0.09692239 </v>
    <v>       0.65680601       0.75104344       0.77923389 </v>
    <v>       0.65606056       0.60680511       0.67659366 </v>
    <v>       0.47378181       0.19658469       0.49000751 </v>
    <v>       0.19741110       0.72083388       0.34633611 </v>
    <v>       0.04847376       0.93329881       0.04420735 </v>
    <v>       0.95163845       0.43870399       0.78222770 </v>
    <v>       0.28381126       0.09346665       0.96060271 </v>
    <v>       0.80312162       0.76803724       0.43113210 </v>
    <v>       0.41357541       0.66214085       0.35376309 </v>
    <v>       0.17132049       0.14848443       0.64245889 </v>
    <v>       0.47162204       0.08832724       0.99953368 </v>
    <v>       0.38770178       0.84805521       0.46930040 </v>
    <v>       0.38380833       0.20933179       0.84171707 </v>
    <v>       0.34813643       0.37550625       0.47897199 </v>
    <v>       0.30387413       0.61416219       0.96222123 </v>
    <v>       0.86769261       0.79064180       0.19840867 </v>
    <v>       0.91706490       0.22135052       0.89007161 </v>
    <v>       0.17548574       0.71121245       0.95958391 </v>
    <v>       0.22439729       0.20180547       0.13091775 </v>
    <v>       0.70617783       0.94984905       0.36101550 </v>
    <v>       0.85122273       0.18290795       0.72797581 </v>
    <v>       0.98090703       0.58717216       0.51605043 </v>
    <v>       0.34115773       0.13731260       0.27214017 </v>
    <v>       0.20895318       0.88921123       0.81836510 </v>
    <v>       0.64320657       0.00827378       0.04784146 </v>
    <v>       0.99561995       0.97549904       0.19917449 </v>
    <v>       0.58220307       0.72742104       0.39025671 </v>
    <v>       0.96663158       0.43727805       0.35507639 </v>
    <v>       0.41210717       0.26274449       0.06033587 </v>
    <v>       0.99574693       0.83155765       0.61943710 </v>
    <v>       0.31976888       0.97449877       0.65454545 </v>
    <v>       0.30254311       0.69606734       0.14430391 </v>
    <v>       0.15677028       0.44542346       0.73113751 </v>
    <v>       0.03209625       0.63394342       0.32879600 </v>
    <v>       0.17872652       0.19963820       0.32938485 </v>
    <v>       0.57235141       0.30202498       0.67377540 </v>
    <v>       0.62720087       0.83143358       0.11166489 </v>
   </varray>
  </structure>
  <varray name="forces" >
   <v>       0.76816740      -0.10384619      -0.02443487 </v>
   <v>      -0.61933805       0.18585738       1.29761644 </v>
   <v>       0.28220080      -0.08951376      -2.83503102 </v>
   <v>      -0.11987094       1.34862392       0.42704633 </v>
   <v>      -0.41467293      -0.93586166      -1.85165576 </v>
   <v>      -0.95047049       0.72108450       1.54074140 </v>
   <v>       0.20137296       0.23039808       0.41898474 </v>
   <v>      -0.46439462      -1.62249552       0.14851915 </v>
   <v>       0.57669684       1.44291336       2.31225667 </v>
   <v>       0.76848611      -2.10974520      -2.95805297 </v>
   <v>      -1.58304442       1.42251555       0.50845092 </v>
   <v>      -0.43838450      -0.61713001       0.89166178 </v>
   <v>       0.35154972      -0.85887855       0.66713446 </v>
   <v>       0.66090971      -0.83367181      -1.53582765 </v>
   <v>       0.02432857      -1.14127743       3.46929638 </v>
   <v>       0.13025262      -0.21525954      -1.81635943 </v>
   <v>       0.12924174      -0.58773234      -0.05325625 </v>
   <v>       0.38108568       0.38026249       0.19518374 </v>
   <v>      -0.78557071      -0.43868052       0.45981955 </v>
   <v>      -2.56004717      -1.69206848      -0.24215720 </v>
   <v>       0.91977713      -2.59374024      -1.87796912 </v>
   <v>       1.69606248       0.87616260      -0.80395835 </v>
   <v>       1.70380413      -1.62636446      -0.21618373 </v>
   <v>       1.11564596      -2.14952238       0.11033092 </v>
   <v>       0.69892174       0.13635976      -1.32513657 </v>
   <v>      -3.12937238       0.37799410       4.01229118 </v>
   <v>      -1.34636921       0.12519321      -2.41143129 </v>
   <v>       1.13531970      -0.20734578      -4.78640402 </v>
   <v>      -1.46169375      -5.06460859       6.01347279 </v>
   <v>       1.77789668      -3.78058731      -0.57437641 </v>
   <v>       2.01142601      -1.13979854      -5.24151298 </v>
   <v>       3.88473771       1.51392865       5.83271473 </v>
   <v>      -3.82722201       0.26867153      -1.67288870 </v>
   <v>       3.22072270      -0.63616960      -1.60686556 </v>
   <v>       0.01124518       0.13598822       0.92145756 </v>
   <v>      -2.06801606      -0.49270750      -0.89704281 </v>
   <v>      -0.45005063       4.39283323      -1.41267919 </v>
   <v>      -8.07304184      -2.37015734      -0.41169315 </v>
   <v>       0.38384292      -2.20840712      -4.28302708 </v>
   <v>       1.57702264       0.64466416      -2.00930892 </v>
   <v>      -1.67149188       6.41266557      -4.04108488 </v>
   <v>      -4.77786079       4.12314085       2.00119126 </v>
   <v>      -0.53507375      -0.66275726      -2.74770191 </v>
   <v>       1.75264159       0.29615856       2.93137650 </v>
   <v>      -3.00474152      -0.51540464       1.44354288 </v>
   <v>      -0.29916883       2.07681530      -4.55469658 </v>
   <v>       2.59325533      -4.96205314      -1.81406560 </v>
   <v>      -7.54817594      -0.91169328       1.94983890 </v>
   <v>      -0.66579548      -0.15862921      -0.50687783 </v>
   <v>      -4.99093844       2.87639505       1.84032897 </v>
   <v>      -2.19955935       1.14549878      -0.16227910 </v>
   <v>       1.02286441       5.44701893      -2.86143342 </v>
   <v>       0.92817320      -1.40740709       1.35718238 </v>
   <v>       0.91325188       1.63345687      -1.95340970 </v>
   <v>      -0.27236305       0.08699451      -4.11448991 </v>
   <v>      -0.39157784       0.91211358      -0.42343031 </v>
   <v>      -1.14333757       0.85642748       1.07837136 </v>
   <v>       8.84757702       2.25173605      -1.50220329 </v>
   <v>       1.91758811      -1.81575702      -1.33054652 </v>
   <v>      -1.43804090      -1.40181737       1.42390258 </v>
   <v>      -2.34165253       0.29077370       2.33791834 </v>
   <v>       1.08096833      -1.17956522       0.77268040 </v>
   <v>       1.88213240      -0.21106391      -3.66987478 </v>
   <v>      -1.80811746      -0.13417419      -1.34984355 </v>
   <v>       1.13563895      -1.07150382      -0.87016003 </v>
   <v>      -3.32332926       1.61018375       3.14287881 </v>
   <v>       2.54686954       2.08047051      -4.02965256 </v>
   <v>       1.27419273       0.04765155       4.57482362 </v>
   <v>      -0.52569536      -1.17614882       1.43762626 </v>
   <v>       1.64509810       0.57129388      -0.34470823 </v>
   <v>      -2.53545706       0.87889211       3.15267900 </v>
   <v>       2.63925786       3.98927747      -1.72831998 </v>
   <v>       1.01037991      -4.92014405       2.05127096 </v>
   <v>       1.02628951       0.27767604       0.98024440 </v>
   <v>       1.73253164      -0.66131382       0.82569611 </v>
   <v>      -0.32778262      -0.73571709       0.39154122 </v>
   <v>       1.24996418      -1.67059630      -3.46229071 </v>
   <v>      -0.31508282      -1.55338441      -0.22449031 </v>
   <v>      -2.98464034      -0.64355844       1.17140046 </v>
   <v>       2.12665723       0.02320158       1.37067027 </v>
   <v>       3.76943359       0.13829765       2.15302536 </v>
   <v>       1.70946486       3.99629145       3.28428843 </v>
   <v>       1.01846088       1.39044023      -1.58013860 </v>
   <v>      -2.21155061      -2.37347029       0.40850338 </v>
   <v>      -1.63817846       0.52226874      -2.03741166 </v>
   <v>      -0.83579509       1.19754216       0.15719633 </v>
   <v>       1.61823070       0.39823318       0.21014886 </v>
   <v>       0.52827227      -0.35942981       0.29783609 </v>
   <v>       4.47181662      -1.07533880       1.00845046 </v>
   <v>       3.99088833      -2.91541823       0.90739737 </v>
   <v>      -1.65737048       1.47158467      -1.82349137 </v>
   <v>       0.91325852      -0.55695213      -1.96043833 </v>
   <v>      -0.68062999      -0.37037754      -2.69777783 </v>
   <v>      -0.44413458       0.35640350      -0.44921436 </v>
   <v>       0.84136787      -0.48179180       2.56177909 </v>
   <v>       0.11737527       1.61130575       1.74911974 </v>
   <v>       1.01175213       0.13151883      -2.46740830 </v>
   <v>      -0.00932379      -1.37433148       1.57269938 </v>
   <v>      -0.26691876       2.32227226       1.77556562 </v>
[...]
       <r>     0.1901    52.0112   826.4111 </r>
       <r>     0.3640    58.7066   836.6202 </r>
       <r>     0.5379    37.8877   843.2089 </r>
       <r>     0.7118    16.4448   846.0687 </r>
       <r>     0.8857    35.9169   852.3146 </r>
       <r>     1.0596    73.6446   865.1215 </r>
       <r>     1.2335    27.8584   869.9660 </r>
       <r>     1.4074     0.1952   870.0000 </r>
       <r>     1.5813     0.0000   870.0000 </r>
       <r>     1.7552     0.0159   870.0028 </r>
       <r>     1.9291    11.0965   871.9325 </r>
       <r>     2.1030     5.7408   872.9308 </r>
       <r>     2.2769     7.0413   874.1553 </r>
       <r>     2.4508    17.0650   877.1229 </r>
       <r>     2.6247    15.6061   879.8368 </r>
       <r>     2.7986     7.4068   881.1248 </r>
       <r>     2.9725    20.9582   884.7695 </r>
       <r>     3.1464    29.9930   889.9853 </r>
       <r>     3.3203    39.0470   896.7756 </r>
       <r>     3.4942    36.1677   903.0652 </r>
       <r>     3.6681    39.1489   909.8732 </r>
       <r>     3.8420    60.4393   920.3836 </r>
       <r>     4.0159    53.7981   929.7391 </r>
       <r>     4.1898    53.4444   939.0331 </r>
       <r>     4.3637    66.7082   950.6337 </r>
       <r>     4.5376    71.4119   963.0523 </r>
       <r>     4.7115    76.7903   976.4062 </r>
       <r>     4.8854    95.5934   993.0299 </r>
       <r>     5.0593    81.5895  1007.2184 </r>
       <r>     5.2332    88.2781  1022.5700 </r>
       <r>     5.4071    80.5557  1036.5787 </r>
       <r>     5.5810    19.6714  1039.9996 </r>
       <r>     5.7549     0.0025  1040.0000 </r>
       <r>     5.9288     0.0000  1040.0000 </r>
       <r>     6.1027     0.0000  1040.0000 </r>
       <r>     6.2766     0.0000  1040.0000 </r>
       <r>     6.4505     0.0000  1040.0000 </r>
       <r>     6.6244     0.0000  1040.0000 </r>
       <r>     6.7983     0.0000  1040.0000 </r>
       <r>     6.9722     0.0000  1040.0000 </r>
       <r>     7.1461     0.0000  1040.0000 </r>
       <r>     7.3200     0.0000  1040.0000 </r>
       <r>     7.4939     0.0000  1040.0000 </r>
       <r>     7.6678     0.0000  1040.0000 </r>
       <r>     7.8417     0.0000  1040.0000 </r>
      </set>
     </set>
    </array>
   </total>
  </dos>
 </calculation>
 <structure name="finalpos" >
  <crystal>
   <varray name="basis" >
    <v>      14.01277600       0.00000000       0.00000000 </v>
    <v>       0.00000000      14.01277600       0.00000000 </v>
    <v>       0.00000000       0.00000000      14.01277600 </v>
   </varray>
   <i name="volume">   2751.51914558 </i>
   <varray name="rec_basis" >
    <v>       0.07136345       0.00000000       0.00000000 </v>
    <v>       0.00000000       0.07136345       0.00000000 </v>
    <v>       0.00000000       0.00000000       0.07136345 </v>
   </varray>
  </crystal>
  <varray name="positions" >
   <v>       0.54098881       0.34912842       0.07556490 </v>
   <v>       0.27221314       0.56996377       0.73050909 </v>
   <v>       0.97819264       0.20822903       0.05700345 </v>
   <v>       0.59981941       0.84265245       0.90318456 </v>
   <v>       0.15002493       0.44325431       0.02728347 </v>
   <v>       0.25248987       0.88732822       0.46981929 </v>
   <v>       0.19611369       0.41302258       0.51362503 </v>
   <v>       0.96596764       0.61484274       0.81605547 </v>
   <v>       0.42014882       0.38648691       0.70896294 </v>
   <v>       0.00064817       0.95136633       0.54370246 </v>
   <v>       0.84482536       0.13545583       0.57358763 </v>
   <v>       0.44656227       0.13239293       0.68548935 </v>
   <v>       0.75295196       0.68207735       0.00224167 </v>
   <v>       0.79504017       0.32941679       0.87367255 </v>
   <v>       0.37575587       0.06920043       0.11835332 </v>
   <v>       0.22682520       0.22527874       0.78725843 </v>
   <v>       0.79603240       0.92874547       0.70181263 </v>
   <v>       0.62081690       0.46915230       0.64068287 </v>
   <v>       0.41868103       0.72830483       0.00865410 </v>
   <v>       0.90435299       0.70598191       0.59515579 </v>
   <v>       0.21512366       0.60712693       0.26641234 </v>
   <v>       0.07699108       0.82660789       0.90486284 </v>
   <v>       0.97394523       0.74500111       0.09579812 </v>
   <v>       0.57090407       0.77623358       0.62755872 </v>
   <v>       0.62089763       0.32637860       0.41176844 </v>
   <v>       0.75173467       0.62202680       0.42995132 </v>
   <v>       0.72392919       0.81201869       0.28497301 </v>
   <v>       0.95520214       0.96768306       0.09822589 </v>
   <v>       0.86861672       0.48680899       0.28951092 </v>
   <v>       0.62633690       0.23140987       0.61358939 </v>
   <v>       0.59053057       0.10479545       0.00440825 </v>
   <v>       0.07916098       0.75339629       0.60514383 </v>
   <v>       0.94516633       0.88011242       0.27629945 </v>
   <v>       0.24755188       0.21986640       0.24994566 </v>
   <v>       0.22335217       0.91847000       0.70651219 </v>
   <v>       0.54853827       0.67239132       0.29736536 </v>
   <v>       0.78446838       0.88228585       0.44263277 </v>
   <v>       0.39430959       0.25625701       0.34460820 </v>
   <v>       0.56932911       0.93209042       0.09802993 </v>
   <v>       0.05571118       0.39185064       0.78812684 </v>
   <v>       0.39450636       0.16403387       0.96526631 </v>
   <v>       0.97164922       0.19493260       0.78310108 </v>
   <v>       0.84766064       0.88563384       0.96178344 </v>
   <v>       0.41805602       0.74117323       0.43595006 </v>
   <v>       0.77994495       0.45658020       0.08016803 </v>
   <v>       0.72322481       0.67023464       0.73584495 </v>
   <v>       0.07629796       0.10423672       0.67620348 </v>
   <v>       0.09341980       0.73523439       0.36986987 </v>
   <v>       0.38298202       0.27320671       0.52944930 </v>
   <v>       0.02753310       0.53013517       0.40603495 </v>
   <v>       0.49011357       0.55260715       0.84375640 </v>
   <v>       0.23307826       0.63913532       0.05310285 </v>
   <v>       0.43759452       0.58618212       0.58285209 </v>
   <v>       0.18940964       0.15982774       0.00858582 </v>
   <v>       0.86467936       0.45961720       0.18227261 </v>
   <v>       0.51151052       0.64351319       0.91257401 </v>
   <v>       0.65069250       0.05188325       0.88505108 </v>
   <v>       0.48791258       0.27761762       0.30713410 </v>
   <v>       0.56304106       0.47056188       0.85434406 </v>
   <v>       0.53507042       0.55600830       0.51874390 </v>
   <v>       0.09603296       0.09840946       0.00059015 </v>
   <v>       0.73937085       0.54465187       0.01541210 </v>
   <v>       0.06735608       0.75310146       0.49053094 </v>
   <v>       0.80067767       0.41635274       0.37478213 </v>
   <v>       0.67663672       0.43259152       0.14056234 </v>
   <v>       0.51086429       0.98979862       0.16708857 </v>
   <v>       0.83214000       0.58124281       0.33535131 </v>
   <v>       0.16014465       0.23901839       0.91639928 </v>
   <v>       0.57898953       0.70465058       0.19226251 </v>
   <v>       0.87628299       0.91597662       0.36217295 </v>
   <v>       0.05702846       0.28489129       0.71323915 </v>
   <v>       0.74803775       0.82215127       0.96874895 </v>
   <v>       0.49393180       0.93839710       0.97206948 </v>
   <v>       0.84766291       0.96639914       0.04868969 </v>
   <v>       0.59201229       0.21952035       0.99864250 </v>
   <v>       0.38522262       0.50595819       0.82000251 </v>
   <v>       0.34355440       0.27309741       0.64915297 </v>
   <v>       0.31182846       0.32375336       0.28209695 </v>
   <v>       0.92690129       0.90491882       0.87509908 </v>
   <v>       0.05485704       0.40274849       0.90566231 </v>
   <v>       0.82092875       0.61987624       0.73076907 </v>
   <v>       0.97674994       0.07238131       0.60197340 </v>
   <v>       0.34144472       0.50721509       0.60336473 </v>
   <v>       0.06998662       0.13352504       0.78998366 </v>
   <v>       0.19841431       0.79984710       0.63977055 </v>
   <v>       0.93982247       0.68943203       0.96043700 </v>
   <v>       0.45071555       0.60908644       0.69829193 </v>
   <v>       0.80797622       0.94772512       0.54153029 </v>
   <v>       0.13196175       0.49930780       0.39394115 </v>
   <v>       0.03413547       0.83950172       0.32954364 </v>
   <v>       0.12099021       0.97761616       0.68704316 </v>
   <v>       0.04618966       0.69008971       0.70250139 </v>
   <v>       0.42938810       0.70452525       0.55445861 </v>
   <v>       0.62871810       0.12092911       0.64111851 </v>
   <v>       0.82591895       0.38910395       0.99756891 </v>
   <v>       0.73819490       0.74107014       0.60688925 </v>
   <v>       0.70415770       0.29067644       0.55943198 </v>
   <v>       0.14368528       0.58207003       0.09692239 </v>
   <v>       0.65680601       0.75104344       0.77923389 </v>
   <v>       0.65606056       0.60680511       0.67659366 </v>
   <v>       0.47378181       0.19658469       0.49000751 </v>
   <v>       0.19741110       0.72083388       0.34633611 </v>
   <v>       0.04847376       0.93329881       0.04420735 </v>
   <v>       0.95163845       0.43870399       0.78222770 </v>
   <v>       0.28381126       0.09346665       0.96060271 </v>
   <v>       0.80312162       0.76803724       0.43113210 </v>
   <v>       0.41357541       0.66214085       0.35376309 </v>
   <v>       0.17132049       0.14848443       0.64245889 </v>
   <v>       0.47162204       0.08832724       0.99953368 </v>
   <v>       0.38770178       0.84805521       0.46930040 </v>
   <v>       0.38380833       0.20933179       0.84171707 </v>
   <v>       0.34813643       0.37550625       0.47897199 </v>
   <v>       0.30387413       0.61416219       0.96222123 </v>
   <v>       0.86769261       0.79064180       0.19840867 </v>
   <v>       0.91706490       0.22135052       0.89007161 </v>
   <v>       0.17548574       0.71121245       0.95958391 </v>
   <v>       0.22439729       0.20180547       0.13091775 </v>
   <v>       0.70617783       0.94984905       0.36101550 </v>
   <v>       0.85122273       0.18290795       0.72797581 </v>
   <v>       0.98090703       0.58717216       0.51605043 </v>
   <v>       0.34115773       0.13731260       0.27214017 </v>
   <v>       0.20895318       0.88921123       0.81836510 </v>
   <v>       0.64320657       0.00827378       0.04784146 </v>
   <v>       0.99561995       0.97549904       0.19917449 </v>
   <v>       0.58220307       0.72742104       0.39025671 </v>
   <v>       0.96663158       0.43727805       0.35507639 </v>
   <v>       0.41210717       0.26274449       0.06033587 </v>
   <v>       0.99574693       0.83155765       0.61943710 </v>
   <v>       0.31976888       0.97449877       0.65454545 </v>
   <v>       0.30254311       0.69606734       0.14430391 </v>
   <v>       0.15677028       0.44542346       0.73113751 </v>
   <v>       0.03209625       0.63394342       0.32879600 </v>
   <v>       0.17872652       0.19963820       0.32938485 </v>
   <v>       0.57235141       0.30202498       0.67377540 </v>
   <v>       0.62720087       0.83143358       0.11166489 </v>
  </varray>
  <varray name="velocities" >
   <v>       0.00000000       0.00000000       0.00000000 </v>
   <v>       0.00000000       0.00000000       0.00000000 </v>
   <v>       0.00000000       0.00000000       0.00000000 </v>
   <v>       0.00000000       0.00000000       0.00000000 </v>
   <v>       0.00000000       0.00000000       0.00000000 </v>
   <v>       0.00000000       0.00000000       0.00000000 </v>
   <v>       0.00000000       0.00000000       0.00000000 </v>
   <v>       0.00000000       0.00000000       0.00000000 </v>
   <v>       0.00000000       0.00000000       0.00000000 </v>
   <v>       0.00000000       0.00000000       0.00000000 </v>
   <v>       0.00000000       0.00000000       0.00000000 </v>
   <v>       0.00000000       0.00000000       0.00000000 </v>
   <v>       0.00000000       0.00000000       0.00000000 </v>
   <v>       0.00000000       0.00000000       0.00000000 </v>
   <v>       0.00000000       0.00000000       0.00000000 </v>
   <v>       0.00000000       0.00000000       0.00000000 </v>
   <v>       0.00000000       0.00000000       0.00000000 </v>
   <v>       0.00000000       0.00000000       0.00000000 </v>
   <v>       0.00000000       0.00000000       0.00000000 </v>
   <v>       0.00000000       0.00000000       0.00000000 </v>
   <v>       0.00000000       0.00000000       0.00000000 </v>
   <v>       0.00000000       0.00000000       0.00000000 </v>
   <v>       0.00000000       0.00000000       0.00000000 </v>
   <v>       0.00000000       0.00000000       0.00000000 </v>
   <v>       0.00000000       0.00000000       0.00000000 </v>
   <v>       0.00000000       0.00000000       0.00000000 </v>
   <v>       0.00000000       0.00000000       0.00000000 </v>
   <v>       0.00000000       0.00000000       0.00000000 </v>
   <v>       0.00000000       0.00000000       0.00000000 </v>
   <v>       0.00000000       0.00000000       0.00000000 </v>
   <v>       0.00000000       0.00000000       0.00000000 </v>
   <v>       0.00000000       0.00000000       0.00000000 </v>
   <v>       0.00000000       0.00000000       0.00000000 </v>
   <v>       0.00000000       0.00000000       0.00000000 </v>
   <v>       0.00000000       0.00000000       0.00000000 </v>
   <v>       0.00000000       0.00000000       0.00000000 </v>
   <v>       0.00000000       0.00000000       0.00000000 </v>
   <v>       0.00000000       0.00000000       0.00000000 </v>
   <v>       0.00000000       0.00000000       0.00000000 </v>
   <v>       0.00000000       0.00000000       0.00000000 </v>
   <v>       0.00000000       0.00000000       0.00000000 </v>
   <v>       0.00000000       0.00000000       0.00000000 </v>
   <v>       0.00000000       0.00000000       0.00000000 </v>
   <v>       0.00000000       0.00000000       0.00000000 </v>
   <v>       0.00000000       0.00000000       0.00000000 </v>
   <v>       0.00000000       0.00000000       0.00000000 </v>
   <v>       0.00000000       0.00000000       0.00000000 </v>
   <v>       0.00000000       0.00000000       0.00000000 </v>
   <v>       0.00000000       0.00000000       0.00000000 </v>
   <v>       0.00000000       0.00000000       0.00000000 </v>
   <v>       0.00000000       0.00000000       0.00000000 </v>
   <v>       0.00000000       0.00000000       0.00000000 </v>
   <v>       0.00000000       0.00000000       0.00000000 </v>
   <v>       0.00000000       0.00000000       0.00000000 </v>
   <v>       0.00000000       0.00000000       0.00000000 </v>
   <v>       0.00000000       0.00000000       0.00000000 </v>
   <v>       0.00000000       0.00000000       0.00000000 </v>
   <v>       0.00000000       0.00000000       0.00000000 </v>
   <v>       0.00000000       0.00000000       0.00000000 </v>
   <v>       0.00000000       0.00000000       0.00000000 </v>
   <v>       0.00000000       0.00000000       0.00000000 </v>
   <v>       0.00000000       0.00000000       0.00000000 </v>
   <v>       0.00000000       0.00000000       0.00000000 </v>
   <v>       0.00000000       0.00000000       0.00000000 </v>
   <v>       0.00000000       0.00000000       0.00000000 </v>
   <v>       0.00000000       0.00000000       0.00000000 </v>
   <v>       0.00000000       0.00000000       0.00000000 </v>
   <v>       0.00000000       0.00000000       0.00000000 </v>
   <v>       0.00000000       0.00000000       0.00000000 </v>
   <v>       0.00000000       0.00000000       0.00000000 </v>
   <v>       0.00000000       0.00000000       0.00000000 </v>
   <v>       0.00000000       0.00000000       0.00000000 </v>
   <v>       0.00000000       0.00000000       0.00000000 </v>
   <v>       0.00000000       0.00000000       0.00000000 </v>
   <v>       0.00000000       0.00000000       0.00000000 </v>
   <v>       0.00000000       0.00000000       0.00000000 </v>
   <v>       0.00000000       0.00000000       0.00000000 </v>
   <v>       0.00000000       0.00000000       0.00000000 </v>
   <v>       0.00000000       0.00000000       0.00000000 </v>
   <v>       0.00000000       0.00000000       0.00000000 </v>
   <v>       0.00000000       0.00000000       0.00000000 </v>
   <v>       0.00000000       0.00000000       0.00000000 </v>
   <v>       0.00000000       0.00000000       0.00000000 </v>
   <v>       0.00000000       0.00000000       0.00000000 </v>
   <v>       0.00000000       0.00000000       0.00000000 </v>
   <v>       0.00000000       0.00000000       0.00000000 </v>
   <v>       0.00000000       0.00000000       0.00000000 </v>
   <v>       0.00000000       0.00000000       0.00000000 </v>
   <v>       0.00000000       0.00000000       0.00000000 </v>
   <v>       0.00000000       0.00000000       0.00000000 </v>
   <v>       0.00000000       0.00000000       0.00000000 </v>
   <v>       0.00000000       0.00000000       0.00000000 </v>
   <v>       0.00000000       0.00000000       0.00000000 </v>
   <v>       0.00000000       0.00000000       0.00000000 </v>
   <v>       0.00000000       0.00000000       0.00000000 </v>
   <v>       0.00000000       0.00000000       0.00000000 </v>
   <v>       0.00000000       0.00000000       0.00000000 </v>
   <v>       0.00000000       0.00000000       0.00000000 </v>
   <v>       0.00000000       0.00000000       0.00000000 </v>
   <v>       0.00000000       0.00000000       0.00000000 </v>
   <v>       0.00000000       0.00000000       0.00000000 </v>
   <v>       0.00000000       0.00000000       0.00000000 </v>
   <v>       0.00000000       0.00000000       0.00000000 </v>
   <v>       0.00000000       0.00000000       0.00000000 </v>
   <v>       0.00000000       0.00000000       0.00000000 </v>
   <v>       0.00000000       0.00000000       0.00000000 </v>
   <v>       0.00000000       0.00000000       0.00000000 </v>
   <v>       0.00000000       0.00000000       0.00000000 </v>
   <v>       0.00000000       0.00000000       0.00000000 </v>
   <v>       0.00000000       0.00000000       0.00000000 </v>
   <v>       0.00000000       0.00000000       0.00000000 </v>
   <v>       0.00000000       0.00000000       0.00000000 </v>
   <v>       0.00000000       0.00000000       0.00000000 </v>
   <v>       0.00000000       0.00000000       0.00000000 </v>
   <v>       0.00000000       0.00000000       0.00000000 </v>
   <v>       0.00000000       0.00000000       0.00000000 </v>
   <v>       0.00000000       0.00000000       0.00000000 </v>
   <v>       0.00000000       0.00000000       0.00000000 </v>
   <v>       0.00000000       0.00000000       0.00000000 </v>
   <v>       0.00000000       0.00000000       0.00000000 </v>
   <v>       0.00000000       0.00000000       0.00000000 </v>
   <v>       0.00000000       0.00000000       0.00000000 </v>
   <v>       0.00000000       0.00000000       0.00000000 </v>
   <v>       0.00000000       0.00000000       0.00000000 </v>
   <v>       0.00000000       0.00000000       0.00000000 </v>
   <v>       0.00000000       0.00000000       0.00000000 </v>
   <v>       0.00000000       0.00000000       0.00000000 </v>
   <v>       0.00000000       0.00000000       0.00000000 </v>
   <v>       0.00000000       0.00000000       0.00000000 </v>
   <v>       0.00000000       0.00000000       0.00000000 </v>
   <v>       0.00000000       0.00000000       0.00000000 </v>
   <v>       0.00000000       0.00000000       0.00000000 </v>
   <v>       0.00000000       0.00000000       0.00000000 </v>
   <v>       0.00000000       0.00000000       0.00000000 </v>
   <v>       0.00000000       0.00000000       0.00000000 </v>
  </varray>
 </structure>
</modeling>
