 running on   52 total cores
 distrk:  each k-point on   52 cores,    1 groups
 distr:  one band on   13 cores,    4 groups
 using from now: INCAR     
 vasp.5.4.4.18Apr17-6-g9f103f2a35 (build Oct 31 2019 15:01:46) complex          
  
 POSCAR found type information on POSCAR  Ca Si O 
 POSCAR found :  3 types and     135 ions
 scaLAPACK is switched off
 LDA part: xc-table for Pade appr. of Perdew
 generate k-points for:    2    2    2
 POSCAR, INCAR and KPOINTS ok, starting setup
 FFT: planning ...
 WAVECAR not read
 entering main loop
       N       E                     dE             d eps       ncg     rms          rms(c)
DAV:   1     0.947297397737E+04    0.94730E+04   -0.47743E+05  8320   0.181E+03
DAV:   2     0.869988800611E+02   -0.93860E+04   -0.90713E+04  9936   0.483E+02
DAV:   3    -0.967080009544E+03   -0.10541E+04   -0.10420E+04 10248   0.162E+02
DAV:   4    -0.102005738603E+04   -0.52977E+02   -0.52751E+02 11376   0.329E+01
DAV:   5    -0.102554746868E+04   -0.54901E+01   -0.54870E+01 14240   0.776E+00    0.827E+01
DAV:   6    -0.877085215892E+03    0.14846E+03   -0.72037E+02 10184   0.427E+01    0.396E+01
DAV:   7    -0.881536667747E+03   -0.44515E+01   -0.10771E+02 10872   0.196E+01    0.269E+01
DAV:   8    -0.876531044188E+03    0.50056E+01   -0.30448E+01 11960   0.125E+01    0.168E+01
DAV:   9    -0.875008250268E+03    0.15228E+01   -0.17424E+01 11040   0.829E+00    0.144E+01
DAV:  10    -0.873954070681E+03    0.10542E+01   -0.98408E+00 11288   0.558E+00    0.882E+00
DAV:  11    -0.873749383364E+03    0.20469E+00   -0.27029E+00 11440   0.374E+00    0.896E+00
DAV:  12    -0.873824805524E+03   -0.75422E-01   -0.67597E+00 11472   0.255E+00    0.934E+00
DAV:  13    -0.873125678943E+03    0.69913E+00   -0.75906E-01 11728   0.178E+00    0.435E+00
DAV:  14    -0.873098214548E+03    0.27464E-01   -0.10376E+00 11040   0.126E+00    0.465E+00
DAV:  15    -0.873071157018E+03    0.27058E-01   -0.28137E-01 10680   0.976E-01    0.510E+00
DAV:  16    -0.873136939763E+03   -0.65783E-01   -0.10776E+00 11472   0.982E-01    0.436E+00
DAV:  17    -0.873046447638E+03    0.90492E-01   -0.27894E-01 10776   0.557E-01    0.296E+00
DAV:  18    -0.873010529408E+03    0.35918E-01   -0.15045E-01 11392   0.523E-01    0.142E+00
DAV:  19    -0.873016992219E+03   -0.64628E-02   -0.10486E-01 10696   0.379E-01    0.183E+00
DAV:  20    -0.873007905231E+03    0.90870E-02   -0.78532E-02 10664   0.255E-01    0.708E-01
DAV:  21    -0.873012020792E+03   -0.41156E-02   -0.29063E-02 10696   0.203E-01    0.114E+00
DAV:  22    -0.873008385226E+03    0.36356E-02   -0.15301E-02 10392   0.130E-01    0.249E-01
DAV:  23    -0.873008752132E+03   -0.36691E-03   -0.31464E-03 10944   0.750E-02    0.191E-01
DAV:  24    -0.873008822535E+03   -0.70403E-04   -0.91709E-04 10152   0.473E-02    0.957E-02
DAV:  25    -0.873009138558E+03   -0.31602E-03   -0.74964E-04 10744   0.383E-02    0.317E-01
DAV:  26    -0.873008901553E+03    0.23701E-03   -0.51476E-04  9936   0.280E-02    0.489E-02
DAV:  27    -0.873008925265E+03   -0.23712E-04   -0.93484E-05  9944   0.160E-02    0.349E-02
DAV:  28    -0.873008928182E+03   -0.29174E-05   -0.41418E-05  9904   0.911E-03    0.183E-02
DAV:  29    -0.873008931871E+03   -0.36893E-05   -0.86018E-06  8400   0.469E-03    0.183E-02
DAV:  30    -0.873008931681E+03    0.19062E-06   -0.31606E-06  6128   0.282E-03
   1 F= -.87300893E+03 E0= -.87296862E+03  d E =-.806318E-01
