 vasp.5.4.4.18Apr17-6-g9f103f2a35 (build Oct 31 2019 15:01:46) complex          
  
 executed on             LinuxIFC date 2024.04.29  22:52:21
 running on   52 total cores
 distrk:  each k-point on   52 cores,    1 groups
 distr:  one band on NCORES_PER_BAND=  13 cores,    4 groups


--------------------------------------------------------------------------------------------------------


 INCAR:
 POTCAR:    PAW_PBE Ca_sv 06Sep2000               
 POTCAR:    PAW_PBE Si 05Jan2001                  
 POTCAR:    PAW_PBE O 08Apr2002                   
 POTCAR:    PAW_PBE Ca_sv 06Sep2000               
   SHA256 =  a47365830e737f14e0e6c5cf1ed81b94e081eecf0a33df105380881bc9da05d5 Ca
   COPYR  = (c) Copyright 06Sep2000 Georg Kresse                                
   COPYR  = This file is part of the software VASP. Any use, copying, and all ot
   COPYR  = If you do not have a valid VASP license, you may not use, copy or di
   VRHFIN =Ca: 3s3p4s                                                           
   LEXCH  = PE                                                                  
   EATOM  =  1006.0909 eV,   73.9456 Ry                                         
                                                                                
   TITEL  = PAW_PBE Ca_sv 06Sep2000                                             
   LULTRA =        F    use ultrasoft PP ?                                      
   IUNSCR =        1    unscreen: 0-lin 1-nonlin 2-no                           
   RPACOR =    2.000    partial core radius                                     
   POMASS =   40.078; ZVAL   =   10.000    mass and valenz                      
   RCORE  =    2.300    outmost cutoff radius                                   
   RWIGS  =    2.500; RWIGS  =    1.323    wigner-seitz radius (au A)           
   ENMAX  =  266.622; ENMIN  =  199.967 eV                                      
   RCLOC  =    1.808    cutoff for local pot                                    
   LCOR   =        T    correct aug charges                                     
   LPAW   =        T    paw PP                                                  
   EAUG   =  420.852                                                            
   RMAX   =    2.359    core radius for proj-oper                               
   RAUG   =    1.300    factor for augmentation sphere                          
   RDEP   =    2.392    radius for radial grids                                 
   RDEPT  =    1.987    core radius for aug-charge                              
                                                                                
   Atomic configuration                                                         
    7 entries                                                                   
     n  l   j            E        occ.                                          
     1  0  0.50     -3949.1705   2.0000                                         
     2  0  0.50      -414.3434   2.0000                                         
     2  1  1.50      -334.7047   6.0000                                         
     3  0  0.50       -47.0896   2.0000                                         
     4  0  0.50        -3.7663   2.0000                                         
     3  1  1.50       -28.0061   6.0000                                         
     3  2  1.50        -4.0817   0.0000                                         
   Description                                                                  
     l       E           TYP  RCUT    TYP  RCUT                                 
     0    -47.0896403     23  2.300                                             
     0     -3.7663320     23  2.300                                             
     1    -28.0060855     23  2.300                                             
     1      6.8029130     23  2.300                                             
     2     -4.0817478     23  2.300                                             
     2      0.4464412     23  2.300                                             
  local pseudopotential read in
  partial core-charges read in
  partial kinetic energy density read in
  atomic valenz-charges read in
  non local Contribution for L=           0  read in
    real space projection operators read in
  non local Contribution for L=           0  read in
    real space projection operators read in
  non local Contribution for L=           1  read in
    real space projection operators read in
  non local Contribution for L=           1  read in
    real space projection operators read in
  non local Contribution for L=           2  read in
    real space projection operators read in
  non local Contribution for L=           2  read in
    real space projection operators read in
    PAW grid and wavefunctions read in
 
   number of l-projection  operators is LMAX  =           6
   number of lm-projection operators is LMMAX =          18
 
 POTCAR:    PAW_PBE Si 05Jan2001                  
   SHA256 =  79d9987ad8750f624c4d6acb2a16d13abf6a777132adc04dc6c8399be72b42bb Si
   COPYR  = (c) Copyright 05Jan2001 Georg Kresse                                
   COPYR  = This file is part of the software VASP. Any use, copying, and all ot
   COPYR  = If you do not have a valid VASP license, you may not use, copy or di
   VRHFIN =Si: s2p2                                                             
   LEXCH  = PE                                                                  
   EATOM  =   103.0669 eV,    7.5752 Ry                                         
                                                                                
   TITEL  = PAW_PBE Si 05Jan2001                                                
   LULTRA =        F    use ultrasoft PP ?                                      
   IUNSCR =        1    unscreen: 0-lin 1-nonlin 2-no                           
   RPACOR =    1.500    partial core radius                                     
   POMASS =   28.085; ZVAL   =    4.000    mass and valenz                      
   RCORE  =    1.900    outmost cutoff radius                                   
   RWIGS  =    2.480; RWIGS  =    1.312    wigner-seitz radius (au A)           
   ENMAX  =  245.345; ENMIN  =  184.009 eV                                      
   ICORE  =        2    local potential                                         
   LCOR   =        T    correct aug charges                                     
   LPAW   =        T    paw PP                                                  
   EAUG   =  322.069                                                            
   DEXC   =    0.000                                                            
   RMAX   =    1.950    core radius for proj-oper                               
   RAUG   =    1.300    factor for augmentation sphere                          
   RDEP   =    1.993    radius for radial grids                                 
   RDEPT  =    1.837    core radius for aug-charge                              
                                                                                
   Atomic configuration                                                         
    6 entries                                                                   
     n  l   j            E        occ.                                          
     1  0  0.50     -1785.8828   2.0000                                         
     2  0  0.50      -139.4969   2.0000                                         
     2  1  1.50       -95.5546   6.0000                                         
     3  0  0.50       -10.8127   2.0000                                         
     3  1  0.50        -4.0811   2.0000                                         
     3  2  1.50        -4.0817   0.0000                                         
   Description                                                                  
     l       E           TYP  RCUT    TYP  RCUT                                 
     0    -10.8127223     23  1.900                                             
     0     -7.6451159     23  1.900                                             
     1     -4.0811372     23  1.900                                             
     1      2.4879257     23  1.900                                             
     2     -4.0817478      7  1.900                                             
  local pseudopotential read in
  partial core-charges read in
  partial kinetic energy density read in
  atomic valenz-charges read in
  non local Contribution for L=           0  read in
    real space projection operators read in
  non local Contribution for L=           0  read in
    real space projection operators read in
  non local Contribution for L=           1  read in
    real space projection operators read in
  non local Contribution for L=           1  read in
    real space projection operators read in
    PAW grid and wavefunctions read in
 
   number of l-projection  operators is LMAX  =           4
   number of lm-projection operators is LMMAX =           8
 
 POTCAR:    PAW_PBE O 08Apr2002                   
   SHA256 =  818f92134a0a090dccd8ba1447fa70422a3b330e708bb4f08108d8ae51209ddf O/
   COPYR  = (c) Copyright 08Apr2002 Georg Kresse                                
   COPYR  = This file is part of the software VASP. Any use, copying, and all ot
   COPYR  = If you do not have a valid VASP license, you may not use, copy or di
   VRHFIN =O: s2p4                                                              
   LEXCH  = PE                                                                  
   EATOM  =   432.3788 eV,   31.7789 Ry                                         
                                                                                
   TITEL  = PAW_PBE O 08Apr2002                                                 
   LULTRA =        F    use ultrasoft PP ?                                      
   IUNSCR =        1    unscreen: 0-lin 1-nonlin 2-no                           
   RPACOR =    1.200    partial core radius                                     
   POMASS =   16.000; ZVAL   =    6.000    mass and valenz                      
   RCORE  =    1.520    outmost cutoff radius                                   
   RWIGS  =    1.550; RWIGS  =    0.820    wigner-seitz radius (au A)           
   ENMAX  =  400.000; ENMIN  =  300.000 eV                                      
   ICORE  =        2    local potential                                         
   LCOR   =        T    correct aug charges                                     
   LPAW   =        T    paw PP                                                  
   EAUG   =  605.392                                                            
   DEXC   =    0.000                                                            
   RMAX   =    1.553    core radius for proj-oper                               
   RAUG   =    1.300    factor for augmentation sphere                          
   RDEP   =    1.550    radius for radial grids                                 
   RDEPT  =    1.329    core radius for aug-charge                              
                                                                                
   Atomic configuration                                                         
    4 entries                                                                   
     n  l   j            E        occ.                                          
     1  0  0.50      -514.6923   2.0000                                         
     2  0  0.50       -23.9615   2.0000                                         
     2  1  0.50        -9.0305   4.0000                                         
     3  2  1.50        -9.5241   0.0000                                         
   Description                                                                  
     l       E           TYP  RCUT    TYP  RCUT                                 
     0    -23.9615318     23  1.200                                             
     0     -9.5240782     23  1.200                                             
     1     -9.0304911     23  1.520                                             
     1      8.1634956     23  1.520                                             
     2     -9.5240782      7  1.500                                             
  local pseudopotential read in
  partial core-charges read in
  partial kinetic energy density read in
  kinetic energy density of atom read in
  atomic valenz-charges read in
  non local Contribution for L=           0  read in
    real space projection operators read in
  non local Contribution for L=           0  read in
    real space projection operators read in
  non local Contribution for L=           1  read in
    real space projection operators read in
  non local Contribution for L=           1  read in
    real space projection operators read in
    PAW grid and wavefunctions read in
 
   number of l-projection  operators is LMAX  =           4
   number of lm-projection operators is LMMAX =           8
 
 Optimization of the real space projectors (new method)

 maximal supplied QI-value         = 16.25
 optimisation between [QCUT,QGAM] = [ 12.51, 25.03] = [ 43.85,175.40] Ry 
 Optimized for a Real-space Cutoff    1.47 Angstroem

   l    n(q)    QCUT    max X(q) W(low)/X(q) W(high)/X(q)  e(spline) 
   0     11    12.514    11.817    0.25E-04    0.32E-05    0.87E-07
   0     11    12.514     8.461    0.39E-04    0.59E-05    0.18E-06
   1     11    12.514     3.957    0.97E-05    0.57E-05    0.28E-07
   1     11    12.514     4.314    0.42E-04    0.14E-04    0.23E-06
   2     10    12.514    14.565    0.79E-04    0.50E-03    0.16E-05
   2     10    12.514    14.552    0.75E-04    0.48E-03    0.15E-05
 Optimization of the real space projectors (new method)

 maximal supplied QI-value         = 19.84
 optimisation between [QCUT,QGAM] = [ 12.50, 25.00] = [ 43.76,175.03] Ry 
 Optimized for a Real-space Cutoff    1.16 Angstroem

   l    n(q)    QCUT    max X(q) W(low)/X(q) W(high)/X(q)  e(spline) 
   0      9    12.501   159.560    0.10E-03    0.83E-04    0.71E-07
   0      9    12.501   115.863    0.99E-04    0.81E-04    0.70E-07
   1      8    12.501    88.339    0.20E-03    0.25E-03    0.76E-07
   1      8    12.501    48.592    0.20E-03    0.24E-03    0.75E-07
 Optimization of the real space projectors (new method)

 maximal supplied QI-value         = 24.76
 optimisation between [QCUT,QGAM] = [ 12.38, 25.00] = [ 42.90,175.06] Ry 
 Optimized for a Real-space Cutoff    1.16 Angstroem

   l    n(q)    QCUT    max X(q) W(low)/X(q) W(high)/X(q)  e(spline) 
   0      9    12.378    20.381    0.16E-03    0.67E-05    0.31E-06
   0      9    12.378    15.268    0.17E-03    0.81E-05    0.33E-06
   1      8    12.378     5.964    0.20E-03    0.16E-03    0.30E-06
   1      8    12.378     5.382    0.18E-03    0.14E-03    0.26E-06
  PAW_PBE Ca_sv 06Sep2000               :
 energy of atom  1       EATOM=-1006.0909
 kinetic energy error for atom=    0.0012 (will be added to EATOM!!)
  PAW_PBE Si 05Jan2001                  :
 energy of atom  2       EATOM= -103.0669
 kinetic energy error for atom=    0.0003 (will be added to EATOM!!)
  PAW_PBE O 08Apr2002                   :
 energy of atom  3       EATOM= -432.3788
 kinetic energy error for atom=    0.0168 (will be added to EATOM!!)
 
 
 POSCAR: Ca Si  O                                
  positions in direct lattice
  No initial velocities read in
 exchange correlation table for  LEXCH =        8
   RHO(1)=    0.500       N(1)  =     2000
   RHO(2)=  100.500       N(2)  =     4000
 


--------------------------------------------------------------------------------------------------------


 ion  position               nearest neighbor table
   1  0.684  0.914  0.182-  85 1.99  55 2.25 102 2.28 118 2.44  42 3.09   2 3.13
   2  0.496  0.898  0.346- 114 1.86  85 2.35 102 2.56   1 3.13
   3  0.747  0.915  0.446-  92 1.88 118 2.25 133 2.43  17 3.00
   4  0.193  0.162  0.889- 123 2.18 116 2.20 105 2.47  41 2.83  32 2.91  14 2.95  54 3.00
   5  0.107  0.545  0.935-  67 2.02  59 2.08  62 2.15 100 2.32  89 2.35  53 2.77  46 2.94  24 2.98
                            32 3.03
   6  0.815  0.988  0.822- 110 1.94 115 2.20  48 2.77  47 2.78  28 3.03
   7  0.885  0.777  0.075-  63 2.05  68 2.30 131 2.44 120 2.55  47 2.95  11 3.12
   8  0.555  0.731  0.998-  65 2.17  63 2.39  80 2.50  47 2.74  39 2.85
   9  0.835  0.628  0.563- 111 1.90  60 2.07  58 2.29  96 2.36  22 2.55  17 2.55  34 2.99
  10  0.389  0.695  0.586-  75 2.31 117 2.45  84 2.48 109 2.56  40 2.81
  11  0.062  0.849  0.914- 123 2.12  68 2.15 131 2.22 124 2.35  90 2.42  41 2.67  46 2.77   7 3.12

  12  0.147  0.319  0.370-  69 2.25
  13  0.385  0.479  0.911- 112 2.32 119 2.38 105 2.39  67 2.44
  14  0.331  0.192  0.701-  95 2.05  88 2.37 105 2.44 134 2.54   4 2.95  45 3.13
  15  0.738  0.356  0.189- 132 1.98  77 2.03  33 2.87  39 2.97  25 3.11
  16  0.904  0.271  0.906- 135 1.95  83 2.44 122 2.45 110 2.55  19 3.05  53 3.08
  17  0.903  0.738  0.405- 118 2.07  70 2.25   9 2.55  42 2.88  50 2.90   3 3.00
  18  0.218  0.874  0.378-  84 1.89  61 2.35  38 2.79
  19  0.937  0.286  0.665- 104 2.02 135 2.30 103 2.44  16 3.05  53 3.06
  20  0.473  0.432  0.332-  73 1.86 130 2.35
  21  0.583  0.368  0.576-  66 2.07  86 2.21 130 2.29  72 2.39  58 2.46  95 2.54
  22  0.746  0.521  0.711-  58 2.07 125 2.28 103 2.37   9 2.55  53 2.71
  23  0.032  0.025  0.135-  83 2.34 131 2.42 101 2.47  54 2.82
  24  0.143  0.619  0.713-  89 2.10  67 2.21 109 2.57   5 2.98
  25  0.683  0.182  0.357-  72 2.14 130 2.32  85 2.33 133 2.45  99 2.46  86 2.57  37 2.71  15 3.11

  26  0.420  0.236  0.063- 113 1.97  78 2.09  82 2.31 112 2.55  30 2.69  35 2.99
  27  0.999  0.529  0.273- 128 2.29  96 2.44  70 2.47  43 2.97
  28  0.696  0.145  0.683- 104 1.49  79 1.57  71 1.61  86 1.97  52 2.46 110 2.50  36 3.01   6 3.03

  29  0.993  0.043  0.434- 101 1.49  91 1.54  93 1.62  37 2.31 133 2.34
  30  0.323  0.139  0.228- 126 1.62  78 1.70 108 2.02  82 2.32  26 2.69
  31  0.285  0.621  0.286- 128 1.58  64 1.58 117 1.64  73 1.68  43 2.65  35 3.05
  32  0.169  0.368  0.783- 134 1.69  59 1.82  67 1.83 105 1.96   4 2.91   5 3.03
  33  0.791  0.502  0.020- 132 1.62  57 1.63  76 1.66 122 1.89  39 2.45  15 2.87
  34  0.793  0.425  0.445-  58 1.56  96 1.62  72 1.67 127 1.87   9 2.99  37 3.13
  35  0.295  0.420  0.149- 113 1.56 119 1.87  82 2.31  73 2.35  26 2.99  31 3.05
  36  0.613  0.315  0.832- 125 1.70  71 1.74 112 1.74  66 1.93  28 3.01
  37  0.888  0.195  0.425- 133 1.64 127 1.68  93 1.78  99 2.00  29 2.31  25 2.71  34 3.13
  38  0.257  0.952  0.583-  61 1.47  84 1.67  88 1.91  18 2.79  41 3.11
  39  0.611  0.531  0.090-  77 1.55  57 1.65  65 1.75  76 1.80  33 2.45   8 2.85  15 2.97
  40  0.582  0.659  0.478-  75 1.69  60 1.73 114 1.90  97 2.01  10 2.81  42 3.09
  41  0.096  0.998  0.766- 123 1.75  88 1.81  90 2.05  56 2.38  11 2.67   4 2.83  38 3.11
  42  0.720  0.688  0.276-  97 1.63 120 1.69 102 1.72 118 1.82  17 2.88  40 3.09   1 3.09
  43  0.139  0.624  0.439-  94 1.50  81 1.51  70 1.67 128 1.97 117 2.54  31 2.65  27 2.97
  44  0.374  0.967  0.910- 116 1.63  98 1.75  56 1.75  80 1.81  49 2.42  51 2.82
  45  0.416  0.198  0.466- 108 1.61 107 1.65  95 1.75 130 1.95  52 2.82  14 3.13
  46  0.159  0.728  0.072- 124 1.54  62 1.60 131 1.81  64 2.38  11 2.77   5 2.94
  47  0.737  0.793  0.893-  63 1.50 121 1.62 115 1.97  68 2.12   8 2.74   6 2.78   7 2.95
  48  0.748  0.093  0.004- 129 1.64  55 1.70 110 1.77   6 2.77
  49  0.311  0.789  0.867- 124 1.79  56 1.96  80 2.09 109 2.27  87 2.32  44 2.42
  50  0.962  0.849  0.600- 111 1.58 106 1.68  91 1.84  90 2.09  17 2.90
  51  0.546  0.910  0.775-  87 1.66 115 1.70  74 1.98  98 2.05  79 2.25  44 2.82
  52  0.562  0.060  0.567-  92 1.56  79 1.81 107 1.89  86 1.92  74 2.38  28 2.46  45 2.82
  53  0.941  0.490  0.800- 103 1.53 122 1.55  89 1.70  59 1.79  22 2.71   5 2.77  19 3.06  16 3.08

  54  0.112  0.232  0.104-  82 1.63  83 1.74  69 1.80 100 2.21  23 2.82   4 3.00
  55  0.806  0.992  0.075-  48 1.70   1 2.25
  56  0.263  0.934  0.831-  44 1.75  49 1.96  41 2.38
  57  0.721  0.599  0.070-  33 1.63  39 1.65
  58  0.753  0.465  0.556-  34 1.56  22 2.07   9 2.29  21 2.46
  59  0.049  0.412  0.852-  53 1.79  32 1.82   5 2.08
  60  0.695  0.711  0.538-  40 1.73   9 2.07
  61  0.192  0.010  0.504-  38 1.47  18 2.35
  62  0.062  0.646  0.067-  46 1.60   5 2.15
  63  0.735  0.795  0.012-  47 1.50   7 2.05   8 2.39
  64  0.278  0.728  0.219-  31 1.58  46 2.38
  65  0.500  0.613  0.111-  39 1.75   8 2.17
  66  0.545  0.409  0.732-  36 1.93  21 2.07
  67  0.213  0.501  0.823-  32 1.83   5 2.02  24 2.21  13 2.44
  68  0.906  0.782  0.892-  47 2.12  11 2.15   7 2.30
  69  0.088  0.206  0.243-  54 1.80  12 2.25
  70  0.069  0.696  0.351-  43 1.67  17 2.25  27 2.47
  71  0.604  0.199  0.755-  28 1.61  36 1.74
  72  0.692  0.339  0.423-  34 1.67  25 2.14  21 2.39
  73  0.384  0.533  0.269-  31 1.68  20 1.86  35 2.35
  74  0.461  0.917  0.641-  51 1.98  52 2.38
  75  0.514  0.565  0.547-  40 1.69  10 2.31
  76  0.678  0.435  0.008-  33 1.66  39 1.80
  77  0.627  0.474  0.199-  39 1.55  15 2.03
  78  0.453  0.176  0.215-  30 1.70  26 2.09
  79  0.642  0.032  0.684-  28 1.57  52 1.81  51 2.25
  80  0.397  0.852  0.995-  44 1.81  49 2.09   8 2.50
  81  0.153  0.511  0.479-  43 1.51
  82  0.241  0.250  0.104-  54 1.63  35 2.31  26 2.31  30 2.32
  83  0.028  0.167  0.014-  54 1.74  23 2.34  16 2.44
  84  0.294  0.849  0.505-  38 1.67  18 1.89  10 2.48
  85  0.627  0.019  0.286-   1 1.99  25 2.33   2 2.35
  86  0.626  0.199  0.553-  52 1.92  28 1.97  21 2.21  25 2.57
  87  0.480  0.797  0.792-  51 1.66  49 2.32
  88  0.218  0.040  0.702-  41 1.81  38 1.91  14 2.37
  89  0.998  0.613  0.798-  53 1.70  24 2.10   5 2.35
  90  0.076  0.842  0.721-  41 2.05  50 2.09  11 2.42
  91  0.011  0.936  0.492-  29 1.54  50 1.84
  92  0.623  0.992  0.483-  52 1.56   3 1.88
  93  0.018  0.164  0.472-  29 1.62  37 1.78
  94  0.175  0.701  0.523-  43 1.50
  95  0.403  0.277  0.580-  45 1.75  14 2.05  21 2.54
  96  0.896  0.502  0.437-  34 1.62   9 2.36  27 2.44
  97  0.665  0.599  0.354-  42 1.63  40 2.01
  98  0.487  0.035  0.863-  44 1.75  51 2.05
  99  0.859  0.171  0.269-  37 2.00  25 2.46
 100  0.086  0.395  0.042-  54 2.21   5 2.32
 101  0.053  0.028  0.332-  29 1.49  23 2.47
 102  0.608  0.761  0.244-  42 1.72   1 2.28   2 2.56
 103  0.928  0.480  0.678-  53 1.53  22 2.37  19 2.44
 104  0.796  0.210  0.682-  28 1.49  19 2.02
 105  0.304  0.319  0.845-  32 1.96  13 2.39  14 2.44   4 2.47
 106  0.859  0.932  0.618-  50 1.68
 107  0.421  0.076  0.515-  45 1.65  52 1.89
 108  0.330  0.213  0.371-  45 1.61  30 2.02
 109  0.338  0.636  0.775-  49 2.27  10 2.56  24 2.57
 110  0.765  0.127  0.868-  48 1.77   6 1.94  28 2.50  16 2.55
 111  0.939  0.726  0.615-  50 1.58   9 1.90
 112  0.518  0.351  0.927-  36 1.74  13 2.32  26 2.55
 113  0.408  0.368  0.147-  35 1.56  26 1.97
 114  0.555  0.804  0.444-   2 1.86  40 1.90
 115  0.656  0.922  0.854-  51 1.70  47 1.97   6 2.20
 116  0.297  0.049  0.974-  44 1.63   4 2.20
 117  0.338  0.645  0.404-  31 1.64  10 2.45  43 2.54
 118  0.791  0.810  0.307-  42 1.82  17 2.07   3 2.25   1 2.44
 119  0.293  0.543  0.064-  35 1.87  13 2.38
 120  0.828  0.639  0.212-  42 1.69   7 2.55
 121  0.717  0.666  0.884-  47 1.62
 122  0.882  0.466  0.905-  53 1.55  33 1.89  16 2.45
 123  0.106  0.012  0.905-  41 1.75  11 2.12   4 2.18
 124  0.214  0.751  0.964-  46 1.54  49 1.79  11 2.35
 125  0.736  0.371  0.814-  36 1.70  22 2.28
 126  0.230  0.049  0.236-  30 1.62
 127  0.900  0.322  0.463-  37 1.68  34 1.87
 128  0.177  0.558  0.301-  31 1.58  43 1.97  27 2.29
 129  0.643  0.141  0.066-  48 1.64
 130  0.541  0.281  0.421-  45 1.95  21 2.29  25 2.32  20 2.35
 131  0.069  0.840  0.091-  46 1.81  11 2.22  23 2.42   7 2.44
 132  0.852  0.422  0.101-  33 1.62  15 1.98
 133  0.817  0.094  0.470-  37 1.64  29 2.34   3 2.43  25 2.45
 134  0.169  0.307  0.662-  32 1.69  14 2.54
 135  0.004  0.199  0.812-  16 1.95  19 2.30
 

IMPORTANT INFORMATION: All symmetrisations will be switched off!
NOSYMM: (Re-)initialisation of all symmetry stuff for point group C_1.

 
 

Automatic generation of k-mesh.
 generate k-points for:    2    2    2
Space group operators:
 irot       det(A)        alpha          n_x          n_y          n_z        tau_x        tau_y        tau_z
    1     1.000000     0.000001     1.000000     0.000000     0.000000     0.000000     0.000000     0.000000
 
 Subroutine IBZKPT returns following result:
 ===========================================
 
 Found      8 irreducible k-points:
 
 Following reciprocal coordinates:
            Coordinates               Weight
  0.000000  0.000000  0.000000      1.000000
  0.500000  0.000000  0.000000      1.000000
  0.000000  0.500000  0.000000      1.000000
  0.500000  0.500000  0.000000      1.000000
  0.000000  0.000000  0.500000      1.000000
  0.500000  0.000000  0.500000      1.000000
  0.000000  0.500000  0.500000      1.000000
  0.500000  0.500000  0.500000      1.000000
 
 Following cartesian coordinates:
            Coordinates               Weight
  0.000000  0.000000  0.000000      1.000000
  0.039917  0.000000  0.000000      1.000000
  0.000000  0.039917  0.000000      1.000000
  0.039917  0.039917  0.000000      1.000000
  0.000000  0.000000  0.039917      1.000000
  0.039917  0.000000  0.039917      1.000000
  0.000000  0.039917  0.039917      1.000000
  0.039917  0.039917  0.039917      1.000000
 


--------------------------------------------------------------------------------------------------------




 Dimension of arrays:
   k-points           NKPTS =      8   k-points in BZ     NKDIM =      8   number of bands    NBANDS=    520
   number of dos      NEDOS =    301   number of ions     NIONS =    135
   non local maximal  LDIM  =      6   non local SUM 2l+1 LMDIM =     18
   total plane-waves  NPLWV = ******
   max r-space proj   IRMAX =   6830   max aug-charges    IRDMAX= 194386
   dimension x,y,z NGX =   100 NGY =  100 NGZ =  100
   dimension x,y,z NGXF=   200 NGYF=  200 NGZF=  200
   support grid    NGXF=   400 NGYF=  400 NGZF=  400
   ions per type =              27  27  81
   NGX,Y,Z   is equivalent  to a cutoff of  13.27, 13.27, 13.27 a.u.
   NGXF,Y,Z  is equivalent  to a cutoff of  26.54, 26.54, 26.54 a.u.

 SYSTEM =  unknown system                          
 POSCAR =  Ca Si  O                                

 Startparameter for this run:
   NWRITE =      2    write-flag & timer
   PREC   = a         normal or accurate (medium, high low for compatibility)
   ISTART =      0    job   : 0-new  1-cont  2-samecut
   ICHARG =      2    charge: 1-file 2-atom 10-const
   ISPIN  =      1    spin polarized calculation?
   LNONCOLLINEAR =      F non collinear calculations
   LSORBIT =      F    spin-orbit coupling
   INIWAV =      1    electr: 0-lowe 1-rand  2-diag
   LASPH  =      F    aspherical Exc in radial PAW
   METAGGA=      F    non-selfconsistent MetaGGA calc.

 Electronic Relaxation 1
   ENCUT  =  600.0 eV  44.10 Ry    6.64 a.u.  25.02 25.02 25.02*2*pi/ulx,y,z
   ENINI  =  600.0     initial cutoff
   ENAUG  =  605.4 eV  augmentation charge cutoff
   NELM   =     60;   NELMIN=  2; NELMDL= -5     # of ELM steps 
   EDIFF  = 0.1E-05   stopping-criterion for ELM
   LREAL  =      T    real-space projection
   NLSPLINE    = F    spline interpolate recip. space projectors
   LCOMPAT=      F    compatible to vasp.4.4
   GGA_COMPAT  = T    GGA compatible to vasp.4.4-vasp.4.6
   LMAXPAW     = -100 max onsite density
   LMAXMIX     =    2 max onsite mixed and CHGCAR
   VOSKOWN=      0    Vosko Wilk Nusair interpolation
   ROPT   =   -0.00025  -0.00025  -0.00025
 Ionic relaxation
   EDIFFG = -.1E-01   stopping-criterion for IOM
   NSW    =      1    number of steps for IOM
   NBLOCK =      1;   KBLOCK =      1    inner block; outer block 
   IBRION =     -1    ionic relax: 0-MD 1-quasi-New 2-CG
   NFREE  =      0    steps in history (QN), initial steepest desc. (CG)
   ISIF   =      2    stress and relaxation
   IWAVPR =     10    prediction:  0-non 1-charg 2-wave 3-comb
   ISYM   =      0    0-nonsym 1-usesym 2-fastsym
   LCORR  =      T    Harris-Foulkes like correction to forces

   POTIM  = 1.0000    time-step for ionic-motion
   TEIN   =    0.0    initial temperature
   TEBEG  =    0.0;   TEEND  =   0.0 temperature during run
   SMASS  =  -3.00    Nose mass-parameter (am)
   estimated Nose-frequenzy (Omega)   =  0.10E-29 period in steps =****** mass=  -0.359E-26a.u.
   SCALEE = 1.0000    scale energy and forces
   NPACO  =    256;   APACO  = 16.0  distance and # of slots for P.C.
   PSTRESS=    0.0 pullay stress

  Mass of Ions in am
   POMASS =  40.08 28.09 16.00
  Ionic Valenz
   ZVAL   =  10.00  4.00  6.00
  Atomic Wigner-Seitz radii
   RWIGS  =  -1.00 -1.00 -1.00
  virtual crystal weights 
   VCA    =   1.00  1.00  1.00
   NELECT =     864.0000    total number of electrons
   NUPDOWN=      -1.0000    fix difference up-down

 DOS related values:
   EMIN   =  10.00;   EMAX   =-10.00  energy-range for DOS
   EFERMI =   0.00
   ISMEAR =     0;   SIGMA  =   0.05  broadening in eV -4-tet -1-fermi 0-gaus

 Electronic relaxation 2 (details)
   IALGO  =     38    algorithm
   LDIAG  =      T    sub-space diagonalisation (order eigenvalues)
   LSUBROT=      F    optimize rotation matrix (better conditioning)
   TURBO    =      0    0=normal 1=particle mesh
   IRESTART =      0    0=no restart 2=restart with 2 vectors
   NREBOOT  =      0    no. of reboots
   NMIN     =      0    reboot dimension
   EREF     =   0.00    reference energy to select bands
   IMIX   =      4    mixing-type and parameters
     AMIX     =   0.40;   BMIX     =  1.00
     AMIX_MAG =   1.60;   BMIX_MAG =  1.00
     AMIN     =   0.10
     WC   =   100.;   INIMIX=   1;  MIXPRE=   1;  MAXMIX= -45

 Intra band minimization:
   WEIMIN = 0.0000     energy-eigenvalue tresh-hold
   EBREAK =  0.48E-09  absolut break condition
   DEPER  =   0.30     relativ break condition  

   TIME   =   0.40     timestep for ELM

  volume/ion in A,a.u.               =      14.56        98.24
  Fermi-wavevector in a.u.,A,eV,Ry     =   1.244795  2.352322 21.082433  1.549515
  Thomas-Fermi vector in A             =   2.379046
 
 Write flags
   LWAVE        =      F    write WAVECAR
   LDOWNSAMPLE  =      F    k-point downsampling of WAVECAR
   LCHARG       =      F    write CHGCAR
   LVTOT        =      F    write LOCPOT, total local potential
   LVHAR        =      F    write LOCPOT, Hartree potential only
   LELF         =      F    write electronic localiz. function (ELF)
   LORBIT       =      0    0 simple, 1 ext, 2 COOP (PROOUT), +10 PAW based schemes


 Dipole corrections
   LMONO  =      F    monopole corrections only (constant potential shift)
   LDIPOL =      F    correct potential (dipole corrections)
   IDIPOL =      0    1-x, 2-y, 3-z, 4-all directions 
   EPSILON=  1.0000000 bulk dielectric constant

 Exchange correlation treatment:
   GGA     =    --    GGA type
   LEXCH   =     8    internal setting for exchange type
   VOSKOWN=      0    Vosko Wilk Nusair interpolation
   LHFCALC =     F    Hartree Fock is set to
   LHFONE  =     F    Hartree Fock one center treatment
   AEXX    =    0.0000 exact exchange contribution

 Linear response parameters
   LEPSILON=     F    determine dielectric tensor
   LRPA    =     F    only Hartree local field effects (RPA)
   LNABLA  =     F    use nabla operator in PAW spheres
   LVEL    =     F    velocity operator in full k-point grid
   LINTERFAST=   F  fast interpolation
   KINTER  =     0    interpolate to denser k-point grid
   CSHIFT  =0.1000    complex shift for real part using Kramers Kronig
   OMEGAMAX=  -1.0    maximum frequency
   DEG_THRESHOLD= 0.2000000E-02 threshold for treating states as degnerate
   RTIME   =   -0.100 relaxation time in fs
  (WPLASMAI=    0.000 imaginary part of plasma frequency in eV, 0.658/RTIME)
   DFIELD  = 0.0000000 0.0000000 0.0000000 field for delta impulse in time
 
 Orbital magnetization related:
   ORBITALMAG=     F  switch on orbital magnetization
   LCHIMAG   =     F  perturbation theory with respect to B field
   DQ        =  0.001000  dq finite difference perturbation B field
   LLRAUG    =     F  two centre corrections for induced B field



--------------------------------------------------------------------------------------------------------


 Static calculation
 charge density and potential will be updated during run
 non-spin polarized calculation
 Variant of blocked Davidson
 Davidson routine will perform the subspace rotation
 perform sub-space diagonalisation
    after iterative eigenvector-optimisation
 modified Broyden-mixing scheme, WC =      100.0
 initial mixing is a Kerker type mixing with AMIX =  0.4000 and BMIX =      1.0000
 Hartree-type preconditioning will be used
 using additional bands           88
 real space projection scheme for non local part
 use partial core corrections
 calculate Harris-corrections to forces 
   (improved forces if not selfconsistent)
 use gradient corrections 
 use of overlap-Matrix (Vanderbilt PP)
 Gauss-broadening in eV      SIGMA  =   0.05


--------------------------------------------------------------------------------------------------------


  energy-cutoff  :      600.00
  volume of cell :     1965.37
      direct lattice vectors                 reciprocal lattice vectors
    12.526070000  0.000000000  0.000000000     0.079833499  0.000000000  0.000000000
     0.000000000 12.526070000  0.000000000     0.000000000  0.079833499  0.000000000
     0.000000000  0.000000000 12.526070000     0.000000000  0.000000000  0.079833499

  length of vectors
    12.526070000 12.526070000 12.526070000     0.079833499  0.079833499  0.079833499


 
 k-points in units of 2pi/SCALE and weight: read from INCAR                         
   0.00000000  0.00000000  0.00000000       0.125
   0.03991675  0.00000000  0.00000000       0.125
   0.00000000  0.03991675  0.00000000       0.125
   0.03991675  0.03991675  0.00000000       0.125
   0.00000000  0.00000000  0.03991675       0.125
   0.03991675  0.00000000  0.03991675       0.125
   0.00000000  0.03991675  0.03991675       0.125
   0.03991675  0.03991675  0.03991675       0.125
 
 k-points in reciprocal lattice and weights: read from INCAR                         
   0.00000000  0.00000000  0.00000000       0.125
   0.50000000  0.00000000  0.00000000       0.125
   0.00000000  0.50000000  0.00000000       0.125
   0.50000000  0.50000000  0.00000000       0.125
   0.00000000  0.00000000  0.50000000       0.125
   0.50000000  0.00000000  0.50000000       0.125
   0.00000000  0.50000000  0.50000000       0.125
   0.50000000  0.50000000  0.50000000       0.125
 
 position of ions in fractional coordinates (direct lattice) 
   0.68418154  0.91354534  0.18182545
   0.49627555  0.89804776  0.34599107
   0.74695118  0.91546064  0.44567974
   0.19278576  0.16210411  0.88870593
   0.10671684  0.54452942  0.93549503
   0.81542025  0.98806574  0.82167734
   0.88528730  0.77727872  0.07476326
   0.55546475  0.73100383  0.99776930
   0.83502925  0.62794121  0.56264687
   0.38894470  0.69480971  0.58572746
   0.06182967  0.84876618  0.91424024
   0.14748409  0.31870683  0.36975453
   0.38510651  0.47907963  0.91076186
   0.33122261  0.19181387  0.70068809
   0.73804436  0.35637573  0.18898088
   0.90408024  0.27149775  0.90633757
   0.90261687  0.73789526  0.40509954
   0.21810056  0.87397351  0.37781930
   0.93684246  0.28586313  0.66524993
   0.47264076  0.43181291  0.33188380
   0.58342508  0.36824326  0.57623482
   0.74628206  0.52093885  0.71090341
   0.03243906  0.02452863  0.13540020
   0.14293461  0.61929651  0.71290982
   0.68292516  0.18153908  0.35660889
   0.41989218  0.23626666  0.06277772
   0.99859386  0.52862446  0.27334002
   0.69560591  0.14532221  0.68279680
   0.99330609  0.04276873  0.43375589
   0.32298210  0.13942413  0.22802638
   0.28509940  0.62099335  0.28596978
   0.16872467  0.36756263  0.78252044
   0.79142415  0.50209711  0.01994310
   0.79260697  0.42472655  0.44460250
   0.29479613  0.41990428  0.14935477
   0.61342377  0.31457305  0.83197715
   0.88820340  0.19452325  0.42480355
   0.25724442  0.95166849  0.58276528
   0.61090395  0.53057150  0.09034388
   0.58232942  0.65875347  0.47791292
   0.09606755  0.99829526  0.76622180
   0.71973543  0.68770088  0.27551637
   0.13874353  0.62405693  0.43869339
   0.37449996  0.96674766  0.90964180
   0.41599617  0.19845532  0.46557899
   0.15913061  0.72831756  0.07175612
   0.73681694  0.79307851  0.89286559
   0.74794833  0.09299431  0.00431081
   0.31067677  0.78929579  0.86684351
   0.96238026  0.84877805  0.59969512
   0.54585868  0.91016172  0.77471323
   0.56174721  0.06036877  0.56696613
   0.94148335  0.48967932  0.79964524
   0.11220082  0.23222754  0.10350946
   0.80557802  0.99221133  0.07474266
   0.26318824  0.93441972  0.83133149
   0.72135741  0.59935763  0.07044538
   0.75308084  0.46475661  0.55583069
   0.04924916  0.41235208  0.85244113
   0.69487592  0.71146503  0.53777548
   0.19211905  0.00981882  0.50443398
   0.06238005  0.64556242  0.06659182
   0.73504098  0.79474352  0.01241596
   0.27817876  0.72816150  0.21933745
   0.49982535  0.61259862  0.11119539
   0.54521771  0.40944750  0.73160618
   0.21310236  0.50075193  0.82266122
   0.90556829  0.78206541  0.89196477
   0.08833975  0.20590420  0.24286918
   0.06874324  0.69590973  0.35099106
   0.60449260  0.19939921  0.75489125
   0.69243424  0.33919681  0.42261275
   0.38448484  0.53315281  0.26889132
   0.46095464  0.91704129  0.64121538
   0.51398715  0.56526477  0.54711113
   0.67836225  0.43474534  0.00767240
   0.62716468  0.47424872  0.19902942
   0.45342239  0.17554790  0.21468093
   0.64232145  0.03170729  0.68357981
   0.39660165  0.85237799  0.99543074
   0.15339473  0.51146754  0.47909675
   0.24086287  0.24976069  0.10439168
   0.02829854  0.16680039  0.01395991
   0.29419299  0.84915551  0.50546680
   0.62671843  0.01887671  0.28557659
   0.62623766  0.19893215  0.55260886
   0.47999267  0.79665738  0.79240709
   0.21842687  0.03959533  0.70165222
   0.99844147  0.61310120  0.79798078
   0.07615552  0.84202192  0.72129365
   0.01107039  0.93619743  0.49233970
   0.62332640  0.99157799  0.48301821
   0.01833167  0.16405425  0.47220560
   0.17461407  0.70119423  0.52262390
   0.40263741  0.27663025  0.58016992
   0.89598155  0.50201978  0.43688812
   0.66477899  0.59900262  0.35350812
   0.48747470  0.03460699  0.86332579
   0.85860434  0.17123051  0.26945925
   0.08564621  0.39517718  0.04234730
   0.05288068  0.02759930  0.33150432
   0.60813003  0.76066135  0.24435639
   0.92835782  0.47997006  0.67825168
   0.79570846  0.20966281  0.68222500
   0.30353456  0.31927888  0.84534837
   0.85852571  0.93161570  0.61817781
   0.42076613  0.07620052  0.51464643
   0.33003249  0.21328261  0.37102454
   0.33762282  0.63550382  0.77462890
   0.76538827  0.12713425  0.86849942
   0.93902994  0.72579495  0.61481879
   0.51788403  0.35081047  0.92650105
   0.40819429  0.36836083  0.14737033
   0.55530320  0.80368936  0.44395409
   0.65606044  0.92239910  0.85351131
   0.29657649  0.04901617  0.97426121
   0.33752068  0.64451104  0.40359695
   0.79139800  0.81010054  0.30699985
   0.29264475  0.54271735  0.06439578
   0.82829883  0.63872751  0.21211620
   0.71687395  0.66589982  0.88428002
   0.88183883  0.46595596  0.90514433
   0.10628097  0.01169528  0.90517379
   0.21372472  0.75131558  0.96424378
   0.73570992  0.37102539  0.81394739
   0.23018493  0.04949484  0.23612308
   0.89956043  0.32247607  0.46349204
   0.17658140  0.55811639  0.30059629
   0.64319404  0.14102620  0.06611102
   0.54053603  0.28134978  0.42124457
   0.06881902  0.83966777  0.09091656
   0.85150479  0.42222207  0.10145530
   0.81726953  0.09446859  0.46961939
   0.16899192  0.30726952  0.66201437
   0.00446183  0.19910530  0.81183717
 
 position of ions in cartesian coordinates  (Angst):
   8.57010582 11.44313292  2.27755834
   6.21638228 11.24900915  4.33390839
   9.35636281 11.46712401  5.58261559
   2.41484792  2.03052748 11.13199264
   1.33674265  6.82081360 11.71807619
  10.21401110 12.37658068 10.29238783
  11.08917074  9.73624764  0.93648984
   6.95779030  9.15660518 12.49812804
  10.45963485  7.86563560  7.04775407
   4.87194860  8.70323502  7.33686311
   0.77448274 10.63170455 11.45183720
   1.84739607  3.99214408  4.63157113
   4.82387109  6.00098498 11.40826680
   4.14891763  2.40267391  8.77686809
   9.24479528  4.46398732  2.36718777
  11.32457240  3.40079986 11.35284786
  11.30624211  9.24292774  5.07430524
   2.73194293 10.94745336  4.73259096
  11.73495421  3.58074154  8.33296718
   5.92033130  5.40891875  4.15719975
   7.30802340  4.61264087  7.21795764
   9.34798133  6.52531645  8.90482585
   0.40633396  0.30724738  1.69603235
   1.79040898  7.75735148  8.92995834
   8.55436831  2.27397123  4.46690787
   5.25959878  2.95949274  0.78635811
  12.50845662  6.62158694  3.42387626
   8.71320828  1.82031614  8.55276051
  12.44222163  0.53572416  5.43325662
   4.04569634  1.74643635  2.85627435
   3.57117498  7.77860619  3.58207753
   2.11345697  4.60411529  9.80190581
   9.91343429  6.28930353  0.24980870
   9.92825035  5.32015447  5.56912203
   3.69263693  5.25975044  1.87082831
   7.68378910  3.94036401 10.42140404
  11.12569802  2.43661189  5.32111900
   3.22226161 11.92066611  7.29975872
   7.65222562  6.64597579  1.13165378
   7.29429912  8.25159204  5.98637072
   1.20334890 12.50471633  9.59774790
   9.01545633  8.61418931  3.45113729
   1.73791120  7.81698077  5.49510413
   4.69101273 12.10954888 11.39423685
   5.21079712  2.48586525  5.83187506
   1.99328110  9.12295677  0.89882217
   9.22942056  9.93415699 11.18409682
   9.36885310  1.16485325  0.05399751
   3.89155891  9.88677436 10.85814244
  12.05484256 10.63185333  7.51182306
   6.83746400 11.40074936  9.70411217
   7.03648491  0.75618349  7.10185740
  11.79308636  6.13375740 10.01641229
   1.40543530  2.90889848  1.29656678
  10.09072667 12.42850856  0.93623180
   3.29671438 11.70460683 10.41331645
   9.03577347  7.50759568  0.88240378
   9.43314335  5.82157385  6.96237409
   0.61689847  5.16515100 10.67773732
   8.70406444  8.91186081  6.73621336
   2.40649661  0.12299124  6.31857539
   0.78137692  8.08636006  0.83413377
   9.20717481  9.95501293  0.15552319
   3.48448661  9.12100193  2.74743619
   6.26084727  7.67345316  1.39284129
   6.82943525  5.12876808  9.16415023
   2.66933512  6.27245374 10.30471199
  11.34321184  9.79620610 11.17281317
   1.10654988  2.57917041  3.04219641
   0.86108265  8.71701394  4.39653857
   7.57191661  2.49768840  9.45582066
   8.67347977  4.24880299  5.29367689
   4.81608408  6.67830936  3.36815144
   5.77395011 11.48692335  8.03190875
   6.43823908  7.08054609  6.85315230
   8.49721298  5.44565053  0.09610496
   7.85590866  5.94047264  2.49305640
   5.67960059  2.19892525  2.68910835
   8.04576348  0.39716779  8.56256852
   4.96786003 10.67694639 12.46883519
   1.92143309  6.40667818  6.00119939
   3.01706516  3.12851987  1.30761748
   0.35446946  2.08935335  0.17486276
   3.68508201 10.63658136  6.33151249
   7.85031888  0.23645094  3.57715234
   7.84429675  2.49183806  6.92201722
   6.01242184  9.97898614  9.92574670
   2.73603029  0.49597385  8.78894481
  12.50654770  7.67974857  9.99556314
   0.95392934 10.54722555  9.03497475
   0.13866850 11.72687448  6.16708153
   7.80783012 12.42057529  6.05031994
   0.22962377  2.05495508  5.91488045
   2.18722811  8.78320806  6.54642350
   5.04346433  3.46508986  7.26724902
  11.22312760  6.28833485  5.47249116
   8.32706811  7.50314880  4.42806750
   6.10614218  0.43348959 10.81407927
  10.75493811  2.14484539  3.37526547
   1.07281046  4.95001702  0.53044520
   0.66238715  0.34571072  4.15244630
   7.61747932  9.52809732  3.06082528
  11.62867508  6.01213857  8.49582808
   9.96709988  2.62625102  8.54559810
   3.80209520  3.99930957 10.58889288
  10.75395310 11.66948346  7.74333852
   5.27054603  0.95449303  6.44649723
   4.13401002  2.67159288  4.64747933
   4.22908709  7.96036539  9.70305579
   9.58730703  1.59249248 10.87888451
  11.76235470  9.09135841  7.70126320
   6.48705163  4.39427653 11.60541707
   5.11307031  4.61411353  1.84597104
   6.95576679 10.06706918  5.56099995
   8.21785900 11.55403574 10.69114236
   3.71493784  0.61397997 12.20366411
   4.22780761  8.07319044  5.05548367
   9.91310680 10.14737606  3.84550158
   3.66568864  6.79811552  0.80662610
  10.37532911  8.00074554  2.65698238
   8.97961333  8.34110772 11.07655339
  11.04597495  5.83659693 11.33790127
   1.33128290  0.14649593 11.33827024
   2.67713078  9.41103159 12.07818514
   9.21555402  4.64749001 10.19556193
   2.88331257  0.61997586  2.95769426
  11.26795694  4.03935787  5.80573372
   2.21187103  6.99100503  3.76529023
   8.05669354  1.76650408  0.82811126
   6.77079209  3.52420708  5.27653901
   0.86203189 10.51773725  1.13882715
  10.66600862  5.28878316  1.27083615
  10.23717540  1.18332019  5.88248531
   2.11680468  3.84887952  8.29243831
   0.05588922  2.49400688 10.16912917
 


--------------------------------------------------------------------------------------------------------


 k-point  1 :   0.0000 0.0000 0.0000  plane waves:   65267
 k-point  2 :   0.5000 0.0000 0.0000  plane waves:   65554
 k-point  3 :   0.0000 0.5000 0.0000  plane waves:   65554
 k-point  4 :   0.5000 0.5000 0.0000  plane waves:   65600
 k-point  5 :   0.0000 0.0000 0.5000  plane waves:   65554
 k-point  6 :   0.5000 0.0000 0.5000  plane waves:   65600
 k-point  7 :   0.0000 0.5000 0.5000  plane waves:   65600
 k-point  8 :   0.5000 0.5000 0.5000  plane waves:   65752

 maximum and minimum number of plane-waves per node :      5080     4959

 maximum number of plane-waves:     65752
 maximum index in each direction: 
   IXMAX=   25   IYMAX=   25   IZMAX=   25
   IXMIN=  -25   IYMIN=  -25   IZMIN=  -25


 real space projection operators:
  total allocation   :      46807.73 KBytes
  max/ min on nodes  :       3751.55       3289.12


 parallel 3D FFT for wavefunctions:
    minimum data exchange during FFTs selected (reduces bandwidth)
 parallel 3D FFT for charge:
    minimum data exchange during FFTs selected (reduces bandwidth)


 total amount of memory used by VASP MPI-rank0   175577. kBytes
=======================================================================

   base      :      30000. kBytes
   nonlr-proj:      20247. kBytes
   fftplans  :      25568. kBytes
   grid      :      13529. kBytes
   one-center:        171. kBytes
   wavefun   :      86062. kBytes
 
     INWAV:  cpu time    0.0000: real time    0.0000
 Broyden mixing: mesh for mixing (old mesh)
   NGX = 51   NGY = 51   NGZ = 51
  (NGX  =200   NGY  =200   NGZ  =200)
  gives a total of 132651 points

 initial charge density was supplied:
 charge density of overlapping atoms calculated
 number of electron     864.0000000 magnetization 
 keeping initial charge density in first step


--------------------------------------------------------------------------------------------------------


 Maximum index for non-local projection operator          698
 Maximum index for augmentation-charges         5583 (set IRDMAX)


--------------------------------------------------------------------------------------------------------


 First call to EWALD:  gamma=   0.142
 Maximum number of real-space cells 3x 3x 3
 Maximum number of reciprocal cells 3x 3x 3

    FEWALD:  cpu time    0.0101: real time    0.0108


--------------------------------------- Iteration      1(   1)  ---------------------------------------


    POTLOK:  cpu time    0.1532: real time    0.1622
    SETDIJ:  cpu time    0.3293: real time    0.3293
     EDDAV:  cpu time   38.7854: real time   38.7871
       DOS:  cpu time    0.0033: real time    0.0033
    --------------------------------------------
      LOOP:  cpu time   39.2713: real time   39.2819

 eigenvalue-minimisations  :  8320
 total energy-change (2. order) : 0.9360990E+04  (-0.4721108E+05)
 number of electron     864.0000000 magnetization 
 augmentation part      864.0000000 magnetization 

 Free energy of the ion-electron system (eV)
  ---------------------------------------------------
  alpha Z        PSCENC =      2431.37857233
  Ewald energy   TEWEN  =    -41912.48521621
  -Hartree energ DENC   =    -20545.47122237
  -exchange      EXHF   =         0.00000000
  -V(xc)+E(xc)   XCENC  =      3145.51171139
  PAW double counting   =     50594.51003143   -49994.65612350
  entropy T*S    EENTRO =        -0.03750344
  eigenvalues    EBANDS =       673.69953935
  atomic energy  EATOM  =     64968.54023382
  Solvation  Ediel_sol  =         0.00000000
  ---------------------------------------------------
  free energy    TOTEN  =      9360.99002280 eV

  energy without entropy =     9361.02752624  energy(sigma->0) =     9361.00877452


--------------------------------------------------------------------------------------------------------




--------------------------------------- Iteration      1(   2)  ---------------------------------------


     EDDAV:  cpu time   44.5803: real time   44.5978
       DOS:  cpu time    0.0015: real time    0.0015
    --------------------------------------------
      LOOP:  cpu time   44.5817: real time   44.5993

 eigenvalue-minimisations  :  9984
 total energy-change (2. order) :-0.9285927E+04  (-0.8991978E+04)
 number of electron     864.0000000 magnetization 
 augmentation part      864.0000000 magnetization 

 Free energy of the ion-electron system (eV)
  ---------------------------------------------------
  alpha Z        PSCENC =      2431.37857233
  Ewald energy   TEWEN  =    -41912.48521621
  -Hartree energ DENC   =    -20545.47122237
  -exchange      EXHF   =         0.00000000
  -V(xc)+E(xc)   XCENC  =      3145.51171139
  PAW double counting   =     50594.51003143   -49994.65612350
  entropy T*S    EENTRO =        -0.00000000
  eigenvalues    EBANDS =     -8612.26539338
  atomic energy  EATOM  =     64968.54023382
  Solvation  Ediel_sol  =         0.00000000
  ---------------------------------------------------
  free energy    TOTEN  =        75.06259351 eV

  energy without entropy =       75.06259351  energy(sigma->0) =       75.06259351


--------------------------------------------------------------------------------------------------------




--------------------------------------- Iteration      1(   3)  ---------------------------------------


     EDDAV:  cpu time   45.6850: real time   45.6854
       DOS:  cpu time    0.0013: real time    0.0013
    --------------------------------------------
      LOOP:  cpu time   45.6863: real time   45.6867

 eigenvalue-minimisations  : 10320
 total energy-change (2. order) :-0.1048930E+04  (-0.1038880E+04)
 number of electron     864.0000000 magnetization 
 augmentation part      864.0000000 magnetization 

 Free energy of the ion-electron system (eV)
  ---------------------------------------------------
  alpha Z        PSCENC =      2431.37857233
  Ewald energy   TEWEN  =    -41912.48521621
  -Hartree energ DENC   =    -20545.47122237
  -exchange      EXHF   =         0.00000000
  -V(xc)+E(xc)   XCENC  =      3145.51171139
  PAW double counting   =     50594.51003143   -49994.65612350
  entropy T*S    EENTRO =        -0.00000000
  eigenvalues    EBANDS =     -9661.19545803
  atomic energy  EATOM  =     64968.54023382
  Solvation  Ediel_sol  =         0.00000000
  ---------------------------------------------------
  free energy    TOTEN  =      -973.86747114 eV

  energy without entropy =     -973.86747114  energy(sigma->0) =     -973.86747114


--------------------------------------------------------------------------------------------------------




--------------------------------------- Iteration      1(   4)  ---------------------------------------


     EDDAV:  cpu time   49.0253: real time   49.0389
       DOS:  cpu time    0.0012: real time    0.0012
    --------------------------------------------
      LOOP:  cpu time   49.0264: real time   49.0401

 eigenvalue-minimisations  : 11296
 total energy-change (2. order) :-0.5021345E+02  (-0.5000187E+02)
 number of electron     864.0000000 magnetization 
 augmentation part      864.0000000 magnetization 

 Free energy of the ion-electron system (eV)
  ---------------------------------------------------
  alpha Z        PSCENC =      2431.37857233
  Ewald energy   TEWEN  =    -41912.48521621
  -Hartree energ DENC   =    -20545.47122237
  -exchange      EXHF   =         0.00000000
  -V(xc)+E(xc)   XCENC  =      3145.51171139
  PAW double counting   =     50594.51003143   -49994.65612350
  entropy T*S    EENTRO =        -0.00000000
  eigenvalues    EBANDS =     -9711.40890475
  atomic energy  EATOM  =     64968.54023382
  Solvation  Ediel_sol  =         0.00000000
  ---------------------------------------------------
  free energy    TOTEN  =     -1024.08091787 eV

  energy without entropy =    -1024.08091787  energy(sigma->0) =    -1024.08091787


--------------------------------------------------------------------------------------------------------




--------------------------------------- Iteration      1(   5)  ---------------------------------------


     EDDAV:  cpu time   61.2670: real time   61.2684
       DOS:  cpu time    0.0014: real time    0.0013
    CHARGE:  cpu time    1.5469: real time    1.5468
    MIXING:  cpu time    0.0083: real time    0.0085
    --------------------------------------------
      LOOP:  cpu time   62.8236: real time   62.8251

 eigenvalue-minimisations  : 14864
 total energy-change (2. order) :-0.6140854E+01  (-0.6137456E+01)
 number of electron     864.0000007 magnetization 
 augmentation part      132.8851230 magnetization 

 Broyden mixing:
  rms(total) = 0.82895E+01    rms(broyden)= 0.82889E+01
  rms(prec ) = 0.99861E+01
  weight for this iteration     100.00

 Free energy of the ion-electron system (eV)
  ---------------------------------------------------
  alpha Z        PSCENC =      2431.37857233
  Ewald energy   TEWEN  =    -41912.48521621
  -Hartree energ DENC   =    -20545.47122237
  -exchange      EXHF   =         0.00000000
  -V(xc)+E(xc)   XCENC  =      3145.51171139
  PAW double counting   =     50594.51003143   -49994.65612350
  entropy T*S    EENTRO =        -0.00000000
  eigenvalues    EBANDS =     -9717.54975852
  atomic energy  EATOM  =     64968.54023382
  Solvation  Ediel_sol  =         0.00000000
  ---------------------------------------------------
  free energy    TOTEN  =     -1030.22177164 eV

  energy without entropy =    -1030.22177164  energy(sigma->0) =    -1030.22177164


--------------------------------------------------------------------------------------------------------




--------------------------------------- Iteration      1(   6)  ---------------------------------------


    POTLOK:  cpu time    0.1574: real time    0.1712
    SETDIJ:  cpu time    0.3398: real time    0.3415
     EDDAV:  cpu time   43.9984: real time   43.9977
       DOS:  cpu time    0.0027: real time    0.0027
    CHARGE:  cpu time    1.5533: real time    1.5532
    MIXING:  cpu time    0.0064: real time    0.0064
    --------------------------------------------
      LOOP:  cpu time   46.0580: real time   46.0728

 eigenvalue-minimisations  :  9864
 total energy-change (2. order) : 0.1555197E+03  (-0.7575736E+02)
 number of electron     864.0000006 magnetization 
 augmentation part      116.8890236 magnetization 

 Broyden mixing:
  rms(total) = 0.42025E+01    rms(broyden)= 0.42013E+01
  rms(prec ) = 0.48716E+01
  weight for this iteration     100.00

 eigenvalues of (default mixing * dielectric matrix)
  average eigenvalue GAMMA=   0.8531
  0.8531

 Free energy of the ion-electron system (eV)
  ---------------------------------------------------
  alpha Z        PSCENC =      2431.37857233
  Ewald energy   TEWEN  =    -41912.48521621
  -Hartree energ DENC   =    -22046.90100412
  -exchange      EXHF   =         0.00000000
  -V(xc)+E(xc)   XCENC  =      3240.33259588
  PAW double counting   =     63170.75817141   -62709.03372905
  entropy T*S    EENTRO =        -0.00333324
  eigenvalues    EBANDS =     -8017.28837049
  atomic energy  EATOM  =     64968.54023382
  Solvation  Ediel_sol  =         0.00000000
  ---------------------------------------------------
  free energy    TOTEN  =      -874.70207967 eV

  energy without entropy =     -874.69874643  energy(sigma->0) =     -874.70041305


--------------------------------------------------------------------------------------------------------




--------------------------------------- Iteration      1(   7)  ---------------------------------------


    POTLOK:  cpu time    0.1193: real time    0.1212
    SETDIJ:  cpu time    0.3193: real time    0.3193
     EDDAV:  cpu time   47.3173: real time   47.3164
       DOS:  cpu time    0.0026: real time    0.0026
    CHARGE:  cpu time    1.5562: real time    1.5562
    MIXING:  cpu time    0.0062: real time    0.0062
    --------------------------------------------
      LOOP:  cpu time   49.3208: real time   49.3218

 eigenvalue-minimisations  : 10840
 total energy-change (2. order) :-0.1082737E+02  (-0.1146206E+02)
 number of electron     864.0000006 magnetization 
 augmentation part      117.3761489 magnetization 

 Broyden mixing:
  rms(total) = 0.29195E+01    rms(broyden)= 0.29189E+01
  rms(prec ) = 0.35452E+01
  weight for this iteration     100.00

 eigenvalues of (default mixing * dielectric matrix)
  average eigenvalue GAMMA=   0.7747
  0.8595  0.6900

 Free energy of the ion-electron system (eV)
  ---------------------------------------------------
  alpha Z        PSCENC =      2431.37857233
  Ewald energy   TEWEN  =    -41912.48521621
  -Hartree energ DENC   =    -22021.75099401
  -exchange      EXHF   =         0.00000000
  -V(xc)+E(xc)   XCENC  =      3235.84710255
  PAW double counting   =     71472.31727267   -71052.36073070
  entropy T*S    EENTRO =        -0.01773310
  eigenvalues    EBANDS =     -8006.99795224
  atomic energy  EATOM  =     64968.54023382
  Solvation  Ediel_sol  =         0.00000000
  ---------------------------------------------------
  free energy    TOTEN  =      -885.52944488 eV

  energy without entropy =     -885.51171178  energy(sigma->0) =     -885.52057833


--------------------------------------------------------------------------------------------------------




--------------------------------------- Iteration      1(   8)  ---------------------------------------


    POTLOK:  cpu time    0.1194: real time    0.1333
    SETDIJ:  cpu time    0.3199: real time    0.3199
     EDDAV:  cpu time   49.0929: real time   49.0937
       DOS:  cpu time    0.0031: real time    0.0031
    CHARGE:  cpu time    1.5451: real time    1.5451
    MIXING:  cpu time    0.0065: real time    0.0065
    --------------------------------------------
      LOOP:  cpu time   51.0869: real time   51.1016

 eigenvalue-minimisations  : 11280
 total energy-change (2. order) : 0.1168493E+02  (-0.3761261E+01)
 number of electron     864.0000006 magnetization 
 augmentation part      117.2717265 magnetization 

 Broyden mixing:
  rms(total) = 0.18078E+01    rms(broyden)= 0.18075E+01
  rms(prec ) = 0.22132E+01
  weight for this iteration     100.00

 eigenvalues of (default mixing * dielectric matrix)
  average eigenvalue GAMMA=   0.8362
  0.9954  0.8656  0.6476

 Free energy of the ion-electron system (eV)
  ---------------------------------------------------
  alpha Z        PSCENC =      2431.37857233
  Ewald energy   TEWEN  =    -41912.48521621
  -Hartree energ DENC   =    -22029.94813095
  -exchange      EXHF   =         0.00000000
  -V(xc)+E(xc)   XCENC  =      3235.40549340
  PAW double counting   =     74877.17189052   -74478.63128339
  entropy T*S    EENTRO =        -0.04628917
  eigenvalues    EBANDS =     -7965.22978210
  atomic energy  EATOM  =     64968.54023382
  Solvation  Ediel_sol  =         0.00000000
  ---------------------------------------------------
  free energy    TOTEN  =      -873.84451174 eV

  energy without entropy =     -873.79822258  energy(sigma->0) =     -873.82136716


--------------------------------------------------------------------------------------------------------




--------------------------------------- Iteration      1(   9)  ---------------------------------------


    POTLOK:  cpu time    0.1194: real time    0.1213
    SETDIJ:  cpu time    0.3196: real time    0.3196
     EDDAV:  cpu time   47.3872: real time   47.3864
       DOS:  cpu time    0.0026: real time    0.0026
    CHARGE:  cpu time    1.5523: real time    1.5522
    MIXING:  cpu time    0.0077: real time    0.0077
    --------------------------------------------
      LOOP:  cpu time   49.3887: real time   49.3898

 eigenvalue-minimisations  : 10848
 total energy-change (2. order) : 0.1118985E+01  (-0.2379891E+01)
 number of electron     864.0000006 magnetization 
 augmentation part      117.1321831 magnetization 

 Broyden mixing:
  rms(total) = 0.13639E+01    rms(broyden)= 0.13636E+01
  rms(prec ) = 0.17423E+01
  weight for this iteration     100.00

 eigenvalues of (default mixing * dielectric matrix)
  average eigenvalue GAMMA=   0.9131
  1.7479  0.9202  0.5609  0.4234

 Free energy of the ion-electron system (eV)
  ---------------------------------------------------
  alpha Z        PSCENC =      2431.37857233
  Ewald energy   TEWEN  =    -41912.48521621
  -Hartree energ DENC   =    -22069.85658402
  -exchange      EXHF   =         0.00000000
  -V(xc)+E(xc)   XCENC  =      3236.92580559
  PAW double counting   =     78072.08863984   -77690.62449594
  entropy T*S    EENTRO =        -0.00018520
  eigenvalues    EBANDS =     -7908.69229735
  atomic energy  EATOM  =     64968.54023382
  Solvation  Ediel_sol  =         0.00000000
  ---------------------------------------------------
  free energy    TOTEN  =      -872.72552715 eV

  energy without entropy =     -872.72534194  energy(sigma->0) =     -872.72543455


--------------------------------------------------------------------------------------------------------




--------------------------------------- Iteration      1(  10)  ---------------------------------------


    POTLOK:  cpu time    0.1477: real time    0.1618
    SETDIJ:  cpu time    0.3254: real time    0.3254
     EDDAV:  cpu time   44.9305: real time   44.9339
       DOS:  cpu time    0.0015: real time    0.0015
    CHARGE:  cpu time    1.5550: real time    1.5550
    MIXING:  cpu time    0.0070: real time    0.0070
    --------------------------------------------
      LOOP:  cpu time   46.9671: real time   46.9846

 eigenvalue-minimisations  : 10136
 total energy-change (2. order) :-0.2577941E+01  (-0.8650095E+00)
 number of electron     864.0000006 magnetization 
 augmentation part      116.8161205 magnetization 

 Broyden mixing:
  rms(total) = 0.23358E+01    rms(broyden)= 0.23354E+01
  rms(prec ) = 0.32747E+01
  weight for this iteration     100.00

 eigenvalues of (default mixing * dielectric matrix)
  average eigenvalue GAMMA=   0.8223
  1.7591  0.9877  0.5137  0.5137  0.3375

 Free energy of the ion-electron system (eV)
  ---------------------------------------------------
  alpha Z        PSCENC =      2431.37857233
  Ewald energy   TEWEN  =    -41912.48521621
  -Hartree energ DENC   =    -22126.45945381
  -exchange      EXHF   =         0.00000000
  -V(xc)+E(xc)   XCENC  =      3239.37745892
  PAW double counting   =     82616.67738416   -82258.64236912
  entropy T*S    EENTRO =        -0.00000000
  eigenvalues    EBANDS =     -7833.69007806
  atomic energy  EATOM  =     64968.54023382
  Solvation  Ediel_sol  =         0.00000000
  ---------------------------------------------------
  free energy    TOTEN  =      -875.30346797 eV

  energy without entropy =     -875.30346797  energy(sigma->0) =     -875.30346797


--------------------------------------------------------------------------------------------------------




--------------------------------------- Iteration      1(  11)  ---------------------------------------


    POTLOK:  cpu time    0.1197: real time    0.1214
    SETDIJ:  cpu time    0.3197: real time    0.3197
     EDDAV:  cpu time   46.6540: real time   46.6557
       DOS:  cpu time    0.0027: real time    0.0027
    CHARGE:  cpu time    1.5470: real time    1.5470
    MIXING:  cpu time    0.0069: real time    0.0069
    --------------------------------------------
      LOOP:  cpu time   48.6500: real time   48.6533

 eigenvalue-minimisations  : 10632
 total energy-change (2. order) : 0.3909059E+01  (-0.3836029E+00)
 number of electron     864.0000006 magnetization 
 augmentation part      117.2126184 magnetization 

 Broyden mixing:
  rms(total) = 0.71267E+00    rms(broyden)= 0.71185E+00
  rms(prec ) = 0.10118E+01
  weight for this iteration     100.00

 eigenvalues of (default mixing * dielectric matrix)
  average eigenvalue GAMMA=   0.8139
  1.9236  0.9420  0.6601  0.6601  0.4268  0.2709

 Free energy of the ion-electron system (eV)
  ---------------------------------------------------
  alpha Z        PSCENC =      2431.37857233
  Ewald energy   TEWEN  =    -41912.48521621
  -Hartree energ DENC   =    -22129.16474531
  -exchange      EXHF   =         0.00000000
  -V(xc)+E(xc)   XCENC  =      3239.37323960
  PAW double counting   =     82946.92861542   -82591.84428124
  entropy T*S    EENTRO =        -0.00322469
  eigenvalues    EBANDS =     -7824.11760307
  atomic energy  EATOM  =     64968.54023382
  Solvation  Ediel_sol  =         0.00000000
  ---------------------------------------------------
  free energy    TOTEN  =      -871.39440936 eV

  energy without entropy =     -871.39118467  energy(sigma->0) =     -871.39279701


--------------------------------------------------------------------------------------------------------




--------------------------------------- Iteration      1(  12)  ---------------------------------------


    POTLOK:  cpu time    0.1458: real time    0.1589
    SETDIJ:  cpu time    0.3263: real time    0.3262
     EDDAV:  cpu time   44.0220: real time   44.0212
       DOS:  cpu time    0.0031: real time    0.0031
    CHARGE:  cpu time    1.5500: real time    1.5499
    MIXING:  cpu time    0.0062: real time    0.0062
    --------------------------------------------
      LOOP:  cpu time   46.0532: real time   46.0655

 eigenvalue-minimisations  :  9896
 total energy-change (2. order) :-0.1259203E-01  (-0.2280336E+00)
 number of electron     864.0000006 magnetization 
 augmentation part      116.7672884 magnetization 

 Broyden mixing:
  rms(total) = 0.11857E+01    rms(broyden)= 0.11850E+01
  rms(prec ) = 0.16980E+01
  weight for this iteration     100.00

 eigenvalues of (default mixing * dielectric matrix)
  average eigenvalue GAMMA=   0.7295
  1.9981  0.9566  0.6363  0.6363  0.4313  0.3012  0.1467

 Free energy of the ion-electron system (eV)
  ---------------------------------------------------
  alpha Z        PSCENC =      2431.37857233
  Ewald energy   TEWEN  =    -41912.48521621
  -Hartree energ DENC   =    -22150.04678023
  -exchange      EXHF   =         0.00000000
  -V(xc)+E(xc)   XCENC  =      3240.31679961
  PAW double counting   =     83514.36015608   -83162.75709098
  entropy T*S    EENTRO =        -0.04676809
  eigenvalues    EBANDS =     -7800.66690772
  atomic energy  EATOM  =     64968.54023382
  Solvation  Ediel_sol  =         0.00000000
  ---------------------------------------------------
  free energy    TOTEN  =      -871.40700138 eV

  energy without entropy =     -871.36023329  energy(sigma->0) =     -871.38361734


--------------------------------------------------------------------------------------------------------




--------------------------------------- Iteration      1(  13)  ---------------------------------------


    POTLOK:  cpu time    0.1196: real time    0.1221
    SETDIJ:  cpu time    0.3197: real time    0.3197
     EDDAV:  cpu time   44.6696: real time   44.6687
       DOS:  cpu time    0.0029: real time    0.0028
    CHARGE:  cpu time    1.5429: real time    1.5428
    MIXING:  cpu time    0.0074: real time    0.0074
    --------------------------------------------
      LOOP:  cpu time   46.6620: real time   46.6635

 eigenvalue-minimisations  : 10072
 total energy-change (2. order) : 0.1822365E+00  (-0.4539213E+00)
 number of electron     864.0000006 magnetization 
 augmentation part      116.8709322 magnetization 

 Broyden mixing:
  rms(total) = 0.84063E+00    rms(broyden)= 0.83996E+00
  rms(prec ) = 0.11823E+01
  weight for this iteration     100.00

 eigenvalues of (default mixing * dielectric matrix)
  average eigenvalue GAMMA=   0.7063
  2.1837  0.9560  0.7965  0.4562  0.4562  0.4308  0.2090  0.1620

 Free energy of the ion-electron system (eV)
  ---------------------------------------------------
  alpha Z        PSCENC =      2431.37857233
  Ewald energy   TEWEN  =    -41912.48521621
  -Hartree energ DENC   =    -22153.87891802
  -exchange      EXHF   =         0.00000000
  -V(xc)+E(xc)   XCENC  =      3240.54706715
  PAW double counting   =     83746.66651217   -83396.38723267
  entropy T*S    EENTRO =        -0.05751581
  eigenvalues    EBANDS =     -7795.54826763
  atomic energy  EATOM  =     64968.54023382
  Solvation  Ediel_sol  =         0.00000000
  ---------------------------------------------------
  free energy    TOTEN  =      -871.22476488 eV

  energy without entropy =     -871.16724907  energy(sigma->0) =     -871.19600698


--------------------------------------------------------------------------------------------------------




--------------------------------------- Iteration      1(  14)  ---------------------------------------


    POTLOK:  cpu time    0.1513: real time    0.1689
    SETDIJ:  cpu time    0.3371: real time    0.3371
     EDDAV:  cpu time   49.0078: real time   49.0069
       DOS:  cpu time    0.0028: real time    0.0027
    CHARGE:  cpu time    1.5475: real time    1.5475
    MIXING:  cpu time    0.0082: real time    0.0082
    --------------------------------------------
      LOOP:  cpu time   51.0548: real time   51.0713

 eigenvalue-minimisations  : 11344
 total energy-change (2. order) : 0.2034323E+00  (-0.2858200E+00)
 number of electron     864.0000006 magnetization 
 augmentation part      117.0139652 magnetization 

 Broyden mixing:
  rms(total) = 0.55774E+00    rms(broyden)= 0.55750E+00
  rms(prec ) = 0.81213E+00
  weight for this iteration     100.00

 eigenvalues of (default mixing * dielectric matrix)
  average eigenvalue GAMMA=   0.7288
  2.2920  1.0176  0.9665  0.6029  0.4696  0.4696  0.4103  0.1654  0.1654

 Free energy of the ion-electron system (eV)
  ---------------------------------------------------
  alpha Z        PSCENC =      2431.37857233
  Ewald energy   TEWEN  =    -41912.48521621
  -Hartree energ DENC   =    -22165.98085588
  -exchange      EXHF   =         0.00000000
  -V(xc)+E(xc)   XCENC  =      3241.14775370
  PAW double counting   =     84269.03141538   -83921.59172621
  entropy T*S    EENTRO =        -0.01342885
  eigenvalues    EBANDS =     -7781.04808065
  atomic energy  EATOM  =     64968.54023382
  Solvation  Ediel_sol  =         0.00000000
  ---------------------------------------------------
  free energy    TOTEN  =      -871.02133258 eV

  energy without entropy =     -871.00790373  energy(sigma->0) =     -871.01461815


--------------------------------------------------------------------------------------------------------




--------------------------------------- Iteration      1(  15)  ---------------------------------------


    POTLOK:  cpu time    0.1665: real time    0.1688
    SETDIJ:  cpu time    0.3420: real time    0.3421
     EDDAV:  cpu time   47.5731: real time   47.5736
       DOS:  cpu time    0.0029: real time    0.0029
    CHARGE:  cpu time    1.5519: real time    1.5518
    MIXING:  cpu time    0.0074: real time    0.0074
    --------------------------------------------
      LOOP:  cpu time   49.6438: real time   49.6466

 eigenvalue-minimisations  : 10896
 total energy-change (2. order) : 0.3878208E+00  (-0.3285366E-01)
 number of electron     864.0000006 magnetization 
 augmentation part      116.9069990 magnetization 

 Broyden mixing:
  rms(total) = 0.43511E+00    rms(broyden)= 0.43509E+00
  rms(prec ) = 0.64651E+00
  weight for this iteration     100.00

 eigenvalues of (default mixing * dielectric matrix)
  average eigenvalue GAMMA=   0.7754
  2.3310  1.4422  0.8674  0.8674  0.5056  0.5056  0.5321  0.3629  0.1701  0.1701

 Free energy of the ion-electron system (eV)
  ---------------------------------------------------
  alpha Z        PSCENC =      2431.37857233
  Ewald energy   TEWEN  =    -41912.48521621
  -Hartree energ DENC   =    -22176.95150711
  -exchange      EXHF   =         0.00000000
  -V(xc)+E(xc)   XCENC  =      3241.69391091
  PAW double counting   =     84446.72676833   -84100.18642674
  entropy T*S    EENTRO =        -0.01836230
  eigenvalues    EBANDS =     -7769.33148485
  atomic energy  EATOM  =     64968.54023382
  Solvation  Ediel_sol  =         0.00000000
  ---------------------------------------------------
  free energy    TOTEN  =      -870.63351182 eV

  energy without entropy =     -870.61514952  energy(sigma->0) =     -870.62433067


--------------------------------------------------------------------------------------------------------




--------------------------------------- Iteration      1(  16)  ---------------------------------------


    POTLOK:  cpu time    0.1568: real time    0.1696
    SETDIJ:  cpu time    0.3480: real time    0.3480
     EDDAV:  cpu time   47.6967: real time   47.6976
       DOS:  cpu time    0.0029: real time    0.0029
    CHARGE:  cpu time    1.5587: real time    1.5587
    MIXING:  cpu time    0.0071: real time    0.0071
    --------------------------------------------
      LOOP:  cpu time   49.7702: real time   49.7837

 eigenvalue-minimisations  : 10912
 total energy-change (2. order) : 0.1367465E+00  (-0.5021958E-01)
 number of electron     864.0000006 magnetization 
 augmentation part      116.8045844 magnetization 

 Broyden mixing:
  rms(total) = 0.57685E+00    rms(broyden)= 0.57661E+00
  rms(prec ) = 0.81636E+00
  weight for this iteration     100.00

 eigenvalues of (default mixing * dielectric matrix)
  average eigenvalue GAMMA=   0.7342
  2.3598  1.5119  0.8171  0.8171  0.5736  0.5736  0.3779  0.3779  0.3248  0.1714
  0.1714

 Free energy of the ion-electron system (eV)
  ---------------------------------------------------
  alpha Z        PSCENC =      2431.37857233
  Ewald energy   TEWEN  =    -41912.48521621
  -Hartree energ DENC   =    -22180.81405537
  -exchange      EXHF   =         0.00000000
  -V(xc)+E(xc)   XCENC  =      3241.80991109
  PAW double counting   =     84404.29785915   -84057.53336152
  entropy T*S    EENTRO =        -0.04740255
  eigenvalues    EBANDS =     -7765.64330604
  atomic energy  EATOM  =     64968.54023382
  Solvation  Ediel_sol  =         0.00000000
  ---------------------------------------------------
  free energy    TOTEN  =      -870.49676530 eV

  energy without entropy =     -870.44936275  energy(sigma->0) =     -870.47306403


--------------------------------------------------------------------------------------------------------




--------------------------------------- Iteration      1(  17)  ---------------------------------------


    POTLOK:  cpu time    0.1474: real time    0.1521
    SETDIJ:  cpu time    0.3284: real time    0.3284
     EDDAV:  cpu time   46.7439: real time   46.7431
       DOS:  cpu time    0.0029: real time    0.0029
    CHARGE:  cpu time    1.5573: real time    1.5573
    MIXING:  cpu time    0.0074: real time    0.0074
    --------------------------------------------
      LOOP:  cpu time   48.7873: real time   48.7912

 eigenvalue-minimisations  : 10688
 total energy-change (2. order) : 0.1227969E+00  (-0.1644835E-01)
 number of electron     864.0000006 magnetization 
 augmentation part      116.8599221 magnetization 

 Broyden mixing:
  rms(total) = 0.23581E+00    rms(broyden)= 0.23561E+00
  rms(prec ) = 0.35781E+00
  weight for this iteration     100.00

 eigenvalues of (default mixing * dielectric matrix)
  average eigenvalue GAMMA=   0.7627
  2.3392  1.8189  0.8190  0.8190  0.7156  0.7156  0.4339  0.4339  0.4194  0.2947
  0.1717  0.1717

 Free energy of the ion-electron system (eV)
  ---------------------------------------------------
  alpha Z        PSCENC =      2431.37857233
  Ewald energy   TEWEN  =    -41912.48521621
  -Hartree energ DENC   =    -22183.17873191
  -exchange      EXHF   =         0.00000000
  -V(xc)+E(xc)   XCENC  =      3241.91542048
  PAW double counting   =     84402.16294650   -84055.40742241
  entropy T*S    EENTRO =        -0.04048997
  eigenvalues    EBANDS =     -7763.25928107
  atomic energy  EATOM  =     64968.54023382
  Solvation  Ediel_sol  =         0.00000000
  ---------------------------------------------------
  free energy    TOTEN  =      -870.37396844 eV

  energy without entropy =     -870.33347847  energy(sigma->0) =     -870.35372346


--------------------------------------------------------------------------------------------------------




--------------------------------------- Iteration      1(  18)  ---------------------------------------


    POTLOK:  cpu time    0.1448: real time    0.1581
    SETDIJ:  cpu time    0.3283: real time    0.3283
     EDDAV:  cpu time   45.2820: real time   45.2826
       DOS:  cpu time    0.0027: real time    0.0027
    CHARGE:  cpu time    1.5570: real time    1.5570
    MIXING:  cpu time    0.0079: real time    0.0079
    --------------------------------------------
      LOOP:  cpu time   47.3229: real time   47.3367

 eigenvalue-minimisations  : 10264
 total energy-change (2. order) : 0.6354897E-01  (-0.3738785E-02)
 number of electron     864.0000006 magnetization 
 augmentation part      116.7877789 magnetization 

 Broyden mixing:
  rms(total) = 0.21029E+00    rms(broyden)= 0.21024E+00
  rms(prec ) = 0.31781E+00
  weight for this iteration     100.00

 eigenvalues of (default mixing * dielectric matrix)
  average eigenvalue GAMMA=   0.7364
  2.2889  1.8173  0.8486  0.8486  0.7836  0.7836  0.4426  0.4426  0.3915  0.2914
  0.2914  0.1719  0.1719

 Free energy of the ion-electron system (eV)
  ---------------------------------------------------
  alpha Z        PSCENC =      2431.37857233
  Ewald energy   TEWEN  =    -41912.48521621
  -Hartree energ DENC   =    -22186.48264933
  -exchange      EXHF   =         0.00000000
  -V(xc)+E(xc)   XCENC  =      3242.03188266
  PAW double counting   =     84340.69892391   -83993.65889479
  entropy T*S    EENTRO =        -0.06070723
  eigenvalues    EBANDS =     -7760.27256463
  atomic energy  EATOM  =     64968.54023382
  Solvation  Ediel_sol  =         0.00000000
  ---------------------------------------------------
  free energy    TOTEN  =      -870.31041947 eV

  energy without entropy =     -870.24971224  energy(sigma->0) =     -870.28006586


--------------------------------------------------------------------------------------------------------




--------------------------------------- Iteration      1(  19)  ---------------------------------------


    POTLOK:  cpu time    0.1392: real time    0.1436
    SETDIJ:  cpu time    0.3252: real time    0.3252
     EDDAV:  cpu time   46.6319: real time   46.6309
       DOS:  cpu time    0.0029: real time    0.0029
    CHARGE:  cpu time    1.5547: real time    1.5547
    MIXING:  cpu time    0.0084: real time    0.0084
    --------------------------------------------
      LOOP:  cpu time   48.6623: real time   48.6657

 eigenvalue-minimisations  : 10656
[...]
   0.266E+01 -.281E+02 0.925E+02   0.637E+01 0.386E+02 -.916E+02   -.106E+02 -.110E+02 -.199E+01   0.661E-02 -.119E-02 -.326E-02
   0.693E+02 -.163E+03 0.699E+01   -.693E+02 0.187E+03 -.864E+01   -.504E+00 -.260E+02 0.333E+01   -.197E-02 0.410E-02 -.323E-02
   -.464E+02 -.132E+02 0.675E+02   0.508E+02 0.813E+00 -.656E+02   -.498E+01 0.160E+02 -.303E+01   0.194E-03 -.427E-02 -.272E-02
   -.534E+02 0.281E+02 -.182E+02   0.698E+02 -.438E+02 0.189E+02   -.174E+02 0.908E+01 0.317E+01   -.334E-02 -.640E-03 -.460E-02
   0.110E+03 0.172E+02 -.259E+02   -.101E+03 -.304E+02 0.780E+01   -.116E+02 0.150E+02 0.186E+02   -.100E-02 0.200E-02 -.243E-01
   -.175E+03 -.678E+02 -.745E+02   0.200E+03 0.883E+02 0.884E+02   -.262E+02 -.196E+02 -.133E+02   -.237E-02 -.209E-02 -.269E-02
   -.337E+02 -.401E+02 -.106E+03   0.454E+02 0.651E+02 0.130E+03   -.109E+02 -.215E+02 -.182E+02   0.286E-02 0.106E-02 -.331E-02
   0.151E+03 -.156E+03 0.429E+01   -.150E+03 0.174E+03 0.906E+01   -.325E+00 -.195E+02 -.161E+02   -.248E-04 -.412E-02 -.586E-02
   -.157E+03 0.229E+02 0.924E+02   0.180E+03 -.148E+02 -.886E+02   -.232E+02 -.491E+01 -.704E+01   -.160E-02 0.158E-02 -.155E-03
   0.865E+02 0.736E+02 -.249E+02   -.928E+02 -.994E+02 0.279E+02   0.546E+01 0.261E+02 0.456E+00   -.225E-02 0.586E-02 -.658E-03
   -.106E+02 -.710E+02 -.935E+02   0.270E+02 0.942E+02 0.939E+02   -.184E+02 -.272E+02 -.159E+01   0.349E-02 -.346E-02 0.227E-02
   -.722E+02 0.803E+01 0.170E+03   0.747E+02 -.137E+02 -.186E+03   -.270E+01 0.745E+01 0.205E+02   -.110E-01 -.944E-02 0.249E-02
   -.784E+01 0.501E+02 -.182E+03   0.461E+01 -.433E+02 0.179E+03   0.452E+01 -.101E+02 0.515E+01   0.214E-02 -.192E-03 0.269E-02
   -.470E+02 0.423E+02 0.108E+03   0.691E+02 -.425E+02 -.137E+03   -.217E+02 -.189E+01 0.241E+02   -.297E-02 -.194E-02 -.239E-03
   0.219E+03 0.314E+01 0.841E+02   -.240E+03 0.132E+01 -.852E+02   0.230E+02 -.487E+01 -.556E+00   0.378E-04 0.135E-01 0.292E-02
   -.125E+03 0.116E+02 0.138E+03   0.128E+03 -.116E+02 -.173E+03   -.551E+01 -.192E+01 0.335E+02   -.897E-03 0.186E-02 -.441E-02
   -.657E+02 0.577E+02 0.113E+02   0.891E+02 -.380E+02 -.104E+02   -.200E+02 -.198E+02 -.106E+01   -.234E-02 -.474E-02 -.470E-02
   -.966E+02 0.101E+02 0.743E+01   0.111E+03 -.926E+01 -.263E+01   -.182E+02 -.218E+01 -.553E+01   0.127E-02 -.273E-02 -.225E-02
   0.179E+02 -.299E+02 -.984E+02   -.366E+02 0.482E+02 0.100E+03   0.198E+02 -.203E+02 -.876E+00   -.751E-02 -.170E-03 -.588E-02
   0.127E+03 0.765E+02 0.403E+02   -.141E+03 -.102E+03 -.363E+02   0.160E+02 0.251E+02 -.368E+01   0.865E-02 -.552E-02 -.741E-02
   0.115E+03 -.832E+01 0.610E+01   -.131E+03 0.161E+02 -.164E+02   0.128E+02 -.796E+01 0.838E+01   0.475E-02 -.467E-02 -.966E-03
   -.137E+03 -.858E+01 0.332E+02   0.139E+03 -.121E+01 -.342E+02   -.317E+01 0.139E+02 0.240E+01   0.154E-02 0.457E-02 -.156E-02
   0.569E+02 -.521E+02 -.120E+03   -.604E+02 0.670E+02 0.102E+03   0.350E+01 -.136E+02 0.233E+02   -.427E-02 -.496E-02 0.247E-02
   -.838E+02 -.596E+02 -.101E+03   0.860E+02 0.350E+02 0.114E+03   0.746E+00 0.271E+02 -.149E+02   -.238E-02 0.119E-02 -.333E-02
   0.144E+02 0.454E+02 -.311E+02   -.252E+02 -.382E+02 0.440E+02   0.121E+02 -.949E+01 -.140E+02   0.161E-02 -.332E-02 0.719E-02
   -.440E+02 -.304E+02 -.285E+02   0.733E+02 0.256E+02 0.323E+02   -.286E+02 0.616E+01 -.267E+01   0.493E-02 -.793E-03 0.556E-02
   0.960E+02 0.818E+02 -.104E+03   -.919E+02 -.716E+02 0.109E+03   -.414E+01 -.171E+02 -.220E+01   0.338E-02 0.112E-01 -.692E-02
   0.808E+02 0.381E+02 -.539E+02   -.758E+02 -.232E+02 0.680E+02   -.376E+01 -.187E+02 -.142E+02   -.134E-02 0.183E-03 0.198E-02
   -.109E+03 0.224E+02 -.203E+03   0.925E+02 -.119E+02 0.220E+03   0.186E+02 -.905E+01 -.163E+02   0.574E-02 -.348E-02 0.423E-02
   -.804E+02 -.845E+00 -.590E+02   0.929E+02 0.257E+01 0.799E+02   -.129E+02 -.164E+00 -.198E+02   0.282E-02 0.274E-02 -.186E-02
   -.858E+02 -.108E+03 0.844E+02   0.905E+02 0.121E+03 -.880E+02   -.475E+01 -.131E+02 0.359E+01   -.101E-01 0.105E-01 -.840E-03
   -.142E+02 -.791E+02 -.267E+02   0.166E+02 0.953E+02 0.229E+02   -.332E+01 -.197E+02 0.490E+01   0.739E-02 0.708E-02 0.350E-02
   -.111E+03 0.564E+02 0.155E+02   0.126E+03 -.676E+02 -.291E+02   -.147E+02 0.117E+02 0.159E+02   -.491E-02 0.664E-02 0.317E-02
   0.990E+02 0.628E+02 0.172E+03   -.100E+03 -.905E+02 -.170E+03   -.549E+00 0.277E+02 -.601E+01   -.172E-02 0.509E-02 0.861E-03
   0.695E+02 -.522E+02 -.113E+03   -.732E+02 0.402E+02 0.131E+03   -.321E+00 0.137E+02 -.142E+02   -.640E-02 0.442E-02 -.285E-02
   0.545E+02 -.121E+02 -.723E+02   -.525E+02 0.169E+02 0.938E+02   -.395E+01 -.545E+01 -.250E+02   0.169E-02 -.337E-02 0.503E-02
   -.172E+03 -.386E+01 -.226E+02   0.177E+03 0.390E+01 0.907E+01   -.237E+01 0.314E+00 0.886E+01   0.339E-02 0.275E-02 0.221E-02
   0.574E+02 0.135E+02 -.775E+02   -.387E+02 -.510E+01 0.769E+02   -.198E+02 -.991E+01 0.881E+00   0.246E-02 -.191E-02 0.780E-04
   -.760E+02 0.121E+03 0.276E+02   0.521E+02 -.139E+03 -.243E+02   0.267E+02 0.185E+02 -.385E+01   0.491E-02 -.290E-02 0.225E-02
   -.168E+03 -.212E+00 0.646E+02   0.183E+03 0.170E+02 -.570E+02   -.161E+02 -.186E+02 -.779E+01   -.248E-02 -.269E-02 -.159E-02
   -.199E+02 0.129E+03 0.777E+02   0.642E+00 -.145E+03 -.812E+02   0.179E+02 0.144E+02 0.205E+01   0.433E-02 0.430E-02 0.538E-02
   0.993E+02 -.937E+01 -.284E+02   -.124E+03 0.190E+02 0.438E+02   0.275E+02 -.981E+01 -.167E+02   -.776E-03 -.117E-01 0.141E-01
   0.183E+03 0.724E+01 0.125E+03   -.171E+03 -.198E+01 -.129E+03   -.184E+02 -.799E+01 0.210E+01   0.206E-02 -.899E-02 -.549E-02
   -.849E+02 -.857E+02 -.194E+03   0.767E+02 0.958E+02 0.201E+03   0.982E+01 -.100E+02 -.740E+01   -.103E-02 0.168E-02 0.360E-02
   -.202E+03 0.934E+02 -.691E+02   0.222E+03 -.109E+03 0.818E+02   -.178E+02 0.173E+02 -.132E+02   -.105E-01 0.598E-03 0.467E-02
   -.755E+02 0.514E+02 -.302E+02   0.576E+02 -.700E+02 0.447E+02   0.199E+02 0.186E+02 -.148E+02   -.109E-01 -.623E-02 -.809E-02
   -.349E+02 -.914E+01 0.206E+03   0.351E+02 -.485E+00 -.231E+03   -.844E+00 0.107E+02 0.290E+02   0.823E-03 -.261E-03 -.538E-02
   -.903E+02 0.157E+03 0.932E+02   0.951E+02 -.162E+03 -.934E+02   -.287E+01 0.397E+01 -.239E+01   -.295E-02 -.182E-02 -.294E-02
 -----------------------------------------------------------------------------------------------
   0.571E+01 -.482E+02 0.180E+03   0.227E-12 0.426E-12 -.284E-12   -.569E+01 0.482E+02 -.180E+03   -.210E-01 0.288E-01 -.606E-01
 
 
 POSITION                                       TOTAL-FORCE (eV/Angst)
 -----------------------------------------------------------------------------------
      8.57011     11.44313      2.27756         0.412008     -0.497356     -0.796449
      6.21638     11.24901      4.33391        -0.829121      2.301446     -2.172396
      9.35636     11.46712      5.58262         1.615246     -0.956982      0.341397
      2.41485      2.03053     11.13199        -0.742890      0.679600      1.401783
      1.33674      6.82081     11.71808        -0.114430      0.233925      3.886644
     10.21401     12.37658     10.29239         3.293770     -2.691130     -3.291190
     11.08917      9.73625      0.93649         1.631131     -1.480389      1.511568
      6.95779      9.15661     12.49813        -0.965061      0.322293      0.541947
     10.45963      7.86564      7.04775        -1.460825     -4.322306     -0.866078
      4.87195      8.70324      7.33686        -1.250340      0.576974     -0.070824
      0.77448     10.63170     11.45184        -0.404673     -1.453762     -0.740442
      1.84740      3.99214      4.63157         0.306180     -0.672745      1.096144
      4.82387      6.00098     11.40827        -0.223498     -0.152172     -1.152088
      4.14892      2.40267      8.77687         0.400644      1.225462     -0.094493
      9.24480      4.46399      2.36719        -0.497400     -2.825897      0.926921
     11.32457      3.40080     11.35285        -0.967261      0.934570      2.253477
     11.30624      9.24293      5.07431         2.254391     -0.423496     -2.030760
      2.73194     10.94745      4.73259        -3.581790      0.460283     -4.199529
     11.73495      3.58074      8.33297         2.323206      0.410300     -1.603442
      5.92033      5.40892      4.15720         4.003877     -2.886752      1.175914
      7.30802      4.61264      7.21796        -0.990036      0.126544     -0.812030
      9.34798      6.52532      8.90483        -3.365522     -1.144051      3.185864
      0.40633      0.30725      1.69603         0.169427     -0.137500      1.771209
      1.79041      7.75735      8.92996         0.865468      0.872946     -2.688260
      8.55437      2.27397      4.46691        -2.017966     -2.690858     -0.404978
      5.25960      2.95949      0.78636         2.338692     -1.879740     -4.829826
     12.50846      6.62159      3.42388        -0.641750      0.905348     -1.323814
      8.71321      1.82032      8.55276        -3.577179      4.138802     -1.796916
     12.44222      0.53572      5.43326         0.721704      1.158919      0.827647
      4.04570      1.74644      2.85627         0.708450      0.355674      3.106823
      3.57117      7.77861      3.58208         3.936631     -1.164241      0.683764
      2.11346      4.60412      9.80191         3.128484      2.447966      0.178311
      9.91343      6.28930      0.24981         0.979272     -3.025285     -1.634459
      9.92825      5.32015      5.56912         1.291156     -3.331157      0.812546
      3.69264      5.25975      1.87083        -0.974984      5.805697     -2.237894
      7.68379      3.94036     10.42140        -2.454117      4.355914     -2.825113
     11.12570      2.43661      5.32112         0.717372      2.128721     -3.629295
      3.22226     11.92067      7.29976         3.581539     -1.630694      2.904268
      7.65223      6.64598      1.13165        -2.871320      0.430403      0.406055
      7.29430      8.25159      5.98637         3.927965      2.885506     -1.340230
      1.20335     12.50472      9.59775         1.138101     -0.228898     -0.182266
      9.01546      8.61419      3.45114        -1.140276      2.342597     -1.839460
      1.73791      7.81698      5.49510         0.042797     -0.117216     -4.317432
      4.69101     12.10955     11.39424         0.092038      2.469528      2.756635
      5.21080      2.48587      5.83188         2.774678      5.410850      1.574972
      1.99328      9.12296      0.89882        -2.711436      1.021665      7.065825
      9.22942      9.93416     11.18410         3.670120     -2.690843     -3.581106
      9.36885      1.16485      0.05400        -2.875240      0.104573      1.758953
      3.89156      9.88677     10.85814         1.967635     -1.046608      0.205086
     12.05484     10.63185      7.51182         0.374048      4.944196      3.457651
      6.83746     11.40075      9.70411        -4.092234      2.262610     -1.634077
      7.03648      0.75618      7.10186        -1.461736     -0.273184     -0.665915
     11.79309      6.13376     10.01641         6.681585      3.897404      1.357157
      1.40544      2.90890      1.29657        -4.189328      3.978852      2.158059
     10.09073     12.42851      0.93623         0.910726      2.298048     -2.916351
      3.29671     11.70461     10.41332         3.886096     -6.832982      1.061553
      9.03577      7.50760      0.88240         0.767433      2.647825     -1.003055
      9.43314      5.82157      6.96237        -2.124667      0.985399      2.787569
      0.61690      5.16515     10.67774        -0.977558     -3.496175     -4.038652
      8.70406      8.91186      6.73621        -0.564571     -1.296213      0.345205
      2.40650      0.12299      6.31858        -2.907899      3.583538     -3.676448
      0.78138      8.08636      0.83413         0.027151     -0.199766      1.099456
      9.20717      9.95501      0.15552        -2.929131      3.201052      5.675998
      3.48449      9.12100      2.74744        -1.996401      2.409965     -2.902200
      6.26085      7.67345      1.39284         3.119733     -2.010444     -3.544281
      6.82944      5.12877      9.16415         1.364756     -0.716664      2.738257
      2.66934      6.27245     10.30471         0.865042     -3.173528     -3.030962
     11.34321      9.79621     11.17281        -3.648371      2.472403     -0.184698
      1.10655      2.57917      3.04220         0.488518      2.166469     -4.081563
      0.86108      8.71701      4.39654        -2.526389      0.432153      0.884940
      7.57192      2.49769      9.45582        -1.549880      2.869553      3.471779
      8.67348      4.24880      5.29368         4.126069      3.518803     -2.795014
      4.81608      6.67831      3.36815        -4.850533      1.935779     -3.087061
      5.77395     11.48692      8.03191         2.590436      2.434332      1.853823
      6.43824      7.08055      6.85315         1.370530      2.252335     -2.134293
      8.49721      5.44565      0.09610        -1.360805      0.127072     -0.285597
      7.85591      5.94047      2.49306        -1.369692     -1.551867      2.864580
      5.67960      2.19893      2.68911        -3.623592     -2.620062      0.171614
      8.04576      0.39717      8.56257        -1.037470     -3.528749     -0.863159
      4.96786     10.67695     12.46884        -0.825431      0.513507     -4.019681
      1.92143      6.40668      6.00120        -1.374910     -5.530768      2.040138
      3.01707      3.12852      1.30762         1.786155     -1.046804      0.057935
      0.35447      2.08935      0.17486         2.652733      1.095452      3.310185
      3.68508     10.63658      6.33151         3.681220      0.208954      5.619472
      7.85032      0.23645      3.57715        -0.556319      0.137423      0.954616
      7.84430      2.49184      6.92202         0.268254     -6.453644      3.332168
      6.01242      9.97899      9.92575         0.599403      0.289091      2.056082
      2.73603      0.49597      8.78894        -1.551315     -0.428185     -1.087349
     12.50655      7.67975      9.99556        -0.565377     -1.426404      1.673622
      0.95393     10.54723      9.03497        -0.607193      3.586945     -1.154702
      0.13867     11.72687      6.16708        -0.987678     -6.615571      3.808654
      7.80783     12.42058      6.05032        -3.499334      1.852638      0.437962
      0.22962      2.05496      5.91488        -1.750464      0.897320      0.582163
      2.18723      8.78321      6.54642         0.786756      3.597321      4.959953
      5.04346      3.46509      7.26725        -0.191667     -1.296507     -2.794728
     11.22313      6.28833      5.47249         0.624638      3.171955     -3.229080
      8.32707      7.50315      4.42807        -0.807231      0.255996      3.461894
      6.10614      0.43349     10.81408        -1.980428     -4.059835     -1.184763
     10.75494      2.14485      3.37527        -0.216323      1.801767      4.144102
      1.07281      4.95002      0.53045         1.290720     -3.270676      2.693898
      0.66239      0.34571      4.15245         0.400861     -2.004518     -5.219115
      7.61748      9.52810      3.06083         1.422204     -0.396440     -1.591323
     11.62868      6.01214      8.49583        -2.100983     -1.912529     -2.369648
      9.96710      2.62625      8.54560         3.438672     -0.025971     -0.224184
      3.80210      3.99931     10.58889        -3.551566     -1.358508     -0.730858
     10.75395     11.66948      7.74334         1.101779     -2.014060      0.987629
      5.27055      0.95449      6.44650         2.319490     -0.130368      0.380601
      4.13401      2.67159      4.64748        -2.474682     -0.200779     -1.905956
      4.22909      7.96037      9.70306        -1.119681      4.106602      1.372600
      9.58731      1.59249     10.87888        -0.040713      1.335527      5.491764
     11.76235      9.09136      7.70126         2.883726      2.505454     -1.075793
      6.48705      4.39428     11.60542         1.344787     -2.294897     -1.044819
      5.11307      4.61411      1.84597         0.683759      1.415258      1.113476
      6.95577     10.06707      5.56100        -0.001151     -6.892508      3.410010
      8.21786     11.55404     10.69114         1.214254     -3.789529     -0.047651
      3.71494      0.61398     12.20366         1.932490      1.440742      0.656747
      4.22781      8.07319      5.05548        -0.404965      1.567516      1.066627
      9.91311     10.14738      3.84550        -0.136748     -0.150226     -0.016731
      3.66569      6.79812      0.80663        -0.837715     -3.441833      1.165906
     10.37533      8.00075      2.65698         0.472695      0.526593      2.272158
      8.97961      8.34111     11.07655        -1.533690      0.028600     -3.752964
     11.04597      5.83660     11.33790        -3.990299      1.780318      4.031274
      1.33128      0.14650     11.33827        -1.870541     -0.729058     -3.484694
      2.67713      9.41103     12.07819         2.643162      0.365531     -4.689674
      9.21555      4.64749     10.19556        -1.129440     -1.540736      0.350471
      2.88331      0.61998      2.95769         2.832912      0.494472     -0.519149
     11.26796      4.03936      5.80573        -1.225708     -1.843028     -0.210790
      2.21187      6.99101      3.76529        -1.367913     -1.972342     -1.438537
      8.05669      1.76650      0.82811         2.376822     -0.181561     -1.353065
      6.77079      3.52421      5.27654        -6.318250     -2.739463     -1.370579
      0.86203     10.51774      1.13883         1.586296      0.058667      0.307998
     10.66601      5.28878      1.27084         2.551126      1.645127     -0.438568
     10.23718      1.18332      5.88249         1.889263     -0.006863     -0.337031
      2.11680      3.84888      8.29244        -0.659421      1.122159      3.076626
      0.05589      2.49401     10.16913         1.896230     -1.421910     -2.522599
 -----------------------------------------------------------------------------------
    total drift:                                0.000681      0.003466      0.034651


--------------------------------------------------------------------------------------------------------



  FREE ENERGIE OF THE ION-ELECTRON SYSTEM (eV)
  ---------------------------------------------------
  free  energy   TOTEN  =      -870.22024988 eV

  energy  without entropy=     -870.16685314  energy(sigma->0) =     -870.19355151
 


--------------------------------------------------------------------------------------------------------


    POTLOK:  cpu time    0.4416: real time    0.4448


--------------------------------------------------------------------------------------------------------


     LOOP+:  cpu time 1523.9188: real time 1524.2053
    4ORBIT:  cpu time    0.0000: real time    0.0000

 total amount of memory used by VASP MPI-rank0   175577. kBytes
=======================================================================

   base      :      30000. kBytes
   nonlr-proj:      20247. kBytes
   fftplans  :      25568. kBytes
   grid      :      13529. kBytes
   one-center:        171. kBytes
   wavefun   :      86062. kBytes
 
  
  
 General timing and accounting informations for this job:
 ========================================================
  
                  Total CPU time used (sec):     1549.905
                            User time (sec):     1545.357
                          System time (sec):        4.548
                         Elapsed time (sec):     1550.482
  
                   Maximum memory used (kb):      320768.
                   Average memory used (kb):           0.
  
                          Minor page faults:       256814
                          Major page faults:            0
                 Voluntary context switches:         2056
