<?xml version="1.0" encoding="ISO-8859-1"?>
<modeling>
 <generator>
  <i name="program" type="string">vasp </i>
  <i name="version" type="string">5.4.4.18Apr17-6-g9f103f2a35  </i>
  <i name="subversion" type="string">(build Oct 31 2019 15:01:46) complex            parallel </i>
  <i name="platform" type="string">LinuxIFC </i>
  <i name="date" type="string">2024 04 29 </i>
  <i name="time" type="string">19:52:03 </i>
 </generator>
 <incar>
  <i type="int" name="ISTART">     0</i>
  <i type="string" name="PREC">a</i>
  <i type="logical" name="ADDGRID"> T  </i>
  <i type="int" name="IBRION">    -1</i>
  <i name="EDIFF">      0.00000100</i>
  <i name="EDIFFG">     -0.01000000</i>
  <i type="int" name="NSW">     1</i>
  <i type="int" name="ISIF">     2</i>
  <i type="int" name="ISYM">     0</i>
  <i name="ENCUT">    600.00000000</i>
  <i name="POTIM">      1.00000000</i>
  <i type="string" name="LREAL">  Auto</i>
  <i type="int" name="ISMEAR">     0</i>
  <i name="SIGMA">      0.05000000</i>
  <i name="KSPACING">      0.30000000</i>
  <i type="logical" name="KGAMMA"> T  </i>
  <i type="logical" name="LWAVE"> F  </i>
  <i type="logical" name="LCHARG"> F  </i>
  <i type="logical" name="LSCALAPACK"> F  </i>
  <v type="int" name="KPOINT_BSE">    -1     0     0     0</v>
 </incar>
 <structure name="primitive_cell" >
  <crystal>
   <varray name="basis" >
    <v>      10.56489661       0.00000000       0.00000000 </v>
    <v>       0.00000000      10.56489661       0.00000000 </v>
    <v>       0.00000000       0.00000000      10.56489661 </v>
   </varray>
   <i name="volume">   1179.22249153 </i>
   <varray name="rec_basis" >
    <v>       0.09465308       0.00000000       0.00000000 </v>
    <v>       0.00000000       0.09465308       0.00000000 </v>
    <v>       0.00000000       0.00000000       0.09465308 </v>
   </varray>
  </crystal>
  <varray name="positions" >
   <v>       0.44972026       0.31977076      -0.28660072 </v>
   <v>       0.29064236       0.44465501      -0.32320416 </v>
   <v>      -0.47278458       0.45413619      -0.42754012 </v>
   <v>      -0.48961561       0.21591199      -0.46924811 </v>
   <v>      -0.33306003       0.29902492      -0.32212406 </v>
   <v>       0.38713121       0.16020436      -0.14148327 </v>
   <v>       0.33798038       0.11450783      -0.35114601 </v>
   <v>      -0.39682697       0.36551408      -0.09879392 </v>
   <v>      -0.40821841       0.14779622      -0.16081279 </v>
   <v>       0.48122425      -0.46223253      -0.14416568 </v>
   <v>      -0.36519370       0.30947877      -0.47462894 </v>
   <v>       0.23331396       0.28634951      -0.45608650 </v>
   <v>       0.40908043      -0.41492242      -0.36435773 </v>
   <v>      -0.32807876      -0.49283643      -0.25522593 </v>
   <v>      -0.28208357       0.28167647      -0.16114194 </v>
   <v>       0.47667682       0.04210803      -0.17063651 </v>
   <v>       0.36165188       0.37413414      -0.00043710 </v>
   <v>       0.15136749       0.37055980      -0.36543988 </v>
   <v>      -0.35833871       0.09014335      -0.37837496 </v>
   <v>       0.39679644       0.07888591      -0.48121989 </v>
   <v>       0.16512614       0.28677946      -0.15738427 </v>
   <v>      -0.48378249       0.47300617      -0.01835685 </v>
   <v>      -0.48426615       0.20804887       0.01032580 </v>
   <v>       0.23233753       0.47544686      -0.09915639 </v>
   <v>       0.25367771       0.26757790      -0.02929581 </v>
   <v>      -0.44397108       0.37173339       0.39165539 </v>
   <v>       0.30000816       0.45748516       0.43071417 </v>
   <v>       0.18689520       0.06375976      -0.25724062 </v>
   <v>       0.31749793       0.14578248       0.39933578 </v>
   <v>      -0.28236156       0.18469107       0.45798771 </v>
   <v>      -0.21140795       0.42620298      -0.45957585 </v>
   <v>      -0.40874777      -0.30627502      -0.29656553 </v>
   <v>       0.30795286       0.14624889       0.04486799 </v>
   <v>      -0.27441486       0.20238741      -0.01822012 </v>
   <v>      -0.16323975       0.37442637      -0.18151679 </v>
   <v>       0.38916785      -0.07002786      -0.18531039 </v>
   <v>      -0.19012606       0.13426084      -0.21900607 </v>
   <v>       0.48801161       0.00107295      -0.02747664 </v>
   <v>       0.39625898      -0.41987282       0.39649441 </v>
   <v>      -0.42257496      -0.07383914      -0.24682776 </v>
   <v>      -0.43895803       0.39423447       0.10701854 </v>
   <v>       0.03946279       0.39697298      -0.27971052 </v>
   <v>      -0.35063137      -0.39893724      -0.04735496 </v>
   <v>      -0.45759613       0.16220043       0.33375183 </v>
   <v>      -0.12981089       0.29216467      -0.36290660 </v>
   <v>      -0.33979588      -0.35636367       0.49800778 </v>
   <v>       0.12732125       0.34307571       0.41097057 </v>
   <v>       0.30223573      -0.32131595      -0.07310339 </v>
   <v>       0.30205329      -0.31914902       0.49338287 </v>
   <v>       0.07832301       0.44819974       0.49246404 </v>
   <v>      -0.48272307      -0.03616049       0.43936339 </v>
   <v>      -0.46284806      -0.45727981       0.32592304 </v>
   <v>       0.17001072       0.30670849       0.07617439 </v>
   <v>       0.32516092      -0.08368240      -0.47844983 </v>
   <v>       0.47618204      -0.13974335      -0.39146611 </v>
   <v>       0.01609401       0.14004158      -0.33692059 </v>
   <v>      -0.25714579       0.00006241      -0.09670574 </v>
   <v>       0.27554322      -0.24140860      -0.32565954 </v>
   <v>       0.10456498       0.10027517      -0.03706696 </v>
   <v>       0.43728767      -0.42864118       0.12341113 </v>
   <v>       0.22950435      -0.26349968      -0.17647070 </v>
   <v>       0.48582108      -0.23055878      -0.10442786 </v>
   <v>      -0.15549830       0.07278925      -0.43093012 </v>
   <v>       0.14187111       0.06719898       0.42755312 </v>
   <v>       0.28646757      -0.03681152       0.01072374 </v>
   <v>      -0.41181669       0.40975973       0.24922050 </v>
   <v>       0.05061531       0.46628771      -0.02933508 </v>
   <v>       0.40962326       0.23613996       0.20359744 </v>
   <v>       0.09274161      -0.35505941      -0.15945100 </v>
   <v>       0.20246182      -0.46907267       0.10655521 </v>
   <v>       0.30917012       0.39906910       0.22742040 </v>
   <v>      -0.02426049       0.21385773      -0.12006434 </v>
   <v>      -0.19871051       0.48580055       0.05344014 </v>
   <v>       0.17523368       0.23064935       0.28262815 </v>
   <v>      -0.03858045       0.48570116      -0.16986687 </v>
   <v>      -0.17372963       0.10281735       0.40899135 </v>
   <v>      -0.18192149      -0.31550036      -0.40887300 </v>
   <v>      -0.46937136      -0.25017809       0.40838574 </v>
   <v>      -0.13434095      -0.38590588      -0.12330572 </v>
   <v>      -0.22400035       0.17836761       0.12012609 </v>
   <v>      -0.01418740       0.23836867       0.44141403 </v>
   <v>       0.43608936       0.04035135       0.18106749 </v>
   <v>       0.30791638       0.13182240       0.20755413 </v>
   <v>       0.07145956      -0.31848288      -0.44873397 </v>
   <v>      -0.33042790      -0.15799789      -0.45135906 </v>
   <v>       0.13004730      -0.39887292       0.36264451 </v>
   <v>      -0.15838973       0.34683243       0.32593920 </v>
   <v>      -0.32355385       0.24872692       0.21153709 </v>
   <v>       0.32714635      -0.31699692       0.11292806 </v>
   <v>      -0.27633943      -0.21271755      -0.16773242 </v>
   <v>      -0.32007211       0.03113765       0.12793254 </v>
   <v>      -0.04731479      -0.43373004      -0.30595641 </v>
   <v>       0.17879233      -0.13967753      -0.13262243 </v>
   <v>      -0.29223129      -0.18880612      -0.31050783 </v>
   <v>       0.06456989      -0.07774449      -0.39699369 </v>
   <v>       0.30167505      -0.35007378       0.27960104 </v>
   <v>       0.20281754      -0.20483854      -0.47504766 </v>
   <v>      -0.23263212      -0.27652573      -0.03824125 </v>
   <v>      -0.00811557      -0.00444057      -0.17899166 </v>
   <v>      -0.44355648      -0.08808240       0.09949972 </v>
   <v>      -0.27276584       0.49173425       0.24310977 </v>
   <v>      -0.06429997      -0.42770376      -0.45838883 </v>
   <v>       0.05785644      -0.03648923      -0.06357437 </v>
   <v>      -0.06991603       0.00751220      -0.33326847 </v>
   <v>       0.05964406       0.39564633       0.29000066 </v>
   <v>      -0.21659832      -0.04159338       0.40198683 </v>
   <v>      -0.14884598      -0.10240764      -0.29022318 </v>
   <v>       0.05318879       0.39974149       0.13443066 </v>
   <v>      -0.10399691       0.32459732       0.10091869 </v>
   <v>      -0.11505637       0.08566912       0.05440031 </v>
   <v>       0.43439635      -0.19180143       0.06745684 </v>
   <v>      -0.34516076      -0.14404197       0.38111202 </v>
   <v>       0.38297670      -0.13485460       0.31689905 </v>
   <v>      -0.34231757      -0.19085426       0.03598760 </v>
   <v>      -0.13108771       0.14820430       0.28241855 </v>
   <v>      -0.38523402      -0.32815265       0.20386786 </v>
   <v>       0.05736688       0.13301352       0.16726475 </v>
   <v>      -0.06031654      -0.43482614       0.39503468 </v>
   <v>       0.21416069       0.00576735       0.21487997 </v>
   <v>       0.02684624      -0.31849636       0.03094624 </v>
   <v>      -0.03783749      -0.24881296      -0.24301338 </v>
   <v>       0.18613207      -0.17562159       0.36837090 </v>
   <v>      -0.21782858      -0.25586548       0.33377986 </v>
   <v>       0.20514506      -0.22273578       0.13417299 </v>
   <v>      -0.39471048      -0.13022950       0.24271274 </v>
   <v>       0.05361214      -0.09295711       0.07411759 </v>
   <v>      -0.17293501      -0.29660196       0.12431754 </v>
   <v>      -0.12464732      -0.35852536       0.26755054 </v>
   <v>      -0.11589486      -0.16558157      -0.03707739 </v>
   <v>      -0.05566688      -0.47498563       0.19119270 </v>
   <v>      -0.15192718      -0.08764683       0.15430933 </v>
   <v>       0.00870370      -0.26720848       0.30959666 </v>
   <v>      -0.04318472      -0.14314739       0.44232007 </v>
   <v>      -0.03505096      -0.02222724       0.28616342 </v>
   <v>       0.08451850      -0.11701149       0.23070808 </v>
  </varray>
 </structure>
 <varray name="primitive_index" >
  <v type="int" >        1 </v>
  <v type="int" >       93 </v>
  <v type="int" >       71 </v>
  <v type="int" >      106 </v>
  <v type="int" >       55 </v>
  <v type="int" >       84 </v>
  <v type="int" >      117 </v>
  <v type="int" >      116 </v>
  <v type="int" >       73 </v>
  <v type="int" >       68 </v>
  <v type="int" >       51 </v>
  <v type="int" >      125 </v>
  <v type="int" >       27 </v>
  <v type="int" >        9 </v>
  <v type="int" >       48 </v>
  <v type="int" >       31 </v>
  <v type="int" >      127 </v>
  <v type="int" >       36 </v>
  <v type="int" >        2 </v>
  <v type="int" >       40 </v>
  <v type="int" >       63 </v>
  <v type="int" >       33 </v>
  <v type="int" >        6 </v>
  <v type="int" >        8 </v>
  <v type="int" >       29 </v>
  <v type="int" >       81 </v>
  <v type="int" >       99 </v>
  <v type="int" >       11 </v>
  <v type="int" >      114 </v>
  <v type="int" >       88 </v>
  <v type="int" >       72 </v>
  <v type="int" >      126 </v>
  <v type="int" >       75 </v>
  <v type="int" >      112 </v>
  <v type="int" >      135 </v>
  <v type="int" >       87 </v>
  <v type="int" >       97 </v>
  <v type="int" >      108 </v>
  <v type="int" >       45 </v>
  <v type="int" >       61 </v>
  <v type="int" >       66 </v>
  <v type="int" >       94 </v>
  <v type="int" >       85 </v>
  <v type="int" >        3 </v>
  <v type="int" >       18 </v>
  <v type="int" >       20 </v>
  <v type="int" >       30 </v>
  <v type="int" >       56 </v>
  <v type="int" >       74 </v>
  <v type="int" >      103 </v>
  <v type="int" >      110 </v>
  <v type="int" >      113 </v>
  <v type="int" >       96 </v>
  <v type="int" >      111 </v>
  <v type="int" >       25 </v>
  <v type="int" >       79 </v>
  <v type="int" >       21 </v>
  <v type="int" >      132 </v>
  <v type="int" >       59 </v>
  <v type="int" >       90 </v>
  <v type="int" >       43 </v>
  <v type="int" >       10 </v>
  <v type="int" >      109 </v>
  <v type="int" >       23 </v>
  <v type="int" >       15 </v>
  <v type="int" >       41 </v>
  <v type="int" >       58 </v>
  <v type="int" >      123 </v>
  <v type="int" >       64 </v>
  <v type="int" >       60 </v>
  <v type="int" >       12 </v>
  <v type="int" >        5 </v>
  <v type="int" >       22 </v>
  <v type="int" >       76 </v>
  <v type="int" >       35 </v>
  <v type="int" >       47 </v>
  <v type="int" >       65 </v>
  <v type="int" >       70 </v>
  <v type="int" >       91 </v>
  <v type="int" >       49 </v>
  <v type="int" >       57 </v>
  <v type="int" >      102 </v>
  <v type="int" >       37 </v>
  <v type="int" >      107 </v>
  <v type="int" >       80 </v>
  <v type="int" >       13 </v>
  <v type="int" >       17 </v>
  <v type="int" >      120 </v>
  <v type="int" >       54 </v>
  <v type="int" >       67 </v>
  <v type="int" >       98 </v>
  <v type="int" >       62 </v>
  <v type="int" >       92 </v>
  <v type="int" >       28 </v>
  <v type="int" >       89 </v>
  <v type="int" >      133 </v>
  <v type="int" >       46 </v>
  <v type="int" >       32 </v>
  <v type="int" >      124 </v>
  <v type="int" >       53 </v>
  <v type="int" >      134 </v>
  <v type="int" >       42 </v>
  <v type="int" >       44 </v>
  <v type="int" >       39 </v>
  <v type="int" >      131 </v>
  <v type="int" >      100 </v>
  <v type="int" >      130 </v>
  <v type="int" >       34 </v>
  <v type="int" >      122 </v>
  <v type="int" >       86 </v>
  <v type="int" >       77 </v>
  <v type="int" >       50 </v>
  <v type="int" >       16 </v>
  <v type="int" >      101 </v>
  <v type="int" >      115 </v>
  <v type="int" >        7 </v>
  <v type="int" >        4 </v>
  <v type="int" >      104 </v>
  <v type="int" >       95 </v>
  <v type="int" >       26 </v>
  <v type="int" >       24 </v>
  <v type="int" >       83 </v>
  <v type="int" >      128 </v>
  <v type="int" >       82 </v>
  <v type="int" >       69 </v>
  <v type="int" >      105 </v>
  <v type="int" >      129 </v>
  <v type="int" >       52 </v>
  <v type="int" >      118 </v>
  <v type="int" >      121 </v>
  <v type="int" >       19 </v>
  <v type="int" >      119 </v>
  <v type="int" >       14 </v>
  <v type="int" >       78 </v>
  <v type="int" >       38 </v>
 </varray>
 <kpoints>
  <generation param="Gamma">
   <v type="int" name="divisions">       2        2        2 </v>
   <v name="usershift">      0.00000000       0.00000000       0.00000000 </v>
   <v name="genvec1">      0.50000000       0.00000000       0.00000000 </v>
   <v name="genvec2">      0.00000000       0.50000000       0.00000000 </v>
   <v name="genvec3">      0.00000000       0.00000000       0.50000000 </v>
   <v name="shift">      0.00000000       0.00000000       0.00000000 </v>
  </generation>
  <varray name="kpointlist" >
   <v>       0.00000000       0.00000000       0.00000000 </v>
   <v>       0.50000000       0.00000000       0.00000000 </v>
   <v>       0.00000000       0.50000000       0.00000000 </v>
   <v>       0.50000000       0.50000000       0.00000000 </v>
   <v>       0.00000000       0.00000000       0.50000000 </v>
   <v>       0.50000000       0.00000000       0.50000000 </v>
   <v>       0.00000000       0.50000000       0.50000000 </v>
   <v>       0.50000000       0.50000000       0.50000000 </v>
  </varray>
  <varray name="weights" >
   <v>       0.12500000 </v>
   <v>       0.12500000 </v>
   <v>       0.12500000 </v>
   <v>       0.12500000 </v>
   <v>       0.12500000 </v>
   <v>       0.12500000 </v>
   <v>       0.12500000 </v>
   <v>       0.12500000 </v>
  </varray>
 </kpoints>
 <parameters>
  <separator name="general" >
   <i type="string" name="SYSTEM">unknown system</i>
   <i type="logical" name="LCOMPAT"> F  </i>
  </separator>
  <separator name="electronic" >
   <i type="string" name="PREC">a</i>
   <i name="ENMAX">    600.00000000</i>
   <i name="ENAUG">    605.39200000</i>
   <i name="EDIFF">      0.00000100</i>
   <i type="int" name="IALGO">    38</i>
   <i type="int" name="IWAVPR">    10</i>
   <i type="int" name="NBANDS">   520</i>
   <i name="NELECT">    864.00000000</i>
   <i type="int" name="TURBO">     0</i>
   <i type="int" name="IRESTART">     0</i>
   <i type="int" name="NREBOOT">     0</i>
   <i type="int" name="NMIN">     0</i>
   <i name="EREF">      0.00000000</i>
   <separator name="electronic smearing" >
    <i type="int" name="ISMEAR">     0</i>
    <i name="SIGMA">      0.05000000</i>
    <i name="KSPACING">      0.30000000</i>
    <i type="logical" name="KGAMMA"> T  </i>
   </separator>
   <separator name="electronic projectors" >
    <i type="logical" name="LREAL"> T  </i>
    <v name="ROPT">     -0.00025000     -0.00025000     -0.00025000</v>
    <i type="int" name="LMAXPAW">  -100</i>
    <i type="int" name="LMAXMIX">     2</i>
    <i type="logical" name="NLSPLINE"> F  </i>
   </separator>
   <separator name="electronic startup" >
    <i type="int" name="ISTART">     0</i>
    <i type="int" name="ICHARG">     2</i>
    <i type="int" name="INIWAV">     1</i>
   </separator>
   <separator name="electronic spin" >
    <i type="int" name="ISPIN">     1</i>
    <i type="logical" name="LNONCOLLINEAR"> F  </i>
    <v name="MAGMOM">      1.00000000      1.00000000      1.00000000      1.00000000      1.00000000      1.00000000      1.00000000      1.00000000      1.00000000      1.00000000      1.00000000      1.00000000      1.00000000      1.00000000      1.00000000      1.00000000      1.00000000      1.00000000      1.00000000      1.00000000
      1.00000000      1.00000000      1.00000000      1.00000000      1.00000000      1.00000000      1.00000000      1.00000000      1.00000000      1.00000000      1.00000000      1.00000000      1.00000000      1.00000000      1.00000000      1.00000000      1.00000000      1.00000000      1.00000000      1.00000000
      1.00000000      1.00000000      1.00000000      1.00000000      1.00000000      1.00000000      1.00000000      1.00000000      1.00000000      1.00000000      1.00000000      1.00000000      1.00000000      1.00000000      1.00000000      1.00000000      1.00000000      1.00000000      1.00000000      1.00000000
      1.00000000      1.00000000      1.00000000      1.00000000      1.00000000      1.00000000      1.00000000      1.00000000      1.00000000      1.00000000      1.00000000      1.00000000      1.00000000      1.00000000      1.00000000      1.00000000      1.00000000      1.00000000      1.00000000      1.00000000
      1.00000000      1.00000000      1.00000000      1.00000000      1.00000000      1.00000000      1.00000000      1.00000000      1.00000000      1.00000000      1.00000000      1.00000000      1.00000000      1.00000000      1.00000000      1.00000000      1.00000000      1.00000000      1.00000000      1.00000000
      1.00000000      1.00000000      1.00000000      1.00000000      1.00000000      1.00000000      1.00000000      1.00000000      1.00000000      1.00000000      1.00000000      1.00000000      1.00000000      1.00000000      1.00000000      1.00000000      1.00000000      1.00000000      1.00000000      1.00000000
      1.00000000      1.00000000      1.00000000      1.00000000      1.00000000      1.00000000      1.00000000      1.00000000      1.00000000      1.00000000      1.00000000      1.00000000      1.00000000      1.00000000      1.00000000</v>
    <i name="NUPDOWN">     -1.00000000</i>
    <i type="logical" name="LSORBIT"> F  </i>
    <v name="SAXIS">      0.00000000      0.00000000      1.00000000</v>
    <i type="logical" name="LSPIRAL"> F  </i>
    <v name="QSPIRAL">      0.00000000      0.00000000      0.00000000</v>
    <i type="logical" name="LZEROZ"> F  </i>
   </separator>
   <separator name="electronic exchange-correlation" >
    <i type="logical" name="LASPH"> F  </i>
    <i type="logical" name="LMETAGGA"> F  </i>
   </separator>
   <separator name="electronic convergence" >
    <i type="int" name="NELM">    60</i>
    <i type="int" name="NELMDL">    -5</i>
    <i type="int" name="NELMIN">     2</i>
    <i name="ENINI">    600.00000000</i>
    <separator name="electronic convergence detail" >
     <i type="logical" name="LDIAG"> T  </i>
     <i type="logical" name="LSUBROT"> F  </i>
     <i name="WEIMIN">      0.00000000</i>
     <i name="EBREAK">      0.00000000</i>
     <i name="DEPER">      0.30000000</i>
     <i type="int" name="NRMM">     4</i>
     <i name="TIME">      0.40000000</i>
    </separator>
   </separator>
   <separator name="electronic mixer" >
    <i name="AMIX">      0.40000000</i>
    <i name="BMIX">      1.00000000</i>
    <i name="AMIN">      0.10000000</i>
    <i name="AMIX_MAG">      1.60000000</i>
    <i name="BMIX_MAG">      1.00000000</i>
    <separator name="electronic mixer details" >
     <i type="int" name="IMIX">     4</i>
     <i type="logical" name="MIXFIRST"> F  </i>
     <i type="int" name="MAXMIX">   -45</i>
     <i name="WC">    100.00000000</i>
     <i type="int" name="INIMIX">     1</i>
     <i type="int" name="MIXPRE">     1</i>
     <i type="int" name="MREMOVE">     5</i>
    </separator>
   </separator>
   <separator name="electronic dipolcorrection" >
    <i type="logical" name="LDIPOL"> F  </i>
    <i type="logical" name="LMONO"> F  </i>
    <i type="int" name="IDIPOL">     0</i>
    <i name="EPSILON">      1.00000000</i>
    <v name="DIPOL">   -100.00000000   -100.00000000   -100.00000000</v>
    <i name="EFIELD">      0.00000000</i>
   </separator>
  </separator>
  <separator name="grids" >
   <i type="int" name="NGX">    84</i>
   <i type="int" name="NGY">    84</i>
   <i type="int" name="NGZ">    84</i>
   <i type="int" name="NGXF">   168</i>
   <i type="int" name="NGYF">   168</i>
   <i type="int" name="NGZF">   168</i>
   <i type="logical" name="ADDGRID"> T  </i>
  </separator>
  <separator name="ionic" >
   <i type="int" name="NSW">     1</i>
   <i type="int" name="IBRION">    -1</i>
   <i type="int" name="MDALGO">     0</i>
   <i type="int" name="ISIF">     2</i>
   <i name="PSTRESS">      0.00000000</i>
   <i name="EDIFFG">     -0.01000000</i>
   <i type="int" name="NFREE">     0</i>
   <i name="POTIM">      1.00000000</i>
   <i name="SMASS">     -3.00000000</i>
   <i name="SCALEE">      1.00000000</i>
  </separator>
  <separator name="ionic md" >
   <i name="TEBEG">      0.00010000</i>
   <i name="TEEND">      0.00010000</i>
   <i type="int" name="NBLOCK">     1</i>
   <i type="int" name="KBLOCK">     1</i>
   <i type="int" name="NPACO">   256</i>
   <i name="APACO">     16.00000000</i>
  </separator>
  <separator name="symmetry" >
   <i type="int" name="ISYM">     0</i>
   <i name="SYMPREC">      0.00001000</i>
  </separator>
  <separator name="dos" >
   <i type="int" name="LORBIT">     0</i>
   <v name="RWIGS">     -1.00000000     -1.00000000     -1.00000000</v>
   <i type="int" name="NEDOS">   301</i>
   <i name="EMIN">     10.00000000</i>
   <i name="EMAX">    -10.00000000</i>
   <i name="EFERMI">      0.00000000</i>
  </separator>
  <separator name="writing" >
   <i type="int" name="NWRITE">     2</i>
   <i type="logical" name="LWAVE"> F  </i>
   <i type="logical" name="LDOWNSAMPLE"> F  </i>
   <i type="logical" name="LCHARG"> F  </i>
   <i type="logical" name="LPARD"> F  </i>
   <i type="logical" name="LVTOT"> F  </i>
   <i type="logical" name="LVHAR"> F  </i>
   <i type="logical" name="LELF"> F  </i>
   <i type="logical" name="LOPTICS"> F  </i>
   <v name="STM">      0.00000000      0.00000000      0.00000000      0.00000000      0.00000000      0.00000000      0.00000000</v>
  </separator>
  <separator name="performance" >
   <i type="int" name="NPAR">     4</i>
   <i type="int" name="NSIM">     4</i>
   <i type="int" name="NBLK">    -1</i>
   <i type="logical" name="LPLANE"> T  </i>
   <i type="logical" name="LSCALAPACK"> F  </i>
   <i type="logical" name="LSCAAWARE"> F  </i>
   <i type="logical" name="LSCALU"> F  </i>
   <i type="logical" name="LASYNC"> F  </i>
   <i type="logical" name="LORBITALREAL"> F  </i>
  </separator>
  <separator name="miscellaneous" >
   <i type="int" name="IDIOT">     3</i>
   <i type="int" name="ISPECIAL">     0</i>
   <i type="logical" name="LMUSIC"> F  </i>
   <v name="POMASS">     40.07800000     28.08500000     16.00000000</v>
   <v name="DARWINR">      0.00000000      0.00000000      0.00000000</v>
   <v name="DARWINV">      1.00000000      1.00000000      1.00000000</v>
   <i type="logical" name="LCORR"> T  </i>
  </separator>
  <i type="logical" name="GGA_COMPAT"> T  </i>
  <i type="logical" name="LBERRY"> F  </i>
  <i type="int" name="ICORELEVEL">     0</i>
  <i type="logical" name="LDAU"> F  </i>
  <i type="int" name="I_CONSTRAINED_M">     0</i>
  <separator name="electronic exchange-correlation" >
   <i type="string" name="GGA">--</i>
   <i type="int" name="VOSKOWN">     0</i>
   <i type="logical" name="LHFCALC"> F  </i>
   <i type="string" name="PRECFOCK"></i>
   <i type="logical" name="LSYMGRAD"> F  </i>
   <i type="logical" name="LHFONE"> F  </i>
   <i type="logical" name="LRHFCALC"> F  </i>
   <i type="logical" name="LTHOMAS"> F  </i>
   <i type="logical" name="LMODELHF"> F  </i>
   <i name="ENCUT4O">     -1.00000000</i>
   <i type="int" name="EXXOEP">     0</i>
   <i type="int" name="FOURORBIT">     0</i>
   <i name="AEXX">      0.00000000</i>
   <i name="HFALPHA">      0.00000000</i>
   <i name="MCALPHA">      0.00000000</i>
   <i name="ALDAX">      1.00000000</i>
   <i name="AGGAX">      1.00000000</i>
   <i name="ALDAC">      1.00000000</i>
   <i name="AGGAC">      1.00000000</i>
   <i type="int" name="NKREDX">     1</i>
   <i type="int" name="NKREDY">     1</i>
   <i type="int" name="NKREDZ">     1</i>
   <i type="logical" name="SHIFTRED"> F  </i>
   <i type="logical" name="ODDONLY"> F  </i>
   <i type="logical" name="EVENONLY"> F  </i>
   <i type="int" name="LMAXFOCK">     0</i>
   <i type="int" name="NMAXFOCKAE">     0</i>
   <i type="logical" name="LFOCKAEDFT"> F  </i>
   <i name="HFSCREEN">      0.00000000</i>
   <i name="HFSCREENC">      0.00000000</i>
   <i type="int" name="NBANDSGWLOW">     0</i>
  </separator>
  <separator name="vdW DFT" >
   <i type="logical" name="LUSE_VDW"> F  </i>
   <i name="Zab_VDW">     -0.84910000</i>
   <i name="PARAM1">      0.12340000</i>
   <i name="PARAM2">      1.00000000</i>
   <i name="PARAM3">      0.00000000</i>
  </separator>
  <separator name="model GW" >
   <i type="int" name="MODEL_GW">     0</i>
   <i name="MODEL_EPS0">      5.24098885</i>
   <i name="MODEL_ALPHA">      1.00000000</i>
  </separator>
  <separator name="linear response parameters" >
   <i type="logical" name="LEPSILON"> F  </i>
   <i type="logical" name="LRPA"> F  </i>
   <i type="logical" name="LNABLA"> F  </i>
   <i type="logical" name="LVEL"> F  </i>
   <i type="int" name="KINTER">     0</i>
   <i name="CSHIFT">      0.10000000</i>
   <i name="OMEGAMAX">     -1.00000000</i>
   <i name="DEG_THRESHOLD">      0.00200000</i>
   <i name="RTIME">     -0.10000000</i>
   <i name="WPLASMAI">      0.00000000</i>
   <v name="DFIELD">      0.00000000      0.00000000      0.00000000</v>
   <v name="WPLASMA">      0.00000000      0.00000000      0.00000000      0.00000000      0.00000000      0.00000000      0.00000000      0.00000000      0.00000000</v>
  </separator>
  <separator name="orbital magnetization" >
   <i type="logical" name="NUCIND"> F  </i>
   <v name="MAGPOS">      0.00000000      0.00000000      0.00000000</v>
   <i type="logical" name="LNICSALL"> T  </i>
   <i type="logical" name="ORBITALMAG"> F  </i>
   <i type="logical" name="LMAGBLOCH"> F  </i>
   <i type="logical" name="LCHIMAG"> F  </i>
   <i type="logical" name="LGAUGE"> T  </i>
   <i type="int" name="MAGATOM">     0</i>
   <v name="MAGDIPOL">      0.00000000      0.00000000      0.00000000</v>
   <v name="AVECCONST">      0.00000000      0.00000000      0.00000000</v>
  </separator>
  <separator name="response functions" >
   <i type="logical" name="LADDER"> F  </i>
   <i type="logical" name="LRPAFORCE"> F  </i>
   <i type="logical" name="LFXC"> F  </i>
   <i type="logical" name="LHARTREE"> T  </i>
   <i type="int" name="IBSE">     0</i>
   <v type="int" name="KPOINT">    -1     0     0     0</v>
   <i type="logical" name="LTCTE"> F  </i>
   <i type="logical" name="LTETE"> F  </i>
   <i type="logical" name="LTRIPLET"> F  </i>
   <i type="logical" name="LFXCEPS"> F  </i>
   <i type="logical" name="LFXHEG"> F  </i>
   <i type="int" name="NATURALO">     2</i>
   <i type="logical" name="L2ORDER"> F  </i>
   <i type="logical" name="LMP2LT"> F  </i>
   <i type="logical" name="LUSEW"> F  </i>
   <i name="ENCUTGW">     -2.00000000</i>
   <i name="ENCUTGWSOFT">     -2.00000000</i>
   <i name="ENCUTLF">     -1.00000000</i>
   <i type="int" name="LMAXMP2">    -1</i>
   <i name="SCISSOR">      0.00000000</i>
   <i type="int" name="NOMEGA">     0</i>
   <i type="int" name="NOMEGAR">     0</i>
   <i type="int" name="NBANDSGW">    -1</i>
   <i type="int" name="NBANDSO">    -1</i>
   <i type="int" name="NBANDSV">    -1</i>
   <i type="int" name="NELM">     1</i>
   <i type="int" name="NELMHF">     1</i>
   <i type="int" name="DIM">     3</i>
   <i type="int" name="ANTIRES">     0</i>
   <i name="OMEGAMAX">    -30.00000000</i>
   <i name="OMEGAMIN">    -30.00000000</i>
   <i name="OMEGATL">   -200.00000000</i>
   <i type="int" name="OMEGAGRID">   140</i>
   <i name="CSHIFT">     -0.10000000</i>
   <i type="logical" name="SELFENERGY"> F  </i>
   <i type="logical" name="LSPECTRAL"> F  </i>
   <i type="logical" name="LSPECTRALGW"> F  </i>
   <i type="logical" name="LSINGLES"> F  </i>
   <i type="logical" name="LFERMIGW"> F  </i>
   <i type="logical" name="ODDONLYGW"> F  </i>
   <i type="logical" name="EVENONLYGW"> F  </i>
   <i type="int" name="NKREDLFX">     1</i>
   <i type="int" name="NKREDLFY">     1</i>
   <i type="int" name="NKREDLFZ">     1</i>
   <i type="int" name="MAXMEM">  2800</i>
   <i type="int" name="TELESCOPE">     0</i>
   <i type="int" name="TAUPAR">     1</i>
   <i type="int" name="OMEGAPAR">    -1</i>
   <i name="LAMBDA">      1.00000000</i>
  </separator>
  <separator name="External order field" >
   <i name="OFIELD_KAPPA">      0.00000000</i>
   <v name="OFIELD_K">      0.00000000      0.00000000      0.00000000</v>
   <i name="OFIELD_Q6_NEAR">      0.00000000</i>
   <i name="OFIELD_Q6_FAR">      0.00000000</i>
   <i name="OFIELD_A">      0.00000000</i>
  </separator>
 </parameters>
 <atominfo>
  <atoms>     135 </atoms>
  <types>       3 </types>
  <array name="atoms" >
   <dimension dim="1">ion</dimension>
   <field type="string">element</field>
   <field type="int">atomtype</field>
   <set>
    <rc><c>Ca</c><c>   1</c></rc>
    <rc><c>Ca</c><c>   1</c></rc>
    <rc><c>Ca</c><c>   1</c></rc>
    <rc><c>Ca</c><c>   1</c></rc>
    <rc><c>Ca</c><c>   1</c></rc>
    <rc><c>Ca</c><c>   1</c></rc>
    <rc><c>Ca</c><c>   1</c></rc>
    <rc><c>Ca</c><c>   1</c></rc>
    <rc><c>Ca</c><c>   1</c></rc>
    <rc><c>Ca</c><c>   1</c></rc>
    <rc><c>Ca</c><c>   1</c></rc>
    <rc><c>Ca</c><c>   1</c></rc>
    <rc><c>Ca</c><c>   1</c></rc>
    <rc><c>Ca</c><c>   1</c></rc>
    <rc><c>Ca</c><c>   1</c></rc>
    <rc><c>Ca</c><c>   1</c></rc>
    <rc><c>Ca</c><c>   1</c></rc>
    <rc><c>Ca</c><c>   1</c></rc>
    <rc><c>Ca</c><c>   1</c></rc>
    <rc><c>Ca</c><c>   1</c></rc>
    <rc><c>Ca</c><c>   1</c></rc>
    <rc><c>Ca</c><c>   1</c></rc>
    <rc><c>Ca</c><c>   1</c></rc>
    <rc><c>Ca</c><c>   1</c></rc>
    <rc><c>Ca</c><c>   1</c></rc>
    <rc><c>Ca</c><c>   1</c></rc>
    <rc><c>Ca</c><c>   1</c></rc>
    <rc><c>Si</c><c>   2</c></rc>
    <rc><c>Si</c><c>   2</c></rc>
    <rc><c>Si</c><c>   2</c></rc>
    <rc><c>Si</c><c>   2</c></rc>
    <rc><c>Si</c><c>   2</c></rc>
    <rc><c>Si</c><c>   2</c></rc>
    <rc><c>Si</c><c>   2</c></rc>
    <rc><c>Si</c><c>   2</c></rc>
    <rc><c>Si</c><c>   2</c></rc>
    <rc><c>Si</c><c>   2</c></rc>
    <rc><c>Si</c><c>   2</c></rc>
    <rc><c>Si</c><c>   2</c></rc>
    <rc><c>Si</c><c>   2</c></rc>
    <rc><c>Si</c><c>   2</c></rc>
    <rc><c>Si</c><c>   2</c></rc>
    <rc><c>Si</c><c>   2</c></rc>
    <rc><c>Si</c><c>   2</c></rc>
    <rc><c>Si</c><c>   2</c></rc>
    <rc><c>Si</c><c>   2</c></rc>
    <rc><c>Si</c><c>   2</c></rc>
    <rc><c>Si</c><c>   2</c></rc>
    <rc><c>Si</c><c>   2</c></rc>
    <rc><c>Si</c><c>   2</c></rc>
    <rc><c>Si</c><c>   2</c></rc>
    <rc><c>Si</c><c>   2</c></rc>
    <rc><c>Si</c><c>   2</c></rc>
    <rc><c>Si</c><c>   2</c></rc>
    <rc><c>O </c><c>   3</c></rc>
    <rc><c>O </c><c>   3</c></rc>
    <rc><c>O </c><c>   3</c></rc>
    <rc><c>O </c><c>   3</c></rc>
    <rc><c>O </c><c>   3</c></rc>
    <rc><c>O </c><c>   3</c></rc>
    <rc><c>O </c><c>   3</c></rc>
    <rc><c>O </c><c>   3</c></rc>
    <rc><c>O </c><c>   3</c></rc>
    <rc><c>O </c><c>   3</c></rc>
    <rc><c>O </c><c>   3</c></rc>
    <rc><c>O </c><c>   3</c></rc>
    <rc><c>O </c><c>   3</c></rc>
    <rc><c>O </c><c>   3</c></rc>
    <rc><c>O </c><c>   3</c></rc>
    <rc><c>O </c><c>   3</c></rc>
    <rc><c>O </c><c>   3</c></rc>
    <rc><c>O </c><c>   3</c></rc>
    <rc><c>O </c><c>   3</c></rc>
    <rc><c>O </c><c>   3</c></rc>
    <rc><c>O </c><c>   3</c></rc>
    <rc><c>O </c><c>   3</c></rc>
    <rc><c>O </c><c>   3</c></rc>
    <rc><c>O </c><c>   3</c></rc>
    <rc><c>O </c><c>   3</c></rc>
    <rc><c>O </c><c>   3</c></rc>
    <rc><c>O </c><c>   3</c></rc>
    <rc><c>O </c><c>   3</c></rc>
    <rc><c>O </c><c>   3</c></rc>
    <rc><c>O </c><c>   3</c></rc>
    <rc><c>O </c><c>   3</c></rc>
    <rc><c>O </c><c>   3</c></rc>
    <rc><c>O </c><c>   3</c></rc>
    <rc><c>O </c><c>   3</c></rc>
    <rc><c>O </c><c>   3</c></rc>
    <rc><c>O </c><c>   3</c></rc>
    <rc><c>O </c><c>   3</c></rc>
    <rc><c>O </c><c>   3</c></rc>
    <rc><c>O </c><c>   3</c></rc>
    <rc><c>O </c><c>   3</c></rc>
    <rc><c>O </c><c>   3</c></rc>
    <rc><c>O </c><c>   3</c></rc>
    <rc><c>O </c><c>   3</c></rc>
    <rc><c>O </c><c>   3</c></rc>
    <rc><c>O </c><c>   3</c></rc>
    <rc><c>O </c><c>   3</c></rc>
    <rc><c>O </c><c>   3</c></rc>
    <rc><c>O </c><c>   3</c></rc>
    <rc><c>O </c><c>   3</c></rc>
    <rc><c>O </c><c>   3</c></rc>
    <rc><c>O </c><c>   3</c></rc>
    <rc><c>O </c><c>   3</c></rc>
    <rc><c>O </c><c>   3</c></rc>
    <rc><c>O </c><c>   3</c></rc>
    <rc><c>O </c><c>   3</c></rc>
    <rc><c>O </c><c>   3</c></rc>
    <rc><c>O </c><c>   3</c></rc>
    <rc><c>O </c><c>   3</c></rc>
    <rc><c>O </c><c>   3</c></rc>
    <rc><c>O </c><c>   3</c></rc>
    <rc><c>O </c><c>   3</c></rc>
    <rc><c>O </c><c>   3</c></rc>
    <rc><c>O </c><c>   3</c></rc>
    <rc><c>O </c><c>   3</c></rc>
    <rc><c>O </c><c>   3</c></rc>
    <rc><c>O </c><c>   3</c></rc>
    <rc><c>O </c><c>   3</c></rc>
    <rc><c>O </c><c>   3</c></rc>
    <rc><c>O </c><c>   3</c></rc>
    <rc><c>O </c><c>   3</c></rc>
    <rc><c>O </c><c>   3</c></rc>
    <rc><c>O </c><c>   3</c></rc>
    <rc><c>O </c><c>   3</c></rc>
    <rc><c>O </c><c>   3</c></rc>
    <rc><c>O </c><c>   3</c></rc>
    <rc><c>O </c><c>   3</c></rc>
    <rc><c>O </c><c>   3</c></rc>
    <rc><c>O </c><c>   3</c></rc>
    <rc><c>O </c><c>   3</c></rc>
    <rc><c>O </c><c>   3</c></rc>
    <rc><c>O </c><c>   3</c></rc>
   </set>
  </array>
  <array name="atomtypes" >
   <dimension dim="1">type</dimension>
   <field type="int">atomspertype</field>
   <field type="string">element</field>
   <field>mass</field>
   <field>valence</field>
   <field type="string">pseudopotential</field>
   <set>
    <rc><c>  27</c><c>Ca</c><c>     40.07800000</c><c>     10.00000000</c><c>  PAW_PBE Ca_sv 06Sep2000               </c></rc>
    <rc><c>  27</c><c>Si</c><c>     28.08500000</c><c>      4.00000000</c><c>  PAW_PBE Si 05Jan2001                  </c></rc>
    <rc><c>  81</c><c>O </c><c>     16.00000000</c><c>      6.00000000</c><c>  PAW_PBE O 08Apr2002                   </c></rc>
   </set>
  </array>
 </atominfo>
 <structure name="initialpos" >
  <crystal>
   <varray name="basis" >
    <v>      10.56489661       0.00000000       0.00000000 </v>
    <v>       0.00000000      10.56489661       0.00000000 </v>
    <v>       0.00000000       0.00000000      10.56489661 </v>
   </varray>
   <i name="volume">   1179.22249153 </i>
   <varray name="rec_basis" >
    <v>       0.09465308       0.00000000       0.00000000 </v>
    <v>       0.00000000       0.09465308       0.00000000 </v>
    <v>       0.00000000       0.00000000       0.09465308 </v>
   </varray>
  </crystal>
  <varray name="positions" >
   <v>       0.44972026       0.31977076       0.71339928 </v>
   <v>       0.64166129       0.09014335       0.62162504 </v>
   <v>       0.54240387       0.16220043       0.33375183 </v>
   <v>       0.05736688       0.13301352       0.16726475 </v>
   <v>       0.97573951       0.21385773       0.87993566 </v>
   <v>       0.51573385       0.20804887       0.01032580 </v>
   <v>       0.61476598       0.67184735       0.20386786 </v>
   <v>       0.23233753       0.47544686       0.90084361 </v>
   <v>       0.67192124       0.50716357       0.74477407 </v>
   <v>       0.48582108       0.76944122       0.89557214 </v>
   <v>       0.18689520       0.06375976       0.74275938 </v>
   <v>       0.30917012       0.39906910       0.22742040 </v>
   <v>       0.13004730       0.60112708       0.36264451 </v>
   <v>       0.95681528       0.85685261       0.44232007 </v>
   <v>       0.28646757       0.96318848       0.01072374 </v>
   <v>       0.38297670       0.86514540       0.31689905 </v>
   <v>       0.84161027       0.34683243       0.32593920 </v>
   <v>       0.87018911       0.29216467       0.63709340 </v>
   <v>       0.84807282       0.91235317       0.15430933 </v>
   <v>       0.66020412       0.64363633       0.49800778 </v>
   <v>       0.74285421       0.00006241       0.90329426 </v>
   <v>       0.80128949       0.48580055       0.05344014 </v>
   <v>       0.14187111       0.06719898       0.42755312 </v>
   <v>       0.96216251       0.75118704       0.75698662 </v>
   <v>       0.47618204       0.86025665       0.60853389 </v>
   <v>       0.02684624       0.68150364       0.03094624 </v>
   <v>       0.40908043       0.58507758       0.63564227 </v>
   <v>       0.70776871       0.81119388       0.68949217 </v>
   <v>       0.25367771       0.26757790       0.97070419 </v>
   <v>       0.12732125       0.34307571       0.41097057 </v>
   <v>       0.47667682       0.04210803       0.82936349 </v>
   <v>       0.76736788       0.72347427       0.96175875 </v>
   <v>       0.51621751       0.47300617       0.98164315 </v>
   <v>       0.05318879       0.39974149       0.13443066 </v>
   <v>       0.96141955       0.48570116       0.83013313 </v>
   <v>       0.15136749       0.37055980       0.63456012 </v>
   <v>       0.30791638       0.13182240       0.20755413 </v>
   <v>       0.08451850       0.88298851       0.23070808 </v>
   <v>       0.93008397       0.00751220       0.66673153 </v>
   <v>       0.39679644       0.07888591       0.51878011 </v>
   <v>       0.58818331       0.40975973       0.24922050 </v>
   <v>       0.93570003       0.57229624       0.54161117 </v>
   <v>       0.22950435       0.73650032       0.82352930 </v>
   <v>       0.05785644       0.96351077       0.93642563 </v>
   <v>       0.39625898       0.58012718       0.39649441 </v>
   <v>       0.20281754       0.79516146       0.52495234 </v>
   <v>       0.82627037       0.10281735       0.40899135 </v>
   <v>       0.71791643       0.28167647       0.83885806 </v>
   <v>       0.77599965       0.17836761       0.12012609 </v>
   <v>       0.65483924       0.85595803       0.38111202 </v>
   <v>       0.63480630       0.30947877       0.52537106 </v>
   <v>       0.87535268       0.64147464       0.26755054 </v>
   <v>       0.55644352       0.91191760       0.09949972 </v>
   <v>       0.32714635       0.68300308       0.11292806 </v>
   <v>       0.66693997       0.29902492       0.67787594 </v>
   <v>       0.30223573       0.67868405       0.92689661 </v>
   <v>       0.98581260       0.23836867       0.44141403 </v>
   <v>       0.05061531       0.46628771       0.97066492 </v>
   <v>       0.10456498       0.10027517       0.96293304 </v>
   <v>       0.20246182       0.53092733       0.10655521 </v>
   <v>       0.57742504       0.92616086       0.75317224 </v>
   <v>       0.95268521       0.56626996       0.69404359 </v>
   <v>       0.16512614       0.28677946       0.84261573 </v>
   <v>       0.09274161       0.64494059       0.84054900 </v>
   <v>       0.81807851       0.68449964       0.59112700 </v>
   <v>       0.56104197       0.39423447       0.10701854 </v>
   <v>       0.72366057       0.78728245       0.83226758 </v>
   <v>       0.48122425       0.53776747       0.85583432 </v>
   <v>       0.60528952       0.86977050       0.24271274 </v>
   <v>       0.53062864       0.74982191       0.40838574 </v>
   <v>       0.52721542       0.45413619       0.57245988 </v>
   <v>       0.78859205       0.42620298       0.54042415 </v>
   <v>       0.59178159       0.14779622       0.83918721 </v>
   <v>       0.30205329       0.68085098       0.49338287 </v>
   <v>       0.30795286       0.14624889       0.04486799 </v>
   <v>       0.17523368       0.23064935       0.28262815 </v>
   <v>       0.43439635       0.80819857       0.06745684 </v>
   <v>       0.96494904       0.97777276       0.28616342 </v>
   <v>       0.01609401       0.14004158       0.66307941 </v>
   <v>       0.66957210       0.84200211       0.54864094 </v>
   <v>       0.55602892       0.37173339       0.39165539 </v>
   <v>       0.20514506       0.77726422       0.13417299 </v>
   <v>       0.18613207       0.82437841       0.36837090 </v>
   <v>       0.38713121       0.16020436       0.85851673 </v>
   <v>       0.64936863       0.60106276       0.95264504 </v>
   <v>       0.88494363       0.08566912       0.05440031 </v>
   <v>       0.38916785       0.92997214       0.81468961 </v>
   <v>       0.71763844       0.18469107       0.45798771 </v>
   <v>       0.06456989       0.92225551       0.60300631 </v>
   <v>       0.43728767       0.57135882       0.12341113 </v>
   <v>       0.86565905       0.61409412       0.87669428 </v>
   <v>       0.17879233       0.86032247       0.86737757 </v>
   <v>       0.29064236       0.44465501       0.67679584 </v>
   <v>       0.03946279       0.39697298       0.72028948 </v>
   <v>       0.21416069       0.00576735       0.21487997 </v>
   <v>       0.17001072       0.30670849       0.07617439 </v>
   <v>       0.80987394       0.13426084       0.78099393 </v>
   <v>       0.67992789       0.03113765       0.12793254 </v>
   <v>       0.30000816       0.45748516       0.43071417 </v>
   <v>       0.78340168       0.95840662       0.40198683 </v>
   <v>       0.65768243       0.80914574       0.03598760 </v>
   <v>       0.43608936       0.04035135       0.18106749 </v>
   <v>       0.07832301       0.44819974       0.49246404 </v>
   <v>       0.93968346       0.56517386       0.39503468 </v>
   <v>       0.05361214       0.90704289       0.07411759 </v>
   <v>       0.51038439       0.21591199       0.53075189 </v>
   <v>       0.07145956       0.68151712       0.55126603 </v>
   <v>       0.48801161       0.00107295       0.97252336 </v>
   <v>       0.84450170       0.07278925       0.56906988 </v>
   <v>       0.51727693       0.96383951       0.43936339 </v>
   <v>       0.32516092       0.91631760       0.52155017 </v>
   <v>       0.72558514       0.20238741       0.98177988 </v>
   <v>       0.53715194       0.54272019       0.32592304 </v>
   <v>       0.31749793       0.14578248       0.39933578 </v>
   <v>       0.86891229       0.14820430       0.28241855 </v>
   <v>       0.60317303       0.36551408       0.90120608 </v>
   <v>       0.33798038       0.11450783       0.64885399 </v>
   <v>       0.88410514       0.83441843       0.96292261 </v>
   <v>       0.00870370       0.73279152       0.30959666 </v>
   <v>       0.67644615       0.24872692       0.21153709 </v>
   <v>       0.94433312       0.52501437       0.19119270 </v>
   <v>       0.89600309       0.32459732       0.10091869 </v>
   <v>       0.40962326       0.23613996       0.20359744 </v>
   <v>       0.99188443       0.99555943       0.82100834 </v>
   <v>       0.23331396       0.28634951       0.54391350 </v>
   <v>       0.59125223       0.69372498       0.70343447 </v>
   <v>       0.36165188       0.37413414       0.99956290 </v>
   <v>       0.78217142       0.74413452       0.33377986 </v>
   <v>       0.82706499       0.70339804       0.12431754 </v>
   <v>       0.85115402       0.89759236       0.70977682 </v>
   <v>       0.05964406       0.39564633       0.29000066 </v>
   <v>       0.27554322       0.75859140       0.67434046 </v>
   <v>       0.30167505       0.64992622       0.27960104 </v>
   <v>       0.72723416       0.49173425       0.24310977 </v>
   <v>       0.83676025       0.37442637       0.81848321 </v>
  </varray>
  <varray name="velocities" >
   <v>       0.00000000       0.00000000       0.00000000 </v>
   <v>       0.00000000       0.00000000       0.00000000 </v>
   <v>       0.00000000       0.00000000       0.00000000 </v>
   <v>       0.00000000       0.00000000       0.00000000 </v>
   <v>       0.00000000       0.00000000       0.00000000 </v>
   <v>       0.00000000       0.00000000       0.00000000 </v>
   <v>       0.00000000       0.00000000       0.00000000 </v>
   <v>       0.00000000       0.00000000       0.00000000 </v>
   <v>       0.00000000       0.00000000       0.00000000 </v>
   <v>       0.00000000       0.00000000       0.00000000 </v>
   <v>       0.00000000       0.00000000       0.00000000 </v>
   <v>       0.00000000       0.00000000       0.00000000 </v>
   <v>       0.00000000       0.00000000       0.00000000 </v>
   <v>       0.00000000       0.00000000       0.00000000 </v>
   <v>       0.00000000       0.00000000       0.00000000 </v>
   <v>       0.00000000       0.00000000       0.00000000 </v>
   <v>       0.00000000       0.00000000       0.00000000 </v>
   <v>       0.00000000       0.00000000       0.00000000 </v>
   <v>       0.00000000       0.00000000       0.00000000 </v>
   <v>       0.00000000       0.00000000       0.00000000 </v>
   <v>       0.00000000       0.00000000       0.00000000 </v>
   <v>       0.00000000       0.00000000       0.00000000 </v>
   <v>       0.00000000       0.00000000       0.00000000 </v>
   <v>       0.00000000       0.00000000       0.00000000 </v>
   <v>       0.00000000       0.00000000       0.00000000 </v>
   <v>       0.00000000       0.00000000       0.00000000 </v>
   <v>       0.00000000       0.00000000       0.00000000 </v>
   <v>       0.00000000       0.00000000       0.00000000 </v>
   <v>       0.00000000       0.00000000       0.00000000 </v>
   <v>       0.00000000       0.00000000       0.00000000 </v>
   <v>       0.00000000       0.00000000       0.00000000 </v>
   <v>       0.00000000       0.00000000       0.00000000 </v>
   <v>       0.00000000       0.00000000       0.00000000 </v>
   <v>       0.00000000       0.00000000       0.00000000 </v>
   <v>       0.00000000       0.00000000       0.00000000 </v>
   <v>       0.00000000       0.00000000       0.00000000 </v>
   <v>       0.00000000       0.00000000       0.00000000 </v>
   <v>       0.00000000       0.00000000       0.00000000 </v>
   <v>       0.00000000       0.00000000       0.00000000 </v>
   <v>       0.00000000       0.00000000       0.00000000 </v>
   <v>       0.00000000       0.00000000       0.00000000 </v>
   <v>       0.00000000       0.00000000       0.00000000 </v>
   <v>       0.00000000       0.00000000       0.00000000 </v>
   <v>       0.00000000       0.00000000       0.00000000 </v>
   <v>       0.00000000       0.00000000       0.00000000 </v>
   <v>       0.00000000       0.00000000       0.00000000 </v>
   <v>       0.00000000       0.00000000       0.00000000 </v>
   <v>       0.00000000       0.00000000       0.00000000 </v>
   <v>       0.00000000       0.00000000       0.00000000 </v>
   <v>       0.00000000       0.00000000       0.00000000 </v>
   <v>       0.00000000       0.00000000       0.00000000 </v>
   <v>       0.00000000       0.00000000       0.00000000 </v>
   <v>       0.00000000       0.00000000       0.00000000 </v>
   <v>       0.00000000       0.00000000       0.00000000 </v>
   <v>       0.00000000       0.00000000       0.00000000 </v>
   <v>       0.00000000       0.00000000       0.00000000 </v>
   <v>       0.00000000       0.00000000       0.00000000 </v>
   <v>       0.00000000       0.00000000       0.00000000 </v>
   <v>       0.00000000       0.00000000       0.00000000 </v>
   <v>       0.00000000       0.00000000       0.00000000 </v>
   <v>       0.00000000       0.00000000       0.00000000 </v>
   <v>       0.00000000       0.00000000       0.00000000 </v>
   <v>       0.00000000       0.00000000       0.00000000 </v>
   <v>       0.00000000       0.00000000       0.00000000 </v>
   <v>       0.00000000       0.00000000       0.00000000 </v>
   <v>       0.00000000       0.00000000       0.00000000 </v>
   <v>       0.00000000       0.00000000       0.00000000 </v>
   <v>       0.00000000       0.00000000       0.00000000 </v>
   <v>       0.00000000       0.00000000       0.00000000 </v>
   <v>       0.00000000       0.00000000       0.00000000 </v>
   <v>       0.00000000       0.00000000       0.00000000 </v>
   <v>       0.00000000       0.00000000       0.00000000 </v>
   <v>       0.00000000       0.00000000       0.00000000 </v>
   <v>       0.00000000       0.00000000       0.00000000 </v>
   <v>       0.00000000       0.00000000       0.00000000 </v>
   <v>       0.00000000       0.00000000       0.00000000 </v>
   <v>       0.00000000       0.00000000       0.00000000 </v>
   <v>       0.00000000       0.00000000       0.00000000 </v>
   <v>       0.00000000       0.00000000       0.00000000 </v>
   <v>       0.00000000       0.00000000       0.00000000 </v>
   <v>       0.00000000       0.00000000       0.00000000 </v>
   <v>       0.00000000       0.00000000       0.00000000 </v>
   <v>       0.00000000       0.00000000       0.00000000 </v>
   <v>       0.00000000       0.00000000       0.00000000 </v>
   <v>       0.00000000       0.00000000       0.00000000 </v>
   <v>       0.00000000       0.00000000       0.00000000 </v>
   <v>       0.00000000       0.00000000       0.00000000 </v>
   <v>       0.00000000       0.00000000       0.00000000 </v>
   <v>       0.00000000       0.00000000       0.00000000 </v>
   <v>       0.00000000       0.00000000       0.00000000 </v>
   <v>       0.00000000       0.00000000       0.00000000 </v>
   <v>       0.00000000       0.00000000       0.00000000 </v>
   <v>       0.00000000       0.00000000       0.00000000 </v>
   <v>       0.00000000       0.00000000       0.00000000 </v>
   <v>       0.00000000       0.00000000       0.00000000 </v>
   <v>       0.00000000       0.00000000       0.00000000 </v>
   <v>       0.00000000       0.00000000       0.00000000 </v>
   <v>       0.00000000       0.00000000       0.00000000 </v>
   <v>       0.00000000       0.00000000       0.00000000 </v>
   <v>       0.00000000       0.00000000       0.00000000 </v>
   <v>       0.00000000       0.00000000       0.00000000 </v>
   <v>       0.00000000       0.00000000       0.00000000 </v>
   <v>       0.00000000       0.00000000       0.00000000 </v>
   <v>       0.00000000       0.00000000       0.00000000 </v>
   <v>       0.00000000       0.00000000       0.00000000 </v>
   <v>       0.00000000       0.00000000       0.00000000 </v>
   <v>       0.00000000       0.00000000       0.00000000 </v>
   <v>       0.00000000       0.00000000       0.00000000 </v>
   <v>       0.00000000       0.00000000       0.00000000 </v>
   <v>       0.00000000       0.00000000       0.00000000 </v>
   <v>       0.00000000       0.00000000       0.00000000 </v>
   <v>       0.00000000       0.00000000       0.00000000 </v>
   <v>       0.00000000       0.00000000       0.00000000 </v>
   <v>       0.00000000       0.00000000       0.00000000 </v>
   <v>       0.00000000       0.00000000       0.00000000 </v>
   <v>       0.00000000       0.00000000       0.00000000 </v>
   <v>       0.00000000       0.00000000       0.00000000 </v>
   <v>       0.00000000       0.00000000       0.00000000 </v>
   <v>       0.00000000       0.00000000       0.00000000 </v>
   <v>       0.00000000       0.00000000       0.00000000 </v>
   <v>       0.00000000       0.00000000       0.00000000 </v>
   <v>       0.00000000       0.00000000       0.00000000 </v>
   <v>       0.00000000       0.00000000       0.00000000 </v>
   <v>       0.00000000       0.00000000       0.00000000 </v>
   <v>       0.00000000       0.00000000       0.00000000 </v>
   <v>       0.00000000       0.00000000       0.00000000 </v>
   <v>       0.00000000       0.00000000       0.00000000 </v>
   <v>       0.00000000       0.00000000       0.00000000 </v>
   <v>       0.00000000       0.00000000       0.00000000 </v>
   <v>       0.00000000       0.00000000       0.00000000 </v>
   <v>       0.00000000       0.00000000       0.00000000 </v>
   <v>       0.00000000       0.00000000       0.00000000 </v>
   <v>       0.00000000       0.00000000       0.00000000 </v>
   <v>       0.00000000       0.00000000       0.00000000 </v>
   <v>       0.00000000       0.00000000       0.00000000 </v>
  </varray>
 </structure>
 <calculation>
  <scstep>
   <time name="dav">   24.32   24.32</time>
   <time name="total">   24.72   24.73</time>
   <energy>
    <i name="alphaZ">   4052.29761577 </i>
    <i name="ewald"> -56021.64862470 </i>
    <i name="hartreedc"> -12303.42544276 </i>
    <i name="XCdc">   3272.36680314 </i>
    <i name="pawpsdc">  50594.51003143 </i>
    <i name="pawaedc"> -49994.65612350 </i>
    <i name="eentropy">     -0.03483124 </i>
    <i name="bandstr">   5798.10332348 </i>
    <i name="atom">  64968.54023382 </i>
    <i name="e_fr_energy">  10366.05298546 </i>
    <i name="e_wo_entrp">  10366.08781670 </i>
    <i name="e_0_energy">  10366.07040108 </i>
   </energy>
  </scstep>
  <scstep>
   <time name="dav">   26.70   26.71</time>
   <time name="total">   26.70   26.71</time>
   <energy>
    <i name="e_fr_energy">    183.19481932 </i>
    <i name="e_wo_entrp">    183.19481932 </i>
    <i name="e_0_energy">    183.19481932 </i>
   </energy>
  </scstep>
  <scstep>
   <time name="dav">   27.45   27.46</time>
   <time name="total">   27.45   27.46</time>
   <energy>
    <i name="e_fr_energy">   -938.97480889 </i>
    <i name="e_wo_entrp">   -938.97480889 </i>
    <i name="e_0_energy">   -938.97480889 </i>
   </energy>
  </scstep>
  <scstep>
   <time name="dav">   32.78   32.79</time>
   <time name="total">   32.78   32.79</time>
   <energy>
    <i name="e_fr_energy">   -998.58103194 </i>
    <i name="e_wo_entrp">   -998.58103194 </i>
    <i name="e_0_energy">   -998.58103194 </i>
   </energy>
  </scstep>
  <scstep>
   <time name="dav">   35.48   35.50</time>
   <time name="total">   36.32   36.33</time>
   <energy>
    <i name="e_fr_energy">  -1002.85555963 </i>
    <i name="e_wo_entrp">  -1002.85555963 </i>
    <i name="e_0_energy">  -1002.85555963 </i>
   </energy>
  </scstep>
  <scstep>
   <time name="dav">   28.05   28.05</time>
   <time name="total">   29.27   29.28</time>
   <energy>
    <i name="e_fr_energy">   -871.92975671 </i>
    <i name="e_wo_entrp">   -871.92975671 </i>
    <i name="e_0_energy">   -871.92975671 </i>
   </energy>
  </scstep>
  <scstep>
   <time name="dav">   29.77   29.77</time>
   <time name="total">   30.98   30.98</time>
   <energy>
    <i name="e_fr_energy">   -873.16005027 </i>
    <i name="e_wo_entrp">   -873.16005027 </i>
    <i name="e_0_energy">   -873.16005027 </i>
   </energy>
  </scstep>
  <scstep>
   <time name="dav">   30.76   30.76</time>
   <time name="total">   31.99   32.00</time>
   <energy>
    <i name="e_fr_energy">   -872.60891849 </i>
    <i name="e_wo_entrp">   -872.60891849 </i>
    <i name="e_0_energy">   -872.60891849 </i>
   </energy>
  </scstep>
  <scstep>
   <time name="dav">   28.02   28.02</time>
   <time name="total">   29.25   29.26</time>
   <energy>
    <i name="e_fr_energy">   -872.48912085 </i>
    <i name="e_wo_entrp">   -872.48912085 </i>
    <i name="e_0_energy">   -872.48912085 </i>
   </energy>
  </scstep>
  <scstep>
   <time name="dav">   31.23   31.23</time>
   <time name="total">   32.45   32.45</time>
   <energy>
    <i name="e_fr_energy">   -872.53302111 </i>
    <i name="e_wo_entrp">   -872.53302111 </i>
    <i name="e_0_energy">   -872.53302111 </i>
   </energy>
  </scstep>
  <scstep>
   <time name="dav">   29.89   29.89</time>
   <time name="total">   31.14   31.16</time>
   <energy>
    <i name="e_fr_energy">   -872.53607533 </i>
    <i name="e_wo_entrp">   -872.53607533 </i>
    <i name="e_0_energy">   -872.53607533 </i>
   </energy>
  </scstep>
  <scstep>
   <time name="dav">   30.44   30.44</time>
   <time name="total">   31.66   31.67</time>
   <energy>
    <i name="e_fr_energy">   -872.53691450 </i>
    <i name="e_wo_entrp">   -872.53691450 </i>
    <i name="e_0_energy">   -872.53691450 </i>
   </energy>
  </scstep>
  <scstep>
   <time name="dav">   31.58   31.58</time>
   <time name="total">   32.82   32.83</time>
   <energy>
    <i name="e_fr_energy">   -872.53739618 </i>
    <i name="e_wo_entrp">   -872.53739618 </i>
    <i name="e_0_energy">   -872.53739618 </i>
   </energy>
  </scstep>
  <scstep>
   <time name="dav">   30.37   30.37</time>
   <time name="total">   31.62   31.64</time>
   <energy>
    <i name="e_fr_energy">   -872.53745061 </i>
    <i name="e_wo_entrp">   -872.53745061 </i>
    <i name="e_0_energy">   -872.53745061 </i>
   </energy>
  </scstep>
  <scstep>
   <time name="dav">   28.21   28.21</time>
   <time name="total">   29.45   29.47</time>
   <energy>
    <i name="e_fr_energy">   -872.53745006 </i>
    <i name="e_wo_entrp">   -872.53745006 </i>
    <i name="e_0_energy">   -872.53745006 </i>
   </energy>
  </scstep>
  <scstep>
   <time name="dav">   34.75   34.75</time>
   <time name="total">   35.96   35.96</time>
   <energy>
    <i name="e_fr_energy">   -872.53745451 </i>
    <i name="e_wo_entrp">   -872.53745451 </i>
    <i name="e_0_energy">   -872.53745451 </i>
   </energy>
  </scstep>
  <scstep>
   <time name="dav">   27.32   27.32</time>
   <time name="total">   28.55   28.56</time>
   <energy>
    <i name="e_fr_energy">   -872.53745392 </i>
    <i name="e_wo_entrp">   -872.53745392 </i>
    <i name="e_0_energy">   -872.53745392 </i>
   </energy>
  </scstep>
  <scstep>
   <time name="dav">   23.09   23.09</time>
   <time name="total">   23.46   23.46</time>
   <energy>
    <i name="alphaZ">   4052.29761577 </i>
    <i name="ewald"> -56021.64862470 </i>
    <i name="hartreedc"> -13575.45902185 </i>
    <i name="XCdc">   3363.70124718 </i>
    <i name="pawpsdc"> 103391.72278451 </i>
    <i name="pawaedc">-103039.81634010 </i>
    <i name="eentropy">     -0.00000000 </i>
    <i name="bandstr">  -4011.87534771 </i>
    <i name="atom">  64968.54023382 </i>
    <i name="e_fr_energy">   -872.53745307 </i>
    <i name="e_wo_entrp">   -872.53745307 </i>
    <i name="e_0_energy">   -872.53745307 </i>
   </energy>
  </scstep>
  <structure>
   <crystal>
    <varray name="basis" >
     <v>      10.56489661       0.00000000       0.00000000 </v>
     <v>       0.00000000      10.56489661       0.00000000 </v>
     <v>       0.00000000       0.00000000      10.56489661 </v>
    </varray>
    <i name="volume">   1179.22249153 </i>
    <varray name="rec_basis" >
     <v>       0.09465308       0.00000000       0.00000000 </v>
     <v>       0.00000000       0.09465308       0.00000000 </v>
     <v>       0.00000000       0.00000000       0.09465308 </v>
    </varray>
   </crystal>
   <varray name="positions" >
    <v>       0.44972026       0.31977076       0.71339928 </v>
    <v>       0.64166129       0.09014335       0.62162504 </v>
    <v>       0.54240387       0.16220043       0.33375183 </v>
    <v>       0.05736688       0.13301352       0.16726475 </v>
    <v>       0.97573951       0.21385773       0.87993566 </v>
    <v>       0.51573385       0.20804887       0.01032580 </v>
    <v>       0.61476598       0.67184735       0.20386786 </v>
    <v>       0.23233753       0.47544686       0.90084361 </v>
    <v>       0.67192124       0.50716357       0.74477407 </v>
    <v>       0.48582108       0.76944122       0.89557214 </v>
    <v>       0.18689520       0.06375976       0.74275938 </v>
    <v>       0.30917012       0.39906910       0.22742040 </v>
    <v>       0.13004730       0.60112708       0.36264451 </v>
    <v>       0.95681528       0.85685261       0.44232007 </v>
    <v>       0.28646757       0.96318848       0.01072374 </v>
    <v>       0.38297670       0.86514540       0.31689905 </v>
    <v>       0.84161027       0.34683243       0.32593920 </v>
    <v>       0.87018911       0.29216467       0.63709340 </v>
    <v>       0.84807282       0.91235317       0.15430933 </v>
    <v>       0.66020412       0.64363633       0.49800778 </v>
    <v>       0.74285421       0.00006241       0.90329426 </v>
    <v>       0.80128949       0.48580055       0.05344014 </v>
    <v>       0.14187111       0.06719898       0.42755312 </v>
    <v>       0.96216251       0.75118704       0.75698662 </v>
    <v>       0.47618204       0.86025665       0.60853389 </v>
    <v>       0.02684624       0.68150364       0.03094624 </v>
    <v>       0.40908043       0.58507758       0.63564227 </v>
    <v>       0.70776871       0.81119388       0.68949217 </v>
    <v>       0.25367771       0.26757790       0.97070419 </v>
    <v>       0.12732125       0.34307571       0.41097057 </v>
    <v>       0.47667682       0.04210803       0.82936349 </v>
    <v>       0.76736788       0.72347427       0.96175875 </v>
    <v>       0.51621751       0.47300617       0.98164315 </v>
    <v>       0.05318879       0.39974149       0.13443066 </v>
    <v>       0.96141955       0.48570116       0.83013313 </v>
    <v>       0.15136749       0.37055980       0.63456012 </v>
    <v>       0.30791638       0.13182240       0.20755413 </v>
    <v>       0.08451850       0.88298851       0.23070808 </v>
    <v>       0.93008397       0.00751220       0.66673153 </v>
    <v>       0.39679644       0.07888591       0.51878011 </v>
    <v>       0.58818331       0.40975973       0.24922050 </v>
    <v>       0.93570003       0.57229624       0.54161117 </v>
    <v>       0.22950435       0.73650032       0.82352930 </v>
    <v>       0.05785644       0.96351077       0.93642563 </v>
    <v>       0.39625898       0.58012718       0.39649441 </v>
    <v>       0.20281754       0.79516146       0.52495234 </v>
    <v>       0.82627037       0.10281735       0.40899135 </v>
    <v>       0.71791643       0.28167647       0.83885806 </v>
    <v>       0.77599965       0.17836761       0.12012609 </v>
    <v>       0.65483924       0.85595803       0.38111202 </v>
    <v>       0.63480630       0.30947877       0.52537106 </v>
    <v>       0.87535268       0.64147464       0.26755054 </v>
    <v>       0.55644352       0.91191760       0.09949972 </v>
    <v>       0.32714635       0.68300308       0.11292806 </v>
    <v>       0.66693997       0.29902492       0.67787594 </v>
    <v>       0.30223573       0.67868405       0.92689661 </v>
    <v>       0.98581260       0.23836867       0.44141403 </v>
    <v>       0.05061531       0.46628771       0.97066492 </v>
    <v>       0.10456498       0.10027517       0.96293304 </v>
    <v>       0.20246182       0.53092733       0.10655521 </v>
    <v>       0.57742504       0.92616086       0.75317224 </v>
    <v>       0.95268521       0.56626996       0.69404359 </v>
    <v>       0.16512614       0.28677946       0.84261573 </v>
    <v>       0.09274161       0.64494059       0.84054900 </v>
    <v>       0.81807851       0.68449964       0.59112700 </v>
    <v>       0.56104197       0.39423447       0.10701854 </v>
    <v>       0.72366057       0.78728245       0.83226758 </v>
    <v>       0.48122425       0.53776747       0.85583432 </v>
    <v>       0.60528952       0.86977050       0.24271274 </v>
    <v>       0.53062864       0.74982191       0.40838574 </v>
    <v>       0.52721542       0.45413619       0.57245988 </v>
    <v>       0.78859205       0.42620298       0.54042415 </v>
    <v>       0.59178159       0.14779622       0.83918721 </v>
    <v>       0.30205329       0.68085098       0.49338287 </v>
    <v>       0.30795286       0.14624889       0.04486799 </v>
    <v>       0.17523368       0.23064935       0.28262815 </v>
    <v>       0.43439635       0.80819857       0.06745684 </v>
    <v>       0.96494904       0.97777276       0.28616342 </v>
    <v>       0.01609401       0.14004158       0.66307941 </v>
    <v>       0.66957210       0.84200211       0.54864094 </v>
    <v>       0.55602892       0.37173339       0.39165539 </v>
    <v>       0.20514506       0.77726422       0.13417299 </v>
    <v>       0.18613207       0.82437841       0.36837090 </v>
    <v>       0.38713121       0.16020436       0.85851673 </v>
    <v>       0.64936863       0.60106276       0.95264504 </v>
    <v>       0.88494363       0.08566912       0.05440031 </v>
    <v>       0.38916785       0.92997214       0.81468961 </v>
    <v>       0.71763844       0.18469107       0.45798771 </v>
    <v>       0.06456989       0.92225551       0.60300631 </v>
    <v>       0.43728767       0.57135882       0.12341113 </v>
    <v>       0.86565905       0.61409412       0.87669428 </v>
    <v>       0.17879233       0.86032247       0.86737757 </v>
    <v>       0.29064236       0.44465501       0.67679584 </v>
    <v>       0.03946279       0.39697298       0.72028948 </v>
    <v>       0.21416069       0.00576735       0.21487997 </v>
    <v>       0.17001072       0.30670849       0.07617439 </v>
    <v>       0.80987394       0.13426084       0.78099393 </v>
    <v>       0.67992789       0.03113765       0.12793254 </v>
    <v>       0.30000816       0.45748516       0.43071417 </v>
    <v>       0.78340168       0.95840662       0.40198683 </v>
    <v>       0.65768243       0.80914574       0.03598760 </v>
    <v>       0.43608936       0.04035135       0.18106749 </v>
    <v>       0.07832301       0.44819974       0.49246404 </v>
    <v>       0.93968346       0.56517386       0.39503468 </v>
    <v>       0.05361214       0.90704289       0.07411759 </v>
    <v>       0.51038439       0.21591199       0.53075189 </v>
    <v>       0.07145956       0.68151712       0.55126603 </v>
    <v>       0.48801161       0.00107295       0.97252336 </v>
    <v>       0.84450170       0.07278925       0.56906988 </v>
    <v>       0.51727693       0.96383951       0.43936339 </v>
    <v>       0.32516092       0.91631760       0.52155017 </v>
    <v>       0.72558514       0.20238741       0.98177988 </v>
    <v>       0.53715194       0.54272019       0.32592304 </v>
    <v>       0.31749793       0.14578248       0.39933578 </v>
    <v>       0.86891229       0.14820430       0.28241855 </v>
    <v>       0.60317303       0.36551408       0.90120608 </v>
    <v>       0.33798038       0.11450783       0.64885399 </v>
    <v>       0.88410514       0.83441843       0.96292261 </v>
    <v>       0.00870370       0.73279152       0.30959666 </v>
    <v>       0.67644615       0.24872692       0.21153709 </v>
    <v>       0.94433312       0.52501437       0.19119270 </v>
    <v>       0.89600309       0.32459732       0.10091869 </v>
    <v>       0.40962326       0.23613996       0.20359744 </v>
    <v>       0.99188443       0.99555943       0.82100834 </v>
    <v>       0.23331396       0.28634951       0.54391350 </v>
    <v>       0.59125223       0.69372498       0.70343447 </v>
    <v>       0.36165188       0.37413414       0.99956290 </v>
    <v>       0.78217142       0.74413452       0.33377986 </v>
    <v>       0.82706499       0.70339804       0.12431754 </v>
    <v>       0.85115402       0.89759236       0.70977682 </v>
    <v>       0.05964406       0.39564633       0.29000066 </v>
    <v>       0.27554322       0.75859140       0.67434046 </v>
    <v>       0.30167505       0.64992622       0.27960104 </v>
    <v>       0.72723416       0.49173425       0.24310977 </v>
    <v>       0.83676025       0.37442637       0.81848321 </v>
   </varray>
  </structure>
  <varray name="forces" >
   <v>      -2.09927046      -1.48443981       1.15930520 </v>
   <v>       1.84910370      -3.36815040       2.97323820 </v>
   <v>      -0.58203422      -2.29351309      -2.35294461 </v>
   <v>      -3.30829664       0.47156386      -1.94301264 </v>
   <v>      -1.10417462       0.22301347       0.13669574 </v>
   <v>      -0.78580275      -0.64895588       4.10161942 </v>
   <v>      -0.23513342      -0.24008091      -2.56443388 </v>
   <v>       0.50386676       4.87355899      -2.88155711 </v>
   <v>       0.06049893       2.95882943      -0.02338264 </v>
   <v>       4.17005115      -2.35027234      -4.80690812 </v>
   <v>      -0.07483472      -0.24597043       1.06848192 </v>
   <v>       0.30912923       1.76202934      -1.31283417 </v>
   <v>       3.16095003      -1.48446539      -0.54012140 </v>
   <v>      -2.74518410      -1.87393642       4.10041157 </v>
   <v>       1.76381717      -2.29837344       0.52646913 </v>
   <v>      -0.86182094       0.55854705      -1.10074638 </v>
   <v>       1.56165107       1.62048484       0.93800988 </v>
   <v>       4.52971212      -4.17903098      -1.59505348 </v>
   <v>      -4.00282458      -0.86054204      -1.33009026 </v>
   <v>      -0.03956182      -6.00169620      -0.05941120 </v>
   <v>      -0.04315211      -1.23142588       0.99554868 </v>
   <v>      -1.66512538      -0.24307188      -1.54012115 </v>
   <v>      -1.30724483       0.77109978       2.11207154 </v>
   <v>       0.11508797       1.43763903      -1.58789458 </v>
   <v>      -1.25922713      -4.52396187       1.57679236 </v>
   <v>       1.54014920      -0.48549759       1.58172842 </v>
   <v>      -0.66705814       1.96953456       3.56658309 </v>
   <v>       0.29409511      -0.95529541       0.22641059 </v>
   <v>       4.30878675      -6.57847802      -6.07043381 </v>
   <v>       2.40382276     -10.33674889      -0.95218601 </v>
   <v>       2.15812382       2.00863254      -1.08418368 </v>
   <v>      -0.11230929      -0.50034624       0.03230551 </v>
   <v>      -1.12326036       1.94700316       2.16973345 </v>
   <v>      -1.20907604       4.34735110      -2.56542696 </v>
   <v>       0.97461846       3.06827361      -0.84224987 </v>
   <v>       5.74368736       2.59895220       0.19361993 </v>
   <v>       0.76970941      -0.92527791       1.85135867 </v>
   <v>       5.58643327      -3.19067463      -0.16174202 </v>
   <v>       7.24835965       5.30692793       2.74118653 </v>
   <v>      -1.43933842       0.25849019      -3.32143551 </v>
   <v>       3.97657048       0.28639423       2.42801678 </v>
   <v>      -0.15413577       1.91803307       4.26357521 </v>
   <v>      -4.43726761      -2.39395907      -7.33531384 </v>
   <v>      -0.08942496      -4.17898546       3.86314904 </v>
   <v>      -2.61992753       0.96997119      -2.88336803 </v>
   <v>      -0.24342562       0.04563657       3.16593561 </v>
   <v>       3.64692697      -2.92367394       4.90319928 </v>
   <v>      -2.98932527      -8.73160237       1.61431693 </v>
   <v>       1.76433150      -2.98740077       0.98800702 </v>
   <v>       1.03398455       2.23494760       4.54094093 </v>
   <v>      -2.00414966       7.35454415      -2.55160141 </v>
   <v>       1.80199295      -0.87331473      -0.25338724 </v>
   <v>       0.11061337       6.23764330      -0.04665012 </v>
   <v>      -2.47186127      -3.15942244       0.92181896 </v>
   <v>      -0.16475532      -0.72539147       1.67440597 </v>
   <v>       4.27498277      -2.43093835       5.38092373 </v>
   <v>       1.37842924      -0.03168879       0.90531487 </v>
   <v>      -6.12417188      -1.21035499      -1.26646983 </v>
   <v>       3.91041944      -0.32799621       1.70108907 </v>
   <v>      -1.43439320       1.22538620       0.87898539 </v>
   <v>       4.91008415       2.66068161      -0.38936778 </v>
   <v>      -1.60668192      -2.18566093      -0.67290114 </v>
   <v>       3.37972309      -1.12436537       0.66238132 </v>
   <v>       4.82199734      -0.69566164       0.00201309 </v>
   <v>       2.18114175       0.65247064      -0.14079756 </v>
   <v>      -0.09975280       0.87893016      -1.81306651 </v>
   <v>       0.12075779      -0.78607245       1.61539363 </v>
   <v>      -4.26146806       0.84311254      -4.46412777 </v>
   <v>      -1.39302081       0.31829538      -1.07459536 </v>
   <v>      -1.65231490      -0.91624936      -0.85603133 </v>
   <v>       3.13213685      -0.44427711       0.88028035 </v>
   <v>      -2.14015366       2.70130767      -3.08241637 </v>
   <v>       1.68017918      -0.34318033      -4.98545033 </v>
   <v>       3.38983248      -2.59485460      -2.41622041 </v>
   <v>      -1.75600574       0.73044023       2.02145851 </v>
   <v>       2.12689992      -0.42803271       1.31290163 </v>
   <v>      -2.11312478      -0.61771939       6.23929379 </v>
   <v>       7.62087525      -1.76989022       0.89823039 </v>
   <v>       2.62406692       1.64012138       0.60336275 </v>
   <v>       0.81545106       2.38526052      -2.44839090 </v>
   <v>       2.83015288      -6.48502057       0.15087178 </v>
   <v>      -0.62998299       1.30111014      -0.28015643 </v>
   <v>      -2.87853944       3.22098257       0.29866734 </v>
   <v>      -3.94663566       3.29951173      -1.43965618 </v>
   <v>       1.61338404      -0.52779964       2.96992957 </v>
   <v>       2.09650257      -0.15570962      -0.19180588 </v>
   <v>      -7.78269939      -4.46816327      -3.00831204 </v>
   <v>      -3.78879906       5.84777628       0.03206932 </v>
   <v>       1.35020451      -0.33508343      -0.88238774 </v>
   <v>       0.92777970       0.36451080      -3.69181242 </v>
   <v>      -0.16674419      -2.31596899       2.82925175 </v>
   <v>      -5.74321465       7.45400537       2.68105202 </v>
   <v>      -4.21967999      -0.32897951       2.44556709 </v>
   <v>      -1.93829415      -2.28900596       2.48252849 </v>
   <v>      -2.27532707      -1.97411748       1.44244577 </v>
   <v>      -7.50265296       2.43997529       6.07270150 </v>
   <v>      -0.58288261       3.23654828      -1.07241383 </v>
   <v>      -0.84217949       0.78122217      -0.64297137 </v>
   <v>       1.62348209       0.92246498      -2.29043800 </v>
   <v>      -3.95890395      -1.42694582      -2.72774042 </v>
   <v>      -1.54440351       2.16787275       0.34385125 </v>
   <v>       1.75080614      -5.42537028       1.74041208 </v>
   <v>      -1.89255958       3.80743507       8.92903820 </v>
   <v>      -5.76145130      -0.81995663      -0.93415406 </v>
   <v>      -0.47998258      -0.51099243       3.35814240 </v>
   <v>      -2.17812099      -2.79277922       1.59846133 </v>
   <v>       0.48041403       2.11389927      -0.63255218 </v>
   <v>       4.89204126      -2.57597891       5.68459097 </v>
   <v>      -1.67585868       0.48950223      -5.02797250 </v>
   <v>       1.04046955       5.40372263       0.68920927 </v>
   <v>      -5.03062232       2.54695755      -1.87264365 </v>
   <v>       0.33403108       3.85237028      -1.90999678 </v>
   <v>      -4.43327617       3.34017633       0.31027642 </v>
   <v>       4.37230371      -3.17255667       0.36841567 </v>
   <v>      -0.91915831       2.91146732      -6.56221701 </v>
   <v>       0.96773959       0.86678770      -2.27801612 </v>
   <v>       3.19397231       0.28201221      -1.01642829 </v>
   <v>       1.51727270      -0.10933824      -0.75943214 </v>
   <v>      -2.06499136       3.24193583      -7.72725898 </v>
   <v>      -0.34272388       2.50292079       1.53321325 </v>
   <v>       1.65135878       0.95410979      -3.66930408 </v>
   <v>       3.19822295      -2.67786090       1.13294618 </v>
   <v>       3.13793202       6.18430750       1.57962177 </v>
   <v>      -3.52824596       0.16558988      -5.72751697 </v>
   <v>      -3.40685336      -2.77091951      -2.69119366 </v>
   <v>      -1.23110211      -0.29520498      -2.76291714 </v>
   <v>       3.42499073      -0.30804008      -0.89172687 </v>
   <v>      -3.06503300       0.73252018       2.42451740 </v>
   <v>      -0.03907467      -2.42370360       0.09592254 </v>
   <v>      -7.18549602      -2.76690907      -1.61064898 </v>
   <v>       0.35835965       1.63359077      -3.09204568 </v>
   <v>      -1.22279990      -0.17610964       4.12430198 </v>
   <v>       5.30434465       0.13888573      -0.96439973 </v>
   <v>      -0.41098892       0.98431764       0.38967916 </v>
   <v>       1.27055306       2.85981619       2.45019589 </v>
  </varray>
  <varray name="stress" >
   <v>     486.10373628     -77.11127621      81.39720769 </v>
   <v>     -77.11127622     540.77985293     -76.67807851 </v>
   <v>      81.39720773     -76.67807846     560.78039986 </v>
  </varray>
  <energy>
   <i name="e_fr_energy">   -872.53745307 </i>
   <i name="e_wo_entrp">   -872.53745307 </i>
   <i name="e_0_energy">     -0.00000000 </i>
  </energy>
  <time name="totalsc">  577.33  577.53</time>
  <eigenvalues>
   <array>
    <dimension dim="1">band</dimension>
    <dimension dim="2">kpoint</dimension>
    <dimension dim="3">spin</dimension>
    <field>eigene</field>
    <field>occ</field>
    <set>
     <set comment="spin 1">
      <set comment="kpoint 1">
       <r>  -31.8326    1.0000 </r>
       <r>  -31.7811    1.0000 </r>
       <r>  -31.4595    1.0000 </r>
       <r>  -31.2584    1.0000 </r>
       <r>  -31.2555    1.0000 </r>
       <r>  -31.1783    1.0000 </r>
       <r>  -31.1291    1.0000 </r>
       <r>  -31.0408    1.0000 </r>
       <r>  -31.0376    1.0000 </r>
       <r>  -30.9373    1.0000 </r>
       <r>  -30.9221    1.0000 </r>
       <r>  -30.7925    1.0000 </r>
       <r>  -30.6861    1.0000 </r>
       <r>  -30.6644    1.0000 </r>
       <r>  -30.5154    1.0000 </r>
       <r>  -30.4914    1.0000 </r>
       <r>  -30.4819    1.0000 </r>
       <r>  -30.4662    1.0000 </r>
       <r>  -30.4420    1.0000 </r>
       <r>  -30.4305    1.0000 </r>
       <r>  -30.3652    1.0000 </r>
       <r>  -30.2875    1.0000 </r>
       <r>  -30.2278    1.0000 </r>
       <r>  -30.2243    1.0000 </r>
       <r>  -30.1577    1.0000 </r>
       <r>  -30.1465    1.0000 </r>
       <r>  -29.6738    1.0000 </r>
       <r>  -15.8478    1.0000 </r>
       <r>  -15.6050    1.0000 </r>
       <r>  -15.2342    1.0000 </r>
       <r>  -15.1372    1.0000 </r>
       <r>  -15.1132    1.0000 </r>
       <r>  -14.9589    1.0000 </r>
       <r>  -14.9345    1.0000 </r>
       <r>  -14.8460    1.0000 </r>
       <r>  -14.7843    1.0000 </r>
       <r>  -14.6918    1.0000 </r>
       <r>  -14.6274    1.0000 </r>
       <r>  -14.5482    1.0000 </r>
       <r>  -14.4685    1.0000 </r>
       <r>  -14.4097    1.0000 </r>
       <r>  -14.3311    1.0000 </r>
[...]
       <r>     9.8375     6.2502   865.9998 </r>
       <r>    10.0094     0.0085   866.0013 </r>
       <r>    10.1814     8.1229   867.3978 </r>
       <r>    10.3533     3.5023   868.0000 </r>
       <r>    10.5252     0.0000   868.0000 </r>
       <r>    10.6972     0.0000   868.0000 </r>
       <r>    10.8691     0.0001   868.0000 </r>
       <r>    11.0410     1.8569   868.3193 </r>
       <r>    11.2129     9.5342   869.9585 </r>
       <r>    11.3849     5.6925   870.9372 </r>
       <r>    11.5568    12.7305   873.1260 </r>
       <r>    11.7287    16.3898   875.9439 </r>
       <r>    11.9007    17.3279   878.9232 </r>
       <r>    12.0726    23.5026   882.9640 </r>
       <r>    12.2445    34.3975   888.8780 </r>
       <r>    12.4165    33.3115   894.6053 </r>
       <r>    12.5884    29.0819   899.6055 </r>
       <r>    12.7603    28.8478   904.5653 </r>
       <r>    12.9323    40.2073   911.4782 </r>
       <r>    13.1042    43.8853   919.0235 </r>
       <r>    13.2761    49.8787   927.5993 </r>
       <r>    13.4481    55.5350   937.1475 </r>
       <r>    13.6200    54.0702   946.4439 </r>
       <r>    13.7919    60.6678   956.8746 </r>
       <r>    13.9639    57.6709   966.7901 </r>
       <r>    14.1358    68.6365   978.5909 </r>
       <r>    14.3077    69.0821   990.4683 </r>
       <r>    14.4797    71.9333  1002.8360 </r>
       <r>    14.6516    68.7441  1014.6553 </r>
       <r>    14.8235    67.1467  1026.1999 </r>
       <r>    14.9955    62.9117  1037.0164 </r>
       <r>    15.1674    17.3510  1039.9996 </r>
       <r>    15.3393     0.0022  1040.0000 </r>
       <r>    15.5112     0.0000  1040.0000 </r>
       <r>    15.6832     0.0000  1040.0000 </r>
       <r>    15.8551     0.0000  1040.0000 </r>
       <r>    16.0270     0.0000  1040.0000 </r>
       <r>    16.1990     0.0000  1040.0000 </r>
       <r>    16.3709     0.0000  1040.0000 </r>
       <r>    16.5428     0.0000  1040.0000 </r>
       <r>    16.7148     0.0000  1040.0000 </r>
       <r>    16.8867     0.0000  1040.0000 </r>
       <r>    17.0586     0.0000  1040.0000 </r>
       <r>    17.2306     0.0000  1040.0000 </r>
       <r>    17.4025     0.0000  1040.0000 </r>
      </set>
     </set>
    </array>
   </total>
  </dos>
 </calculation>
 <structure name="finalpos" >
  <crystal>
   <varray name="basis" >
    <v>      10.56489661       0.00000000       0.00000000 </v>
    <v>       0.00000000      10.56489661       0.00000000 </v>
    <v>       0.00000000       0.00000000      10.56489661 </v>
   </varray>
   <i name="volume">   1179.22249153 </i>
   <varray name="rec_basis" >
    <v>       0.09465308       0.00000000       0.00000000 </v>
    <v>       0.00000000       0.09465308       0.00000000 </v>
    <v>       0.00000000       0.00000000       0.09465308 </v>
   </varray>
  </crystal>
  <varray name="positions" >
   <v>       0.44972026       0.31977076       0.71339928 </v>
   <v>       0.64166129       0.09014335       0.62162504 </v>
   <v>       0.54240387       0.16220043       0.33375183 </v>
   <v>       0.05736688       0.13301352       0.16726475 </v>
   <v>       0.97573951       0.21385773       0.87993566 </v>
   <v>       0.51573385       0.20804887       0.01032580 </v>
   <v>       0.61476598       0.67184735       0.20386786 </v>
   <v>       0.23233753       0.47544686       0.90084361 </v>
   <v>       0.67192124       0.50716357       0.74477407 </v>
   <v>       0.48582108       0.76944122       0.89557214 </v>
   <v>       0.18689520       0.06375976       0.74275938 </v>
   <v>       0.30917012       0.39906910       0.22742040 </v>
   <v>       0.13004730       0.60112708       0.36264451 </v>
   <v>       0.95681528       0.85685261       0.44232007 </v>
   <v>       0.28646757       0.96318848       0.01072374 </v>
   <v>       0.38297670       0.86514540       0.31689905 </v>
   <v>       0.84161027       0.34683243       0.32593920 </v>
   <v>       0.87018911       0.29216467       0.63709340 </v>
   <v>       0.84807282       0.91235317       0.15430933 </v>
   <v>       0.66020412       0.64363633       0.49800778 </v>
   <v>       0.74285421       0.00006241       0.90329426 </v>
   <v>       0.80128949       0.48580055       0.05344014 </v>
   <v>       0.14187111       0.06719898       0.42755312 </v>
   <v>       0.96216251       0.75118704       0.75698662 </v>
   <v>       0.47618204       0.86025665       0.60853389 </v>
   <v>       0.02684624       0.68150364       0.03094624 </v>
   <v>       0.40908043       0.58507758       0.63564227 </v>
   <v>       0.70776871       0.81119388       0.68949217 </v>
   <v>       0.25367771       0.26757790       0.97070419 </v>
   <v>       0.12732125       0.34307571       0.41097057 </v>
   <v>       0.47667682       0.04210803       0.82936349 </v>
   <v>       0.76736788       0.72347427       0.96175875 </v>
   <v>       0.51621751       0.47300617       0.98164315 </v>
   <v>       0.05318879       0.39974149       0.13443066 </v>
   <v>       0.96141955       0.48570116       0.83013313 </v>
   <v>       0.15136749       0.37055980       0.63456012 </v>
   <v>       0.30791638       0.13182240       0.20755413 </v>
   <v>       0.08451850       0.88298851       0.23070808 </v>
   <v>       0.93008397       0.00751220       0.66673153 </v>
   <v>       0.39679644       0.07888591       0.51878011 </v>
   <v>       0.58818331       0.40975973       0.24922050 </v>
   <v>       0.93570003       0.57229624       0.54161117 </v>
   <v>       0.22950435       0.73650032       0.82352930 </v>
   <v>       0.05785644       0.96351077       0.93642563 </v>
   <v>       0.39625898       0.58012718       0.39649441 </v>
   <v>       0.20281754       0.79516146       0.52495234 </v>
   <v>       0.82627037       0.10281735       0.40899135 </v>
   <v>       0.71791643       0.28167647       0.83885806 </v>
   <v>       0.77599965       0.17836761       0.12012609 </v>
   <v>       0.65483924       0.85595803       0.38111202 </v>
   <v>       0.63480630       0.30947877       0.52537106 </v>
   <v>       0.87535268       0.64147464       0.26755054 </v>
   <v>       0.55644352       0.91191760       0.09949972 </v>
   <v>       0.32714635       0.68300308       0.11292806 </v>
   <v>       0.66693997       0.29902492       0.67787594 </v>
   <v>       0.30223573       0.67868405       0.92689661 </v>
   <v>       0.98581260       0.23836867       0.44141403 </v>
   <v>       0.05061531       0.46628771       0.97066492 </v>
   <v>       0.10456498       0.10027517       0.96293304 </v>
   <v>       0.20246182       0.53092733       0.10655521 </v>
   <v>       0.57742504       0.92616086       0.75317224 </v>
   <v>       0.95268521       0.56626996       0.69404359 </v>
   <v>       0.16512614       0.28677946       0.84261573 </v>
   <v>       0.09274161       0.64494059       0.84054900 </v>
   <v>       0.81807851       0.68449964       0.59112700 </v>
   <v>       0.56104197       0.39423447       0.10701854 </v>
   <v>       0.72366057       0.78728245       0.83226758 </v>
   <v>       0.48122425       0.53776747       0.85583432 </v>
   <v>       0.60528952       0.86977050       0.24271274 </v>
   <v>       0.53062864       0.74982191       0.40838574 </v>
   <v>       0.52721542       0.45413619       0.57245988 </v>
   <v>       0.78859205       0.42620298       0.54042415 </v>
   <v>       0.59178159       0.14779622       0.83918721 </v>
   <v>       0.30205329       0.68085098       0.49338287 </v>
   <v>       0.30795286       0.14624889       0.04486799 </v>
   <v>       0.17523368       0.23064935       0.28262815 </v>
   <v>       0.43439635       0.80819857       0.06745684 </v>
   <v>       0.96494904       0.97777276       0.28616342 </v>
   <v>       0.01609401       0.14004158       0.66307941 </v>
   <v>       0.66957210       0.84200211       0.54864094 </v>
   <v>       0.55602892       0.37173339       0.39165539 </v>
   <v>       0.20514506       0.77726422       0.13417299 </v>
   <v>       0.18613207       0.82437841       0.36837090 </v>
   <v>       0.38713121       0.16020436       0.85851673 </v>
   <v>       0.64936863       0.60106276       0.95264504 </v>
   <v>       0.88494363       0.08566912       0.05440031 </v>
   <v>       0.38916785       0.92997214       0.81468961 </v>
   <v>       0.71763844       0.18469107       0.45798771 </v>
   <v>       0.06456989       0.92225551       0.60300631 </v>
   <v>       0.43728767       0.57135882       0.12341113 </v>
   <v>       0.86565905       0.61409412       0.87669428 </v>
   <v>       0.17879233       0.86032247       0.86737757 </v>
   <v>       0.29064236       0.44465501       0.67679584 </v>
   <v>       0.03946279       0.39697298       0.72028948 </v>
   <v>       0.21416069       0.00576735       0.21487997 </v>
   <v>       0.17001072       0.30670849       0.07617439 </v>
   <v>       0.80987394       0.13426084       0.78099393 </v>
   <v>       0.67992789       0.03113765       0.12793254 </v>
   <v>       0.30000816       0.45748516       0.43071417 </v>
   <v>       0.78340168       0.95840662       0.40198683 </v>
   <v>       0.65768243       0.80914574       0.03598760 </v>
   <v>       0.43608936       0.04035135       0.18106749 </v>
   <v>       0.07832301       0.44819974       0.49246404 </v>
   <v>       0.93968346       0.56517386       0.39503468 </v>
   <v>       0.05361214       0.90704289       0.07411759 </v>
   <v>       0.51038439       0.21591199       0.53075189 </v>
   <v>       0.07145956       0.68151712       0.55126603 </v>
   <v>       0.48801161       0.00107295       0.97252336 </v>
   <v>       0.84450170       0.07278925       0.56906988 </v>
   <v>       0.51727693       0.96383951       0.43936339 </v>
   <v>       0.32516092       0.91631760       0.52155017 </v>
   <v>       0.72558514       0.20238741       0.98177988 </v>
   <v>       0.53715194       0.54272019       0.32592304 </v>
   <v>       0.31749793       0.14578248       0.39933578 </v>
   <v>       0.86891229       0.14820430       0.28241855 </v>
   <v>       0.60317303       0.36551408       0.90120608 </v>
   <v>       0.33798038       0.11450783       0.64885399 </v>
   <v>       0.88410514       0.83441843       0.96292261 </v>
   <v>       0.00870370       0.73279152       0.30959666 </v>
   <v>       0.67644615       0.24872692       0.21153709 </v>
   <v>       0.94433312       0.52501437       0.19119270 </v>
   <v>       0.89600309       0.32459732       0.10091869 </v>
   <v>       0.40962326       0.23613996       0.20359744 </v>
   <v>       0.99188443       0.99555943       0.82100834 </v>
   <v>       0.23331396       0.28634951       0.54391350 </v>
   <v>       0.59125223       0.69372498       0.70343447 </v>
   <v>       0.36165188       0.37413414       0.99956290 </v>
   <v>       0.78217142       0.74413452       0.33377986 </v>
   <v>       0.82706499       0.70339804       0.12431754 </v>
   <v>       0.85115402       0.89759236       0.70977682 </v>
   <v>       0.05964406       0.39564633       0.29000066 </v>
   <v>       0.27554322       0.75859140       0.67434046 </v>
   <v>       0.30167505       0.64992622       0.27960104 </v>
   <v>       0.72723416       0.49173425       0.24310977 </v>
   <v>       0.83676025       0.37442637       0.81848321 </v>
  </varray>
  <varray name="velocities" >
   <v>       0.00000000       0.00000000       0.00000000 </v>
   <v>       0.00000000       0.00000000       0.00000000 </v>
   <v>       0.00000000       0.00000000       0.00000000 </v>
   <v>       0.00000000       0.00000000       0.00000000 </v>
   <v>       0.00000000       0.00000000       0.00000000 </v>
   <v>       0.00000000       0.00000000       0.00000000 </v>
   <v>       0.00000000       0.00000000       0.00000000 </v>
   <v>       0.00000000       0.00000000       0.00000000 </v>
   <v>       0.00000000       0.00000000       0.00000000 </v>
   <v>       0.00000000       0.00000000       0.00000000 </v>
   <v>       0.00000000       0.00000000       0.00000000 </v>
   <v>       0.00000000       0.00000000       0.00000000 </v>
   <v>       0.00000000       0.00000000       0.00000000 </v>
   <v>       0.00000000       0.00000000       0.00000000 </v>
   <v>       0.00000000       0.00000000       0.00000000 </v>
   <v>       0.00000000       0.00000000       0.00000000 </v>
   <v>       0.00000000       0.00000000       0.00000000 </v>
   <v>       0.00000000       0.00000000       0.00000000 </v>
   <v>       0.00000000       0.00000000       0.00000000 </v>
   <v>       0.00000000       0.00000000       0.00000000 </v>
   <v>       0.00000000       0.00000000       0.00000000 </v>
   <v>       0.00000000       0.00000000       0.00000000 </v>
   <v>       0.00000000       0.00000000       0.00000000 </v>
   <v>       0.00000000       0.00000000       0.00000000 </v>
   <v>       0.00000000       0.00000000       0.00000000 </v>
   <v>       0.00000000       0.00000000       0.00000000 </v>
   <v>       0.00000000       0.00000000       0.00000000 </v>
   <v>       0.00000000       0.00000000       0.00000000 </v>
   <v>       0.00000000       0.00000000       0.00000000 </v>
   <v>       0.00000000       0.00000000       0.00000000 </v>
   <v>       0.00000000       0.00000000       0.00000000 </v>
   <v>       0.00000000       0.00000000       0.00000000 </v>
   <v>       0.00000000       0.00000000       0.00000000 </v>
   <v>       0.00000000       0.00000000       0.00000000 </v>
   <v>       0.00000000       0.00000000       0.00000000 </v>
   <v>       0.00000000       0.00000000       0.00000000 </v>
   <v>       0.00000000       0.00000000       0.00000000 </v>
   <v>       0.00000000       0.00000000       0.00000000 </v>
   <v>       0.00000000       0.00000000       0.00000000 </v>
   <v>       0.00000000       0.00000000       0.00000000 </v>
   <v>       0.00000000       0.00000000       0.00000000 </v>
   <v>       0.00000000       0.00000000       0.00000000 </v>
   <v>       0.00000000       0.00000000       0.00000000 </v>
   <v>       0.00000000       0.00000000       0.00000000 </v>
   <v>       0.00000000       0.00000000       0.00000000 </v>
   <v>       0.00000000       0.00000000       0.00000000 </v>
   <v>       0.00000000       0.00000000       0.00000000 </v>
   <v>       0.00000000       0.00000000       0.00000000 </v>
   <v>       0.00000000       0.00000000       0.00000000 </v>
   <v>       0.00000000       0.00000000       0.00000000 </v>
   <v>       0.00000000       0.00000000       0.00000000 </v>
   <v>       0.00000000       0.00000000       0.00000000 </v>
   <v>       0.00000000       0.00000000       0.00000000 </v>
   <v>       0.00000000       0.00000000       0.00000000 </v>
   <v>       0.00000000       0.00000000       0.00000000 </v>
   <v>       0.00000000       0.00000000       0.00000000 </v>
   <v>       0.00000000       0.00000000       0.00000000 </v>
   <v>       0.00000000       0.00000000       0.00000000 </v>
   <v>       0.00000000       0.00000000       0.00000000 </v>
   <v>       0.00000000       0.00000000       0.00000000 </v>
   <v>       0.00000000       0.00000000       0.00000000 </v>
   <v>       0.00000000       0.00000000       0.00000000 </v>
   <v>       0.00000000       0.00000000       0.00000000 </v>
   <v>       0.00000000       0.00000000       0.00000000 </v>
   <v>       0.00000000       0.00000000       0.00000000 </v>
   <v>       0.00000000       0.00000000       0.00000000 </v>
   <v>       0.00000000       0.00000000       0.00000000 </v>
   <v>       0.00000000       0.00000000       0.00000000 </v>
   <v>       0.00000000       0.00000000       0.00000000 </v>
   <v>       0.00000000       0.00000000       0.00000000 </v>
   <v>       0.00000000       0.00000000       0.00000000 </v>
   <v>       0.00000000       0.00000000       0.00000000 </v>
   <v>       0.00000000       0.00000000       0.00000000 </v>
   <v>       0.00000000       0.00000000       0.00000000 </v>
   <v>       0.00000000       0.00000000       0.00000000 </v>
   <v>       0.00000000       0.00000000       0.00000000 </v>
   <v>       0.00000000       0.00000000       0.00000000 </v>
   <v>       0.00000000       0.00000000       0.00000000 </v>
   <v>       0.00000000       0.00000000       0.00000000 </v>
   <v>       0.00000000       0.00000000       0.00000000 </v>
   <v>       0.00000000       0.00000000       0.00000000 </v>
   <v>       0.00000000       0.00000000       0.00000000 </v>
   <v>       0.00000000       0.00000000       0.00000000 </v>
   <v>       0.00000000       0.00000000       0.00000000 </v>
   <v>       0.00000000       0.00000000       0.00000000 </v>
   <v>       0.00000000       0.00000000       0.00000000 </v>
   <v>       0.00000000       0.00000000       0.00000000 </v>
   <v>       0.00000000       0.00000000       0.00000000 </v>
   <v>       0.00000000       0.00000000       0.00000000 </v>
   <v>       0.00000000       0.00000000       0.00000000 </v>
   <v>       0.00000000       0.00000000       0.00000000 </v>
   <v>       0.00000000       0.00000000       0.00000000 </v>
   <v>       0.00000000       0.00000000       0.00000000 </v>
   <v>       0.00000000       0.00000000       0.00000000 </v>
   <v>       0.00000000       0.00000000       0.00000000 </v>
   <v>       0.00000000       0.00000000       0.00000000 </v>
   <v>       0.00000000       0.00000000       0.00000000 </v>
   <v>       0.00000000       0.00000000       0.00000000 </v>
   <v>       0.00000000       0.00000000       0.00000000 </v>
   <v>       0.00000000       0.00000000       0.00000000 </v>
   <v>       0.00000000       0.00000000       0.00000000 </v>
   <v>       0.00000000       0.00000000       0.00000000 </v>
   <v>       0.00000000       0.00000000       0.00000000 </v>
   <v>       0.00000000       0.00000000       0.00000000 </v>
   <v>       0.00000000       0.00000000       0.00000000 </v>
   <v>       0.00000000       0.00000000       0.00000000 </v>
   <v>       0.00000000       0.00000000       0.00000000 </v>
   <v>       0.00000000       0.00000000       0.00000000 </v>
   <v>       0.00000000       0.00000000       0.00000000 </v>
   <v>       0.00000000       0.00000000       0.00000000 </v>
   <v>       0.00000000       0.00000000       0.00000000 </v>
   <v>       0.00000000       0.00000000       0.00000000 </v>
   <v>       0.00000000       0.00000000       0.00000000 </v>
   <v>       0.00000000       0.00000000       0.00000000 </v>
   <v>       0.00000000       0.00000000       0.00000000 </v>
   <v>       0.00000000       0.00000000       0.00000000 </v>
   <v>       0.00000000       0.00000000       0.00000000 </v>
   <v>       0.00000000       0.00000000       0.00000000 </v>
   <v>       0.00000000       0.00000000       0.00000000 </v>
   <v>       0.00000000       0.00000000       0.00000000 </v>
   <v>       0.00000000       0.00000000       0.00000000 </v>
   <v>       0.00000000       0.00000000       0.00000000 </v>
   <v>       0.00000000       0.00000000       0.00000000 </v>
   <v>       0.00000000       0.00000000       0.00000000 </v>
   <v>       0.00000000       0.00000000       0.00000000 </v>
   <v>       0.00000000       0.00000000       0.00000000 </v>
   <v>       0.00000000       0.00000000       0.00000000 </v>
   <v>       0.00000000       0.00000000       0.00000000 </v>
   <v>       0.00000000       0.00000000       0.00000000 </v>
   <v>       0.00000000       0.00000000       0.00000000 </v>
   <v>       0.00000000       0.00000000       0.00000000 </v>
   <v>       0.00000000       0.00000000       0.00000000 </v>
   <v>       0.00000000       0.00000000       0.00000000 </v>
   <v>       0.00000000       0.00000000       0.00000000 </v>
   <v>       0.00000000       0.00000000       0.00000000 </v>
  </varray>
 </structure>
</modeling>
