 vasp.5.4.4.18Apr17-6-g9f103f2a35 (build Oct 31 2019 15:01:46) complex          
  
 executed on             LinuxIFC date 2024.04.30  20:10:15
 running on   52 total cores
 distrk:  each k-point on   52 cores,    1 groups
 distr:  one band on NCORES_PER_BAND=  13 cores,    4 groups


--------------------------------------------------------------------------------------------------------


 INCAR:
 POTCAR:    PAW_PBE Sc_sv 07Sep2000               
 POTCAR:    PAW_PBE Cl 06Sep2000                  
 POTCAR:    PAW_PBE C 08Apr2002                   
 POTCAR:    PAW_PBE Sc_sv 07Sep2000               
   VRHFIN =Sc: 3p4s3d                                                           
   LEXCH  = PE                                                                  
   EATOM  =  1273.2868 eV,   93.5839 Ry                                         
                                                                                
   TITEL  = PAW_PBE Sc_sv 07Sep2000                                             
   LULTRA =        F    use ultrasoft PP ?                                      
   IUNSCR =        1    unscreen: 0-lin 1-nonlin 2-no                           
   RPACOR =    2.200    partial core radius                                     
   POMASS =   44.956; ZVAL   =   11.000    mass and valenz                      
   RCORE  =    2.500    outmost cutoff radius                                   
   RWIGS  =    2.700; RWIGS  =    1.429    wigner-seitz radius (au A)           
   ENMAX  =  222.660; ENMIN  =  166.995 eV                                      
   RCLOC  =    1.805    cutoff for local pot                                    
   LCOR   =        T    correct aug charges                                     
   LPAW   =        T    paw PP                                                  
   EAUG   =  443.063                                                            
   RMAX   =    2.551    core radius for proj-oper                               
   RAUG   =    1.300    factor for augmentation sphere                          
   RDEP   =    2.650    radius for radial grids                                 
   RDEPT  =    2.038    core radius for aug-charge                              
                                                                                
   Atomic configuration                                                         
    8 entries                                                                   
     n  l   j            E        occ.                                          
     1  0  0.50     -4394.2533   2.0000                                         
     2  0  0.50      -471.0040   2.0000                                         
     2  1  1.50      -384.9788   6.0000                                         
     3  0  0.50       -52.1410   2.0000                                         
     4  0  0.50        -3.5584   1.0000                                         
     3  1  1.50       -30.8841   6.0000                                         
     3  2  2.50        -1.3655   2.0000                                         
     4  3  2.50        -1.3606   0.0000                                         
   Description                                                                  
     l       E           TYP  RCUT    TYP  RCUT                                 
     0    -52.1409870     23  1.800                                             
     0     -3.5583698     23  2.500                                             
     1    -30.8840697     23  2.300                                             
     1      4.0817478     23  2.300                                             
     2     -1.3655397     23  2.500                                             
     2      0.3564476     23  2.500                                             
  local pseudopotential read in
  partial core-charges read in
  partial kinetic energy density read in
  atomic valenz-charges read in
  non local Contribution for L=           0  read in
    real space projection operators read in
  non local Contribution for L=           0  read in
    real space projection operators read in
  non local Contribution for L=           1  read in
    real space projection operators read in
  non local Contribution for L=           1  read in
    real space projection operators read in
  non local Contribution for L=           2  read in
    real space projection operators read in
  non local Contribution for L=           2  read in
    real space projection operators read in
    PAW grid and wavefunctions read in
 
   number of l-projection  operators is LMAX  =           6
   number of lm-projection operators is LMMAX =          18
 
 POTCAR:    PAW_PBE Cl 06Sep2000                  
   VRHFIN =Cl: s2p5                                                             
   LEXCH  = PE                                                                  
   EATOM  =   409.7259 eV,   30.1140 Ry                                         
                                                                                
   TITEL  = PAW_PBE Cl 06Sep2000                                                
   LULTRA =        F    use ultrasoft PP ?                                      
   IUNSCR =        1    unscreen: 0-lin 1-nonlin 2-no                           
   RPACOR =    1.500    partial core radius                                     
   POMASS =   35.453; ZVAL   =    7.000    mass and valenz                      
   RCORE  =    1.900    outmost cutoff radius                                   
   RWIGS  =    2.100; RWIGS  =    1.111    wigner-seitz radius (au A)           
   ENMAX  =  262.472; ENMIN  =  196.854 eV                                      
   ICORE  =        2    local potential                                         
   LCOR   =        T    correct aug charges                                     
   LPAW   =        T    paw PP                                                  
   EAUG   =  356.192                                                            
   DEXC   =    0.000                                                            
   RMAX   =    1.945    core radius for proj-oper                               
   RAUG   =    1.300    factor for augmentation sphere                          
   RDEP   =    2.020    radius for radial grids                                 
   RDEPT  =    1.678    core radius for aug-charge                              
                                                                                
   Atomic configuration                                                         
    6 entries                                                                   
     n  l   j            E        occ.                                          
     1  0  0.50     -2751.1850   2.0000                                         
     2  0  0.50      -252.6861   2.0000                                         
     2  1  1.50      -191.6157   6.0000                                         
     3  0  0.50       -20.6916   2.0000                                         
     3  1  0.50        -8.5949   5.0000                                         
     3  2  1.50        -8.1635   0.0000                                         
   Description                                                                  
     l       E           TYP  RCUT    TYP  RCUT                                 
     0    -20.6915656     23  1.900                                             
     0    -22.0521482     23  1.900                                             
     1     -8.5948577     23  1.900                                             
     1     -5.3847331     23  1.900                                             
     2     -8.1634956     23  1.900                                             
  local pseudopotential read in
  partial core-charges read in
  partial kinetic energy density read in
  atomic valenz-charges read in
  non local Contribution for L=           0  read in
    real space projection operators read in
  non local Contribution for L=           0  read in
    real space projection operators read in
  non local Contribution for L=           1  read in
    real space projection operators read in
  non local Contribution for L=           1  read in
    real space projection operators read in
    PAW grid and wavefunctions read in
 
   number of l-projection  operators is LMAX  =           4
   number of lm-projection operators is LMMAX =           8
 
 POTCAR:    PAW_PBE C 08Apr2002                   
   VRHFIN =C: s2p2                                                              
   LEXCH  = PE                                                                  
   EATOM  =   147.1560 eV,   10.8157 Ry                                         
                                                                                
   TITEL  = PAW_PBE C 08Apr2002                                                 
   LULTRA =        F    use ultrasoft PP ?                                      
   IUNSCR =        1    unscreen: 0-lin 1-nonlin 2-no                           
   RPACOR =    1.200    partial core radius                                     
   POMASS =   12.011; ZVAL   =    4.000    mass and valenz                      
   RCORE  =    1.500    outmost cutoff radius                                   
   RWIGS  =    1.630; RWIGS  =    0.863    wigner-seitz radius (au A)           
   ENMAX  =  400.000; ENMIN  =  300.000 eV                                      
   ICORE  =        2    local potential                                         
   LCOR   =        T    correct aug charges                                     
   LPAW   =        T    paw PP                                                  
   EAUG   =  644.873                                                            
   DEXC   =    0.000                                                            
   RMAX   =    1.529    core radius for proj-oper                               
   RAUG   =    1.300    factor for augmentation sphere                          
   RDEP   =    1.501    radius for radial grids                                 
   RDEPT  =    1.300    core radius for aug-charge                              
                                                                                
   Atomic configuration                                                         
    4 entries                                                                   
     n  l   j            E        occ.                                          
     1  0  0.50      -273.3789   2.0000                                         
     2  0  0.50       -13.7508   2.0000                                         
     2  1  0.50        -5.2854   2.0000                                         
     3  2  1.50        -5.4423   0.0000                                         
   Description                                                                  
     l       E           TYP  RCUT    TYP  RCUT                                 
     0    -13.7508458     23  1.200                                             
     0     -8.2022199     23  1.200                                             
     1     -5.2854383     23  1.500                                             
     1     34.0145650     23  1.500                                             
     2     -5.4423304      7  1.500                                             
  local pseudopotential read in
  partial core-charges read in
  partial kinetic energy density read in
  atomic valenz-charges read in
  non local Contribution for L=           0  read in
    real space projection operators read in
  non local Contribution for L=           0  read in
    real space projection operators read in
  non local Contribution for L=           1  read in
    real space projection operators read in
  non local Contribution for L=           1  read in
    real space projection operators read in
    PAW grid and wavefunctions read in
 
   number of l-projection  operators is LMAX  =           4
   number of lm-projection operators is LMMAX =           8
 
 Optimization of the real space projectors (new method)

 maximal supplied QI-value         = 15.12
 optimisation between [QCUT,QGAM] = [ 12.55, 25.10] = [ 44.09,176.36] Ry 
 Optimized for a Real-space Cutoff    1.56 Angstroem

   l    n(q)    QCUT    max X(q) W(low)/X(q) W(high)/X(q)  e(spline) 
   0     12    12.548     2.962    0.12E-05    0.11E-06    0.46E-07
   0     12    12.548    26.414    0.30E-04    0.15E-05    0.76E-07
   1     11    12.548     3.969    0.45E-05    0.12E-05    0.60E-07
   1     11    12.548     5.137    0.15E-04    0.18E-04    0.36E-06
   2     11    12.548   143.970    0.20E-03    0.19E-03    0.76E-06
   2     11    12.548   121.201    0.20E-03    0.19E-03    0.76E-06
 Optimization of the real space projectors (new method)

 maximal supplied QI-value         = 19.84
 optimisation between [QCUT,QGAM] = [ 12.50, 25.00] = [ 43.76,175.03] Ry 
 Optimized for a Real-space Cutoff    1.20 Angstroem

   l    n(q)    QCUT    max X(q) W(low)/X(q) W(high)/X(q)  e(spline) 
   0      9    12.501   168.010    0.44E-04    0.61E-04    0.77E-07
   0      9    12.501   164.674    0.43E-04    0.60E-04    0.75E-07
   1      8    12.501    69.222    0.11E-03    0.13E-03    0.91E-07
   1      8    12.501    56.786    0.11E-03    0.13E-03    0.90E-07
 Optimization of the real space projectors (new method)

 maximal supplied QI-value         = 25.13
 optimisation between [QCUT,QGAM] = [ 12.32, 24.88] = [ 42.47,173.37] Ry 
 Optimized for a Real-space Cutoff    1.16 Angstroem

   l    n(q)    QCUT    max X(q) W(low)/X(q) W(high)/X(q)  e(spline) 
   0      9    12.315   115.676    0.19E-03    0.80E-05    0.34E-06
   0      9    12.315    87.132    0.19E-03    0.82E-05    0.34E-06
   1      8    12.315     4.429    0.18E-03    0.13E-03    0.22E-06
   1      8    12.315     2.733    0.14E-03    0.10E-03    0.18E-06
  PAW_PBE Sc_sv 07Sep2000               :
 energy of atom  1       EATOM=-1273.2868
 kinetic energy error for atom=    0.0014 (will be added to EATOM!!)
  PAW_PBE Cl 06Sep2000                  :
 energy of atom  2       EATOM= -409.7259
 kinetic energy error for atom=    0.0013 (will be added to EATOM!!)
  PAW_PBE C 08Apr2002                   :
 energy of atom  3       EATOM= -147.1560
 kinetic energy error for atom=    0.0057 (will be added to EATOM!!)
 
 
 POSCAR: Sc Cl  C                                
  positions in cartesian coordinates
  No initial velocities read in
 exchange correlation table for  LEXCH =        8
   RHO(1)=    0.500       N(1)  =     2000
   RHO(2)=  100.500       N(2)  =     4000
 


--------------------------------------------------------------------------------------------------------


 ion  position               nearest neighbor table
   1  0.075  0.165  0.548-  66 2.36  65 2.40  61 2.46  70 2.47  49 2.54  50 2.62  18 3.21  13 3.24
                            29 3.30   6 3.35  17 3.38   4 3.41
   2  0.088  0.432  0.542-  67 2.17  71 2.31  51 2.50  66 2.54  62 2.70  19 2.92  50 3.00  30 3.18
                             7 3.26  18 3.27   3 3.34  14 3.36  13 3.43
   3  0.092  0.676  0.549-  67 2.32  68 2.43  72 2.44  52 2.49  51 2.60  63 2.74  20 3.15  19 3.23
                            31 3.27   7 3.29   2 3.34   8 3.36
   4  0.087  0.925  0.542-  65 2.22  68 2.25  69 2.35  49 2.40  64 2.70  52 2.77  17 3.02  20 3.10
                            32 3.30   5 3.38   1 3.41
   5  0.336  0.166  0.543-  70 2.21  69 2.36  74 2.36  53 2.63  49 2.67  54 2.76  21 3.11  17 3.19
                            22 3.21   6 3.32   4 3.38   8 3.41
   6  0.324  0.400  0.550-  70 2.40  71 2.41  50 2.51  55 2.59  54 2.59  75 2.65  18 3.15  23 3.25
                             5 3.32   1 3.35  22 3.40
   7  0.326  0.667  0.546-  76 2.34  72 2.36  71 2.36  56 2.59  55 2.70  51 2.95  19 3.16  24 3.20
                             2 3.26   3 3.29  23 3.30  12 3.40   8 3.42  11 3.42
   8  0.335  0.918  0.538-  69 2.20  73 2.22  72 2.34  52 2.44  53 2.82  56 2.96  20 3.02  21 3.06
                            24 3.09  12 3.27   3 3.36   5 3.41   7 3.42
   9  0.590  0.169  0.537-  73 2.18  78 2.27  74 2.33  53 2.75  57 2.81  58 2.97  26 3.11  21 3.12
                            25 3.12  10 3.28  12 3.38
  10  0.594  0.407  0.546-  74 2.31  54 2.44  58 2.44  79 2.45  75 2.47  59 2.97  22 3.16  26 3.25
                             9 3.28  14 3.29  27 3.33  15 3.41
  11  0.576  0.672  0.546-  76 2.31  80 2.41  60 2.48  75 2.54  55 2.58  59 2.74  28 3.12  23 3.12
                            27 3.28  16 3.38  12 3.41   7 3.42
  12  0.570  0.916  0.549-  73 2.23  77 2.39  76 2.51  56 2.53  60 2.61  57 2.66   8 3.27  25 3.30
                            28 3.37   9 3.38  24 3.40   7 3.40  11 3.41
  13  0.847  0.177  0.542-  66 2.19  78 2.39  62 2.50  77 2.65  61 2.67  57 2.92  30 3.13  29 3.14
                             1 3.24  14 3.39   2 3.43
  14  0.837  0.418  0.543-  78 2.27  67 2.27  79 2.31  62 2.50  58 2.52  63 2.68  31 3.13  26 3.23
                            30 3.24  10 3.29   2 3.36  13 3.39
  15  0.827  0.665  0.554-  63 2.47  59 2.47  79 2.52  64 2.56  80 2.64  68 2.71  27 3.16  31 3.32
                            16 3.40  10 3.41
  16  0.827  0.911  0.541-  80 2.20  65 2.36  77 2.41  60 2.56  64 2.72  61 2.80  29 3.06  32 3.13
                            28 3.14  11 3.38  15 3.40
  17  0.166  0.075  0.454-  70 2.31  69 2.33  65 2.35  36 2.42  37 2.45  33 2.60   4 3.02   5 3.19
                            21 3.34  20 3.36   1 3.38
  18  0.174  0.329  0.457-  70 2.36  71 2.38  66 2.40  38 2.50  33 2.70  34 2.78   6 3.15   1 3.21
                             2 3.27  23 3.32
  19  0.160  0.578  0.458-  67 2.28  72 2.31  71 2.43  34 2.61  35 2.64  39 2.69   2 2.92   7 3.16
                             3 3.23  30 3.31  24 3.34  31 3.42
  20  0.165  0.831  0.458-  68 2.13  72 2.25  69 2.29  40 2.46  35 2.60  36 2.85   8 3.02   4 3.10
                             3 3.15  24 3.32  31 3.36  17 3.36
  21  0.413  0.085  0.454-  69 2.25  74 2.33  73 2.48  40 2.49  37 2.51  41 2.78   8 3.06   5 3.11
                             9 3.12  22 3.34  17 3.34  25 3.41
  22  0.437  0.338  0.454-  74 2.15  75 2.23  42 2.49  70 2.59  38 2.72  37 2.74  10 3.16   5 3.21
                            26 3.33  21 3.34  23 3.35   6 3.40
  23  0.416  0.569  0.459-  71 2.26  75 2.27  76 2.35  38 2.61  43 2.63  39 2.73  11 3.12   6 3.25
                             7 3.30  18 3.32  22 3.35  28 3.43
  24  0.400  0.821  0.452-  72 2.13  76 2.40  39 2.53  40 2.59  73 2.62  44 2.71   8 3.09   7 3.20
                            20 3.32  19 3.34  12 3.40  25 3.41
  25  0.650  0.065  0.450-  77 2.32  73 2.32  44 2.44  41 2.59  78 2.69  45 2.81   9 3.12  12 3.30
                            28 3.37  21 3.41  24 3.41
  26  0.676  0.333  0.450-  78 2.29  79 2.40  74 2.44  41 2.51  42 2.59  46 2.62   9 3.11  14 3.23
                            10 3.25  22 3.33  30 3.40
  27  0.683  0.598  0.458-  80 2.22  79 2.35  75 2.36  42 2.61  47 2.65  43 2.96  32 3.14  15 3.16
                            11 3.28  31 3.31  28 3.33  10 3.33
  28  0.656  0.825  0.455-  80 2.16  77 2.22  76 2.34  43 2.48  48 2.68  44 2.69  11 3.12  16 3.14
                            27 3.33  25 3.37  12 3.37  29 3.38  32 3.42  23 3.43
  29  0.903  0.069  0.455-  65 2.40  77 2.40  66 2.42  48 2.53  33 2.66  45 2.69  16 3.06  13 3.14
                             1 3.30  32 3.34  28 3.38
  30  0.923  0.335  0.452-  66 2.31  78 2.36  45 2.50  34 2.54  67 2.57  46 2.58  13 3.13   2 3.18
                            14 3.24  19 3.31  26 3.40
  31  0.918  0.590  0.458-  79 2.14  68 2.38  67 2.39  46 2.64  47 2.65  35 2.65  14 3.13   3 3.27
                            27 3.31  15 3.32  20 3.36  32 3.39  19 3.42
  32  0.906  0.829  0.452-  80 2.33  47 2.42  65 2.43  68 2.46  48 2.50  36 2.57  16 3.13  27 3.14
                             4 3.30  29 3.34  31 3.39  28 3.42
  33  0.077  0.154  0.395-  17 2.60  29 2.66  18 2.70
  34  0.086  0.420  0.393-  30 2.54  19 2.61  18 2.78
  35  0.085  0.669  0.395-  20 2.60  19 2.64  31 2.65
  36  0.074  0.929  0.395-  17 2.42  32 2.57  20 2.85
  37  0.321  0.154  0.397-  17 2.45  21 2.51  22 2.74
  38  0.327  0.408  0.395-  18 2.50  23 2.61  22 2.72
  39  0.330  0.657  0.394-  24 2.53  19 2.69  23 2.73
  40  0.319  0.920  0.399-  20 2.46  21 2.49  24 2.59
  41  0.594  0.175  0.391-  26 2.51  25 2.59  21 2.78
  42  0.597  0.432  0.397-  22 2.49  26 2.59  27 2.61
  43  0.569  0.678  0.393-  28 2.48  23 2.63  27 2.96
  44  0.577  0.914  0.391-  25 2.44  28 2.69  24 2.71
  45  0.842  0.178  0.392-  30 2.50  29 2.69  25 2.81
  46  0.851  0.429  0.393-  30 2.58  26 2.62  31 2.64
  47  0.846  0.679  0.394-  32 2.42  31 2.65  27 2.65
  48  0.829  0.912  0.394-  32 2.50  29 2.53  28 2.68
  49  0.156  0.073  0.600-   4 2.40   1 2.54   5 2.67
  50  0.171  0.325  0.612-   6 2.51   1 2.62   2 3.00
  51  0.133  0.561  0.612-   2 2.50   3 2.60   7 2.95
  52  0.193  0.845  0.601-   8 2.44   3 2.49   4 2.77
  53  0.427  0.093  0.606-   5 2.63   9 2.75   8 2.82
  54  0.443  0.346  0.604-  10 2.44   6 2.59   5 2.76
  55  0.411  0.574  0.605-  11 2.58   6 2.59   7 2.70
  56  0.416  0.820  0.611-  12 2.53   7 2.59   8 2.96
  57  0.664  0.085  0.612-  12 2.66   9 2.81  13 2.92
  58  0.687  0.356  0.607-  10 2.44  14 2.52   9 2.97
  59  0.673  0.599  0.613-  15 2.47  11 2.74  10 2.97
  60  0.668  0.834  0.602-  11 2.48  16 2.56  12 2.61
  61  0.922  0.088  0.607-   1 2.46  13 2.67  16 2.80
  62  0.911  0.332  0.602-  13 2.50  14 2.50   2 2.70
  63  0.908  0.584  0.608-  15 2.47  14 2.68   3 2.74
  64  0.922  0.839  0.608-  15 2.56   4 2.70  16 2.72
  65  0.001  0.998  0.500-   4 2.22  17 2.35  16 2.36   1 2.40  29 2.40  32 2.43
  66  0.997  0.246  0.497-  13 2.19  30 2.31   1 2.36  18 2.40  29 2.42   2 2.54
  67  0.006  0.511  0.506-   2 2.17  14 2.27  19 2.28   3 2.32  31 2.39  30 2.57
  68  0.015  0.765  0.499-  20 2.13   4 2.25  31 2.38   3 2.43  32 2.46  15 2.71
  69  0.255  0.998  0.498-   8 2.20  21 2.25  20 2.29  17 2.33   4 2.35   5 2.36
  70  0.249  0.236  0.501-   5 2.21  17 2.31  18 2.36   6 2.40   1 2.47  22 2.59
  71  0.256  0.499  0.502-  23 2.26   2 2.31   7 2.36  18 2.38   6 2.41  19 2.43
  72  0.252  0.751  0.495-  24 2.13  20 2.25  19 2.31   8 2.34   7 2.36   3 2.44
  73  0.503  0.003  0.504-   9 2.18   8 2.22  12 2.23  25 2.32  21 2.48  24 2.62
  74  0.502  0.253  0.497-  22 2.15  10 2.31  21 2.33   9 2.33   5 2.36  26 2.44
  75  0.508  0.495  0.497-  22 2.23  23 2.27  27 2.36  10 2.47  11 2.54   6 2.65
  76  0.488  0.742  0.499-  11 2.31  28 2.34   7 2.34  23 2.35  24 2.40  12 2.51
  77  0.727  0.983  0.497-  28 2.22  25 2.32  12 2.39  29 2.40  16 2.41  13 2.65
  78  0.757  0.260  0.498-  14 2.27   9 2.27  26 2.29  30 2.36  13 2.39  25 2.69
  79  0.763  0.503  0.496-  31 2.14  14 2.31  27 2.35  26 2.40  10 2.45  15 2.52
  80  0.742  0.758  0.497-  28 2.16  16 2.20  27 2.22  32 2.33  11 2.41  15 2.64
 
  LATTYP: Found a hexagonal cell.
 ALAT       =    13.7939866762
 C/A-ratio  =     2.0161119278
  
  Lattice vectors:
  
 A1 = (  13.7939866800,   0.0000000000,   0.0000000000)
 A2 = (  -6.8969933400,  11.9459428800,   0.0000000000)
 A3 = (   0.0000000000,   0.0000000000,  27.8102210700)


Analysis of symmetry for initial positions (statically):
=====================================================================
 Subroutine PRICEL returns:
 Original cell was already a primitive cell.
 

 Routine SETGRP: Setting up the symmetry group for a 
 hexagonal supercell.


 Subroutine GETGRP returns: Found  1 space group operations
 (whereof  1 operations were pure point group operations)
 out of a pool of 24 trial point group operations.


The static configuration has the point symmetry C_1 .


Analysis of symmetry for dynamics (positions and initial velocities):
=====================================================================
 Subroutine PRICEL returns:
 Original cell was already a primitive cell.
 

 Routine SETGRP: Setting up the symmetry group for a 
 hexagonal supercell.


 Subroutine GETGRP returns: Found  1 space group operations
 (whereof  1 operations were pure point group operations)
 out of a pool of 24 trial point group operations.


The dynamic configuration has the point symmetry C_1 .


 Subroutine INISYM returns: Found  1 space group operations
 (whereof  1 operations are pure point group operations),
 and found     1 'primitive' translations

 
 

Automatic generation of k-mesh.
 generate k-points for:    3    3    1
Space group operators:
 irot       det(A)        alpha          n_x          n_y          n_z        tau_x        tau_y        tau_z
    1     1.000000     0.000000     1.000000     0.000000     0.000000     0.000000     0.000000     0.000000
 
 Subroutine IBZKPT returns following result:
 ===========================================
 
 Found      5 irreducible k-points:
 
 Following reciprocal coordinates:
            Coordinates               Weight
  0.000000  0.000000  0.000000      1.000000
  0.333333 -0.000000  0.000000      2.000000
  0.000000  0.333333  0.000000      2.000000
  0.333333  0.333333  0.000000      2.000000
 -0.333333  0.333333  0.000000      2.000000
 
 Following cartesian coordinates:
            Coordinates               Weight
  0.000000  0.000000  0.000000      1.000000
  0.024165  0.013952  0.000000      2.000000
  0.000000  0.027903  0.000000      2.000000
  0.024165  0.041855  0.000000      2.000000
 -0.024165  0.013952  0.000000      2.000000
 


--------------------------------------------------------------------------------------------------------




 Dimension of arrays:
   k-points           NKPTS =      5   k-points in BZ     NKDIM =      5   number of bands    NBANDS=    384
   number of dos      NEDOS =    301   number of ions     NIONS =     80
   non local maximal  LDIM  =      6   non local SUM 2l+1 LMDIM =     18
   total plane-waves  NPLWV = ******
   max r-space proj   IRMAX =   9806   max aug-charges    IRDMAX= 216835
   dimension x,y,z NGX =   112 NGY =  112 NGZ =  224
   dimension x,y,z NGXF=   224 NGYF=  224 NGZF=  448
   support grid    NGXF=   448 NGYF=  448 NGZF=  896
   ions per type =              32  32  16
   NGX,Y,Z   is equivalent  to a cutoff of  13.50, 13.50, 13.39 a.u.
   NGXF,Y,Z  is equivalent  to a cutoff of  27.00, 27.00, 26.78 a.u.

 SYSTEM =  unknown system                          
 POSCAR =  Sc Cl  C                                

 Startparameter for this run:
   NWRITE =      2    write-flag & timer
   PREC   = anorma    normal or accurate (medium, high low for compatibility)
   ISTART =      0    job   : 0-new  1-cont  2-samecut
   ICHARG =      2    charge: 1-file 2-atom 10-const
   ISPIN  =      1    spin polarized calculation?
   LNONCOLLINEAR =      F non collinear calculations
   LSORBIT =      F    spin-orbit coupling
   INIWAV =      1    electr: 0-lowe 1-rand  2-diag
   LASPH  =      F    aspherical Exc in radial PAW
   METAGGA=      F    non-selfconsistent MetaGGA calc.

 Electronic Relaxation 1
   ENCUT  =  600.0 eV  44.10 Ry    6.64 a.u.  27.55 27.55 55.54*2*pi/ulx,y,z
   ENINI  =  600.0     initial cutoff
   ENAUG  =  644.9 eV  augmentation charge cutoff
   NELM   =     60;   NELMIN=  2; NELMDL= -5     # of ELM steps 
   EDIFF  = 0.1E-05   stopping-criterion for ELM
   LREAL  =      T    real-space projection
   NLSPLINE    = F    spline interpolate recip. space projectors
   LCOMPAT=      F    compatible to vasp.4.4
   GGA_COMPAT  = T    GGA compatible to vasp.4.4-vasp.4.6
   LMAXPAW     = -100 max onsite density
   LMAXMIX     =    2 max onsite mixed and CHGCAR
   VOSKOWN=      0    Vosko Wilk Nusair interpolation
   ROPT   =   -0.00025  -0.00025  -0.00025
 Ionic relaxation
   EDIFFG = -.1E-01   stopping-criterion for IOM
   NSW    =      1    number of steps for IOM
   NBLOCK =      1;   KBLOCK =      1    inner block; outer block 
   IBRION =     -1    ionic relax: 0-MD 1-quasi-New 2-CG
   NFREE  =      0    steps in history (QN), initial steepest desc. (CG)
   ISIF   =      2    stress and relaxation
   IWAVPR =     10    prediction:  0-non 1-charg 2-wave 3-comb
   ISYM   =      2    0-nonsym 1-usesym 2-fastsym
   LCORR  =      T    Harris-Foulkes like correction to forces

   POTIM  = 1.0000    time-step for ionic-motion
   TEIN   =    0.0    initial temperature
   TEBEG  =    0.0;   TEEND  =   0.0 temperature during run
   SMASS  =  -3.00    Nose mass-parameter (am)
   estimated Nose-frequenzy (Omega)   =  0.10E-29 period in steps =****** mass=  -0.435E-26a.u.
   SCALEE = 1.0000    scale energy and forces
   NPACO  =    256;   APACO  = 16.0  distance and # of slots for P.C.
   PSTRESS=    0.0 pullay stress

  Mass of Ions in am
   POMASS =  44.96 35.45 12.01
  Ionic Valenz
   ZVAL   =  11.00  7.00  4.00
  Atomic Wigner-Seitz radii
   RWIGS  =  -1.00 -1.00 -1.00
  virtual crystal weights 
   VCA    =   1.00  1.00  1.00
   NELECT =     640.0000    total number of electrons
   NUPDOWN=      -1.0000    fix difference up-down

 DOS related values:
   EMIN   =  10.00;   EMAX   =-10.00  energy-range for DOS
   EFERMI =   0.00
   ISMEAR =     0;   SIGMA  =   0.05  broadening in eV -4-tet -1-fermi 0-gaus

 Electronic relaxation 2 (details)
   IALGO  =     38    algorithm
   LDIAG  =      T    sub-space diagonalisation (order eigenvalues)
   LSUBROT=      F    optimize rotation matrix (better conditioning)
   TURBO    =      0    0=normal 1=particle mesh
   IRESTART =      0    0=no restart 2=restart with 2 vectors
   NREBOOT  =      0    no. of reboots
   NMIN     =      0    reboot dimension
   EREF     =   0.00    reference energy to select bands
   IMIX   =      4    mixing-type and parameters
     AMIX     =   0.40;   BMIX     =  1.00
     AMIX_MAG =   1.60;   BMIX_MAG =  1.00
     AMIN     =   0.10
     WC   =   100.;   INIMIX=   1;  MIXPRE=   1;  MAXMIX= -45

 Intra band minimization:
   WEIMIN = 0.0000     energy-eigenvalue tresh-hold
   EBREAK =  0.65E-09  absolut break condition
   DEPER  =   0.30     relativ break condition  

   TIME   =   0.40     timestep for ELM

  volume/ion in A,a.u.               =      57.28       386.56
  Fermi-wavevector in a.u.,A,eV,Ry     =   0.849369  1.605075  9.815628  0.721428
  Thomas-Fermi vector in A             =   1.965179
 
 Write flags
   LWAVE        =      F    write WAVECAR
   LDOWNSAMPLE  =      F    k-point downsampling of WAVECAR
   LCHARG       =      F    write CHGCAR
   LVTOT        =      F    write LOCPOT, total local potential
   LVHAR        =      F    write LOCPOT, Hartree potential only
   LELF         =      F    write electronic localiz. function (ELF)
   LORBIT       =      0    0 simple, 1 ext, 2 COOP (PROOUT), +10 PAW based schemes


 Dipole corrections
   LMONO  =      F    monopole corrections only (constant potential shift)
   LDIPOL =      F    correct potential (dipole corrections)
   IDIPOL =      0    1-x, 2-y, 3-z, 4-all directions 
   EPSILON=  1.0000000 bulk dielectric constant

 Exchange correlation treatment:
   GGA     =    --    GGA type
   LEXCH   =     8    internal setting for exchange type
   VOSKOWN=      0    Vosko Wilk Nusair interpolation
   LHFCALC =     F    Hartree Fock is set to
   LHFONE  =     F    Hartree Fock one center treatment
   AEXX    =    0.0000 exact exchange contribution

 Linear response parameters
   LEPSILON=     F    determine dielectric tensor
   LRPA    =     F    only Hartree local field effects (RPA)
   LNABLA  =     F    use nabla operator in PAW spheres
   LVEL    =     F    velocity operator in full k-point grid
   LINTERFAST=   F  fast interpolation
   KINTER  =     0    interpolate to denser k-point grid
   CSHIFT  =0.1000    complex shift for real part using Kramers Kronig
   OMEGAMAX=  -1.0    maximum frequency
   DEG_THRESHOLD= 0.2000000E-02 threshold for treating states as degnerate
   RTIME   =   -0.100 relaxation time in fs
  (WPLASMAI=    0.000 imaginary part of plasma frequency in eV, 0.658/RTIME)
   DFIELD  = 0.0000000 0.0000000 0.0000000 field for delta impulse in time
 
 Orbital magnetization related:
   ORBITALMAG=     F  switch on orbital magnetization
   LCHIMAG   =     F  perturbation theory with respect to B field
   DQ        =  0.001000  dq finite difference perturbation B field
   LLRAUG    =     F  two centre corrections for induced B field



--------------------------------------------------------------------------------------------------------


 Static calculation
 charge density and potential will be updated during run
 non-spin polarized calculation
 Variant of blocked Davidson
 Davidson routine will perform the subspace rotation
 perform sub-space diagonalisation
    after iterative eigenvector-optimisation
 modified Broyden-mixing scheme, WC =      100.0
 initial mixing is a Kerker type mixing with AMIX =  0.4000 and BMIX =      1.0000
 Hartree-type preconditioning will be used
 using additional bands           64
 real space projection scheme for non local part
 use partial core corrections
 calculate Harris-corrections to forces 
   (improved forces if not selfconsistent)
 use gradient corrections 
 use of overlap-Matrix (Vanderbilt PP)
 Gauss-broadening in eV      SIGMA  =   0.05


--------------------------------------------------------------------------------------------------------


  energy-cutoff  :      600.00
  volume of cell :     4582.63
      direct lattice vectors                 reciprocal lattice vectors
    13.793986680  0.000000000  0.000000000     0.072495358  0.041855214  0.000000000
    -6.896993340 11.945942880  0.000000000     0.000000000  0.083710429  0.000000000
     0.000000000  0.000000000 27.810221070     0.000000000  0.000000000  0.035958003

  length of vectors
    13.793986680 13.793986676 27.810221070     0.083710429  0.083710429  0.035958003


 
 k-points in units of 2pi/SCALE and weight: read from INCAR                         
   0.00000000  0.00000000  0.00000000       0.111
   0.02416512  0.01395174  0.00000000       0.222
   0.00000000  0.02790348  0.00000000       0.222
   0.02416512  0.04185521  0.00000000       0.222
  -0.02416512  0.01395174  0.00000000       0.222
 
 k-points in reciprocal lattice and weights: read from INCAR                         
   0.00000000  0.00000000  0.00000000       0.111
   0.33333333 -0.00000000  0.00000000       0.222
   0.00000000  0.33333333  0.00000000       0.222
   0.33333333  0.33333333  0.00000000       0.222
  -0.33333333  0.33333333  0.00000000       0.222
 
 position of ions in fractional coordinates (direct lattice) 
   0.07473594  0.16513327  0.54755983
   0.08762430  0.43202932  0.54168439
   0.09223205  0.67567023  0.54923826
   0.08734067  0.92463574  0.54166513
   0.33616110  0.16585963  0.54276003
   0.32419228  0.40026094  0.54994612
   0.32572764  0.66668608  0.54582988
   0.33483469  0.91846304  0.53792528
   0.58964006  0.16859720  0.53663513
   0.59361114  0.40744362  0.54566892
   0.57635153  0.67209021  0.54647635
   0.56971148  0.91580282  0.54941691
   0.84656664  0.17696578  0.54204198
   0.83727363  0.41795069  0.54328899
   0.82669100  0.66538195  0.55354827
   0.82742202  0.91061121  0.54109856
   0.16615270  0.07507143  0.45440221
   0.17413987  0.32935997  0.45675637
   0.15971727  0.57760832  0.45755127
   0.16456963  0.83062161  0.45781619
   0.41289364  0.08467144  0.45405959
   0.43696499  0.33772268  0.45431977
   0.41568606  0.56934871  0.45853130
   0.39963300  0.82084561  0.45161049
   0.64975244  0.06533936  0.44969928
   0.67571706  0.33309385  0.45001277
   0.68254771  0.59777285  0.45810439
   0.65629945  0.82489033  0.45539129
   0.90267344  0.06914949  0.45473966
   0.92308817  0.33487506  0.45216458
   0.91816047  0.58985494  0.45836010
   0.90607398  0.82864842  0.45198213
   0.07692244  0.15410561  0.39536029
   0.08557185  0.41959004  0.39301047
   0.08465641  0.66862773  0.39528240
   0.07432131  0.92867070  0.39482689
   0.32079023  0.15433658  0.39657815
   0.32707810  0.40814256  0.39541231
   0.33008128  0.65689226  0.39445587
   0.31918015  0.91951917  0.39948799
   0.59367293  0.17489917  0.39086622
   0.59655776  0.43157304  0.39693207
   0.56874425  0.67822619  0.39256093
   0.57719685  0.91370301  0.39111559
   0.84241789  0.17845211  0.39235385
   0.85059512  0.42927026  0.39328219
   0.84558188  0.67918176  0.39359944
   0.82948215  0.91207149  0.39385536
   0.15643978  0.07262324  0.59980880
   0.17094806  0.32464518  0.61158456
   0.13309913  0.56104040  0.61196894
   0.19259624  0.84482329  0.60106902
   0.42659342  0.09309767  0.60633098
   0.44258947  0.34642396  0.60412710
   0.41073369  0.57391258  0.60546054
   0.41552033  0.82004655  0.61119681
   0.66359482  0.08511260  0.61151244
   0.68731018  0.35595894  0.60669321
   0.67289986  0.59936901  0.61286481
   0.66750619  0.83352477  0.60239273
   0.92210433  0.08815768  0.60684791
   0.91074337  0.33248993  0.60180623
   0.90799191  0.58363020  0.60806329
   0.92163970  0.83881336  0.60767464
   0.00101412  0.99770658  0.50043165
   0.99694094  0.24625013  0.49705747
   0.00560114  0.51065659  0.50555413
   0.01485299  0.76480634  0.49911026
   0.25535277  0.99781714  0.49804967
   0.24901086  0.23580666  0.50076063
   0.25598578  0.49891161  0.50160658
   0.25227852  0.75052408  0.49476031
   0.50296188  0.00297754  0.50406245
   0.50227000  0.25251546  0.49654882
   0.50836902  0.49505776  0.49702143
   0.48840185  0.74172103  0.49880368
   0.72719461  0.98298232  0.49691128
   0.75738030  0.25959480  0.49817632
   0.76250276  0.50272952  0.49629673
   0.74223863  0.75805982  0.49695528
 
 position of ions in cartesian coordinates  (Angst):
  -0.10801657  1.97267263 15.22775998
  -1.77101491  5.16099762 15.06436263
  -3.38784543  8.07151801 15.27443739
  -5.17243047 11.04564571 15.06382693
   3.49306890  1.98134970 15.09427645
   1.71130700  4.78149428 15.29412308
  -0.10504677  7.96419379 15.17964967
  -1.71592822 10.97190697 14.95982089
   6.97067337  2.01405252 14.92394151
   5.37812826  4.86729816 15.17517340
   3.31478368  8.02875124 15.19762822
   1.54230664 10.94012817 15.27940584
  10.45699710  2.11402310 15.07430737
   8.66673812  4.99281507 15.10898690
   6.81422970  7.94861477 15.39429989
   5.13296883 10.87810953 15.04807053
   1.77414103  0.89679896 12.63702579
   0.13048960  3.93451535 12.70249563
  -1.78062292  6.90007605 12.72460209
  -3.45872047  9.92255833 12.73196958
   5.11147106  1.01148019 12.62749753
   3.69821817  4.03441583 12.63473318
   1.80717369  6.80140712 12.75185689
  -0.14883452  9.80577483 12.55938770
   8.51203138  0.78054031 12.50623642
   7.02348601  3.97912013 12.51495471
   5.29221873  7.14096031 12.73998445
   3.36372285  9.85409271 12.66453235
  11.97454185  0.82605591 12.64641045
  10.42343483  4.00039833 12.57479701
   8.59686762  7.04637348 12.74709567
   6.78318981  9.89898671 12.56972290
  -0.00179825  1.84093686 10.99505714
  -1.71353276  5.01239869 10.92970814
  -3.44377157  7.98738872 10.99289097
  -5.37984853 11.09384719 10.98022304
   3.36051784  1.84369591 11.02892591
   1.69675444  4.87564773 10.99650371
   0.02255524  7.84719742 10.96990506
  -1.93915091 10.98452353 11.10984945
   6.98283816  2.08933545 10.87007588
   5.25235350  5.15554685 11.03876864
   3.16752915  8.10205127 10.91720635
   1.66004217 10.91504392 10.87701093
  10.38951806  2.13177876 10.91144724
   8.77242362  5.12803795 10.93726473
   6.97963312  8.11346651 10.94608757
   5.15131474 10.89555391 10.95320463
   1.65704630  0.86755304 16.68081525
   0.11897963  3.87819278 17.00830174
  -2.03352428  6.70215657 17.01899153
  -3.17007069 10.09221076 16.71586222
   5.24232993  1.11213944 16.86219851
   3.71578960  4.13836078 16.80090824
   1.70738375  6.85592692 16.83799144
   0.07582630  9.79622919 16.99751852
   8.56659698  1.01675031 17.00629619
   7.02570108  4.25226513 16.87227217
   5.14812758  7.16002799 17.04390591
   3.45875665  9.95723933 16.75267500
  12.11147200  1.05312657 16.87657460
  10.26960112  3.97190575 16.73636433
   8.49953473  6.97201307 16.91037448
   6.92779562 10.02041645 16.89956608
  -6.86718683 11.91854577 13.91711482
  12.05340453  2.94168998 13.82327813
  -3.44473313  6.10027449 14.05957220
  -5.06998232  9.13633289 13.88036675
  -3.35960550 11.91986651 13.85087149
   1.80849545  2.81693294 13.92626378
   0.09007443  5.95996956 13.94979001
  -1.69643303  8.96571779 13.75939358
   6.91731343  0.03556954 14.01808818
   5.18670832  3.01653521 13.80913258
   3.59802541  5.91393167 13.82227574
   1.62136364  8.86055711 13.87184049
   3.25129027 11.74265061 13.81921267
   8.65687013  3.10110463 13.85439368
   7.05063078  6.00557812 13.80212190
   5.01009626  9.05573928 13.82043629
 


--------------------------------------------------------------------------------------------------------


 k-point  1 :   0.0000 0.0000 0.0000  plane waves:  153003
 k-point  2 :   0.3333-0.0000 0.0000  plane waves:  152954
 k-point  3 :   0.0000 0.3333 0.0000  plane waves:  152954
 k-point  4 :   0.3333 0.3333 0.0000  plane waves:  152898
 k-point  5 :  -0.3333 0.3333 0.0000  plane waves:  152954

 maximum and minimum number of plane-waves per node :     11814    11730

 maximum number of plane-waves:    153003
 maximum index in each direction: 
   IXMAX=   27   IYMAX=   27   IZMAX=   55
   IXMIN=  -27   IYMIN=  -27   IZMIN=  -55


 real space projection operators:
  total allocation   :      55000.16 KBytes
  max/ min on nodes  :       4428.23       3929.30


 parallel 3D FFT for wavefunctions:
    minimum data exchange during FFTs selected (reduces bandwidth)
 parallel 3D FFT for charge:
    minimum data exchange during FFTs selected (reduces bandwidth)


 total amount of memory used by VASP MPI-rank0   253905. kBytes
=======================================================================

   base      :      30000. kBytes
   nonlr-proj:      18721. kBytes
   fftplans  :      72602. kBytes
   grid      :      41267. kBytes
   one-center:        108. kBytes
   wavefun   :      91207. kBytes
 
     INWAV:  cpu time    0.0000: real time    0.0000
 Broyden mixing: mesh for mixing (old mesh)
   NGX = 55   NGY = 55   NGZ =111
  (NGX  =224   NGY  =224   NGZ  =448)
  gives a total of 335775 points

 initial charge density was supplied:
 charge density of overlapping atoms calculated
 number of electron     640.0000000 magnetization 
 keeping initial charge density in first step


--------------------------------------------------------------------------------------------------------


 Maximum index for non-local projection operator          942
 Maximum index for augmentation-charges         4954 (set IRDMAX)


--------------------------------------------------------------------------------------------------------


 First call to EWALD:  gamma=   0.107
 Maximum number of real-space cells 4x 4x 2
 Maximum number of reciprocal cells 2x 2x 4

    FEWALD:  cpu time    0.0073: real time    0.0073


--------------------------------------- Iteration      1(   1)  ---------------------------------------


    POTLOK:  cpu time    0.4096: real time    0.4147
    SETDIJ:  cpu time    0.4222: real time    0.4222
     EDDAV:  cpu time   50.1553: real time   50.1570
       DOS:  cpu time    0.0012: real time    0.0012
    --------------------------------------------
      LOOP:  cpu time   50.9883: real time   50.9952

 eigenvalue-minimisations  :  4424
 total energy-change (2. order) : 0.1217255E+05  (-0.2680323E+05)
 number of electron     640.0000000 magnetization 
 augmentation part      640.0000000 magnetization 

 Free energy of the ion-electron system (eV)
  ---------------------------------------------------
  alpha Z        PSCENC =       784.57699423
  Ewald energy   TEWEN  =    250816.65766924
  -Hartree energ DENC   =   -298484.60101294
  -exchange      EXHF   =         0.00000000
  -V(xc)+E(xc)   XCENC  =      2502.09303846
  PAW double counting   =     43679.68029659   -43417.33247688
  entropy T*S    EENTRO =        -0.05910550
  eigenvalues    EBANDS =        80.80844385
  atomic energy  EATOM  =     56210.72393729
  Solvation  Ediel_sol  =         0.00000000
  ---------------------------------------------------
  free energy    TOTEN  =     12172.54778434 eV

  energy without entropy =    12172.60688984  energy(sigma->0) =    12172.57733709


--------------------------------------------------------------------------------------------------------




--------------------------------------- Iteration      1(   2)  ---------------------------------------


     EDDAV:  cpu time   56.8360: real time   56.8475
       DOS:  cpu time    0.0012: real time    0.0012
    --------------------------------------------
      LOOP:  cpu time   56.8373: real time   56.8487

 eigenvalue-minimisations  :  5200
 total energy-change (2. order) :-0.1044951E+05  (-0.1018726E+05)
 number of electron     640.0000000 magnetization 
 augmentation part      640.0000000 magnetization 

 Free energy of the ion-electron system (eV)
  ---------------------------------------------------
  alpha Z        PSCENC =       784.57699423
  Ewald energy   TEWEN  =    250816.65766924
  -Hartree energ DENC   =   -298484.60101294
  -exchange      EXHF   =         0.00000000
  -V(xc)+E(xc)   XCENC  =      2502.09303846
  PAW double counting   =     43679.68029659   -43417.33247688
  entropy T*S    EENTRO =        -0.03979594
  eigenvalues    EBANDS =    -10368.72297140
  atomic energy  EATOM  =     56210.72393729
  Solvation  Ediel_sol  =         0.00000000
  ---------------------------------------------------
  free energy    TOTEN  =      1723.03567865 eV

  energy without entropy =     1723.07547459  energy(sigma->0) =     1723.05557662


--------------------------------------------------------------------------------------------------------




--------------------------------------- Iteration      1(   3)  ---------------------------------------


     EDDAV:  cpu time   70.9831: real time   70.9911
       DOS:  cpu time    0.0007: real time    0.0006
    --------------------------------------------
      LOOP:  cpu time   70.9837: real time   70.9918

 eigenvalue-minimisations  :  6800
 total energy-change (2. order) :-0.2129913E+04  (-0.2045956E+04)
 number of electron     640.0000000 magnetization 
 augmentation part      640.0000000 magnetization 

 Free energy of the ion-electron system (eV)
  ---------------------------------------------------
  alpha Z        PSCENC =       784.57699423
  Ewald energy   TEWEN  =    250816.65766924
  -Hartree energ DENC   =   -298484.60101294
  -exchange      EXHF   =         0.00000000
  -V(xc)+E(xc)   XCENC  =      2502.09303846
  PAW double counting   =     43679.68029659   -43417.33247688
  entropy T*S    EENTRO =        -0.00000000
  eigenvalues    EBANDS =    -12498.67534570
  atomic energy  EATOM  =     56210.72393729
  Solvation  Ediel_sol  =         0.00000000
  ---------------------------------------------------
  free energy    TOTEN  =      -406.87689971 eV

  energy without entropy =     -406.87689971  energy(sigma->0) =     -406.87689971


--------------------------------------------------------------------------------------------------------




--------------------------------------- Iteration      1(   4)  ---------------------------------------


     EDDAV:  cpu time   64.7969: real time   64.8051
       DOS:  cpu time    0.0005: real time    0.0005
    --------------------------------------------
      LOOP:  cpu time   64.7975: real time   64.8056

 eigenvalue-minimisations  :  6096
 total energy-change (2. order) :-0.2347885E+03  (-0.2301373E+03)
 number of electron     640.0000000 magnetization 
 augmentation part      640.0000000 magnetization 

 Free energy of the ion-electron system (eV)
  ---------------------------------------------------
  alpha Z        PSCENC =       784.57699423
  Ewald energy   TEWEN  =    250816.65766924
  -Hartree energ DENC   =   -298484.60101294
  -exchange      EXHF   =         0.00000000
  -V(xc)+E(xc)   XCENC  =      2502.09303846
  PAW double counting   =     43679.68029659   -43417.33247688
  entropy T*S    EENTRO =        -0.00000000
  eigenvalues    EBANDS =    -12733.46389358
  atomic energy  EATOM  =     56210.72393729
  Solvation  Ediel_sol  =         0.00000000
  ---------------------------------------------------
  free energy    TOTEN  =      -641.66544759 eV

  energy without entropy =     -641.66544759  energy(sigma->0) =     -641.66544759


--------------------------------------------------------------------------------------------------------




--------------------------------------- Iteration      1(   5)  ---------------------------------------


     EDDAV:  cpu time   64.6656: real time   64.6737
       DOS:  cpu time    0.0006: real time    0.0006
    CHARGE:  cpu time    3.8689: real time    3.8690
    MIXING:  cpu time    0.0122: real time    0.0122
    --------------------------------------------
      LOOP:  cpu time   68.5472: real time   68.5554

 eigenvalue-minimisations  :  6080
 total energy-change (2. order) :-0.1039794E+02  (-0.1034342E+02)
 number of electron     640.0000003 magnetization 
 augmentation part       59.1842295 magnetization 

 Broyden mixing:
  rms(total) = 0.69612E+01    rms(broyden)= 0.69610E+01
  rms(prec ) = 0.73247E+01
  weight for this iteration     100.00

 Free energy of the ion-electron system (eV)
  ---------------------------------------------------
  alpha Z        PSCENC =       784.57699423
  Ewald energy   TEWEN  =    250816.65766924
  -Hartree energ DENC   =   -298484.60101294
  -exchange      EXHF   =         0.00000000
  -V(xc)+E(xc)   XCENC  =      2502.09303846
  PAW double counting   =     43679.68029659   -43417.33247688
  entropy T*S    EENTRO =        -0.00000000
  eigenvalues    EBANDS =    -12743.86183177
  atomic energy  EATOM  =     56210.72393729
  Solvation  Ediel_sol  =         0.00000000
  ---------------------------------------------------
  free energy    TOTEN  =      -652.06338578 eV

  energy without entropy =     -652.06338578  energy(sigma->0) =     -652.06338578


--------------------------------------------------------------------------------------------------------




--------------------------------------- Iteration      1(   6)  ---------------------------------------


    POTLOK:  cpu time    0.3824: real time    0.3916
    SETDIJ:  cpu time    0.4183: real time    0.4183
     EDDAV:  cpu time   62.7325: real time   62.7336
       DOS:  cpu time    0.0007: real time    0.0007
    CHARGE:  cpu time    3.8835: real time    3.8835
    MIXING:  cpu time    0.0121: real time    0.0121
    --------------------------------------------
      LOOP:  cpu time   67.4294: real time   67.4397

 eigenvalue-minimisations  :  5848
 total energy-change (2. order) : 0.1307869E+03  (-0.7025217E+02)
 number of electron     640.0000004 magnetization 
 augmentation part       70.1067469 magnetization 

 Broyden mixing:
  rms(total) = 0.30674E+01    rms(broyden)= 0.30672E+01
  rms(prec ) = 0.31014E+01
  weight for this iteration     100.00

 eigenvalues of (default mixing * dielectric matrix)
  average eigenvalue GAMMA=   0.9479
  0.9479

 Free energy of the ion-electron system (eV)
  ---------------------------------------------------
  alpha Z        PSCENC =       784.57699423
  Ewald energy   TEWEN  =    250816.65766924
  -Hartree energ DENC   =   -298286.89786868
  -exchange      EXHF   =         0.00000000
  -V(xc)+E(xc)   XCENC  =      2491.87612431
  PAW double counting   =     49217.71217642   -49009.90665255
  entropy T*S    EENTRO =        -0.00000000
  eigenvalues    EBANDS =    -12746.01882712
  atomic energy  EATOM  =     56210.72393729
  Solvation  Ediel_sol  =         0.00000000
  ---------------------------------------------------
  free energy    TOTEN  =      -521.27644685 eV

  energy without entropy =     -521.27644685  energy(sigma->0) =     -521.27644685


--------------------------------------------------------------------------------------------------------




--------------------------------------- Iteration      1(   7)  ---------------------------------------


    POTLOK:  cpu time    0.3832: real time    0.3928
    SETDIJ:  cpu time    0.4181: real time    0.4181
     EDDAV:  cpu time   63.2072: real time   63.2087
       DOS:  cpu time    0.0006: real time    0.0005
    CHARGE:  cpu time    3.8910: real time    3.8911
    MIXING:  cpu time    0.0118: real time    0.0118
    --------------------------------------------
      LOOP:  cpu time   67.9119: real time   67.9231

 eigenvalue-minimisations  :  5904
 total energy-change (2. order) :-0.4843432E+01  (-0.8942231E+01)
 number of electron     640.0000004 magnetization 
 augmentation part       69.4859370 magnetization 

 Broyden mixing:
  rms(total) = 0.15443E+01    rms(broyden)= 0.15442E+01
  rms(prec ) = 0.15805E+01
  weight for this iteration     100.00

 eigenvalues of (default mixing * dielectric matrix)
  average eigenvalue GAMMA=   0.9928
  0.9928  0.9928

 Free energy of the ion-electron system (eV)
  ---------------------------------------------------
  alpha Z        PSCENC =       784.57699423
  Ewald energy   TEWEN  =    250816.65766924
  -Hartree energ DENC   =   -298386.59013513
  -exchange      EXHF   =         0.00000000
  -V(xc)+E(xc)   XCENC  =      2487.82073600
  PAW double counting   =     54246.79373869   -54053.02376344
  entropy T*S    EENTRO =        -0.00000000
  eigenvalues    EBANDS =    -12633.07905615
  atomic energy  EATOM  =     56210.72393729
  Solvation  Ediel_sol  =         0.00000000
  ---------------------------------------------------
  free energy    TOTEN  =      -526.11987927 eV

  energy without entropy =     -526.11987927  energy(sigma->0) =     -526.11987927


--------------------------------------------------------------------------------------------------------




--------------------------------------- Iteration      1(   8)  ---------------------------------------


    POTLOK:  cpu time    0.3825: real time    0.3903
    SETDIJ:  cpu time    0.4181: real time    0.4181
     EDDAV:  cpu time   62.6340: real time   62.6352
       DOS:  cpu time    0.0006: real time    0.0006
    CHARGE:  cpu time    3.8661: real time    3.8661
    MIXING:  cpu time    0.0124: real time    0.0124
    --------------------------------------------
      LOOP:  cpu time   67.3137: real time   67.3228

 eigenvalue-minimisations  :  5840
 total energy-change (2. order) : 0.2280386E+01  (-0.9965176E+00)
 number of electron     640.0000004 magnetization 
 augmentation part       69.2717711 magnetization 

 Broyden mixing:
  rms(total) = 0.95322E+00    rms(broyden)= 0.95322E+00
  rms(prec ) = 0.96871E+00
  weight for this iteration     100.00

 eigenvalues of (default mixing * dielectric matrix)
  average eigenvalue GAMMA=   1.4040
  2.4854  0.8633  0.8633

 Free energy of the ion-electron system (eV)
  ---------------------------------------------------
  alpha Z        PSCENC =       784.57699423
  Ewald energy   TEWEN  =    250816.65766924
  -Hartree energ DENC   =   -298451.94448502
  -exchange      EXHF   =         0.00000000
  -V(xc)+E(xc)   XCENC  =      2487.82688866
  PAW double counting   =     56170.75130027   -55987.57422248
  entropy T*S    EENTRO =        -0.00000000
  eigenvalues    EBANDS =    -12554.85757558
  atomic energy  EATOM  =     56210.72393729
  Solvation  Ediel_sol  =         0.00000000
  ---------------------------------------------------
  free energy    TOTEN  =      -523.83949339 eV

  energy without entropy =     -523.83949339  energy(sigma->0) =     -523.83949339


--------------------------------------------------------------------------------------------------------




--------------------------------------- Iteration      1(   9)  ---------------------------------------


    POTLOK:  cpu time    0.3829: real time    0.3917
    SETDIJ:  cpu time    0.4190: real time    0.4191
     EDDAV:  cpu time   59.1210: real time   59.1245
       DOS:  cpu time    0.0007: real time    0.0007
    CHARGE:  cpu time    3.8946: real time    3.8947
    MIXING:  cpu time    0.0136: real time    0.0136
    --------------------------------------------
      LOOP:  cpu time   63.8318: real time   63.8442

 eigenvalue-minimisations  :  5440
 total energy-change (2. order) : 0.4776706E+00  (-0.4193324E+00)
 number of electron     640.0000004 magnetization 
 augmentation part       69.9248996 magnetization 

 Broyden mixing:
  rms(total) = 0.31239E+00    rms(broyden)= 0.31237E+00
  rms(prec ) = 0.32737E+00
  weight for this iteration     100.00

 eigenvalues of (default mixing * dielectric matrix)
  average eigenvalue GAMMA=   1.2063
  2.2207  0.8455  0.8455  0.9133

 Free energy of the ion-electron system (eV)
  ---------------------------------------------------
  alpha Z        PSCENC =       784.57699423
  Ewald energy   TEWEN  =    250816.65766924
  -Hartree energ DENC   =   -298574.75489385
  -exchange      EXHF   =         0.00000000
  -V(xc)+E(xc)   XCENC  =      2487.42129306
  PAW double counting   =     59877.12546391   -59710.42154131
  entropy T*S    EENTRO =        -0.00000000
  eigenvalues    EBANDS =    -12414.69074537
  atomic energy  EATOM  =     56210.72393729
  Solvation  Ediel_sol  =         0.00000000
  ---------------------------------------------------
  free energy    TOTEN  =      -523.36182279 eV

  energy without entropy =     -523.36182279  energy(sigma->0) =     -523.36182279


--------------------------------------------------------------------------------------------------------




--------------------------------------- Iteration      1(  10)  ---------------------------------------


    POTLOK:  cpu time    0.3832: real time    0.3924
    SETDIJ:  cpu time    0.4181: real time    0.4182
     EDDAV:  cpu time   60.9744: real time   60.9755
       DOS:  cpu time    0.0006: real time    0.0006
    CHARGE:  cpu time    3.8785: real time    3.8785
    MIXING:  cpu time    0.0135: real time    0.0135
    --------------------------------------------
      LOOP:  cpu time   65.6683: real time   65.6787

 eigenvalue-minimisations  :  5648
 total energy-change (2. order) : 0.1619748E+00  (-0.6061752E-01)
 number of electron     640.0000004 magnetization 
 augmentation part       69.7837132 magnetization 

 Broyden mixing:
  rms(total) = 0.17734E+00    rms(broyden)= 0.17734E+00
  rms(prec ) = 0.18528E+00
  weight for this iteration     100.00

 eigenvalues of (default mixing * dielectric matrix)
  average eigenvalue GAMMA=   1.2024
  2.2314  1.2365  0.9286  0.9286  0.6869

 Free energy of the ion-electron system (eV)
  ---------------------------------------------------
  alpha Z        PSCENC =       784.57699423
  Ewald energy   TEWEN  =    250816.65766924
  -Hartree energ DENC   =   -298602.09755573
  -exchange      EXHF   =         0.00000000
  -V(xc)+E(xc)   XCENC  =      2487.91683103
  PAW double counting   =     59494.63571696   -59326.34233395
  entropy T*S    EENTRO =        -0.00000000
  eigenvalues    EBANDS =    -12389.27110702
  atomic energy  EATOM  =     56210.72393729
  Solvation  Ediel_sol  =         0.00000000
  ---------------------------------------------------
  free energy    TOTEN  =      -523.19984795 eV

  energy without entropy =     -523.19984795  energy(sigma->0) =     -523.19984795


--------------------------------------------------------------------------------------------------------




--------------------------------------- Iteration      1(  11)  ---------------------------------------


    POTLOK:  cpu time    0.3836: real time    0.3921
    SETDIJ:  cpu time    0.4189: real time    0.4189
     EDDAV:  cpu time   61.2232: real time   61.2254
       DOS:  cpu time    0.0007: real time    0.0007
    CHARGE:  cpu time    3.8786: real time    3.8787
    MIXING:  cpu time    0.0136: real time    0.0136
    --------------------------------------------
      LOOP:  cpu time   65.9186: real time   65.9294

 eigenvalue-minimisations  :  5680
 total energy-change (2. order) : 0.2158407E-01  (-0.3444173E-01)
 number of electron     640.0000004 magnetization 
 augmentation part       69.7600857 magnetization 

 Broyden mixing:
  rms(total) = 0.79505E-01    rms(broyden)= 0.79502E-01
  rms(prec ) = 0.85983E-01
  weight for this iteration     100.00

 eigenvalues of (default mixing * dielectric matrix)
  average eigenvalue GAMMA=   1.2670
  2.4172  1.8428  0.9073  0.9073  0.7637  0.7637

 Free energy of the ion-electron system (eV)
  ---------------------------------------------------
  alpha Z        PSCENC =       784.57699423
  Ewald energy   TEWEN  =    250816.65766924
  -Hartree energ DENC   =   -298648.39651847
  -exchange      EXHF   =         0.00000000
  -V(xc)+E(xc)   XCENC  =      2488.45145531
  PAW double counting   =     59580.53215881   -59412.39627459
  entropy T*S    EENTRO =        -0.00000000
  eigenvalues    EBANDS =    -12343.32768569
  atomic energy  EATOM  =     56210.72393729
  Solvation  Ediel_sol  =         0.00000000
  ---------------------------------------------------
  free energy    TOTEN  =      -523.17826388 eV

  energy without entropy =     -523.17826388  energy(sigma->0) =     -523.17826388


--------------------------------------------------------------------------------------------------------




--------------------------------------- Iteration      1(  12)  ---------------------------------------


    POTLOK:  cpu time    0.3826: real time    0.3913
    SETDIJ:  cpu time    0.4188: real time    0.4188
     EDDAV:  cpu time   63.3414: real time   63.3439
       DOS:  cpu time    0.0006: real time    0.0006
    CHARGE:  cpu time    3.8873: real time    3.8873
    MIXING:  cpu time    0.0142: real time    0.0142
    --------------------------------------------
      LOOP:  cpu time   68.0449: real time   68.0562

 eigenvalue-minimisations  :  5920
 total energy-change (2. order) : 0.1481544E-01  (-0.4837161E-02)
 number of electron     640.0000004 magnetization 
 augmentation part       69.7175071 magnetization 

 Broyden mixing:
  rms(total) = 0.33739E-01    rms(broyden)= 0.33738E-01
  rms(prec ) = 0.40176E-01
  weight for this iteration     100.00

 eigenvalues of (default mixing * dielectric matrix)
  average eigenvalue GAMMA=   1.2451
  2.2003  2.2003  0.9200  0.9200  0.9001  0.9001  0.6746

 Free energy of the ion-electron system (eV)
  ---------------------------------------------------
  alpha Z        PSCENC =       784.57699423
  Ewald energy   TEWEN  =    250816.65766924
  -Hartree energ DENC   =   -298685.94385137
  -exchange      EXHF   =         0.00000000
  -V(xc)+E(xc)   XCENC  =      2488.95308793
  PAW double counting   =     59620.32393431   -59452.22705307
  entropy T*S    EENTRO =        -0.00000000
  eigenvalues    EBANDS =    -12306.22816700
  atomic energy  EATOM  =     56210.72393729
  Solvation  Ediel_sol  =         0.00000000
  ---------------------------------------------------
  free energy    TOTEN  =      -523.16344844 eV

  energy without entropy =     -523.16344844  energy(sigma->0) =     -523.16344844


--------------------------------------------------------------------------------------------------------




--------------------------------------- Iteration      1(  13)  ---------------------------------------


    POTLOK:  cpu time    0.3834: real time    0.3918
    SETDIJ:  cpu time    0.4194: real time    0.4215
     EDDAV:  cpu time   59.2521: real time   59.2540
       DOS:  cpu time    0.0006: real time    0.0005
    CHARGE:  cpu time    3.9039: real time    3.9040
    MIXING:  cpu time    0.0141: real time    0.0141
    --------------------------------------------
      LOOP:  cpu time   63.9735: real time   63.9860

 eigenvalue-minimisations  :  5456
 total energy-change (2. order) : 0.2565752E-02  (-0.1368222E-02)
 number of electron     640.0000004 magnetization 
 augmentation part       69.7225857 magnetization 

 Broyden mixing:
  rms(total) = 0.22443E-01    rms(broyden)= 0.22442E-01
  rms(prec ) = 0.28386E-01
  weight for this iteration     100.00

 eigenvalues of (default mixing * dielectric matrix)
  average eigenvalue GAMMA=   1.2627
  2.5664  1.8910  1.3123  0.9224  0.9224  0.9190  0.9190  0.6490

 Free energy of the ion-electron system (eV)
  ---------------------------------------------------
  alpha Z        PSCENC =       784.57699423
  Ewald energy   TEWEN  =    250816.65766924
  -Hartree energ DENC   =   -298704.66811802
  -exchange      EXHF   =         0.00000000
  -V(xc)+E(xc)   XCENC  =      2489.10717535
  PAW double counting   =     59597.62867442   -59429.44615486
  entropy T*S    EENTRO =        -0.00000000
  eigenvalues    EBANDS =    -12287.74106034
  atomic energy  EATOM  =     56210.72393729
  Solvation  Ediel_sol  =         0.00000000
  ---------------------------------------------------
  free energy    TOTEN  =      -523.16088269 eV

  energy without entropy =     -523.16088269  energy(sigma->0) =     -523.16088269


--------------------------------------------------------------------------------------------------------




--------------------------------------- Iteration      1(  14)  ---------------------------------------


    POTLOK:  cpu time    0.3807: real time    0.3890
    SETDIJ:  cpu time    0.4194: real time    0.4194
     EDDAV:  cpu time   59.5367: real time   59.5408
       DOS:  cpu time    0.0006: real time    0.0006
    CHARGE:  cpu time    3.8778: real time    3.8779
    MIXING:  cpu time    0.0141: real time    0.0141
    --------------------------------------------
      LOOP:  cpu time   64.2293: real time   64.2417

 eigenvalue-minimisations  :  5488
 total energy-change (2. order) : 0.1726582E-02  (-0.6549182E-03)
 number of electron     640.0000004 magnetization 
 augmentation part       69.7322032 magnetization 

 Broyden mixing:
  rms(total) = 0.16794E-01    rms(broyden)= 0.16794E-01
  rms(prec ) = 0.21155E-01
  weight for this iteration     100.00

 eigenvalues of (default mixing * dielectric matrix)
  average eigenvalue GAMMA=   1.3229
  2.5365  2.5365  1.7298  0.9397  0.9397  0.9347  0.8188  0.8188  0.6513

 Free energy of the ion-electron system (eV)
  ---------------------------------------------------
  alpha Z        PSCENC =       784.57699423
  Ewald energy   TEWEN  =    250816.65766924
  -Hartree energ DENC   =   -298725.64296152
  -exchange      EXHF   =         0.00000000
  -V(xc)+E(xc)   XCENC  =      2489.24243681
  PAW double counting   =     59599.10486335   -59430.98389001
  entropy T*S    EENTRO =        -0.00000000
  eigenvalues    EBANDS =    -12266.83820550
  atomic energy  EATOM  =     56210.72393729
  Solvation  Ediel_sol  =         0.00000000
  ---------------------------------------------------
  free energy    TOTEN  =      -523.15915611 eV

  energy without entropy =     -523.15915611  energy(sigma->0) =     -523.15915611


--------------------------------------------------------------------------------------------------------




--------------------------------------- Iteration      1(  15)  ---------------------------------------


    POTLOK:  cpu time    0.3821: real time    0.3912
    SETDIJ:  cpu time    0.4192: real time    0.4192
     EDDAV:  cpu time   59.3185: real time   59.3188
       DOS:  cpu time    0.0006: real time    0.0005
    CHARGE:  cpu time    3.9157: real time    3.9157
    MIXING:  cpu time    0.0144: real time    0.0144
    --------------------------------------------
      LOOP:  cpu time   64.0503: real time   64.0598

 eigenvalue-minimisations  :  5464
 total energy-change (2. order) :-0.9655754E-03  (-0.3129611E-03)
 number of electron     640.0000004 magnetization 
 augmentation part       69.7397450 magnetization 

 Broyden mixing:
  rms(total) = 0.10969E-01    rms(broyden)= 0.10969E-01
  rms(prec ) = 0.14284E-01
  weight for this iteration     100.00

 eigenvalues of (default mixing * dielectric matrix)
  average eigenvalue GAMMA=   1.3283
  2.7349  2.7349  1.3815  1.3815  0.8950  0.8950  0.9182  0.9182  0.7949  0.6291

 Free energy of the ion-electron system (eV)
  ---------------------------------------------------
  alpha Z        PSCENC =       784.57699423
  Ewald energy   TEWEN  =    250816.65766924
  -Hartree energ DENC   =   -298745.70189942
  -exchange      EXHF   =         0.00000000
  -V(xc)+E(xc)   XCENC  =      2489.34678749
  PAW double counting   =     59561.21477343   -59392.99931912
  entropy T*S    EENTRO =        -0.00000000
  eigenvalues    EBANDS =    -12246.97906483
  atomic energy  EATOM  =     56210.72393729
  Solvation  Ediel_sol  =         0.00000000
  ---------------------------------------------------
  free energy    TOTEN  =      -523.16012169 eV

  energy without entropy =     -523.16012169  energy(sigma->0) =     -523.16012169


--------------------------------------------------------------------------------------------------------




--------------------------------------- Iteration      1(  16)  ---------------------------------------


    POTLOK:  cpu time    0.3922: real time    0.4007
    SETDIJ:  cpu time    0.4183: real time    0.4183
     EDDAV:  cpu time   62.3596: real time   62.3600
       DOS:  cpu time    0.0007: real time    0.0007
    CHARGE:  cpu time    3.8945: real time    3.8946
    MIXING:  cpu time    0.0153: real time    0.0153
    --------------------------------------------
      LOOP:  cpu time   67.0807: real time   67.0897

 eigenvalue-minimisations  :  5808
 total energy-change (2. order) :-0.1374253E-02  (-0.1510160E-03)
 number of electron     640.0000004 magnetization 
 augmentation part       69.7371201 magnetization 

 Broyden mixing:
  rms(total) = 0.62178E-02    rms(broyden)= 0.62177E-02
  rms(prec ) = 0.89053E-02
  weight for this iteration     100.00

 eigenvalues of (default mixing * dielectric matrix)
  average eigenvalue GAMMA=   1.3449
  3.0567  2.4716  1.9130  1.2590  0.9004  0.9004  1.0161  1.0161  0.9435  0.7028
  0.6147

 Free energy of the ion-electron system (eV)
  ---------------------------------------------------
  alpha Z        PSCENC =       784.57699423
  Ewald energy   TEWEN  =    250816.65766924
  -Hartree energ DENC   =   -298757.74892854
  -exchange      EXHF   =         0.00000000
  -V(xc)+E(xc)   XCENC  =      2489.40671868
  PAW double counting   =     59552.82671935   -59384.59902202
  entropy T*S    EENTRO =        -0.00000000
  eigenvalues    EBANDS =    -12235.00558417
  atomic energy  EATOM  =     56210.72393729
  Solvation  Ediel_sol  =         0.00000000
  ---------------------------------------------------
  free energy    TOTEN  =      -523.16149594 eV

  energy without entropy =     -523.16149594  energy(sigma->0) =     -523.16149594


--------------------------------------------------------------------------------------------------------




--------------------------------------- Iteration      1(  17)  ---------------------------------------


    POTLOK:  cpu time    0.3843: real time    0.3923
    SETDIJ:  cpu time    0.4194: real time    0.4194
     EDDAV:  cpu time   60.6499: real time   60.6523
       DOS:  cpu time    0.0006: real time    0.0006
    CHARGE:  cpu time    3.8873: real time    3.8874
    MIXING:  cpu time    0.0149: real time    0.0149
    --------------------------------------------
      LOOP:  cpu time   65.3566: real time   65.3669

 eigenvalue-minimisations  :  5616
 total energy-change (2. order) :-0.2462432E-02  (-0.1171712E-03)
 number of electron     640.0000004 magnetization 
 augmentation part       69.7336572 magnetization 

 Broyden mixing:
  rms(total) = 0.45800E-02    rms(broyden)= 0.45797E-02
  rms(prec ) = 0.64017E-02
  weight for this iteration     100.00

 eigenvalues of (default mixing * dielectric matrix)
  average eigenvalue GAMMA=   1.4008
  3.5907  2.7396  2.2106  1.4318  1.0502  0.8959  0.8959  0.9336  0.9336  0.8073
  0.7056  0.6148

 Free energy of the ion-electron system (eV)
  ---------------------------------------------------
  alpha Z        PSCENC =       784.57699423
  Ewald energy   TEWEN  =    250816.65766924
  -Hartree energ DENC   =   -298768.79380469
  -exchange      EXHF   =         0.00000000
  -V(xc)+E(xc)   XCENC  =      2489.45237904
  PAW double counting   =     59556.06725494   -59387.87604549
  entropy T*S    EENTRO =        -0.00000000
  eigenvalues    EBANDS =    -12223.97234292
  atomic energy  EATOM  =     56210.72393729
  Solvation  Ediel_sol  =         0.00000000
  ---------------------------------------------------
  free energy    TOTEN  =      -523.16395837 eV

  energy without entropy =     -523.16395837  energy(sigma->0) =     -523.16395837


--------------------------------------------------------------------------------------------------------




--------------------------------------- Iteration      1(  18)  ---------------------------------------


    POTLOK:  cpu time    0.3873: real time    0.3955
    SETDIJ:  cpu time    0.4174: real time    0.4175
     EDDAV:  cpu time   56.0182: real time   56.0199
       DOS:  cpu time    0.0007: real time    0.0007
    CHARGE:  cpu time    3.8880: real time    3.8881
    MIXING:  cpu time    0.0157: real time    0.0157
    --------------------------------------------
      LOOP:  cpu time   60.7273: real time   60.7373

 eigenvalue-minimisations  :  5088
 total energy-change (2. order) :-0.2661304E-02  (-0.3123893E-04)
 number of electron     640.0000004 magnetization 
 augmentation part       69.7346552 magnetization 

 Broyden mixing:
  rms(total) = 0.30017E-02    rms(broyden)= 0.30016E-02
  rms(prec ) = 0.40510E-02
  weight for this iteration     100.00

 eigenvalues of (default mixing * dielectric matrix)
  average eigenvalue GAMMA=   1.4020
  3.9763  2.5811  2.1424  1.5870  1.0406  1.0406  0.9363  0.9363  0.9269  0.9269
  0.8660  0.6648  0.6012

 Free energy of the ion-electron system (eV)
  ---------------------------------------------------
  alpha Z        PSCENC =       784.57699423
  Ewald energy   TEWEN  =    250816.65766924
  -Hartree energ DENC   =   -298778.42330169
  -exchange      EXHF   =         0.00000000
  -V(xc)+E(xc)   XCENC  =      2489.48260587
  PAW double counting   =     59549.55831875   -59381.36947427
  entropy T*S    EENTRO =        -0.00000000
  eigenvalues    EBANDS =    -12214.37336909
  atomic energy  EATOM  =     56210.72393729
  Solvation  Ediel_sol  =         0.00000000
  ---------------------------------------------------
  free energy    TOTEN  =      -523.16661967 eV

  energy without entropy =     -523.16661967  energy(sigma->0) =     -523.16661967


--------------------------------------------------------------------------------------------------------




--------------------------------------- Iteration      1(  19)  ---------------------------------------


    POTLOK:  cpu time    0.3886: real time    0.3969
    SETDIJ:  cpu time    0.4183: real time    0.4183
     EDDAV:  cpu time   56.3872: real time   56.3895
       DOS:  cpu time    0.0007: real time    0.0007
    CHARGE:  cpu time    3.9184: real time    3.9185
    MIXING:  cpu time    0.0154: real time    0.0154
    --------------------------------------------
      LOOP:  cpu time   61.1285: real time   61.1393

 eigenvalue-minimisations  :  5128
 total energy-change (2. order) :-0.1234606E-02  (-0.1872453E-04)
 number of electron     640.0000004 magnetization 
 augmentation part       69.7354570 magnetization 

 Broyden mixing:
  rms(total) = 0.18012E-02    rms(broyden)= 0.18011E-02
  rms(prec ) = 0.26514E-02
  weight for this iteration     100.00

 eigenvalues of (default mixing * dielectric matrix)
  average eigenvalue GAMMA=   1.4801
  4.7674  2.6939  1.9801  1.9801  1.2994  1.2994  0.9477  0.9477  0.9368  0.9368
  0.8233  0.8233  0.6813  0.6039

 Free energy of the ion-electron system (eV)
  ---------------------------------------------------
  alpha Z        PSCENC =       784.57699423
  Ewald energy   TEWEN  =    250816.65766924
  -Hartree energ DENC   =   -298782.68905968
  -exchange      EXHF   =         0.00000000
  -V(xc)+E(xc)   XCENC  =      2489.49552398
  PAW double counting   =     59549.01477808   -59380.83074053
  entropy T*S    EENTRO =        -0.00000000
  eigenvalues    EBANDS =    -12210.11695690
  atomic energy  EATOM  =     56210.72393729
  Solvation  Ediel_sol  =         0.00000000
  ---------------------------------------------------
  free energy    TOTEN  =      -523.16785428 eV

  energy without entropy =     -523.16785428  energy(sigma->0) =     -523.16785428


--------------------------------------------------------------------------------------------------------




--------------------------------------- Iteration      1(  20)  ---------------------------------------


    POTLOK:  cpu time    0.3894: real time    0.3979
    SETDIJ:  cpu time    0.4179: real time    0.4179
     EDDAV:  cpu time   48.0521: real time   48.0566
       DOS:  cpu time    0.0007: real time    0.0007
    CHARGE:  cpu time    3.9256: real time    3.9256
    MIXING:  cpu time    0.0158: real time    0.0158
    --------------------------------------------
      LOOP:  cpu time   52.8015: real time   52.8145

 eigenvalue-minimisations  :  4176
 total energy-change (2. order) :-0.1457510E-02  (-0.1174905E-04)
 number of electron     640.0000004 magnetization 
 augmentation part       69.7351951 magnetization 

 Broyden mixing:
  rms(total) = 0.12017E-02    rms(broyden)= 0.12015E-02
  rms(prec ) = 0.16241E-02
  weight for this iteration     100.00

 eigenvalues of (default mixing * dielectric matrix)
  average eigenvalue GAMMA=   1.5443
  5.7920  2.8694  2.2273  2.2273  1.2192  1.2192  0.9737  0.9737  0.9248  0.9248
  0.8808  0.8808  0.7844  0.6666  0.6011

 Free energy of the ion-electron system (eV)
  ---------------------------------------------------
  alpha Z        PSCENC =       784.57699423
  Ewald energy   TEWEN  =    250816.65766924
  -Hartree energ DENC   =   -298787.96347590
  -exchange      EXHF   =         0.00000000
  -V(xc)+E(xc)   XCENC  =      2489.50547557
  PAW double counting   =     59546.96314976   -59378.77810508
  entropy T*S    EENTRO =        -0.00000000
  eigenvalues    EBANDS =    -12204.85495690
  atomic energy  EATOM  =     56210.72393729
  Solvation  Ediel_sol  =         0.00000000
  ---------------------------------------------------
  free energy    TOTEN  =      -523.16931179 eV

  energy without entropy =     -523.16931179  energy(sigma->0) =     -523.16931179


--------------------------------------------------------------------------------------------------------




--------------------------------------- Iteration      1(  21)  ---------------------------------------


    POTLOK:  cpu time    0.3898: real time    0.3943
    SETDIJ:  cpu time    0.4178: real time    0.4178
     EDDAV:  cpu time   52.0689: real time   52.0706
       DOS:  cpu time    0.0006: real time    0.0006
    CHARGE:  cpu time    3.8995: real time    3.8996
    MIXING:  cpu time    0.0164: real time    0.0164
    --------------------------------------------
      LOOP:  cpu time   56.7930: real time   56.7992

 eigenvalue-minimisations  :  4624
 total energy-change (2. order) :-0.6133965E-03  (-0.3077707E-05)
 number of electron     640.0000004 magnetization 
 augmentation part       69.7354171 magnetization 

 Broyden mixing:
  rms(total) = 0.11340E-02    rms(broyden)= 0.11338E-02
  rms(prec ) = 0.13655E-02
  weight for this iteration     100.00

 eigenvalues of (default mixing * dielectric matrix)
  average eigenvalue GAMMA=   1.5241
  6.1421  2.8772  2.4735  1.8229  1.3340  1.1179  1.1179  0.9387  0.9387  0.9185
  0.9185  0.8335  0.8335  0.8447  0.6715  0.6029

 Free energy of the ion-electron system (eV)
  ---------------------------------------------------
  alpha Z        PSCENC =       784.57699423
  Ewald energy   TEWEN  =    250816.65766924
  -Hartree energ DENC   =   -298790.05470288
[...]
    -6.896993340 11.945942880  0.000000000     0.000000000  0.083710429  0.000000000
     0.000000000  0.000000000 27.810221070     0.000000000  0.000000000  0.035958003

  length of vectors
    13.793986680 13.793986676 27.810221070     0.083710429  0.083710429  0.035958003


 FORCES acting on ions
    electron-ion (+dipol)            ewald-force                    non-local-force                 convergence-correction
 -----------------------------------------------------------------------------------------------
   0.682E+01 -.354E+02 -.109E+04   -.623E+01 0.346E+02 0.109E+04   0.345E+00 0.533E+00 0.353E+01   -.570E-04 0.340E-04 0.461E-04
   -.712E+02 0.812E+02 -.102E+04   0.709E+02 -.814E+02 0.101E+04   0.613E+00 -.154E+01 0.429E+01   0.250E-04 0.630E-05 0.607E-04
   0.339E+02 -.516E+01 -.119E+04   -.351E+02 0.450E+01 0.118E+04   0.950E-01 0.121E+00 0.435E+01   0.741E-05 0.496E-06 0.708E-05
   0.218E+02 0.380E+02 -.105E+04   -.228E+02 -.392E+02 0.104E+04   0.680E+00 -.118E+00 0.480E+01   0.765E-05 -.563E-04 -.125E-04
   -.100E+01 -.331E+02 -.109E+04   0.731E+00 0.327E+02 0.108E+04   0.408E+00 0.266E+00 0.487E+01   0.302E-04 0.554E-05 -.116E-04
   -.208E+02 -.133E+02 -.114E+04   0.205E+02 0.135E+02 0.114E+04   0.739E+00 0.365E+00 0.340E+01   -.106E-04 0.938E-06 0.458E-04
   -.180E+02 0.235E+02 -.112E+04   0.209E+02 -.232E+02 0.112E+04   -.160E+01 -.498E+00 0.530E+01   -.301E-04 -.234E-05 0.262E-04
   -.543E+02 -.201E+02 -.993E+03   0.541E+02 0.215E+02 0.990E+03   0.595E+00 -.942E+00 0.472E+01   -.316E-04 -.378E-04 0.324E-04
   -.332E+02 -.751E+01 -.949E+03   0.333E+02 0.657E+01 0.946E+03   0.225E-01 0.761E+00 0.480E+01   -.142E-04 0.270E-04 0.100E-04
   0.362E+02 -.472E+02 -.106E+04   -.374E+02 0.474E+02 0.105E+04   0.384E+00 0.785E+00 0.407E+01   -.363E-04 -.230E-04 0.684E-05
   -.106E+02 0.650E+02 -.110E+04   0.100E+02 -.654E+02 0.109E+04   0.768E+00 -.553E+00 0.420E+01   0.123E-05 0.894E-06 0.172E-04
   -.327E+02 -.327E+02 -.116E+04   0.335E+02 0.337E+02 0.116E+04   0.195E+00 -.695E+00 0.382E+01   0.110E-04 -.244E-04 0.255E-04
   0.451E+02 0.819E+02 -.101E+04   -.460E+02 -.811E+02 0.100E+04   -.422E+00 -.164E+01 0.412E+01   0.535E-04 -.292E-04 0.120E-04
   0.687E+01 0.133E+02 -.102E+04   -.674E+01 -.132E+02 0.102E+04   -.268E+00 -.998E-02 0.415E+01   -.679E-05 0.296E-04 0.312E-04
   0.319E+01 -.216E+02 -.118E+04   -.219E+01 0.216E+02 0.118E+04   -.367E+00 0.322E+00 0.174E+01   0.228E-04 0.181E-04 0.584E-04
   0.830E+01 -.493E+02 -.103E+04   -.854E+01 0.493E+02 0.103E+04   0.123E+00 0.739E+00 0.510E+01   -.449E-05 -.211E-05 0.397E-04
   0.414E+02 -.613E+02 0.105E+04   -.425E+02 0.622E+02 -.105E+04   0.402E-01 -.519E-01 -.344E+01   0.157E-04 -.270E-04 -.271E-04
   0.935E+01 0.142E+02 0.102E+04   -.947E+01 -.151E+02 -.102E+04   -.393E+00 0.387E+00 -.410E+01   -.311E-04 -.223E-05 0.127E-04
   -.315E+02 0.221E+02 0.104E+04   0.317E+02 -.208E+02 -.104E+04   0.248E+00 -.509E+00 -.378E+01   -.278E-05 0.380E-04 -.167E-05
   0.356E+02 0.245E+02 0.105E+04   -.362E+02 -.250E+02 -.105E+04   -.605E-01 0.442E+00 -.467E+01   -.426E-05 -.190E-06 -.992E-05
   -.665E+02 -.408E+02 0.111E+04   0.654E+02 0.409E+02 -.111E+04   0.136E+01 0.313E-01 -.464E+01   -.176E-04 0.258E-04 -.338E-04
   0.606E+02 -.140E+02 0.110E+04   -.608E+02 0.150E+02 -.110E+04   -.134E+01 -.955E+00 -.499E+01   0.266E-04 -.244E-04 -.541E-05
   -.114E+02 0.200E+02 0.986E+03   0.114E+02 -.191E+02 -.982E+03   -.168E+00 -.578E-01 -.441E+01   -.681E-05 0.130E-04 0.928E-05
   -.711E+02 -.266E+02 0.116E+04   0.722E+02 0.244E+02 -.115E+04   0.287E+00 0.202E+01 -.422E+01   -.229E-04 -.246E-04 -.275E-04
   -.341E+02 -.435E+02 0.115E+04   0.355E+02 0.426E+02 -.114E+04   -.278E+00 0.157E+01 -.410E+01   0.616E-05 -.756E-05 -.659E-04
   0.729E+01 -.369E+01 0.118E+04   -.635E+01 0.416E+01 -.117E+04   -.650E+00 0.172E+00 -.399E+01   -.189E-04 -.335E-04 -.380E-04
   0.370E+02 0.360E+02 0.100E+04   -.383E+02 -.378E+02 -.997E+03   0.220E+00 0.166E+00 -.496E+01   0.134E-05 0.134E-04 -.285E-04
   0.381E+02 -.907E+01 0.106E+04   -.390E+02 0.921E+01 -.105E+04   0.286E-01 0.313E+00 -.450E+01   -.303E-04 0.224E-05 -.234E-04
   0.230E+02 -.523E+02 0.105E+04   -.222E+02 0.531E+02 -.105E+04   -.400E+00 0.255E+00 -.362E+01   -.278E-05 0.223E-04 0.234E-05
   -.405E+01 0.210E+02 0.111E+04   0.384E+01 -.229E+02 -.110E+04   -.270E-01 0.149E+01 -.325E+01   0.147E-04 0.517E-05 -.209E-04
   0.976E+00 -.634E+01 0.993E+03   -.373E+00 0.660E+01 -.989E+03   0.215E+00 0.249E+00 -.464E+01   0.104E-04 0.305E-04 -.277E-04
   -.180E+02 0.846E+01 0.107E+04   0.191E+02 -.669E+01 -.107E+04   0.558E-01 -.560E+00 -.315E+01   0.359E-04 -.201E-04 -.603E-05
   0.178E+02 -.378E+02 0.142E+04   -.178E+02 0.377E+02 -.143E+04   -.296E+00 0.827E+00 0.252E+01   0.212E-04 -.252E-04 -.641E-04
   -.332E+02 0.898E+01 0.145E+04   0.332E+02 -.890E+01 -.146E+04   0.276E+00 -.101E+00 0.257E+01   -.134E-04 0.146E-04 -.524E-04
   -.213E+01 0.301E+01 0.145E+04   0.216E+01 -.307E+01 -.146E+04   0.315E-01 0.769E-01 0.235E+01   -.590E-06 0.227E-04 -.601E-04
   -.158E+02 0.262E+02 0.146E+04   0.157E+02 -.259E+02 -.147E+04   0.697E+00 -.142E+01 0.163E+01   0.200E-04 0.318E-05 -.584E-04
   -.451E+01 -.529E+02 0.146E+04   0.427E+01 0.527E+02 -.146E+04   0.921E+00 0.109E+01 0.134E+01   0.701E-05 -.182E-04 -.706E-04
   -.163E+02 0.371E+01 0.144E+04   0.161E+02 -.370E+01 -.144E+04   0.638E+00 0.703E-01 0.203E+01   0.218E-04 0.336E-05 -.768E-04
   -.721E+01 0.227E+02 0.144E+04   0.744E+01 -.229E+02 -.145E+04   -.623E+00 0.238E+00 0.234E+01   -.212E-05 0.153E-04 -.612E-04
   -.222E+02 -.110E+01 0.145E+04   0.219E+02 0.110E+01 -.145E+04   0.120E+01 -.767E-01 0.935E+00   -.174E-04 0.585E-05 -.794E-04
   0.133E+02 0.770E+01 0.147E+04   -.131E+02 -.756E+01 -.148E+04   -.534E+00 -.571E+00 0.213E+01   -.161E-04 -.139E-04 -.795E-04
   0.139E+02 -.176E+02 0.144E+04   -.140E+02 0.177E+02 -.144E+04   0.173E+00 -.223E+00 0.147E+01   0.116E-06 0.578E-05 -.775E-04
   -.169E+02 0.427E+02 0.146E+04   0.165E+02 -.425E+02 -.146E+04   0.130E+01 -.997E+00 0.209E+01   -.383E-05 0.103E-04 -.764E-04
   0.510E+01 0.811E+01 0.147E+04   -.493E+01 -.814E+01 -.148E+04   -.497E+00 0.171E-02 0.185E+01   -.862E-05 -.241E-05 -.678E-04
   0.129E+01 0.196E+02 0.144E+04   -.115E+01 -.193E+02 -.144E+04   -.290E+00 -.101E+01 0.242E+01   -.115E-04 -.400E-05 -.740E-04
   0.918E+01 -.690E+01 0.146E+04   -.892E+01 0.708E+01 -.146E+04   -.672E+00 -.312E+00 0.235E+01   -.461E-05 0.419E-05 -.676E-04
   0.312E+01 0.389E+02 0.148E+04   -.297E+01 -.388E+02 -.148E+04   -.387E+00 -.941E+00 0.177E+01   0.737E-06 -.204E-05 -.528E-04
   0.283E+02 -.760E+01 0.147E+04   -.282E+02 0.767E+01 -.147E+04   -.562E+00 0.303E-01 0.184E+01   -.257E-05 -.119E-04 -.762E-04
   -.228E+02 -.242E+02 -.143E+04   0.227E+02 0.239E+02 0.143E+04   0.673E+00 0.123E+01 -.100E+01   -.872E-05 -.143E-04 0.930E-04
   0.204E+02 -.770E+01 -.147E+04   -.205E+02 0.777E+01 0.148E+04   -.180E+00 0.384E-01 -.248E+01   -.153E-04 0.435E-05 0.748E-04
   -.314E+02 -.796E+01 -.150E+04   0.311E+02 0.750E+01 0.150E+04   0.115E+01 0.138E+01 -.240E+01   0.121E-04 -.576E-05 0.612E-04
   0.190E+02 -.186E+02 -.145E+04   -.187E+02 0.189E+02 0.145E+04   -.110E+01 -.530E+00 -.121E+01   0.115E-05 0.833E-05 0.708E-04
   -.979E+01 -.111E+01 -.144E+04   0.997E+01 0.112E+01 0.145E+04   -.279E+00 -.925E-01 -.300E+01   -.142E-04 -.131E-04 0.553E-04
   0.169E+02 0.158E+02 -.143E+04   -.166E+02 -.156E+02 0.144E+04   -.109E+01 -.831E+00 -.182E+01   -.956E-05 -.882E-05 0.551E-04
   0.597E+01 0.489E+01 -.143E+04   -.590E+01 -.485E+01 0.143E+04   -.193E+00 0.194E+00 -.228E+01   -.241E-04 0.128E-05 0.817E-04
   0.167E+02 -.777E+01 -.149E+04   -.167E+02 0.782E+01 0.149E+04   -.355E+00 0.590E-02 -.250E+01   -.183E-04 -.196E-04 0.544E-04
   -.117E+02 -.161E+02 -.145E+04   0.116E+02 0.163E+02 0.145E+04   0.261E+00 -.208E+00 -.341E+01   0.131E-04 0.487E-05 0.572E-04
   0.125E+01 0.530E+02 -.146E+04   -.129E+01 -.529E+02 0.146E+04   -.133E+00 -.103E+01 -.178E+01   0.107E-04 0.109E-04 0.661E-04
   0.391E+02 0.219E+02 -.147E+04   -.391E+02 -.218E+02 0.147E+04   -.172E+00 -.390E+00 -.270E+01   0.277E-04 0.181E-04 0.460E-04
   -.182E+01 -.315E+02 -.143E+04   0.199E+01 0.314E+02 0.143E+04   -.207E+00 0.336E+00 -.163E+01   0.185E-04 0.787E-05 0.797E-04
   0.357E+02 0.228E+02 -.145E+04   -.356E+02 -.227E+02 0.145E+04   -.693E+00 -.334E+00 -.229E+01   0.652E-05 0.917E-06 0.733E-04
   -.161E+02 0.285E+02 -.143E+04   0.160E+02 -.286E+02 0.143E+04   0.658E+00 -.122E+00 -.180E+01   0.244E-04 0.147E-04 0.966E-04
   -.229E+02 -.110E+02 -.146E+04   0.227E+02 0.107E+02 0.146E+04   0.729E+00 0.748E+00 -.230E+01   -.513E-05 0.146E-04 0.561E-04
   -.687E+01 -.250E+02 -.145E+04   0.685E+01 0.252E+02 0.145E+04   -.368E-01 -.379E+00 -.272E+01   0.305E-05 0.309E-06 0.684E-04
   0.191E+02 -.143E+02 -.588E+01   -.188E+02 0.143E+02 0.605E+01   -.139E+01 -.929E-01 -.397E+00   0.551E-05 -.566E-05 0.185E-05
   -.221E+02 -.542E+01 0.350E+02   0.220E+02 0.524E+01 -.353E+02   0.133E+00 0.446E+00 0.838E+00   -.210E-05 -.543E-05 0.149E-04
   0.206E+02 0.442E+01 -.337E+02   -.208E+02 -.419E+01 0.341E+02   0.753E+00 -.261E+00 -.157E+01   0.126E-05 0.953E-05 0.611E-05
   0.435E+02 0.290E+02 -.166E+02   -.430E+02 -.285E+02 0.162E+02   -.147E+01 -.193E+01 0.116E+01   0.602E-05 0.107E-04 -.705E-06
   0.121E+02 -.155E+02 0.113E+01   -.120E+02 0.154E+02 -.109E+01   -.357E+00 0.681E+00 0.158E+00   -.311E-05 -.638E-05 -.316E-05
   0.970E+01 -.239E+02 0.902E+00   -.953E+01 0.234E+02 -.105E+01   -.870E+00 0.185E+01 0.562E+00   0.952E-05 -.962E-05 0.689E-05
   -.136E+02 0.100E+02 -.186E+02   0.139E+02 -.987E+01 0.185E+02   -.133E+01 -.863E+00 0.475E+00   -.115E-04 0.114E-04 0.153E-04
   -.187E+01 0.204E+02 0.266E+02   0.205E+01 -.204E+02 -.271E+02   -.468E+00 -.466E+00 0.223E+01   -.273E-05 -.120E-05 0.476E-05
   -.156E+02 0.676E+01 -.241E+02   0.158E+02 -.654E+01 0.249E+02   -.392E+00 -.317E+00 -.250E+01   -.766E-05 0.288E-05 0.168E-05
   -.105E+02 -.982E+00 0.193E+02   0.102E+02 0.104E+01 -.193E+02   0.129E+01 -.384E+00 0.405E+00   -.458E-05 -.993E-05 -.311E-06
   0.226E+01 -.546E+01 -.709E+01   -.201E+01 0.534E+01 0.631E+01   -.332E+00 0.701E+00 0.157E+01   0.483E-05 -.406E-06 -.344E-05
   0.688E+01 -.940E+01 0.101E+02   -.688E+01 0.913E+01 -.105E+02   -.142E+00 0.260E+00 0.137E+01   -.901E-05 -.399E-06 0.227E-05
   0.841E+01 -.374E+02 -.605E+01   -.888E+01 0.368E+02 0.592E+01   0.151E+01 0.201E+01 0.339E+00   0.557E-05 0.355E-06 0.450E-05
   -.158E+02 0.359E+02 0.219E+02   0.158E+02 -.356E+02 -.216E+02   0.246E-01 -.649E+00 -.587E+00   -.439E-05 -.344E-06 0.508E-05
   0.297E+02 0.187E+01 0.230E+02   -.293E+02 -.206E+01 -.236E+02   -.148E+01 0.576E+00 0.180E+01   0.360E-05 0.104E-04 0.783E-06
   -.145E+02 0.237E+02 -.652E+00   0.141E+02 -.234E+02 0.290E+00   0.170E+01 -.123E+01 0.125E+01   0.708E-05 -.950E-06 0.132E-05
 -----------------------------------------------------------------------------------------------
   0.949E+00 0.125E+00 -.423E+01   -.355E-12 0.149E-12 0.269E-11   -.947E+00 -.131E+00 0.422E+01   -.482E-04 -.437E-05 0.156E-03
 
 
 POSITION                                       TOTAL-FORCE (eV/Angst)
 -----------------------------------------------------------------------------------
     -0.10802      1.97267     15.22776         0.934451     -0.251250     -1.287273
     -1.77101      5.16100     15.06436         0.385731     -1.699408      1.117488
     -3.38785      8.07152     15.27444        -1.118657     -0.533891     -0.719593
     -5.17243     11.04565     15.06383        -0.299282     -1.293224      0.065659
      3.49307      1.98135     15.09428         0.137861     -0.146117      0.394688
      1.71131      4.78149     15.29412         0.498147      0.605982     -0.935620
     -0.10505      7.96419     15.17965         1.386840     -0.154753     -0.421490
     -1.71593     10.97191     14.95982         0.365553      0.508048      1.358785
      6.97067      2.01405     14.92394         0.110101     -0.181803      1.918800
      5.37813      4.86730     15.17517        -0.881608      1.030681     -1.287028
      3.31478      8.02875     15.19763         0.195696     -0.900443     -0.574149
      1.54231     10.94013     15.27941         1.005492      0.351909     -0.900222
     10.45700      2.11402     15.07431        -1.325122     -0.853605      0.174855
      8.66674      4.99282     15.10899        -0.134224      0.117513     -0.276615
      6.81423      7.94861     15.39430         0.634483      0.365766     -0.996887
      5.13297     10.87811     15.04807        -0.107911      0.728551      0.635528
      1.77414      0.89680     12.63703        -1.033645      0.919804      0.695887
      0.13049      3.93452     12.70250        -0.515936     -0.566523     -0.091760
     -1.78062      6.90008     12.72460         0.445902      0.785308     -1.072471
     -3.45872      9.92256     12.73197        -0.672603     -0.090807     -1.149669
      5.11147      1.01148     12.62750         0.319918      0.114293     -0.071966
      3.69822      4.03442     12.63473        -1.573857      0.110986      0.040143
      1.80717      6.80141     12.75186        -0.174007      0.869562     -0.380353
     -0.14883      9.80577     12.55939         1.385152     -0.141184     -0.036730
      8.51203      0.78054     12.50624         1.067892      0.674035      1.095457
      7.02349      3.97912     12.51495         0.288376      0.651020      0.575967
      5.29222      7.14096     12.73998        -1.143544     -1.697785     -0.235066
      3.36372      9.85409     12.66453        -0.901532      0.445419     -0.271730
     11.97454      0.82606     12.64641         0.360527      1.003638     -0.150436
     10.42343      4.00040     12.57480        -0.235057     -0.424899      0.236827
      8.59687      7.04637     12.74710         0.817951      0.512307     -0.273495
      6.78319      9.89899     12.56972         1.157559      1.206638      1.398765
     -0.00180      1.84094     10.99506        -0.245382      0.659815      0.323657
     -1.71353      5.01240     10.92971         0.269642     -0.015930      0.439190
     -3.44377      7.98739     10.99289         0.062838      0.014555      0.226956
     -5.37985     11.09385     10.98022         0.630192     -1.105469     -0.421665
      3.36052      1.84370     11.02893         0.680459      0.857705     -0.663996
      1.69675      4.87565     10.99650         0.393557      0.080447      0.017617
      0.02256      7.84720     10.96991        -0.394190      0.095049      0.264215
     -1.93915     10.98452     11.10985         0.939059     -0.070441     -1.139440
      6.98284      2.08934     10.87008        -0.400841     -0.430751     -0.015391
      5.25235      5.15555     11.03877         0.074729     -0.104288     -0.600180
      3.16753      8.10205     10.91721         0.885791     -0.792739      0.061519
      1.66004     10.91504     10.87701        -0.331692     -0.032849     -0.054448
     10.38952      2.13178     10.91145        -0.151569     -0.740532      0.234184
      8.77242      5.12804     10.93726        -0.416078     -0.133288      0.179146
      6.97963      8.11347     10.94609        -0.237886     -0.784643     -0.164068
      5.15131     10.89555     10.95320        -0.476580      0.097499     -0.231866
      1.65705      0.86755     16.68082         0.631908      0.925693      1.053815
      0.11898      3.87819     17.00830        -0.230930      0.111937     -0.452846
     -2.03352      6.70216     17.01899         0.872308      0.921339     -0.361944
     -3.17007     10.09221     16.71586        -0.780329     -0.273000      0.739304
      5.24233      1.11214     16.86220        -0.097102     -0.083039     -0.776331
      3.71579      4.13836     16.80091        -0.783188     -0.673863      0.276574
      1.70738      6.85593     16.83799        -0.118140      0.233348     -0.068645
      0.07583      9.79623     16.99752        -0.371946      0.056181     -0.497726
      8.56660      1.01675     17.00630         0.130423     -0.023212     -1.133610
      7.02570      4.25227     16.87227        -0.167447     -0.902495      0.018319
      5.14813      7.16003     17.04391        -0.150019     -0.328955     -0.680195
      3.45876      9.95724     16.75267        -0.043901      0.280725      0.435566
     12.11147      1.05313     16.87657        -0.630874     -0.291786     -0.237347
     10.26960      3.97191     16.73636         0.536985     -0.180130      0.237141
      8.49953      6.97201     16.91037         0.544501      0.482433     -0.187403
      6.92780     10.02042     16.89957        -0.056988     -0.116550     -0.531847
     -6.86719     11.91855     13.91711        -1.133071     -0.132840     -0.230736
     12.05340      2.94169     13.82328         0.073141      0.269225      0.516023
     -3.44473      6.10027     14.05957         0.510345     -0.028086     -1.099461
     -5.06998      9.13633     13.88037        -1.002691     -1.467999      0.758644
     -3.35961     11.91987     13.85087        -0.255312      0.640134      0.200350
      1.80850      2.81693     13.92626        -0.699881      1.318774      0.412350
      0.09007      5.95997     13.94979        -0.994338     -0.692561      0.327470
     -1.69643      8.96572     13.75939        -0.286021     -0.478624      1.680125
      6.91731      0.03557     14.01809        -0.222376     -0.093420     -1.668458
      5.18671      3.01654     13.80913         1.032183     -0.324743      0.439356
      3.59803      5.91393     13.82228        -0.077341      0.582594      0.790964
      1.62136      8.86056     13.87184        -0.137659     -0.010987      0.975139
      3.25129     11.74265     13.81921         1.039900      1.440038      0.206156
      8.65687      3.10110     13.85439        -0.008002     -0.320549     -0.304416
      7.05063      6.00558     13.80212        -1.075144      0.390696      1.242422
      5.01010      9.05574     13.82044         1.288312     -0.890188      0.889522
 -----------------------------------------------------------------------------------
    total drift:                                0.002702     -0.006266     -0.002042


--------------------------------------------------------------------------------------------------------



  FREE ENERGIE OF THE ION-ELECTRON SYSTEM (eV)
  ---------------------------------------------------
  free  energy   TOTEN  =      -523.17141293 eV

  energy  without entropy=     -523.17141293  energy(sigma->0) =     -523.17141293
 


--------------------------------------------------------------------------------------------------------


    POTLOK:  cpu time    0.8087: real time    0.8105


--------------------------------------------------------------------------------------------------------


     LOOP+:  cpu time 1920.5130: real time 1920.8523
    4ORBIT:  cpu time    0.0000: real time    0.0000

 total amount of memory used by VASP MPI-rank0   253905. kBytes
=======================================================================

   base      :      30000. kBytes
   nonlr-proj:      18721. kBytes
   fftplans  :      72602. kBytes
   grid      :      41267. kBytes
   one-center:        108. kBytes
   wavefun   :      91207. kBytes
 
  
  
 General timing and accounting informations for this job:
 ========================================================
  
                  Total CPU time used (sec):     1951.434
                            User time (sec):     1945.849
                          System time (sec):        5.585
                         Elapsed time (sec):     1951.887
  
                   Maximum memory used (kb):      461612.
                   Average memory used (kb):           0.
  
                          Minor page faults:       462643
                          Major page faults:            0
                 Voluntary context switches:         2084
