<?xml version="1.0" encoding="ISO-8859-1"?>
<modeling>
 <generator>
  <i name="program" type="string">vasp </i>
  <i name="version" type="string">5.4.4.18Apr17-6-g9f103f2a35  </i>
  <i name="subversion" type="string">(build Oct 31 2019 15:01:46) complex            parallel </i>
  <i name="platform" type="string">LinuxIFC </i>
  <i name="date" type="string">2024 04 30 </i>
  <i name="time" type="string">20:10:15 </i>
 </generator>
 <incar>
  <i type="int" name="ISTART">     0</i>
  <i type="string" name="PREC">anormal</i>
  <i type="logical" name="ADDGRID"> T  </i>
  <i type="int" name="IBRION">    -1</i>
  <i name="EDIFF">      0.00000100</i>
  <i name="EDIFFG">     -0.01000000</i>
  <i type="int" name="NSW">     1</i>
  <i type="int" name="ISIF">     2</i>
  <i type="int" name="ISYM">     2</i>
  <i name="ENCUT">    600.00000000</i>
  <i name="POTIM">      1.00000000</i>
  <i type="string" name="LREAL"> Auto.</i>
  <i type="int" name="ISMEAR">     0</i>
  <i name="SIGMA">      0.05000000</i>
  <i name="KSPACING">      0.25000000</i>
  <i type="logical" name="LWAVE"> F  </i>
  <i type="logical" name="LCHARG"> F  </i>
  <i type="logical" name="LSCALAPACK"> F  </i>
  <v type="int" name="KPOINT_BSE">    -1     0     0     0</v>
 </incar>
 <structure name="primitive_cell" >
  <crystal>
   <varray name="basis" >
    <v>      13.79398668       0.00000000       0.00000000 </v>
    <v>      -6.89699334      11.94594288       0.00000000 </v>
    <v>       0.00000000       0.00000000      27.81022107 </v>
   </varray>
   <i name="volume">   4582.62876984 </i>
   <varray name="rec_basis" >
    <v>       0.07249536       0.04185521       0.00000000 </v>
    <v>       0.00000000       0.08371043       0.00000000 </v>
    <v>       0.00000000       0.00000000       0.03595800 </v>
   </varray>
  </crystal>
  <varray name="positions" >
   <v>       0.07473594       0.16513327      -0.45244017 </v>
   <v>      -0.00305906       0.24625013       0.49705747 </v>
   <v>       0.00101412      -0.00229342      -0.49956835 </v>
   <v>      -0.07789567       0.08815768      -0.39315209 </v>
   <v>       0.24901086       0.23580666      -0.49923937 </v>
   <v>       0.15643978       0.07262324      -0.40019120 </v>
   <v>       0.17094806       0.32464518      -0.38841544 </v>
   <v>       0.17413987       0.32935997       0.45675637 </v>
   <v>      -0.15343336       0.17696578      -0.45795802 </v>
   <v>      -0.09732656       0.06914949       0.45473966 </v>
   <v>       0.32419228       0.40026094      -0.45005388 </v>
   <v>       0.16615270       0.07507143       0.45440221 </v>
   <v>       0.08734067      -0.07536426      -0.45833487 </v>
   <v>      -0.17257798      -0.08938879      -0.45890144 </v>
   <v>       0.08762430       0.43202932      -0.45831561 </v>
   <v>       0.33616110       0.16585963      -0.45723997 </v>
   <v>       0.25598578       0.49891161      -0.49839342 </v>
   <v>      -0.08925663       0.33248993      -0.39819377 </v>
   <v>       0.07692244       0.15410561       0.39536029 </v>
   <v>      -0.07836030      -0.16118664      -0.39232536 </v>
   <v>       0.25535277      -0.00218286       0.49804967 </v>
   <v>      -0.27280539      -0.01701768       0.49691128 </v>
   <v>       0.44258947       0.34642396      -0.39587290 </v>
   <v>      -0.07691183       0.33487506       0.45216458 </v>
   <v>      -0.09392602      -0.17135158       0.45198213 </v>
   <v>       0.43696499       0.33772268       0.45431977 </v>
   <v>       0.01485299      -0.23519366       0.49911026 </v>
   <v>      -0.24261970       0.25959480       0.49817632 </v>
   <v>       0.07432131      -0.07132930       0.39482689 </v>
   <v>      -0.25776137      -0.24194018       0.49695528 </v>
   <v>      -0.33249381      -0.16647523      -0.39760727 </v>
   <v>       0.13309913      -0.43895960      -0.38803106 </v>
   <v>      -0.15758211       0.17845211       0.39235385 </v>
   <v>       0.00560114      -0.48934341      -0.49444587 </v>
   <v>       0.32707810       0.40814256       0.39541231 </v>
   <v>       0.32079023       0.15433658       0.39657815 </v>
   <v>       0.41073369      -0.42608742      -0.39453946 </v>
   <v>      -0.17051785      -0.08792851       0.39385536 </v>
   <v>      -0.33640518       0.08511260      -0.38848756 </v>
   <v>       0.08557185       0.41959004       0.39301047 </v>
   <v>      -0.49773000       0.25251546       0.49654882 </v>
   <v>      -0.49163098       0.49505776       0.49702143 </v>
   <v>       0.19259624      -0.15517671      -0.39893098 </v>
   <v>       0.42659342       0.09309767      -0.39366902 </v>
   <v>       0.41568606      -0.43065129       0.45853130 </v>
   <v>       0.15971727      -0.42239168       0.45755127 </v>
   <v>      -0.16272637       0.41795069      -0.45671101 </v>
   <v>       0.16456963      -0.16937839       0.45781619 </v>
   <v>      -0.34370055      -0.17510967       0.45539129 </v>
   <v>       0.41289364       0.08467144       0.45405959 </v>
   <v>      -0.35024756       0.06533936       0.44969928 </v>
   <v>      -0.17330900      -0.33461805      -0.44645173 </v>
   <v>       0.32572764      -0.33331392      -0.45417012 </v>
   <v>      -0.43028852      -0.08419718      -0.45058309 </v>
   <v>       0.33483469      -0.08153696      -0.46207472 </v>
   <v>      -0.40638886       0.40744362      -0.45433108 </v>
   <v>      -0.41035994       0.16859720      -0.46336487 </v>
   <v>      -0.42364847      -0.32790979      -0.45352365 </v>
   <v>       0.09223205      -0.32432977      -0.45076174 </v>
   <v>      -0.49703812       0.00297754      -0.49593755 </v>
   <v>       0.31918015      -0.08048083       0.39948799 </v>
   <v>      -0.32710014      -0.40063099      -0.38713519 </v>
   <v>      -0.15441812      -0.32081824       0.39359944 </v>
   <v>      -0.31268982       0.35595894      -0.39330679 </v>
   <v>       0.48840185      -0.25827897       0.49880368 </v>
   <v>      -0.14940488       0.42927026       0.39328219 </v>
   <v>       0.33008128      -0.34310774       0.39445587 </v>
   <v>       0.25227852      -0.24947592       0.49476031 </v>
   <v>      -0.09200809      -0.41636980      -0.39193671 </v>
   <v>      -0.42280315      -0.08629699       0.39111559 </v>
   <v>      -0.31745229      -0.40222715       0.45810439 </v>
   <v>      -0.32428294       0.33309385       0.45001277 </v>
   <v>      -0.40344224       0.43157304       0.39693207 </v>
   <v>      -0.08183953      -0.41014506       0.45836010 </v>
   <v>      -0.23749724      -0.49727048       0.49629673 </v>
   <v>      -0.40632707       0.17489917       0.39086622 </v>
   <v>       0.41552033      -0.17995345      -0.38880319 </v>
   <v>       0.08465641      -0.33137227       0.39528240 </v>
   <v>      -0.43125575      -0.32177381       0.39256093 </v>
   <v>       0.39963300      -0.17915439       0.45161049 </v>
  </varray>
 </structure>
 <varray name="primitive_index" >
  <v type="int" >        1 </v>
  <v type="int" >       66 </v>
  <v type="int" >       65 </v>
  <v type="int" >       61 </v>
  <v type="int" >       70 </v>
  <v type="int" >       49 </v>
  <v type="int" >       50 </v>
  <v type="int" >       18 </v>
  <v type="int" >       13 </v>
  <v type="int" >       29 </v>
  <v type="int" >        6 </v>
  <v type="int" >       17 </v>
  <v type="int" >        4 </v>
  <v type="int" >       16 </v>
  <v type="int" >        2 </v>
  <v type="int" >        5 </v>
  <v type="int" >       71 </v>
  <v type="int" >       62 </v>
  <v type="int" >       33 </v>
  <v type="int" >       64 </v>
  <v type="int" >       69 </v>
  <v type="int" >       77 </v>
  <v type="int" >       54 </v>
  <v type="int" >       30 </v>
  <v type="int" >       32 </v>
  <v type="int" >       22 </v>
  <v type="int" >       68 </v>
  <v type="int" >       78 </v>
  <v type="int" >       36 </v>
  <v type="int" >       80 </v>
  <v type="int" >       60 </v>
  <v type="int" >       51 </v>
  <v type="int" >       45 </v>
  <v type="int" >       67 </v>
  <v type="int" >       38 </v>
  <v type="int" >       37 </v>
  <v type="int" >       55 </v>
  <v type="int" >       48 </v>
  <v type="int" >       57 </v>
  <v type="int" >       34 </v>
  <v type="int" >       74 </v>
  <v type="int" >       75 </v>
  <v type="int" >       52 </v>
  <v type="int" >       53 </v>
  <v type="int" >       23 </v>
  <v type="int" >       19 </v>
  <v type="int" >       14 </v>
  <v type="int" >       20 </v>
  <v type="int" >       28 </v>
  <v type="int" >       21 </v>
  <v type="int" >       25 </v>
  <v type="int" >       15 </v>
  <v type="int" >        7 </v>
  <v type="int" >       12 </v>
  <v type="int" >        8 </v>
  <v type="int" >       10 </v>
  <v type="int" >        9 </v>
  <v type="int" >       11 </v>
  <v type="int" >        3 </v>
  <v type="int" >       73 </v>
  <v type="int" >       40 </v>
  <v type="int" >       59 </v>
  <v type="int" >       47 </v>
  <v type="int" >       58 </v>
  <v type="int" >       76 </v>
  <v type="int" >       46 </v>
  <v type="int" >       39 </v>
  <v type="int" >       72 </v>
  <v type="int" >       63 </v>
  <v type="int" >       44 </v>
  <v type="int" >       27 </v>
  <v type="int" >       26 </v>
  <v type="int" >       42 </v>
  <v type="int" >       31 </v>
  <v type="int" >       79 </v>
  <v type="int" >       41 </v>
  <v type="int" >       56 </v>
  <v type="int" >       35 </v>
  <v type="int" >       43 </v>
  <v type="int" >       24 </v>
 </varray>
 <kpoints>
  <generation param="Gamma">
   <v type="int" name="divisions">       3        3        1 </v>
   <v name="usershift">      0.00000000       0.00000000       0.00000000 </v>
   <v name="genvec1">      0.33333333      -0.00000000       0.00000000 </v>
   <v name="genvec2">      0.00000000       0.33333333       0.00000000 </v>
   <v name="genvec3">      0.00000000       0.00000000       1.00000000 </v>
   <v name="shift">      0.00000000       0.00000000       0.00000000 </v>
  </generation>
  <varray name="kpointlist" >
   <v>       0.00000000       0.00000000       0.00000000 </v>
   <v>       0.33333333      -0.00000000       0.00000000 </v>
   <v>       0.00000000       0.33333333       0.00000000 </v>
   <v>       0.33333333       0.33333333       0.00000000 </v>
   <v>      -0.33333333       0.33333333       0.00000000 </v>
  </varray>
  <varray name="weights" >
   <v>       0.11111111 </v>
   <v>       0.22222222 </v>
   <v>       0.22222222 </v>
   <v>       0.22222222 </v>
   <v>       0.22222222 </v>
  </varray>
 </kpoints>
 <parameters>
  <separator name="general" >
   <i type="string" name="SYSTEM">unknown system</i>
   <i type="logical" name="LCOMPAT"> F  </i>
  </separator>
  <separator name="electronic" >
   <i type="string" name="PREC">anorma</i>
   <i name="ENMAX">    600.00000000</i>
   <i name="ENAUG">    644.87300000</i>
   <i name="EDIFF">      0.00000100</i>
   <i type="int" name="IALGO">    38</i>
   <i type="int" name="IWAVPR">    10</i>
   <i type="int" name="NBANDS">   384</i>
   <i name="NELECT">    640.00000000</i>
   <i type="int" name="TURBO">     0</i>
   <i type="int" name="IRESTART">     0</i>
   <i type="int" name="NREBOOT">     0</i>
   <i type="int" name="NMIN">     0</i>
   <i name="EREF">      0.00000000</i>
   <separator name="electronic smearing" >
    <i type="int" name="ISMEAR">     0</i>
    <i name="SIGMA">      0.05000000</i>
    <i name="KSPACING">      0.25000000</i>
    <i type="logical" name="KGAMMA"> T  </i>
   </separator>
   <separator name="electronic projectors" >
    <i type="logical" name="LREAL"> T  </i>
    <v name="ROPT">     -0.00025000     -0.00025000     -0.00025000</v>
    <i type="int" name="LMAXPAW">  -100</i>
    <i type="int" name="LMAXMIX">     2</i>
    <i type="logical" name="NLSPLINE"> F  </i>
   </separator>
   <separator name="electronic startup" >
    <i type="int" name="ISTART">     0</i>
    <i type="int" name="ICHARG">     2</i>
    <i type="int" name="INIWAV">     1</i>
   </separator>
   <separator name="electronic spin" >
    <i type="int" name="ISPIN">     1</i>
    <i type="logical" name="LNONCOLLINEAR"> F  </i>
    <v name="MAGMOM">      1.00000000      1.00000000      1.00000000      1.00000000      1.00000000      1.00000000      1.00000000      1.00000000      1.00000000      1.00000000      1.00000000      1.00000000      1.00000000      1.00000000      1.00000000      1.00000000      1.00000000      1.00000000      1.00000000      1.00000000
      1.00000000      1.00000000      1.00000000      1.00000000      1.00000000      1.00000000      1.00000000      1.00000000      1.00000000      1.00000000      1.00000000      1.00000000      1.00000000      1.00000000      1.00000000      1.00000000      1.00000000      1.00000000      1.00000000      1.00000000
      1.00000000      1.00000000      1.00000000      1.00000000      1.00000000      1.00000000      1.00000000      1.00000000      1.00000000      1.00000000      1.00000000      1.00000000      1.00000000      1.00000000      1.00000000      1.00000000      1.00000000      1.00000000      1.00000000      1.00000000
      1.00000000      1.00000000      1.00000000      1.00000000      1.00000000      1.00000000      1.00000000      1.00000000      1.00000000      1.00000000      1.00000000      1.00000000      1.00000000      1.00000000      1.00000000      1.00000000      1.00000000      1.00000000      1.00000000      1.00000000
</v>
    <i name="NUPDOWN">     -1.00000000</i>
    <i type="logical" name="LSORBIT"> F  </i>
    <v name="SAXIS">      0.00000000      0.00000000      1.00000000</v>
    <i type="logical" name="LSPIRAL"> F  </i>
    <v name="QSPIRAL">      0.00000000      0.00000000      0.00000000</v>
    <i type="logical" name="LZEROZ"> F  </i>
   </separator>
   <separator name="electronic exchange-correlation" >
    <i type="logical" name="LASPH"> F  </i>
    <i type="logical" name="LMETAGGA"> F  </i>
   </separator>
   <separator name="electronic convergence" >
    <i type="int" name="NELM">    60</i>
    <i type="int" name="NELMDL">    -5</i>
    <i type="int" name="NELMIN">     2</i>
    <i name="ENINI">    600.00000000</i>
    <separator name="electronic convergence detail" >
     <i type="logical" name="LDIAG"> T  </i>
     <i type="logical" name="LSUBROT"> F  </i>
     <i name="WEIMIN">      0.00000000</i>
     <i name="EBREAK">      0.00000000</i>
     <i name="DEPER">      0.30000000</i>
     <i type="int" name="NRMM">     4</i>
     <i name="TIME">      0.40000000</i>
    </separator>
   </separator>
   <separator name="electronic mixer" >
    <i name="AMIX">      0.40000000</i>
    <i name="BMIX">      1.00000000</i>
    <i name="AMIN">      0.10000000</i>
    <i name="AMIX_MAG">      1.60000000</i>
    <i name="BMIX_MAG">      1.00000000</i>
    <separator name="electronic mixer details" >
     <i type="int" name="IMIX">     4</i>
     <i type="logical" name="MIXFIRST"> F  </i>
     <i type="int" name="MAXMIX">   -45</i>
     <i name="WC">    100.00000000</i>
     <i type="int" name="INIMIX">     1</i>
     <i type="int" name="MIXPRE">     1</i>
     <i type="int" name="MREMOVE">     5</i>
    </separator>
   </separator>
   <separator name="electronic dipolcorrection" >
    <i type="logical" name="LDIPOL"> F  </i>
    <i type="logical" name="LMONO"> F  </i>
    <i type="int" name="IDIPOL">     0</i>
    <i name="EPSILON">      1.00000000</i>
    <v name="DIPOL">   -100.00000000   -100.00000000   -100.00000000</v>
    <i name="EFIELD">      0.00000000</i>
   </separator>
  </separator>
  <separator name="grids" >
   <i type="int" name="NGX">   112</i>
   <i type="int" name="NGY">   112</i>
   <i type="int" name="NGZ">   224</i>
   <i type="int" name="NGXF">   224</i>
   <i type="int" name="NGYF">   224</i>
   <i type="int" name="NGZF">   448</i>
   <i type="logical" name="ADDGRID"> T  </i>
  </separator>
  <separator name="ionic" >
   <i type="int" name="NSW">     1</i>
   <i type="int" name="IBRION">    -1</i>
   <i type="int" name="MDALGO">     0</i>
   <i type="int" name="ISIF">     2</i>
   <i name="PSTRESS">      0.00000000</i>
   <i name="EDIFFG">     -0.01000000</i>
   <i type="int" name="NFREE">     0</i>
   <i name="POTIM">      1.00000000</i>
   <i name="SMASS">     -3.00000000</i>
   <i name="SCALEE">      1.00000000</i>
  </separator>
  <separator name="ionic md" >
   <i name="TEBEG">      0.00010000</i>
   <i name="TEEND">      0.00010000</i>
   <i type="int" name="NBLOCK">     1</i>
   <i type="int" name="KBLOCK">     1</i>
   <i type="int" name="NPACO">   256</i>
   <i name="APACO">     16.00000000</i>
  </separator>
  <separator name="symmetry" >
   <i type="int" name="ISYM">     2</i>
   <i name="SYMPREC">      0.00001000</i>
  </separator>
  <separator name="dos" >
   <i type="int" name="LORBIT">     0</i>
   <v name="RWIGS">     -1.00000000     -1.00000000     -1.00000000</v>
   <i type="int" name="NEDOS">   301</i>
   <i name="EMIN">     10.00000000</i>
   <i name="EMAX">    -10.00000000</i>
   <i name="EFERMI">      0.00000000</i>
  </separator>
  <separator name="writing" >
   <i type="int" name="NWRITE">     2</i>
   <i type="logical" name="LWAVE"> F  </i>
   <i type="logical" name="LDOWNSAMPLE"> F  </i>
   <i type="logical" name="LCHARG"> F  </i>
   <i type="logical" name="LPARD"> F  </i>
   <i type="logical" name="LVTOT"> F  </i>
   <i type="logical" name="LVHAR"> F  </i>
   <i type="logical" name="LELF"> F  </i>
   <i type="logical" name="LOPTICS"> F  </i>
   <v name="STM">      0.00000000      0.00000000      0.00000000      0.00000000      0.00000000      0.00000000      0.00000000</v>
  </separator>
  <separator name="performance" >
   <i type="int" name="NPAR">     4</i>
   <i type="int" name="NSIM">     4</i>
   <i type="int" name="NBLK">    -1</i>
   <i type="logical" name="LPLANE"> T  </i>
   <i type="logical" name="LSCALAPACK"> F  </i>
   <i type="logical" name="LSCAAWARE"> F  </i>
   <i type="logical" name="LSCALU"> F  </i>
   <i type="logical" name="LASYNC"> F  </i>
   <i type="logical" name="LORBITALREAL"> F  </i>
  </separator>
  <separator name="miscellaneous" >
   <i type="int" name="IDIOT">     3</i>
   <i type="int" name="ISPECIAL">     0</i>
   <i type="logical" name="LMUSIC"> F  </i>
   <v name="POMASS">     44.95600000     35.45300000     12.01100000</v>
   <v name="DARWINR">      0.00000000      0.00000000      0.00000000</v>
   <v name="DARWINV">      1.00000000      1.00000000      1.00000000</v>
   <i type="logical" name="LCORR"> T  </i>
  </separator>
  <i type="logical" name="GGA_COMPAT"> T  </i>
  <i type="logical" name="LBERRY"> F  </i>
  <i type="int" name="ICORELEVEL">     0</i>
  <i type="logical" name="LDAU"> F  </i>
  <i type="int" name="I_CONSTRAINED_M">     0</i>
  <separator name="electronic exchange-correlation" >
   <i type="string" name="GGA">--</i>
   <i type="int" name="VOSKOWN">     0</i>
   <i type="logical" name="LHFCALC"> F  </i>
   <i type="string" name="PRECFOCK"></i>
   <i type="logical" name="LSYMGRAD"> F  </i>
   <i type="logical" name="LHFONE"> F  </i>
   <i type="logical" name="LRHFCALC"> F  </i>
   <i type="logical" name="LTHOMAS"> F  </i>
   <i type="logical" name="LMODELHF"> F  </i>
   <i name="ENCUT4O">     -1.00000000</i>
   <i type="int" name="EXXOEP">     0</i>
   <i type="int" name="FOURORBIT">     0</i>
   <i name="AEXX">      0.00000000</i>
   <i name="HFALPHA">      0.00000000</i>
   <i name="MCALPHA">      0.00000000</i>
   <i name="ALDAX">      1.00000000</i>
   <i name="AGGAX">      1.00000000</i>
   <i name="ALDAC">      1.00000000</i>
   <i name="AGGAC">      1.00000000</i>
   <i type="int" name="NKREDX">     1</i>
   <i type="int" name="NKREDY">     1</i>
   <i type="int" name="NKREDZ">     1</i>
   <i type="logical" name="SHIFTRED"> F  </i>
   <i type="logical" name="ODDONLY"> F  </i>
   <i type="logical" name="EVENONLY"> F  </i>
   <i type="int" name="LMAXFOCK">     0</i>
   <i type="int" name="NMAXFOCKAE">     0</i>
   <i type="logical" name="LFOCKAEDFT"> F  </i>
   <i name="HFSCREEN">      0.00000000</i>
   <i name="HFSCREENC">      0.00000000</i>
   <i type="int" name="NBANDSGWLOW">     0</i>
  </separator>
  <separator name="vdW DFT" >
   <i type="logical" name="LUSE_VDW"> F  </i>
   <i name="Zab_VDW">     -0.84910000</i>
   <i name="PARAM1">      0.12340000</i>
   <i name="PARAM2">      1.00000000</i>
   <i name="PARAM3">      0.00000000</i>
  </separator>
  <separator name="model GW" >
   <i type="int" name="MODEL_GW">     0</i>
   <i name="MODEL_EPS0">     34.36971577</i>
   <i name="MODEL_ALPHA">      1.00000000</i>
  </separator>
  <separator name="linear response parameters" >
   <i type="logical" name="LEPSILON"> F  </i>
   <i type="logical" name="LRPA"> F  </i>
   <i type="logical" name="LNABLA"> F  </i>
   <i type="logical" name="LVEL"> F  </i>
   <i type="int" name="KINTER">     0</i>
   <i name="CSHIFT">      0.10000000</i>
   <i name="OMEGAMAX">     -1.00000000</i>
   <i name="DEG_THRESHOLD">      0.00200000</i>
   <i name="RTIME">     -0.10000000</i>
   <i name="WPLASMAI">      0.00000000</i>
   <v name="DFIELD">      0.00000000      0.00000000      0.00000000</v>
   <v name="WPLASMA">      0.00000000      0.00000000      0.00000000      0.00000000      0.00000000      0.00000000      0.00000000      0.00000000      0.00000000</v>
  </separator>
  <separator name="orbital magnetization" >
   <i type="logical" name="NUCIND"> F  </i>
   <v name="MAGPOS">      0.00000000      0.00000000      0.00000000</v>
   <i type="logical" name="LNICSALL"> T  </i>
   <i type="logical" name="ORBITALMAG"> F  </i>
   <i type="logical" name="LMAGBLOCH"> F  </i>
   <i type="logical" name="LCHIMAG"> F  </i>
   <i type="logical" name="LGAUGE"> T  </i>
   <i type="int" name="MAGATOM">     0</i>
   <v name="MAGDIPOL">      0.00000000      0.00000000      0.00000000</v>
   <v name="AVECCONST">      0.00000000      0.00000000      0.00000000</v>
  </separator>
  <separator name="response functions" >
   <i type="logical" name="LADDER"> F  </i>
   <i type="logical" name="LRPAFORCE"> F  </i>
   <i type="logical" name="LFXC"> F  </i>
   <i type="logical" name="LHARTREE"> T  </i>
   <i type="int" name="IBSE">     0</i>
   <v type="int" name="KPOINT">    -1     0     0     0</v>
   <i type="logical" name="LTCTE"> F  </i>
   <i type="logical" name="LTETE"> F  </i>
   <i type="logical" name="LTRIPLET"> F  </i>
   <i type="logical" name="LFXCEPS"> F  </i>
   <i type="logical" name="LFXHEG"> F  </i>
   <i type="int" name="NATURALO">     2</i>
   <i type="logical" name="L2ORDER"> F  </i>
   <i type="logical" name="LMP2LT"> F  </i>
   <i type="logical" name="LUSEW"> F  </i>
   <i name="ENCUTGW">     -2.00000000</i>
   <i name="ENCUTGWSOFT">     -2.00000000</i>
   <i name="ENCUTLF">     -1.00000000</i>
   <i type="int" name="LMAXMP2">    -1</i>
   <i name="SCISSOR">      0.00000000</i>
   <i type="int" name="NOMEGA">     0</i>
   <i type="int" name="NOMEGAR">     0</i>
   <i type="int" name="NBANDSGW">    -1</i>
   <i type="int" name="NBANDSO">    -1</i>
   <i type="int" name="NBANDSV">    -1</i>
   <i type="int" name="NELM">     1</i>
   <i type="int" name="NELMHF">     1</i>
   <i type="int" name="DIM">     3</i>
   <i type="int" name="ANTIRES">     0</i>
   <i name="OMEGAMAX">    -30.00000000</i>
   <i name="OMEGAMIN">    -30.00000000</i>
   <i name="OMEGATL">   -200.00000000</i>
   <i type="int" name="OMEGAGRID">   140</i>
   <i name="CSHIFT">     -0.10000000</i>
   <i type="logical" name="SELFENERGY"> F  </i>
   <i type="logical" name="LSPECTRAL"> F  </i>
   <i type="logical" name="LSPECTRALGW"> F  </i>
   <i type="logical" name="LSINGLES"> F  </i>
   <i type="logical" name="LFERMIGW"> F  </i>
   <i type="logical" name="ODDONLYGW"> F  </i>
   <i type="logical" name="EVENONLYGW"> F  </i>
   <i type="int" name="NKREDLFX">     1</i>
   <i type="int" name="NKREDLFY">     1</i>
   <i type="int" name="NKREDLFZ">     1</i>
   <i type="int" name="MAXMEM">  2800</i>
   <i type="int" name="TELESCOPE">     0</i>
   <i type="int" name="TAUPAR">     1</i>
   <i type="int" name="OMEGAPAR">    -1</i>
   <i name="LAMBDA">      1.00000000</i>
  </separator>
  <separator name="External order field" >
   <i name="OFIELD_KAPPA">      0.00000000</i>
   <v name="OFIELD_K">      0.00000000      0.00000000      0.00000000</v>
   <i name="OFIELD_Q6_NEAR">      0.00000000</i>
   <i name="OFIELD_Q6_FAR">      0.00000000</i>
   <i name="OFIELD_A">      0.00000000</i>
  </separator>
 </parameters>
 <atominfo>
  <atoms>      80 </atoms>
  <types>       3 </types>
  <array name="atoms" >
   <dimension dim="1">ion</dimension>
   <field type="string">element</field>
   <field type="int">atomtype</field>
   <set>
    <rc><c>Sc</c><c>   1</c></rc>
    <rc><c>Sc</c><c>   1</c></rc>
    <rc><c>Sc</c><c>   1</c></rc>
    <rc><c>Sc</c><c>   1</c></rc>
    <rc><c>Sc</c><c>   1</c></rc>
    <rc><c>Sc</c><c>   1</c></rc>
    <rc><c>Sc</c><c>   1</c></rc>
    <rc><c>Sc</c><c>   1</c></rc>
    <rc><c>Sc</c><c>   1</c></rc>
    <rc><c>Sc</c><c>   1</c></rc>
    <rc><c>Sc</c><c>   1</c></rc>
    <rc><c>Sc</c><c>   1</c></rc>
    <rc><c>Sc</c><c>   1</c></rc>
    <rc><c>Sc</c><c>   1</c></rc>
    <rc><c>Sc</c><c>   1</c></rc>
    <rc><c>Sc</c><c>   1</c></rc>
    <rc><c>Sc</c><c>   1</c></rc>
    <rc><c>Sc</c><c>   1</c></rc>
    <rc><c>Sc</c><c>   1</c></rc>
    <rc><c>Sc</c><c>   1</c></rc>
    <rc><c>Sc</c><c>   1</c></rc>
    <rc><c>Sc</c><c>   1</c></rc>
    <rc><c>Sc</c><c>   1</c></rc>
    <rc><c>Sc</c><c>   1</c></rc>
    <rc><c>Sc</c><c>   1</c></rc>
    <rc><c>Sc</c><c>   1</c></rc>
    <rc><c>Sc</c><c>   1</c></rc>
    <rc><c>Sc</c><c>   1</c></rc>
    <rc><c>Sc</c><c>   1</c></rc>
    <rc><c>Sc</c><c>   1</c></rc>
    <rc><c>Sc</c><c>   1</c></rc>
    <rc><c>Sc</c><c>   1</c></rc>
    <rc><c>Cl</c><c>   2</c></rc>
    <rc><c>Cl</c><c>   2</c></rc>
    <rc><c>Cl</c><c>   2</c></rc>
    <rc><c>Cl</c><c>   2</c></rc>
    <rc><c>Cl</c><c>   2</c></rc>
    <rc><c>Cl</c><c>   2</c></rc>
    <rc><c>Cl</c><c>   2</c></rc>
    <rc><c>Cl</c><c>   2</c></rc>
    <rc><c>Cl</c><c>   2</c></rc>
    <rc><c>Cl</c><c>   2</c></rc>
    <rc><c>Cl</c><c>   2</c></rc>
    <rc><c>Cl</c><c>   2</c></rc>
    <rc><c>Cl</c><c>   2</c></rc>
    <rc><c>Cl</c><c>   2</c></rc>
    <rc><c>Cl</c><c>   2</c></rc>
    <rc><c>Cl</c><c>   2</c></rc>
    <rc><c>Cl</c><c>   2</c></rc>
    <rc><c>Cl</c><c>   2</c></rc>
    <rc><c>Cl</c><c>   2</c></rc>
    <rc><c>Cl</c><c>   2</c></rc>
    <rc><c>Cl</c><c>   2</c></rc>
    <rc><c>Cl</c><c>   2</c></rc>
    <rc><c>Cl</c><c>   2</c></rc>
    <rc><c>Cl</c><c>   2</c></rc>
    <rc><c>Cl</c><c>   2</c></rc>
    <rc><c>Cl</c><c>   2</c></rc>
    <rc><c>Cl</c><c>   2</c></rc>
    <rc><c>Cl</c><c>   2</c></rc>
    <rc><c>Cl</c><c>   2</c></rc>
    <rc><c>Cl</c><c>   2</c></rc>
    <rc><c>Cl</c><c>   2</c></rc>
    <rc><c>Cl</c><c>   2</c></rc>
    <rc><c>C </c><c>   3</c></rc>
    <rc><c>C </c><c>   3</c></rc>
    <rc><c>C </c><c>   3</c></rc>
    <rc><c>C </c><c>   3</c></rc>
    <rc><c>C </c><c>   3</c></rc>
    <rc><c>C </c><c>   3</c></rc>
    <rc><c>C </c><c>   3</c></rc>
    <rc><c>C </c><c>   3</c></rc>
    <rc><c>C </c><c>   3</c></rc>
    <rc><c>C </c><c>   3</c></rc>
    <rc><c>C </c><c>   3</c></rc>
    <rc><c>C </c><c>   3</c></rc>
    <rc><c>C </c><c>   3</c></rc>
    <rc><c>C </c><c>   3</c></rc>
    <rc><c>C </c><c>   3</c></rc>
    <rc><c>C </c><c>   3</c></rc>
   </set>
  </array>
  <array name="atomtypes" >
   <dimension dim="1">type</dimension>
   <field type="int">atomspertype</field>
   <field type="string">element</field>
   <field>mass</field>
   <field>valence</field>
   <field type="string">pseudopotential</field>
   <set>
    <rc><c>  32</c><c>Sc</c><c>     44.95600000</c><c>     11.00000000</c><c>  PAW_PBE Sc_sv 07Sep2000               </c></rc>
    <rc><c>  32</c><c>Cl</c><c>     35.45300000</c><c>      7.00000000</c><c>  PAW_PBE Cl 06Sep2000                  </c></rc>
    <rc><c>  16</c><c>C </c><c>     12.01100000</c><c>      4.00000000</c><c>  PAW_PBE C 08Apr2002                   </c></rc>
   </set>
  </array>
 </atominfo>
 <structure name="initialpos" >
  <crystal>
   <varray name="basis" >
    <v>      13.79398668       0.00000000       0.00000000 </v>
    <v>      -6.89699334      11.94594288       0.00000000 </v>
    <v>       0.00000000       0.00000000      27.81022107 </v>
   </varray>
   <i name="volume">   4582.62876984 </i>
   <varray name="rec_basis" >
    <v>       0.07249536       0.04185521       0.00000000 </v>
    <v>       0.00000000       0.08371043       0.00000000 </v>
    <v>       0.00000000       0.00000000       0.03595800 </v>
   </varray>
  </crystal>
  <varray name="positions" >
   <v>       0.07473594       0.16513327       0.54755983 </v>
   <v>       0.08762430       0.43202932       0.54168439 </v>
   <v>       0.09223205       0.67567023       0.54923826 </v>
   <v>       0.08734067       0.92463574       0.54166513 </v>
   <v>       0.33616110       0.16585963       0.54276003 </v>
   <v>       0.32419228       0.40026094       0.54994612 </v>
   <v>       0.32572764       0.66668608       0.54582988 </v>
   <v>       0.33483469       0.91846304       0.53792528 </v>
   <v>       0.58964006       0.16859720       0.53663513 </v>
   <v>       0.59361114       0.40744362       0.54566892 </v>
   <v>       0.57635153       0.67209021       0.54647635 </v>
   <v>       0.56971148       0.91580282       0.54941691 </v>
   <v>       0.84656664       0.17696578       0.54204198 </v>
   <v>       0.83727363       0.41795069       0.54328899 </v>
   <v>       0.82669100       0.66538195       0.55354827 </v>
   <v>       0.82742202       0.91061121       0.54109856 </v>
   <v>       0.16615270       0.07507143       0.45440221 </v>
   <v>       0.17413987       0.32935997       0.45675637 </v>
   <v>       0.15971727       0.57760832       0.45755127 </v>
   <v>       0.16456963       0.83062161       0.45781619 </v>
   <v>       0.41289364       0.08467144       0.45405959 </v>
   <v>       0.43696499       0.33772268       0.45431977 </v>
   <v>       0.41568606       0.56934871       0.45853130 </v>
   <v>       0.39963300       0.82084561       0.45161049 </v>
   <v>       0.64975244       0.06533936       0.44969928 </v>
   <v>       0.67571706       0.33309385       0.45001277 </v>
   <v>       0.68254771       0.59777285       0.45810439 </v>
   <v>       0.65629945       0.82489033       0.45539129 </v>
   <v>       0.90267344       0.06914949       0.45473966 </v>
   <v>       0.92308817       0.33487506       0.45216458 </v>
   <v>       0.91816047       0.58985494       0.45836010 </v>
   <v>       0.90607398       0.82864842       0.45198213 </v>
   <v>       0.07692244       0.15410561       0.39536029 </v>
   <v>       0.08557185       0.41959004       0.39301047 </v>
   <v>       0.08465641       0.66862773       0.39528240 </v>
   <v>       0.07432131       0.92867070       0.39482689 </v>
   <v>       0.32079023       0.15433658       0.39657815 </v>
   <v>       0.32707810       0.40814256       0.39541231 </v>
   <v>       0.33008128       0.65689226       0.39445587 </v>
   <v>       0.31918015       0.91951917       0.39948799 </v>
   <v>       0.59367293       0.17489917       0.39086622 </v>
   <v>       0.59655776       0.43157304       0.39693207 </v>
   <v>       0.56874425       0.67822619       0.39256093 </v>
   <v>       0.57719685       0.91370301       0.39111559 </v>
   <v>       0.84241789       0.17845211       0.39235385 </v>
   <v>       0.85059512       0.42927026       0.39328219 </v>
   <v>       0.84558188       0.67918176       0.39359944 </v>
   <v>       0.82948215       0.91207149       0.39385536 </v>
   <v>       0.15643978       0.07262324       0.59980880 </v>
   <v>       0.17094806       0.32464518       0.61158456 </v>
   <v>       0.13309913       0.56104040       0.61196894 </v>
   <v>       0.19259624       0.84482329       0.60106902 </v>
   <v>       0.42659342       0.09309767       0.60633098 </v>
   <v>       0.44258947       0.34642396       0.60412710 </v>
   <v>       0.41073369       0.57391258       0.60546054 </v>
   <v>       0.41552033       0.82004655       0.61119681 </v>
   <v>       0.66359482       0.08511260       0.61151244 </v>
   <v>       0.68731018       0.35595894       0.60669321 </v>
   <v>       0.67289986       0.59936901       0.61286481 </v>
   <v>       0.66750619       0.83352477       0.60239273 </v>
   <v>       0.92210433       0.08815768       0.60684791 </v>
   <v>       0.91074337       0.33248993       0.60180623 </v>
   <v>       0.90799191       0.58363020       0.60806329 </v>
   <v>       0.92163970       0.83881336       0.60767464 </v>
   <v>       0.00101412       0.99770658       0.50043165 </v>
   <v>       0.99694094       0.24625013       0.49705747 </v>
   <v>       0.00560114       0.51065659       0.50555413 </v>
   <v>       0.01485299       0.76480634       0.49911026 </v>
   <v>       0.25535277       0.99781714       0.49804967 </v>
   <v>       0.24901086       0.23580666       0.50076063 </v>
   <v>       0.25598578       0.49891161       0.50160658 </v>
   <v>       0.25227852       0.75052408       0.49476031 </v>
   <v>       0.50296188       0.00297754       0.50406245 </v>
   <v>       0.50227000       0.25251546       0.49654882 </v>
   <v>       0.50836902       0.49505776       0.49702143 </v>
   <v>       0.48840185       0.74172103       0.49880368 </v>
   <v>       0.72719461       0.98298232       0.49691128 </v>
   <v>       0.75738030       0.25959480       0.49817632 </v>
   <v>       0.76250276       0.50272952       0.49629673 </v>
   <v>       0.74223863       0.75805982       0.49695528 </v>
  </varray>
  <varray name="velocities" >
   <v>       0.00000000       0.00000000       0.00000000 </v>
   <v>       0.00000000       0.00000000       0.00000000 </v>
   <v>       0.00000000       0.00000000       0.00000000 </v>
   <v>       0.00000000       0.00000000       0.00000000 </v>
   <v>       0.00000000       0.00000000       0.00000000 </v>
   <v>       0.00000000       0.00000000       0.00000000 </v>
   <v>       0.00000000       0.00000000       0.00000000 </v>
   <v>       0.00000000       0.00000000       0.00000000 </v>
   <v>       0.00000000       0.00000000       0.00000000 </v>
   <v>       0.00000000       0.00000000       0.00000000 </v>
   <v>       0.00000000       0.00000000       0.00000000 </v>
   <v>       0.00000000       0.00000000       0.00000000 </v>
   <v>       0.00000000       0.00000000       0.00000000 </v>
   <v>       0.00000000       0.00000000       0.00000000 </v>
   <v>       0.00000000       0.00000000       0.00000000 </v>
   <v>       0.00000000       0.00000000       0.00000000 </v>
   <v>       0.00000000       0.00000000       0.00000000 </v>
   <v>       0.00000000       0.00000000       0.00000000 </v>
   <v>       0.00000000       0.00000000       0.00000000 </v>
   <v>       0.00000000       0.00000000       0.00000000 </v>
   <v>       0.00000000       0.00000000       0.00000000 </v>
   <v>       0.00000000       0.00000000       0.00000000 </v>
   <v>       0.00000000       0.00000000       0.00000000 </v>
   <v>       0.00000000       0.00000000       0.00000000 </v>
   <v>       0.00000000       0.00000000       0.00000000 </v>
   <v>       0.00000000       0.00000000       0.00000000 </v>
   <v>       0.00000000       0.00000000       0.00000000 </v>
   <v>       0.00000000       0.00000000       0.00000000 </v>
   <v>       0.00000000       0.00000000       0.00000000 </v>
   <v>       0.00000000       0.00000000       0.00000000 </v>
   <v>       0.00000000       0.00000000       0.00000000 </v>
   <v>       0.00000000       0.00000000       0.00000000 </v>
   <v>       0.00000000       0.00000000       0.00000000 </v>
   <v>       0.00000000       0.00000000       0.00000000 </v>
   <v>       0.00000000       0.00000000       0.00000000 </v>
   <v>       0.00000000       0.00000000       0.00000000 </v>
   <v>       0.00000000       0.00000000       0.00000000 </v>
   <v>       0.00000000       0.00000000       0.00000000 </v>
   <v>       0.00000000       0.00000000       0.00000000 </v>
   <v>       0.00000000       0.00000000       0.00000000 </v>
   <v>       0.00000000       0.00000000       0.00000000 </v>
   <v>       0.00000000       0.00000000       0.00000000 </v>
   <v>       0.00000000       0.00000000       0.00000000 </v>
   <v>       0.00000000       0.00000000       0.00000000 </v>
   <v>       0.00000000       0.00000000       0.00000000 </v>
   <v>       0.00000000       0.00000000       0.00000000 </v>
   <v>       0.00000000       0.00000000       0.00000000 </v>
   <v>       0.00000000       0.00000000       0.00000000 </v>
   <v>       0.00000000       0.00000000       0.00000000 </v>
   <v>       0.00000000       0.00000000       0.00000000 </v>
   <v>       0.00000000       0.00000000       0.00000000 </v>
   <v>       0.00000000       0.00000000       0.00000000 </v>
   <v>       0.00000000       0.00000000       0.00000000 </v>
   <v>       0.00000000       0.00000000       0.00000000 </v>
   <v>       0.00000000       0.00000000       0.00000000 </v>
   <v>       0.00000000       0.00000000       0.00000000 </v>
   <v>       0.00000000       0.00000000       0.00000000 </v>
   <v>       0.00000000       0.00000000       0.00000000 </v>
   <v>       0.00000000       0.00000000       0.00000000 </v>
   <v>       0.00000000       0.00000000       0.00000000 </v>
   <v>       0.00000000       0.00000000       0.00000000 </v>
   <v>       0.00000000       0.00000000       0.00000000 </v>
   <v>       0.00000000       0.00000000       0.00000000 </v>
   <v>       0.00000000       0.00000000       0.00000000 </v>
   <v>       0.00000000       0.00000000       0.00000000 </v>
   <v>       0.00000000       0.00000000       0.00000000 </v>
   <v>       0.00000000       0.00000000       0.00000000 </v>
   <v>       0.00000000       0.00000000       0.00000000 </v>
   <v>       0.00000000       0.00000000       0.00000000 </v>
   <v>       0.00000000       0.00000000       0.00000000 </v>
   <v>       0.00000000       0.00000000       0.00000000 </v>
   <v>       0.00000000       0.00000000       0.00000000 </v>
   <v>       0.00000000       0.00000000       0.00000000 </v>
   <v>       0.00000000       0.00000000       0.00000000 </v>
   <v>       0.00000000       0.00000000       0.00000000 </v>
   <v>       0.00000000       0.00000000       0.00000000 </v>
   <v>       0.00000000       0.00000000       0.00000000 </v>
   <v>       0.00000000       0.00000000       0.00000000 </v>
   <v>       0.00000000       0.00000000       0.00000000 </v>
   <v>       0.00000000       0.00000000       0.00000000 </v>
  </varray>
 </structure>
 <calculation>
  <scstep>
   <time name="dav">   50.16   50.16</time>
   <time name="total">   50.99   51.00</time>
   <energy>
    <i name="alphaZ">    784.57699423 </i>
    <i name="ewald"> 250816.65766924 </i>
    <i name="hartreedc">-298484.60101294 </i>
    <i name="XCdc">   2502.09303846 </i>
    <i name="pawpsdc">  43679.68029659 </i>
    <i name="pawaedc"> -43417.33247688 </i>
    <i name="eentropy">     -0.05910550 </i>
    <i name="bandstr">     80.80844385 </i>
    <i name="atom">  56210.72393729 </i>
    <i name="e_fr_energy">  12172.54778434 </i>
    <i name="e_wo_entrp">  12172.60688984 </i>
    <i name="e_0_energy">  12172.57733709 </i>
   </energy>
  </scstep>
  <scstep>
   <time name="dav">   56.84   56.85</time>
   <time name="total">   56.84   56.85</time>
   <energy>
    <i name="e_fr_energy">   1723.03567865 </i>
    <i name="e_wo_entrp">   1723.07547459 </i>
    <i name="e_0_energy">   1723.05557662 </i>
   </energy>
  </scstep>
  <scstep>
   <time name="dav">   70.98   70.99</time>
   <time name="total">   70.98   70.99</time>
   <energy>
    <i name="e_fr_energy">   -406.87689971 </i>
    <i name="e_wo_entrp">   -406.87689971 </i>
    <i name="e_0_energy">   -406.87689971 </i>
   </energy>
  </scstep>
  <scstep>
   <time name="dav">   64.80   64.81</time>
   <time name="total">   64.80   64.81</time>
   <energy>
    <i name="e_fr_energy">   -641.66544759 </i>
    <i name="e_wo_entrp">   -641.66544759 </i>
    <i name="e_0_energy">   -641.66544759 </i>
   </energy>
  </scstep>
  <scstep>
   <time name="dav">   64.67   64.67</time>
   <time name="total">   68.55   68.56</time>
   <energy>
    <i name="e_fr_energy">   -652.06338578 </i>
    <i name="e_wo_entrp">   -652.06338578 </i>
    <i name="e_0_energy">   -652.06338578 </i>
   </energy>
  </scstep>
  <scstep>
   <time name="dav">   62.73   62.73</time>
   <time name="total">   67.43   67.44</time>
   <energy>
    <i name="e_fr_energy">   -521.27644685 </i>
    <i name="e_wo_entrp">   -521.27644685 </i>
    <i name="e_0_energy">   -521.27644685 </i>
   </energy>
  </scstep>
  <scstep>
   <time name="dav">   63.21   63.21</time>
   <time name="total">   67.91   67.92</time>
   <energy>
    <i name="e_fr_energy">   -526.11987927 </i>
    <i name="e_wo_entrp">   -526.11987927 </i>
    <i name="e_0_energy">   -526.11987927 </i>
   </energy>
  </scstep>
  <scstep>
   <time name="dav">   62.63   62.64</time>
   <time name="total">   67.31   67.32</time>
   <energy>
    <i name="e_fr_energy">   -523.83949339 </i>
    <i name="e_wo_entrp">   -523.83949339 </i>
    <i name="e_0_energy">   -523.83949339 </i>
   </energy>
  </scstep>
  <scstep>
   <time name="dav">   59.12   59.12</time>
   <time name="total">   63.83   63.84</time>
   <energy>
    <i name="e_fr_energy">   -523.36182279 </i>
    <i name="e_wo_entrp">   -523.36182279 </i>
    <i name="e_0_energy">   -523.36182279 </i>
   </energy>
  </scstep>
  <scstep>
   <time name="dav">   60.97   60.98</time>
   <time name="total">   65.67   65.68</time>
   <energy>
    <i name="e_fr_energy">   -523.19984795 </i>
    <i name="e_wo_entrp">   -523.19984795 </i>
    <i name="e_0_energy">   -523.19984795 </i>
   </energy>
  </scstep>
  <scstep>
   <time name="dav">   61.22   61.23</time>
   <time name="total">   65.92   65.93</time>
   <energy>
    <i name="e_fr_energy">   -523.17826388 </i>
    <i name="e_wo_entrp">   -523.17826388 </i>
    <i name="e_0_energy">   -523.17826388 </i>
   </energy>
  </scstep>
  <scstep>
   <time name="dav">   63.34   63.34</time>
   <time name="total">   68.04   68.06</time>
   <energy>
    <i name="e_fr_energy">   -523.16344844 </i>
    <i name="e_wo_entrp">   -523.16344844 </i>
    <i name="e_0_energy">   -523.16344844 </i>
   </energy>
  </scstep>
  <scstep>
   <time name="dav">   59.25   59.25</time>
   <time name="total">   63.97   63.99</time>
   <energy>
    <i name="e_fr_energy">   -523.16088269 </i>
    <i name="e_wo_entrp">   -523.16088269 </i>
    <i name="e_0_energy">   -523.16088269 </i>
   </energy>
  </scstep>
  <scstep>
   <time name="dav">   59.54   59.54</time>
   <time name="total">   64.23   64.24</time>
   <energy>
    <i name="e_fr_energy">   -523.15915611 </i>
    <i name="e_wo_entrp">   -523.15915611 </i>
    <i name="e_0_energy">   -523.15915611 </i>
   </energy>
  </scstep>
  <scstep>
   <time name="dav">   59.32   59.32</time>
   <time name="total">   64.05   64.06</time>
   <energy>
    <i name="e_fr_energy">   -523.16012169 </i>
    <i name="e_wo_entrp">   -523.16012169 </i>
    <i name="e_0_energy">   -523.16012169 </i>
   </energy>
  </scstep>
  <scstep>
   <time name="dav">   62.36   62.36</time>
   <time name="total">   67.08   67.09</time>
   <energy>
    <i name="e_fr_energy">   -523.16149594 </i>
    <i name="e_wo_entrp">   -523.16149594 </i>
    <i name="e_0_energy">   -523.16149594 </i>
   </energy>
  </scstep>
  <scstep>
   <time name="dav">   60.65   60.65</time>
   <time name="total">   65.36   65.37</time>
   <energy>
    <i name="e_fr_energy">   -523.16395837 </i>
    <i name="e_wo_entrp">   -523.16395837 </i>
    <i name="e_0_energy">   -523.16395837 </i>
   </energy>
  </scstep>
  <scstep>
   <time name="dav">   56.02   56.02</time>
   <time name="total">   60.73   60.74</time>
   <energy>
    <i name="e_fr_energy">   -523.16661967 </i>
    <i name="e_wo_entrp">   -523.16661967 </i>
    <i name="e_0_energy">   -523.16661967 </i>
   </energy>
  </scstep>
  <scstep>
   <time name="dav">   56.39   56.39</time>
   <time name="total">   61.13   61.14</time>
   <energy>
    <i name="e_fr_energy">   -523.16785428 </i>
    <i name="e_wo_entrp">   -523.16785428 </i>
    <i name="e_0_energy">   -523.16785428 </i>
   </energy>
  </scstep>
  <scstep>
   <time name="dav">   48.05   48.06</time>
   <time name="total">   52.80   52.81</time>
   <energy>
    <i name="e_fr_energy">   -523.16931179 </i>
    <i name="e_wo_entrp">   -523.16931179 </i>
    <i name="e_0_energy">   -523.16931179 </i>
   </energy>
  </scstep>
  <scstep>
   <time name="dav">   52.07   52.07</time>
   <time name="total">   56.79   56.80</time>
   <energy>
    <i name="e_fr_energy">   -523.16992519 </i>
    <i name="e_wo_entrp">   -523.16992519 </i>
    <i name="e_0_energy">   -523.16992519 </i>
   </energy>
  </scstep>
  <scstep>
   <time name="dav">   48.15   48.15</time>
   <time name="total">   52.87   52.88</time>
   <energy>
    <i name="e_fr_energy">   -523.17014306 </i>
    <i name="e_wo_entrp">   -523.17014306 </i>
    <i name="e_0_energy">   -523.17014306 </i>
   </energy>
  </scstep>
  <scstep>
   <time name="dav">   47.74   47.74</time>
   <time name="total">   52.47   52.47</time>
   <energy>
    <i name="e_fr_energy">   -523.17069145 </i>
    <i name="e_wo_entrp">   -523.17069145 </i>
    <i name="e_0_energy">   -523.17069145 </i>
   </energy>
  </scstep>
  <scstep>
   <time name="dav">   41.91   41.91</time>
   <time name="total">   46.61   46.62</time>
   <energy>
    <i name="e_fr_energy">   -523.17110132 </i>
    <i name="e_wo_entrp">   -523.17110132 </i>
    <i name="e_0_energy">   -523.17110132 </i>
   </energy>
  </scstep>
  <scstep>
   <time name="dav">   40.02   40.02</time>
   <time name="total">   44.74   44.75</time>
   <energy>
    <i name="e_fr_energy">   -523.17119409 </i>
    <i name="e_wo_entrp">   -523.17119409 </i>
    <i name="e_0_energy">   -523.17119409 </i>
   </energy>
  </scstep>
  <scstep>
   <time name="dav">   44.09   44.09</time>
   <time name="total">   48.81   48.82</time>
   <energy>
    <i name="e_fr_energy">   -523.17127980 </i>
    <i name="e_wo_entrp">   -523.17127980 </i>
    <i name="e_0_energy">   -523.17127980 </i>
   </energy>
  </scstep>
  <scstep>
   <time name="dav">   38.68   38.68</time>
   <time name="total">   43.38   43.39</time>
   <energy>
    <i name="e_fr_energy">   -523.17135343 </i>
    <i name="e_wo_entrp">   -523.17135343 </i>
    <i name="e_0_energy">   -523.17135343 </i>
   </energy>
  </scstep>
  <scstep>
   <time name="dav">   35.16   35.17</time>
   <time name="total">   39.89   39.90</time>
   <energy>
    <i name="e_fr_energy">   -523.17137443 </i>
    <i name="e_wo_entrp">   -523.17137443 </i>
    <i name="e_0_energy">   -523.17137443 </i>
   </energy>
  </scstep>
  <scstep>
   <time name="dav">   35.19   35.19</time>
   <time name="total">   39.91   39.92</time>
   <energy>
    <i name="e_fr_energy">   -523.17139373 </i>
    <i name="e_wo_entrp">   -523.17139373 </i>
    <i name="e_0_energy">   -523.17139373 </i>
   </energy>
  </scstep>
  <scstep>
   <time name="dav">   33.43   33.43</time>
   <time name="total">   38.14   38.15</time>
   <energy>
    <i name="e_fr_energy">   -523.17140127 </i>
    <i name="e_wo_entrp">   -523.17140127 </i>
    <i name="e_0_energy">   -523.17140127 </i>
   </energy>
  </scstep>
  <scstep>
   <time name="dav">   35.23   35.23</time>
   <time name="total">   40.02   40.02</time>
   <energy>
    <i name="e_fr_energy">   -523.17140995 </i>
    <i name="e_wo_entrp">   -523.17140995 </i>
    <i name="e_0_energy">   -523.17140995 </i>
   </energy>
  </scstep>
  <scstep>
   <time name="dav">   32.70   32.70</time>
   <time name="total">   37.51   37.52</time>
   <energy>
    <i name="e_fr_energy">   -523.17141233 </i>
    <i name="e_wo_entrp">   -523.17141233 </i>
    <i name="e_0_energy">   -523.17141233 </i>
   </energy>
  </scstep>
  <scstep>
   <time name="dav">   32.67   32.67</time>
   <time name="total">   33.48   33.48</time>
   <energy>
    <i name="alphaZ">    784.57699423 </i>
    <i name="ewald"> 250816.65766924 </i>
    <i name="hartreedc">-298792.08466556 </i>
    <i name="XCdc">   2489.50611069 </i>
    <i name="pawpsdc">  59547.76003360 </i>
    <i name="pawaedc"> -59379.57523281 </i>
    <i name="eentropy">     -0.00000000 </i>
    <i name="bandstr"> -12200.73625961 </i>
    <i name="atom">  56210.72393729 </i>
    <i name="e_fr_energy">   -523.17141293 </i>
    <i name="e_wo_entrp">   -523.17141293 </i>
    <i name="e_0_energy">   -523.17141293 </i>
   </energy>
  </scstep>
  <structure>
   <crystal>
    <varray name="basis" >
     <v>      13.79398668       0.00000000       0.00000000 </v>
     <v>      -6.89699334      11.94594288       0.00000000 </v>
     <v>       0.00000000       0.00000000      27.81022107 </v>
    </varray>
    <i name="volume">   4582.62876984 </i>
    <varray name="rec_basis" >
     <v>       0.07249536       0.04185521       0.00000000 </v>
     <v>       0.00000000       0.08371043       0.00000000 </v>
     <v>       0.00000000       0.00000000       0.03595800 </v>
    </varray>
   </crystal>
   <varray name="positions" >
    <v>       0.07473594       0.16513327       0.54755983 </v>
    <v>       0.08762430       0.43202932       0.54168439 </v>
    <v>       0.09223205       0.67567023       0.54923826 </v>
    <v>       0.08734067       0.92463574       0.54166513 </v>
    <v>       0.33616110       0.16585963       0.54276003 </v>
    <v>       0.32419228       0.40026094       0.54994612 </v>
    <v>       0.32572764       0.66668608       0.54582988 </v>
    <v>       0.33483469       0.91846304       0.53792528 </v>
    <v>       0.58964006       0.16859720       0.53663513 </v>
    <v>       0.59361114       0.40744362       0.54566892 </v>
    <v>       0.57635153       0.67209021       0.54647635 </v>
    <v>       0.56971148       0.91580282       0.54941691 </v>
    <v>       0.84656664       0.17696578       0.54204198 </v>
    <v>       0.83727363       0.41795069       0.54328899 </v>
    <v>       0.82669100       0.66538195       0.55354827 </v>
    <v>       0.82742202       0.91061121       0.54109856 </v>
    <v>       0.16615270       0.07507143       0.45440221 </v>
    <v>       0.17413987       0.32935997       0.45675637 </v>
    <v>       0.15971727       0.57760832       0.45755127 </v>
    <v>       0.16456963       0.83062161       0.45781619 </v>
    <v>       0.41289364       0.08467144       0.45405959 </v>
    <v>       0.43696499       0.33772268       0.45431977 </v>
    <v>       0.41568606       0.56934871       0.45853130 </v>
    <v>       0.39963300       0.82084561       0.45161049 </v>
    <v>       0.64975244       0.06533936       0.44969928 </v>
    <v>       0.67571706       0.33309385       0.45001277 </v>
    <v>       0.68254771       0.59777285       0.45810439 </v>
    <v>       0.65629945       0.82489033       0.45539129 </v>
    <v>       0.90267344       0.06914949       0.45473966 </v>
    <v>       0.92308817       0.33487506       0.45216458 </v>
    <v>       0.91816047       0.58985494       0.45836010 </v>
    <v>       0.90607398       0.82864842       0.45198213 </v>
    <v>       0.07692244       0.15410561       0.39536029 </v>
    <v>       0.08557185       0.41959004       0.39301047 </v>
    <v>       0.08465641       0.66862773       0.39528240 </v>
    <v>       0.07432131       0.92867070       0.39482689 </v>
    <v>       0.32079023       0.15433658       0.39657815 </v>
    <v>       0.32707810       0.40814256       0.39541231 </v>
    <v>       0.33008128       0.65689226       0.39445587 </v>
    <v>       0.31918015       0.91951917       0.39948799 </v>
    <v>       0.59367293       0.17489917       0.39086622 </v>
    <v>       0.59655776       0.43157304       0.39693207 </v>
    <v>       0.56874425       0.67822619       0.39256093 </v>
    <v>       0.57719685       0.91370301       0.39111559 </v>
    <v>       0.84241789       0.17845211       0.39235385 </v>
    <v>       0.85059512       0.42927026       0.39328219 </v>
    <v>       0.84558188       0.67918176       0.39359944 </v>
    <v>       0.82948215       0.91207149       0.39385536 </v>
    <v>       0.15643978       0.07262324       0.59980880 </v>
    <v>       0.17094806       0.32464518       0.61158456 </v>
    <v>       0.13309913       0.56104040       0.61196894 </v>
    <v>       0.19259624       0.84482329       0.60106902 </v>
    <v>       0.42659342       0.09309767       0.60633098 </v>
    <v>       0.44258947       0.34642396       0.60412710 </v>
    <v>       0.41073369       0.57391258       0.60546054 </v>
    <v>       0.41552033       0.82004655       0.61119681 </v>
    <v>       0.66359482       0.08511260       0.61151244 </v>
    <v>       0.68731018       0.35595894       0.60669321 </v>
    <v>       0.67289986       0.59936901       0.61286481 </v>
    <v>       0.66750619       0.83352477       0.60239273 </v>
    <v>       0.92210433       0.08815768       0.60684791 </v>
    <v>       0.91074337       0.33248993       0.60180623 </v>
    <v>       0.90799191       0.58363020       0.60806329 </v>
    <v>       0.92163970       0.83881336       0.60767464 </v>
    <v>       0.00101412       0.99770658       0.50043165 </v>
    <v>       0.99694094       0.24625013       0.49705747 </v>
    <v>       0.00560114       0.51065659       0.50555413 </v>
    <v>       0.01485299       0.76480634       0.49911026 </v>
    <v>       0.25535277       0.99781714       0.49804967 </v>
    <v>       0.24901086       0.23580666       0.50076063 </v>
    <v>       0.25598578       0.49891161       0.50160658 </v>
    <v>       0.25227852       0.75052408       0.49476031 </v>
    <v>       0.50296188       0.00297754       0.50406245 </v>
    <v>       0.50227000       0.25251546       0.49654882 </v>
    <v>       0.50836902       0.49505776       0.49702143 </v>
    <v>       0.48840185       0.74172103       0.49880368 </v>
    <v>       0.72719461       0.98298232       0.49691128 </v>
    <v>       0.75738030       0.25959480       0.49817632 </v>
    <v>       0.76250276       0.50272952       0.49629673 </v>
    <v>       0.74223863       0.75805982       0.49695528 </v>
   </varray>
  </structure>
  <varray name="forces" >
   <v>       0.93445135      -0.25125003      -1.28727342 </v>
   <v>       0.38573069      -1.69940802       1.11748799 </v>
   <v>      -1.11865682      -0.53389120      -0.71959266 </v>
   <v>      -0.29928158      -1.29322388       0.06565915 </v>
   <v>       0.13786142      -0.14611732       0.39468792 </v>
   <v>       0.49814691       0.60598250      -0.93561964 </v>
   <v>       1.38683995      -0.15475346      -0.42148971 </v>
   <v>       0.36555297       0.50804796       1.35878542 </v>
   <v>       0.11010056      -0.18180300       1.91879955 </v>
   <v>      -0.88160818       1.03068106      -1.28702780 </v>
   <v>       0.19569557      -0.90044311      -0.57414933 </v>
   <v>       1.00549208       0.35190940      -0.90022161 </v>
   <v>      -1.32512220      -0.85360469       0.17485485 </v>
   <v>      -0.13422426       0.11751264      -0.27661458 </v>
   <v>       0.63448272       0.36576605      -0.99688728 </v>
   <v>      -0.10791132       0.72855128       0.63552816 </v>
   <v>      -1.03364548       0.91980386       0.69588710 </v>
   <v>      -0.51593603      -0.56652295      -0.09175986 </v>
   <v>       0.44590199       0.78530766      -1.07247103 </v>
   <v>      -0.67260317      -0.09080653      -1.14966911 </v>
   <v>       0.31991800       0.11429302      -0.07196641 </v>
   <v>      -1.57385721       0.11098640       0.04014296 </v>
   <v>      -0.17400660       0.86956213      -0.38035323 </v>
   <v>       1.38515204      -0.14118374      -0.03672977 </v>
   <v>       1.06789180       0.67403507       1.09545732 </v>
   <v>       0.28837595       0.65102037       0.57596744 </v>
   <v>      -1.14354375      -1.69778503      -0.23506561 </v>
   <v>      -0.90153226       0.44541948      -0.27172995 </v>
   <v>       0.36052708       1.00363784      -0.15043640 </v>
   <v>      -0.23505657      -0.42489948       0.23682698 </v>
   <v>       0.81795102       0.51230732      -0.27349455 </v>
   <v>       1.15755935       1.20663777       1.39876498 </v>
   <v>      -0.24538232       0.65981497       0.32365737 </v>
   <v>       0.26964182      -0.01592956       0.43918968 </v>
   <v>       0.06283830       0.01455525       0.22695594 </v>
   <v>       0.63019225      -1.10546907      -0.42166501 </v>
   <v>       0.68045871       0.85770476      -0.66399621 </v>
   <v>       0.39355663       0.08044741       0.01761694 </v>
   <v>      -0.39418955       0.09504897       0.26421466 </v>
   <v>       0.93905875      -0.07044117      -1.13944003 </v>
   <v>      -0.40084125      -0.43075139      -0.01539131 </v>
   <v>       0.07472868      -0.10428771      -0.60018046 </v>
   <v>       0.88579063      -0.79273861       0.06151851 </v>
   <v>      -0.33169179      -0.03284916      -0.05444784 </v>
   <v>      -0.15156899      -0.74053217       0.23418379 </v>
   <v>      -0.41607768      -0.13328790       0.17914556 </v>
   <v>      -0.23788628      -0.78464310      -0.16406829 </v>
   <v>      -0.47658000       0.09749905      -0.23186609 </v>
   <v>       0.63190774       0.92569334       1.05381497 </v>
   <v>      -0.23092992       0.11193656      -0.45284571 </v>
   <v>       0.87230810       0.92133936      -0.36194395 </v>
   <v>      -0.78032923      -0.27299970       0.73930379 </v>
   <v>      -0.09710247      -0.08303867      -0.77633108 </v>
   <v>      -0.78318807      -0.67386326       0.27657355 </v>
   <v>      -0.11813987       0.23334754      -0.06864460 </v>
   <v>      -0.37194630       0.05618052      -0.49772572 </v>
   <v>       0.13042320      -0.02321227      -1.13360995 </v>
   <v>      -0.16744714      -0.90249456       0.01831920 </v>
   <v>      -0.15001890      -0.32895515      -0.68019505 </v>
   <v>      -0.04390050       0.28072465       0.43556572 </v>
   <v>      -0.63087436      -0.29178578      -0.23734748 </v>
   <v>       0.53698512      -0.18013003       0.23714081 </v>
   <v>       0.54450111       0.48243272      -0.18740255 </v>
   <v>      -0.05698816      -0.11654956      -0.53184681 </v>
   <v>      -1.13307054      -0.13283990      -0.23073587 </v>
   <v>       0.07314069       0.26922538       0.51602254 </v>
   <v>       0.51034532      -0.02808614      -1.09946147 </v>
   <v>      -1.00269094      -1.46799911       0.75864379 </v>
   <v>      -0.25531210       0.64013351       0.20034966 </v>
   <v>      -0.69988078       1.31877425       0.41235013 </v>
   <v>      -0.99433769      -0.69256131       0.32747028 </v>
   <v>      -0.28602097      -0.47862361       1.68012547 </v>
   <v>      -0.22237579      -0.09341998      -1.66845841 </v>
   <v>       1.03218316      -0.32474308       0.43935586 </v>
   <v>      -0.07734131       0.58259428       0.79096432 </v>
   <v>      -0.13765883      -0.01098712       0.97513899 </v>
   <v>       1.03990019       1.44003818       0.20615636 </v>
   <v>      -0.00800227      -0.32054916      -0.30441551 </v>
   <v>      -1.07514441       0.39069647       1.24242198 </v>
   <v>       1.28831196      -0.89018831       0.88952165 </v>
  </varray>
  <varray name="stress" >
   <v>       2.41372197       0.86485933      -1.09099936 </v>
   <v>       0.86485932       5.27535591      -0.23552345 </v>
   <v>      -1.09099935      -0.23552345      -3.25782937 </v>
  </varray>
  <energy>
   <i name="e_fr_energy">   -523.17141293 </i>
   <i name="e_wo_entrp">   -523.17141293 </i>
   <i name="e_0_energy">     -0.00000000 </i>
  </energy>
  <time name="totalsc"> 1920.51 1920.85</time>
  <eigenvalues>
   <array>
    <dimension dim="1">band</dimension>
    <dimension dim="2">kpoint</dimension>
    <dimension dim="3">spin</dimension>
    <field>eigene</field>
    <field>occ</field>
    <set>
     <set comment="spin 1">
      <set comment="kpoint 1">
       <r>  -52.2781    1.0000 </r>
       <r>  -51.8127    1.0000 </r>
       <r>  -51.7636    1.0000 </r>
       <r>  -51.6831    1.0000 </r>
       <r>  -51.6343    1.0000 </r>
       <r>  -51.6149    1.0000 </r>
       <r>  -51.6118    1.0000 </r>
       <r>  -51.6102    1.0000 </r>
       <r>  -51.6066    1.0000 </r>
       <r>  -51.5981    1.0000 </r>
       <r>  -51.5382    1.0000 </r>
       <r>  -51.5300    1.0000 </r>
       <r>  -51.5260    1.0000 </r>
       <r>  -51.5179    1.0000 </r>
       <r>  -51.5081    1.0000 </r>
       <r>  -51.5028    1.0000 </r>
       <r>  -51.4944    1.0000 </r>
       <r>  -51.4917    1.0000 </r>
       <r>  -51.3733    1.0000 </r>
       <r>  -51.3368    1.0000 </r>
       <r>  -51.3346    1.0000 </r>
       <r>  -51.3328    1.0000 </r>
       <r>  -51.2291    1.0000 </r>
       <r>  -51.1863    1.0000 </r>
       <r>  -51.1765    1.0000 </r>
       <r>  -51.1705    1.0000 </r>
       <r>  -51.1660    1.0000 </r>
       <r>  -51.1278    1.0000 </r>
       <r>  -51.0962    1.0000 </r>
       <r>  -51.0302    1.0000 </r>
       <r>  -50.9206    1.0000 </r>
       <r>  -50.8991    1.0000 </r>
       <r>  -30.9402    1.0000 </r>
       <r>  -30.9236    1.0000 </r>
       <r>  -30.8527    1.0000 </r>
       <r>  -30.4977    1.0000 </r>
       <r>  -30.4735    1.0000 </r>
       <r>  -30.4661    1.0000 </r>
       <r>  -30.4354    1.0000 </r>
       <r>  -30.4333    1.0000 </r>
       <r>  -30.4207    1.0000 </r>
       <r>  -30.3984    1.0000 </r>
       <r>  -30.3735    1.0000 </r>
       <r>  -30.3615    1.0000 </r>
       <r>  -30.3487    1.0000 </r>
       <r>  -30.3447    1.0000 </r>
       <r>  -30.3358    1.0000 </r>
       <r>  -30.3339    1.0000 </r>
       <r>  -30.3220    1.0000 </r>
       <r>  -30.3181    1.0000 </r>
       <r>  -30.3088    1.0000 </r>
       <r>  -30.3033    1.0000 </r>
       <r>  -30.3001    1.0000 </r>
       <r>  -30.2922    1.0000 </r>
       <r>  -30.2873    1.0000 </r>
       <r>  -30.2799    1.0000 </r>
       <r>  -30.2751    1.0000 </r>
       <r>  -30.2744    1.0000 </r>
       <r>  -30.2657    1.0000 </r>
       <r>  -30.2585    1.0000 </r>
       <r>  -30.2507    1.0000 </r>
       <r>  -30.2455    1.0000 </r>
       <r>  -30.2385    1.0000 </r>
       <r>  -30.2278    1.0000 </r>
       <r>  -30.2234    1.0000 </r>
       <r>  -30.2203    1.0000 </r>
       <r>  -30.2193    1.0000 </r>
       <r>  -30.2077    1.0000 </r>
       <r>  -30.2039    1.0000 </r>
       <r>  -30.2000    1.0000 </r>
       <r>  -30.1877    1.0000 </r>
       <r>  -30.1827    1.0000 </r>
       <r>  -30.1710    1.0000 </r>
       <r>  -30.1695    1.0000 </r>
       <r>  -30.1603    1.0000 </r>
       <r>  -30.1569    1.0000 </r>
       <r>  -30.1511    1.0000 </r>
       <r>  -30.1479    1.0000 </r>
       <r>  -30.1309    1.0000 </r>
       <r>  -30.1304    1.0000 </r>
       <r>  -30.1247    1.0000 </r>
       <r>  -30.1124    1.0000 </r>
       <r>  -30.1032    1.0000 </r>
       <r>  -30.0973    1.0000 </r>
       <r>  -30.0907    1.0000 </r>
       <r>  -30.0648    1.0000 </r>
       <r>  -30.0559    1.0000 </r>
       <r>  -30.0429    1.0000 </r>
       <r>  -30.0373    1.0000 </r>
       <r>  -30.0077    1.0000 </r>
       <r>  -29.9989    1.0000 </r>
       <r>  -29.9925    1.0000 </r>
       <r>  -29.9870    1.0000 </r>
       <r>  -29.9702    1.0000 </r>
       <r>  -29.9651    1.0000 </r>
       <r>  -29.9571    1.0000 </r>
       <r>  -29.9481    1.0000 </r>
       <r>  -29.9444    1.0000 </r>
       <r>  -29.9313    1.0000 </r>
       <r>  -29.9249    1.0000 </r>
       <r>  -29.9158    1.0000 </r>
       <r>  -29.9041    1.0000 </r>
       <r>  -29.8716    1.0000 </r>
       <r>  -29.8636    1.0000 </r>
       <r>  -29.8596    1.0000 </r>
       <r>  -29.8579    1.0000 </r>
       <r>  -29.8535    1.0000 </r>
       <r>  -29.8366    1.0000 </r>
       <r>  -29.8318    1.0000 </r>
       <r>  -29.8212    1.0000 </r>
       <r>  -29.8152    1.0000 </r>
       <r>  -29.8134    1.0000 </r>
       <r>  -29.8082    1.0000 </r>
       <r>  -29.8051    1.0000 </r>
       <r>  -29.7754    1.0000 </r>
       <r>  -29.7674    1.0000 </r>
       <r>  -29.7575    1.0000 </r>
       <r>  -29.7548    1.0000 </r>
       <r>  -29.7322    1.0000 </r>
       <r>  -29.6967    1.0000 </r>
       <r>  -29.6903    1.0000 </r>
       <r>  -29.6713    1.0000 </r>
       <r>  -29.6234    1.0000 </r>
       <r>  -29.6067    1.0000 </r>
       <r>  -29.5807    1.0000 </r>
       <r>  -29.5707    1.0000 </r>
       <r>  -29.5601    1.0000 </r>
       <r>  -29.5487    1.0000 </r>
       <r>  -18.5571    1.0000 </r>
       <r>  -18.4946    1.0000 </r>
       <r>  -18.4252    1.0000 </r>
       <r>  -18.3507    1.0000 </r>
       <r>  -18.3359    1.0000 </r>
       <r>  -18.3015    1.0000 </r>
       <r>  -18.2840    1.0000 </r>
       <r>  -18.2540    1.0000 </r>
       <r>  -18.2517    1.0000 </r>
       <r>  -18.2284    1.0000 </r>
       <r>  -18.1640    1.0000 </r>
       <r>  -18.1569    1.0000 </r>
       <r>  -18.1507    1.0000 </r>
       <r>  -18.0809    1.0000 </r>
       <r>  -18.0637    1.0000 </r>
       <r>  -18.0014    1.0000 </r>
       <r>  -17.9785    1.0000 </r>
       <r>  -17.9696    1.0000 </r>
       <r>  -17.9097    1.0000 </r>
       <r>  -17.8744    1.0000 </r>
       <r>  -17.8548    1.0000 </r>
       <r>  -17.8530    1.0000 </r>
       <r>  -17.8337    1.0000 </r>
       <r>  -17.8214    1.0000 </r>
       <r>  -17.7969    1.0000 </r>
       <r>  -17.7769    1.0000 </r>
       <r>  -17.7374    1.0000 </r>
       <r>  -17.7076    1.0000 </r>
       <r>  -17.5608    1.0000 </r>
       <r>  -17.4976    1.0000 </r>
       <r>  -17.4223    1.0000 </r>
       <r>  -17.1817    1.0000 </r>
       <r>  -11.8072    1.0000 </r>
       <r>  -11.4830    1.0000 </r>
       <r>  -11.4541    1.0000 </r>
       <r>  -11.4172    1.0000 </r>
       <r>  -11.3287    1.0000 </r>
       <r>  -11.3126    1.0000 </r>
       <r>  -11.2580    1.0000 </r>
       <r>  -11.0332    1.0000 </r>
       <r>  -10.9856    1.0000 </r>
       <r>  -10.9194    1.0000 </r>
       <r>  -10.8584    1.0000 </r>
       <r>  -10.8342    1.0000 </r>
       <r>  -10.8197    1.0000 </r>
       <r>  -10.7362    1.0000 </r>
       <r>  -10.7039    1.0000 </r>
       <r>  -10.6544    1.0000 </r>
       <r>   -7.9934    1.0000 </r>
       <r>   -7.9525    1.0000 </r>
       <r>   -7.9275    1.0000 </r>
       <r>   -7.7867    1.0000 </r>
       <r>   -7.7783    1.0000 </r>
       <r>   -7.7506    1.0000 </r>
       <r>   -7.5945    1.0000 </r>
       <r>   -7.5536    1.0000 </r>
       <r>   -7.5226    1.0000 </r>
       <r>   -7.4888    1.0000 </r>
       <r>   -7.4748    1.0000 </r>
       <r>   -7.4660    1.0000 </r>
       <r>   -7.4167    1.0000 </r>
       <r>   -7.4005    1.0000 </r>
       <r>   -7.3863    1.0000 </r>
       <r>   -7.3549    1.0000 </r>
       <r>   -7.3440    1.0000 </r>
       <r>   -7.2924    1.0000 </r>
       <r>   -7.2325    1.0000 </r>
       <r>   -7.1501    1.0000 </r>
       <r>   -7.0895    1.0000 </r>
       <r>   -7.0672    1.0000 </r>
       <r>   -7.0353    1.0000 </r>
       <r>   -7.0194    1.0000 </r>
       <r>   -6.9795    1.0000 </r>
       <r>   -6.9634    1.0000 </r>
       <r>   -6.9449    1.0000 </r>
       <r>   -6.9284    1.0000 </r>
       <r>   -6.9137    1.0000 </r>
       <r>   -6.8767    1.0000 </r>
       <r>   -6.8574    1.0000 </r>
       <r>   -6.8389    1.0000 </r>
       <r>   -6.8114    1.0000 </r>
       <r>   -6.7975    1.0000 </r>
       <r>   -6.7887    1.0000 </r>
       <r>   -6.7638    1.0000 </r>
       <r>   -6.7581    1.0000 </r>
       <r>   -6.7298    1.0000 </r>
       <r>   -6.7224    1.0000 </r>
       <r>   -6.6900    1.0000 </r>
       <r>   -6.6779    1.0000 </r>
       <r>   -6.6706    1.0000 </r>
       <r>   -6.6546    1.0000 </r>
       <r>   -6.6301    1.0000 </r>
       <r>   -6.6167    1.0000 </r>
       <r>   -6.6089    1.0000 </r>
       <r>   -6.6020    1.0000 </r>
       <r>   -6.5944    1.0000 </r>
       <r>   -6.5849    1.0000 </r>
       <r>   -6.5673    1.0000 </r>
       <r>   -6.5467    1.0000 </r>
       <r>   -6.5373    1.0000 </r>
       <r>   -6.5347    1.0000 </r>
       <r>   -6.5267    1.0000 </r>
       <r>   -6.5084    1.0000 </r>
       <r>   -6.4875    1.0000 </r>
       <r>   -6.4844    1.0000 </r>
       <r>   -6.4602    1.0000 </r>
       <r>   -6.4458    1.0000 </r>
       <r>   -6.4171    1.0000 </r>
       <r>   -6.4047    1.0000 </r>
       <r>   -6.3836    1.0000 </r>
       <r>   -6.3606    1.0000 </r>
       <r>   -6.3352    1.0000 </r>
       <r>   -6.2805    1.0000 </r>
       <r>   -6.2569    1.0000 </r>
       <r>   -6.2407    1.0000 </r>
       <r>   -6.2249    1.0000 </r>
       <r>   -6.1994    1.0000 </r>
       <r>   -6.1759    1.0000 </r>
       <r>   -6.1577    1.0000 </r>
       <r>   -6.1036    1.0000 </r>
       <r>   -5.9850    1.0000 </r>
       <r>   -5.9378    1.0000 </r>
       <r>   -5.8761    1.0000 </r>
       <r>   -5.7980    1.0000 </r>
       <r>   -5.7836    1.0000 </r>
       <r>   -5.7653    1.0000 </r>
       <r>   -5.7226    1.0000 </r>
       <r>   -5.6978    1.0000 </r>
       <r>   -5.6292    1.0000 </r>
       <r>   -5.5913    1.0000 </r>
       <r>   -5.5706    1.0000 </r>
       <r>   -5.5240    1.0000 </r>
       <r>   -5.4843    1.0000 </r>
       <r>   -5.4540    1.0000 </r>
       <r>   -5.4387    1.0000 </r>
       <r>   -5.4281    1.0000 </r>
       <r>   -5.3682    1.0000 </r>
       <r>   -5.3305    1.0000 </r>
       <r>   -5.2822    1.0000 </r>
       <r>   -5.2276    1.0000 </r>
       <r>   -5.1055    1.0000 </r>
       <r>   -5.0523    1.0000 </r>
       <r>   -5.0230    1.0000 </r>
       <r>   -4.9186    1.0000 </r>
       <r>   -4.8821    1.0000 </r>
       <r>   -4.8730    1.0000 </r>
       <r>   -4.7816    1.0000 </r>
       <r>   -4.6755    1.0000 </r>
       <r>   -4.6240    1.0000 </r>
       <r>   -4.6021    1.0000 </r>
       <r>   -4.5673    1.0000 </r>
       <r>   -4.5261    1.0000 </r>
       <r>   -4.5073    1.0000 </r>
       <r>   -4.2531    1.0000 </r>
       <r>   -4.2308    1.0000 </r>
       <r>   -4.2066    1.0000 </r>
       <r>   -4.1740    1.0000 </r>
       <r>   -4.1331    1.0000 </r>
       <r>   -4.1232    1.0000 </r>
       <r>   -4.1048    1.0000 </r>
       <r>   -4.0956    1.0000 </r>
       <r>   -4.0541    1.0000 </r>
       <r>   -4.0056    1.0000 </r>
       <r>   -3.9858    1.0000 </r>
       <r>   -3.9601    1.0000 </r>
       <r>   -3.9445    1.0000 </r>
       <r>   -3.9111    1.0000 </r>
       <r>   -3.8727    1.0000 </r>
       <r>   -3.8576    1.0000 </r>
       <r>   -3.8373    1.0000 </r>
       <r>   -3.7847    1.0000 </r>
       <r>   -3.7503    1.0000 </r>
       <r>   -3.7401    1.0000 </r>
       <r>   -3.6885    1.0000 </r>
       <r>   -3.6284    1.0000 </r>
       <r>   -3.5919    1.0000 </r>
       <r>   -3.5745    1.0000 </r>
       <r>   -3.5484    1.0000 </r>
       <r>   -3.5175    1.0000 </r>
       <r>   -3.4655    1.0000 </r>
       <r>   -3.4182    1.0000 </r>
       <r>   -3.4018    1.0000 </r>
       <r>   -3.3431    1.0000 </r>
       <r>   -3.3089    1.0000 </r>
       <r>   -3.2572    1.0000 </r>
       <r>   -3.2153    1.0000 </r>
       <r>   -3.2071    1.0000 </r>
       <r>   -3.1252    1.0000 </r>
       <r>   -3.1195    1.0000 </r>
       <r>   -3.0094    1.0000 </r>
       <r>   -2.9425    1.0000 </r>
       <r>   -2.8958    1.0000 </r>
       <r>   -2.0837    0.0000 </r>
       <r>   -2.0539    0.0000 </r>
       <r>   -2.0096    0.0000 </r>
       <r>   -1.5616    0.0000 </r>
       <r>   -1.4939    0.0000 </r>
       <r>   -1.4299    0.0000 </r>
       <r>   -1.3859    0.0000 </r>
       <r>   -1.3714    0.0000 </r>
       <r>   -1.3656    0.0000 </r>
       <r>   -0.8086    0.0000 </r>
       <r>   -0.7423    0.0000 </r>
       <r>   -0.7369    0.0000 </r>
       <r>   -0.6660    0.0000 </r>
       <r>   -0.6305    0.0000 </r>
       <r>   -0.5915    0.0000 </r>
       <r>   -0.5695    0.0000 </r>
       <r>   -0.5600    0.0000 </r>
       <r>   -0.5019    0.0000 </r>
       <r>   -0.4850    0.0000 </r>
       <r>   -0.4458    0.0000 </r>
       <r>   -0.4113    0.0000 </r>
       <r>   -0.3875    0.0000 </r>
       <r>   -0.3699    0.0000 </r>
       <r>   -0.2576    0.0000 </r>
       <r>   -0.0824    0.0000 </r>
       <r>   -0.0573    0.0000 </r>
       <r>   -0.0232    0.0000 </r>
       <r>    0.0093    0.0000 </r>
       <r>    0.0585    0.0000 </r>
       <r>    0.0910    0.0000 </r>
       <r>    0.1364    0.0000 </r>
       <r>    0.1859    0.0000 </r>
       <r>    0.2050    0.0000 </r>
       <r>    0.2599    0.0000 </r>
       <r>    0.3021    0.0000 </r>
       <r>    0.3065    0.0000 </r>
       <r>    0.4210    0.0000 </r>
       <r>    0.4709    0.0000 </r>
       <r>    0.4910    0.0000 </r>
       <r>    0.5451    0.0000 </r>
       <r>    0.5678    0.0000 </r>
       <r>    0.5794    0.0000 </r>
       <r>    0.5857    0.0000 </r>
       <r>    0.6246    0.0000 </r>
       <r>    0.6553    0.0000 </r>
       <r>    0.6699    0.0000 </r>
       <r>    0.6924    0.0000 </r>
       <r>    0.7151    0.0000 </r>
       <r>    0.7275    0.0000 </r>
       <r>    0.7521    0.0000 </r>
       <r>    0.7642    0.0000 </r>
       <r>    0.7879    0.0000 </r>
       <r>    0.8004    0.0000 </r>
       <r>    0.8257    0.0000 </r>
       <r>    0.8419    0.0000 </r>
       <r>    0.8501    0.0000 </r>
       <r>    0.8716    0.0000 </r>
       <r>    0.8760    0.0000 </r>
       <r>    0.9016    0.0000 </r>
       <r>    0.9216    0.0000 </r>
       <r>    0.9264    0.0000 </r>
       <r>    0.9669    0.0000 </r>
       <r>    0.9913    0.0000 </r>
       <r>    1.0071    0.0000 </r>
      </set>
      <set comment="kpoint 2">
       <r>  -52.2781    1.0000 </r>
       <r>  -51.8127    1.0000 </r>
       <r>  -51.7636    1.0000 </r>
       <r>  -51.6831    1.0000 </r>
       <r>  -51.6343    1.0000 </r>
       <r>  -51.6150    1.0000 </r>
       <r>  -51.6117    1.0000 </r>
       <r>  -51.6102    1.0000 </r>
       <r>  -51.6066    1.0000 </r>
       <r>  -51.5981    1.0000 </r>
       <r>  -51.5382    1.0000 </r>
       <r>  -51.5300    1.0000 </r>
       <r>  -51.5260    1.0000 </r>
       <r>  -51.5179    1.0000 </r>
       <r>  -51.5081    1.0000 </r>
       <r>  -51.5028    1.0000 </r>
       <r>  -51.4944    1.0000 </r>
       <r>  -51.4917    1.0000 </r>
       <r>  -51.3733    1.0000 </r>
       <r>  -51.3368    1.0000 </r>
       <r>  -51.3346    1.0000 </r>
       <r>  -51.3328    1.0000 </r>
       <r>  -51.2291    1.0000 </r>
       <r>  -51.1863    1.0000 </r>
       <r>  -51.1765    1.0000 </r>
       <r>  -51.1705    1.0000 </r>
       <r>  -51.1660    1.0000 </r>
       <r>  -51.1278    1.0000 </r>
       <r>  -51.0962    1.0000 </r>
       <r>  -51.0302    1.0000 </r>
       <r>  -50.9206    1.0000 </r>
       <r>  -50.8991    1.0000 </r>
       <r>  -30.9402    1.0000 </r>
       <r>  -30.9236    1.0000 </r>
       <r>  -30.8527    1.0000 </r>
       <r>  -30.4974    1.0000 </r>
       <r>  -30.4738    1.0000 </r>
       <r>  -30.4659    1.0000 </r>
       <r>  -30.4352    1.0000 </r>
       <r>  -30.4329    1.0000 </r>
       <r>  -30.4196    1.0000 </r>
       <r>  -30.3985    1.0000 </r>
       <r>  -30.3719    1.0000 </r>
       <r>  -30.3613    1.0000 </r>
       <r>  -30.3522    1.0000 </r>
       <r>  -30.3476    1.0000 </r>
       <r>  -30.3375    1.0000 </r>
       <r>  -30.3322    1.0000 </r>
       <r>  -30.3213    1.0000 </r>
       <r>  -30.3171    1.0000 </r>
       <r>  -30.3074    1.0000 </r>
       <r>  -30.3029    1.0000 </r>
       <r>  -30.3012    1.0000 </r>
       <r>  -30.2936    1.0000 </r>
       <r>  -30.2860    1.0000 </r>
       <r>  -30.2799    1.0000 </r>
       <r>  -30.2747    1.0000 </r>
       <r>  -30.2734    1.0000 </r>
       <r>  -30.2672    1.0000 </r>
       <r>  -30.2569    1.0000 </r>
       <r>  -30.2515    1.0000 </r>
       <r>  -30.2460    1.0000 </r>
       <r>  -30.2388    1.0000 </r>
       <r>  -30.2278    1.0000 </r>
       <r>  -30.2239    1.0000 </r>
       <r>  -30.2208    1.0000 </r>
       <r>  -30.2173    1.0000 </r>
       <r>  -30.2106    1.0000 </r>
       <r>  -30.2033    1.0000 </r>
       <r>  -30.1967    1.0000 </r>
       <r>  -30.1906    1.0000 </r>
       <r>  -30.1819    1.0000 </r>
       <r>  -30.1721    1.0000 </r>
       <r>  -30.1683    1.0000 </r>
       <r>  -30.1631    1.0000 </r>
       <r>  -30.1553    1.0000 </r>
       <r>  -30.1499    1.0000 </r>
       <r>  -30.1466    1.0000 </r>
       <r>  -30.1306    1.0000 </r>
       <r>  -30.1299    1.0000 </r>
       <r>  -30.1253    1.0000 </r>
       <r>  -30.1124    1.0000 </r>
       <r>  -30.1027    1.0000 </r>
       <r>  -30.0993    1.0000 </r>
       <r>  -30.0895    1.0000 </r>
       <r>  -30.0654    1.0000 </r>
       <r>  -30.0550    1.0000 </r>
       <r>  -30.0435    1.0000 </r>
       <r>  -30.0372    1.0000 </r>
       <r>  -30.0081    1.0000 </r>
       <r>  -29.9989    1.0000 </r>
       <r>  -29.9930    1.0000 </r>
       <r>  -29.9868    1.0000 </r>
       <r>  -29.9711    1.0000 </r>
       <r>  -29.9664    1.0000 </r>
       <r>  -29.9594    1.0000 </r>
       <r>  -29.9479    1.0000 </r>
       <r>  -29.9399    1.0000 </r>
       <r>  -29.9314    1.0000 </r>
       <r>  -29.9249    1.0000 </r>
       <r>  -29.9161    1.0000 </r>
       <r>  -29.9030    1.0000 </r>
       <r>  -29.8715    1.0000 </r>
       <r>  -29.8638    1.0000 </r>
       <r>  -29.8588    1.0000 </r>
       <r>  -29.8577    1.0000 </r>
       <r>  -29.8545    1.0000 </r>
       <r>  -29.8360    1.0000 </r>
       <r>  -29.8315    1.0000 </r>
       <r>  -29.8204    1.0000 </r>
       <r>  -29.8157    1.0000 </r>
       <r>  -29.8126    1.0000 </r>
       <r>  -29.8092    1.0000 </r>
       <r>  -29.8050    1.0000 </r>
       <r>  -29.7754    1.0000 </r>
       <r>  -29.7684    1.0000 </r>
       <r>  -29.7576    1.0000 </r>
       <r>  -29.7556    1.0000 </r>
       <r>  -29.7313    1.0000 </r>
       <r>  -29.6969    1.0000 </r>
       <r>  -29.6905    1.0000 </r>
       <r>  -29.6714    1.0000 </r>
       <r>  -29.6234    1.0000 </r>
       <r>  -29.6065    1.0000 </r>
       <r>  -29.5800    1.0000 </r>
       <r>  -29.5715    1.0000 </r>
       <r>  -29.5599    1.0000 </r>
       <r>  -29.5490    1.0000 </r>
       <r>  -18.5419    1.0000 </r>
       <r>  -18.4727    1.0000 </r>
       <r>  -18.4475    1.0000 </r>
       <r>  -18.3917    1.0000 </r>
       <r>  -18.3496    1.0000 </r>
       <r>  -18.2988    1.0000 </r>
       <r>  -18.2917    1.0000 </r>
       <r>  -18.2729    1.0000 </r>
       <r>  -18.2294    1.0000 </r>
       <r>  -18.2122    1.0000 </r>
       <r>  -18.1693    1.0000 </r>
       <r>  -18.1349    1.0000 </r>
       <r>  -18.1149    1.0000 </r>
       <r>  -18.0854    1.0000 </r>
       <r>  -18.0579    1.0000 </r>
       <r>  -18.0041    1.0000 </r>
       <r>  -17.9946    1.0000 </r>
       <r>  -17.9673    1.0000 </r>
       <r>  -17.9068    1.0000 </r>
       <r>  -17.8766    1.0000 </r>
       <r>  -17.8576    1.0000 </r>
       <r>  -17.8536    1.0000 </r>
       <r>  -17.8347    1.0000 </r>
       <r>  -17.8316    1.0000 </r>
       <r>  -17.8090    1.0000 </r>
       <r>  -17.7592    1.0000 </r>
       <r>  -17.7449    1.0000 </r>
       <r>  -17.7057    1.0000 </r>
       <r>  -17.5601    1.0000 </r>
[...]
       <r>   -32.6691     0.0000    64.0000 </r>
       <r>   -32.4738     0.0000    64.0000 </r>
       <r>   -32.2784     0.0000    64.0000 </r>
       <r>   -32.0830     0.0000    64.0000 </r>
       <r>   -31.8876     0.0000    64.0000 </r>
       <r>   -31.6922     0.0000    64.0000 </r>
       <r>   -31.4969     0.0000    64.0000 </r>
       <r>   -31.3015     0.0000    64.0000 </r>
       <r>   -31.1061     0.0000    64.0000 </r>
       <r>   -30.9107    15.2570    66.9809 </r>
       <r>   -30.7153    15.4520    69.9999 </r>
       <r>   -30.5200     4.4879    70.8767 </r>
       <r>   -30.3246   138.0430    97.8475 </r>
       <r>   -30.1292   307.8681   157.9984 </r>
       <r>   -29.9338   194.3541   195.9711 </r>
       <r>   -29.7385   200.7454   235.1925 </r>
       <r>   -29.5431    94.6418   253.6836 </r>
       <r>   -29.3477    11.8562   256.0000 </r>
       <r>   -29.1523     0.0000   256.0000 </r>
       <r>   -28.9569     0.0000   256.0000 </r>
       <r>   -28.7616     0.0000   256.0000 </r>
       <r>   -28.5662     0.0000   256.0000 </r>
       <r>   -28.3708     0.0000   256.0000 </r>
       <r>   -28.1754     0.0000   256.0000 </r>
       <r>   -27.9800     0.0000   256.0000 </r>
       <r>   -27.7847     0.0000   256.0000 </r>
       <r>   -27.5893     0.0000   256.0000 </r>
       <r>   -27.3939     0.0000   256.0000 </r>
       <r>   -27.1985     0.0000   256.0000 </r>
       <r>   -27.0031     0.0000   256.0000 </r>
       <r>   -26.8078     0.0000   256.0000 </r>
       <r>   -26.6124     0.0000   256.0000 </r>
       <r>   -26.4170     0.0000   256.0000 </r>
       <r>   -26.2216     0.0000   256.0000 </r>
       <r>   -26.0262     0.0000   256.0000 </r>
       <r>   -25.8309     0.0000   256.0000 </r>
       <r>   -25.6355     0.0000   256.0000 </r>
       <r>   -25.4401     0.0000   256.0000 </r>
       <r>   -25.2447     0.0000   256.0000 </r>
       <r>   -25.0494     0.0000   256.0000 </r>
       <r>   -24.8540     0.0000   256.0000 </r>
       <r>   -24.6586     0.0000   256.0000 </r>
       <r>   -24.4632     0.0000   256.0000 </r>
       <r>   -24.2678     0.0000   256.0000 </r>
       <r>   -24.0725     0.0000   256.0000 </r>
       <r>   -23.8771     0.0000   256.0000 </r>
       <r>   -23.6817     0.0000   256.0000 </r>
       <r>   -23.4863     0.0000   256.0000 </r>
       <r>   -23.2909     0.0000   256.0000 </r>
       <r>   -23.0956     0.0000   256.0000 </r>
       <r>   -22.9002     0.0000   256.0000 </r>
       <r>   -22.7048     0.0000   256.0000 </r>
       <r>   -22.5094     0.0000   256.0000 </r>
       <r>   -22.3140     0.0000   256.0000 </r>
       <r>   -22.1187     0.0000   256.0000 </r>
       <r>   -21.9233     0.0000   256.0000 </r>
       <r>   -21.7279     0.0000   256.0000 </r>
       <r>   -21.5325     0.0000   256.0000 </r>
       <r>   -21.3372     0.0000   256.0000 </r>
       <r>   -21.1418     0.0000   256.0000 </r>
       <r>   -20.9464     0.0000   256.0000 </r>
       <r>   -20.7510     0.0000   256.0000 </r>
       <r>   -20.5556     0.0000   256.0000 </r>
       <r>   -20.3603     0.0000   256.0000 </r>
       <r>   -20.1649     0.0000   256.0000 </r>
       <r>   -19.9695     0.0000   256.0000 </r>
       <r>   -19.7741     0.0000   256.0000 </r>
       <r>   -19.5787     0.0000   256.0000 </r>
       <r>   -19.3834     0.0000   256.0000 </r>
       <r>   -19.1880     0.0000   256.0000 </r>
       <r>   -18.9926     0.0000   256.0000 </r>
       <r>   -18.7972     0.0000   256.0000 </r>
       <r>   -18.6018     0.5466   256.1068 </r>
       <r>   -18.4065    32.4636   262.4495 </r>
       <r>   -18.2111    60.7358   274.3160 </r>
       <r>   -18.0157    65.8912   287.1897 </r>
       <r>   -17.8203    78.5436   302.5355 </r>
       <r>   -17.6250    48.6724   312.0451 </r>
       <r>   -17.4296    24.2442   316.7819 </r>
       <r>   -17.2342     6.9362   318.1371 </r>
       <r>   -17.0388     9.5347   319.9999 </r>
       <r>   -16.8434     0.0003   320.0000 </r>
       <r>   -16.6481     0.0000   320.0000 </r>
       <r>   -16.4527     0.0000   320.0000 </r>
       <r>   -16.2573     0.0000   320.0000 </r>
       <r>   -16.0619     0.0000   320.0000 </r>
       <r>   -15.8665     0.0000   320.0000 </r>
       <r>   -15.6712     0.0000   320.0000 </r>
       <r>   -15.4758     0.0000   320.0000 </r>
       <r>   -15.2804     0.0000   320.0000 </r>
       <r>   -15.0850     0.0000   320.0000 </r>
       <r>   -14.8896     0.0000   320.0000 </r>
       <r>   -14.6943     0.0000   320.0000 </r>
       <r>   -14.4989     0.0000   320.0000 </r>
       <r>   -14.3035     0.0000   320.0000 </r>
       <r>   -14.1081     0.0000   320.0000 </r>
       <r>   -13.9128     0.0000   320.0000 </r>
       <r>   -13.7174     0.0000   320.0000 </r>
       <r>   -13.5220     0.0000   320.0000 </r>
       <r>   -13.3266     0.0000   320.0000 </r>
       <r>   -13.1312     0.0000   320.0000 </r>
       <r>   -12.9359     0.0000   320.0000 </r>
       <r>   -12.7405     0.0000   320.0000 </r>
       <r>   -12.5451     0.0000   320.0000 </r>
       <r>   -12.3497     0.0000   320.0000 </r>
       <r>   -12.1543     0.0000   320.0000 </r>
       <r>   -11.9590     0.0000   320.0000 </r>
       <r>   -11.7636     4.5675   320.8924 </r>
       <r>   -11.5682    15.0616   323.8351 </r>
       <r>   -11.3728    18.3352   327.4174 </r>
       <r>   -11.1774    26.0809   332.5131 </r>
       <r>   -10.9821    28.2997   338.0423 </r>
       <r>   -10.7867    38.1053   345.4872 </r>
       <r>   -10.5913    31.4257   351.6272 </r>
       <r>   -10.3959     1.9083   352.0000 </r>
       <r>   -10.2006     0.0000   352.0000 </r>
       <r>   -10.0052     0.0000   352.0000 </r>
       <r>    -9.8098     0.0000   352.0000 </r>
       <r>    -9.6144     0.0000   352.0000 </r>
       <r>    -9.4190     0.0000   352.0000 </r>
       <r>    -9.2237     0.0000   352.0000 </r>
       <r>    -9.0283     0.0000   352.0000 </r>
       <r>    -8.8329     0.0000   352.0000 </r>
       <r>    -8.6375     0.0000   352.0000 </r>
       <r>    -8.4421     0.0000   352.0000 </r>
       <r>    -8.2468     0.0000   352.0000 </r>
       <r>    -8.0514     0.0609   352.0119 </r>
       <r>    -7.8560    14.9345   354.9298 </r>
       <r>    -7.6606    44.7199   363.6671 </r>
       <r>    -7.4652    64.5513   376.2791 </r>
       <r>    -7.2699    65.4575   389.0681 </r>
       <r>    -7.0745    54.2105   399.6597 </r>
       <r>    -6.8791    78.7138   415.0387 </r>
       <r>    -6.6837   110.4065   436.6098 </r>
       <r>    -6.4884   112.3724   458.5650 </r>
       <r>    -6.2930    80.9471   474.3804 </r>
       <r>    -6.0976    72.2436   488.4953 </r>
       <r>    -5.9022    55.7846   499.3944 </r>
       <r>    -5.7068    61.0556   511.3234 </r>
       <r>    -5.5115    57.8133   522.6189 </r>
       <r>    -5.3161    52.3621   532.8493 </r>
       <r>    -5.1207    28.3195   538.3824 </r>
       <r>    -4.9253    24.1904   543.1087 </r>
       <r>    -4.7299    32.5946   549.4770 </r>
       <r>    -4.5346    46.9343   558.6469 </r>
       <r>    -4.3392    31.9314   564.8857 </r>
       <r>    -4.1438    35.2467   571.7721 </r>
       <r>    -3.9484    56.5834   582.8273 </r>
       <r>    -3.7530    64.7286   595.4740 </r>
       <r>    -3.5577    75.5176   610.2285 </r>
       <r>    -3.3623    68.9758   623.7050 </r>
       <r>    -3.1669    44.6504   632.4287 </r>
       <r>    -2.9715    30.7948   638.4454 </r>
       <r>    -2.7761     7.9562   639.9998 </r>
       <r>    -2.5808     0.0008   640.0000 </r>
       <r>    -2.3854     0.0000   640.0000 </r>
       <r>    -2.1900     0.0016   640.0003 </r>
       <r>    -1.9946     5.8501   641.1433 </r>
       <r>    -1.7993    12.5892   643.6030 </r>
       <r>    -1.6039    22.6370   648.0258 </r>
       <r>    -1.4085    16.8301   651.3140 </r>
       <r>    -1.2131    23.4285   655.8915 </r>
       <r>    -1.0177    29.6478   661.6840 </r>
       <r>    -0.8224    19.4150   665.4773 </r>
       <r>    -0.6270    24.3662   670.2379 </r>
       <r>    -0.4316    39.7671   678.0076 </r>
       <r>    -0.2362    32.2144   684.3016 </r>
       <r>    -0.0408    35.8477   691.3055 </r>
       <r>     0.1545    36.1555   698.3695 </r>
       <r>     0.3499    40.9071   706.3619 </r>
       <r>     0.5453    63.0320   718.6770 </r>
       <r>     0.7407   102.7865   738.7593 </r>
       <r>     0.9361   115.7399   761.3725 </r>
       <r>     1.1314    33.9202   767.9998 </r>
       <r>     1.3268     0.0012   768.0000 </r>
       <r>     1.5222     0.0000   768.0000 </r>
       <r>     1.7176     0.0000   768.0000 </r>
       <r>     1.9129     0.0000   768.0000 </r>
       <r>     2.1083     0.0000   768.0000 </r>
       <r>     2.3037     0.0000   768.0000 </r>
       <r>     2.4991     0.0000   768.0000 </r>
       <r>     2.6945     0.0000   768.0000 </r>
       <r>     2.8898     0.0000   768.0000 </r>
       <r>     3.0852     0.0000   768.0000 </r>
       <r>     3.2806     0.0000   768.0000 </r>
       <r>     3.4760     0.0000   768.0000 </r>
       <r>     3.6714     0.0000   768.0000 </r>
      </set>
     </set>
    </array>
   </total>
  </dos>
 </calculation>
 <structure name="finalpos" >
  <crystal>
   <varray name="basis" >
    <v>      13.79398668       0.00000000       0.00000000 </v>
    <v>      -6.89699334      11.94594288       0.00000000 </v>
    <v>       0.00000000       0.00000000      27.81022107 </v>
   </varray>
   <i name="volume">   4582.62876984 </i>
   <varray name="rec_basis" >
    <v>       0.07249536       0.04185521       0.00000000 </v>
    <v>       0.00000000       0.08371043       0.00000000 </v>
    <v>       0.00000000       0.00000000       0.03595800 </v>
   </varray>
  </crystal>
  <varray name="positions" >
   <v>       0.07473594       0.16513327       0.54755983 </v>
   <v>       0.08762430       0.43202932       0.54168439 </v>
   <v>       0.09223205       0.67567023       0.54923826 </v>
   <v>       0.08734067       0.92463574       0.54166513 </v>
   <v>       0.33616110       0.16585963       0.54276003 </v>
   <v>       0.32419228       0.40026094       0.54994612 </v>
   <v>       0.32572764       0.66668608       0.54582988 </v>
   <v>       0.33483469       0.91846304       0.53792528 </v>
   <v>       0.58964006       0.16859720       0.53663513 </v>
   <v>       0.59361114       0.40744362       0.54566892 </v>
   <v>       0.57635153       0.67209021       0.54647635 </v>
   <v>       0.56971148       0.91580282       0.54941691 </v>
   <v>       0.84656664       0.17696578       0.54204198 </v>
   <v>       0.83727363       0.41795069       0.54328899 </v>
   <v>       0.82669100       0.66538195       0.55354827 </v>
   <v>       0.82742202       0.91061121       0.54109856 </v>
   <v>       0.16615270       0.07507143       0.45440221 </v>
   <v>       0.17413987       0.32935997       0.45675637 </v>
   <v>       0.15971727       0.57760832       0.45755127 </v>
   <v>       0.16456963       0.83062161       0.45781619 </v>
   <v>       0.41289364       0.08467144       0.45405959 </v>
   <v>       0.43696499       0.33772268       0.45431977 </v>
   <v>       0.41568606       0.56934871       0.45853130 </v>
   <v>       0.39963300       0.82084561       0.45161049 </v>
   <v>       0.64975244       0.06533936       0.44969928 </v>
   <v>       0.67571706       0.33309385       0.45001277 </v>
   <v>       0.68254771       0.59777285       0.45810439 </v>
   <v>       0.65629945       0.82489033       0.45539129 </v>
   <v>       0.90267344       0.06914949       0.45473966 </v>
   <v>       0.92308817       0.33487506       0.45216458 </v>
   <v>       0.91816047       0.58985494       0.45836010 </v>
   <v>       0.90607398       0.82864842       0.45198213 </v>
   <v>       0.07692244       0.15410561       0.39536029 </v>
   <v>       0.08557185       0.41959004       0.39301047 </v>
   <v>       0.08465641       0.66862773       0.39528240 </v>
   <v>       0.07432131       0.92867070       0.39482689 </v>
   <v>       0.32079023       0.15433658       0.39657815 </v>
   <v>       0.32707810       0.40814256       0.39541231 </v>
   <v>       0.33008128       0.65689226       0.39445587 </v>
   <v>       0.31918015       0.91951917       0.39948799 </v>
   <v>       0.59367293       0.17489917       0.39086622 </v>
   <v>       0.59655776       0.43157304       0.39693207 </v>
   <v>       0.56874425       0.67822619       0.39256093 </v>
   <v>       0.57719685       0.91370301       0.39111559 </v>
   <v>       0.84241789       0.17845211       0.39235385 </v>
   <v>       0.85059512       0.42927026       0.39328219 </v>
   <v>       0.84558188       0.67918176       0.39359944 </v>
   <v>       0.82948215       0.91207149       0.39385536 </v>
   <v>       0.15643978       0.07262324       0.59980880 </v>
   <v>       0.17094806       0.32464518       0.61158456 </v>
   <v>       0.13309913       0.56104040       0.61196894 </v>
   <v>       0.19259624       0.84482329       0.60106902 </v>
   <v>       0.42659342       0.09309767       0.60633098 </v>
   <v>       0.44258947       0.34642396       0.60412710 </v>
   <v>       0.41073369       0.57391258       0.60546054 </v>
   <v>       0.41552033       0.82004655       0.61119681 </v>
   <v>       0.66359482       0.08511260       0.61151244 </v>
   <v>       0.68731018       0.35595894       0.60669321 </v>
   <v>       0.67289986       0.59936901       0.61286481 </v>
   <v>       0.66750619       0.83352477       0.60239273 </v>
   <v>       0.92210433       0.08815768       0.60684791 </v>
   <v>       0.91074337       0.33248993       0.60180623 </v>
   <v>       0.90799191       0.58363020       0.60806329 </v>
   <v>       0.92163970       0.83881336       0.60767464 </v>
   <v>       0.00101412       0.99770658       0.50043165 </v>
   <v>       0.99694094       0.24625013       0.49705747 </v>
   <v>       0.00560114       0.51065659       0.50555413 </v>
   <v>       0.01485299       0.76480634       0.49911026 </v>
   <v>       0.25535277       0.99781714       0.49804967 </v>
   <v>       0.24901086       0.23580666       0.50076063 </v>
   <v>       0.25598578       0.49891161       0.50160658 </v>
   <v>       0.25227852       0.75052408       0.49476031 </v>
   <v>       0.50296188       0.00297754       0.50406245 </v>
   <v>       0.50227000       0.25251546       0.49654882 </v>
   <v>       0.50836902       0.49505776       0.49702143 </v>
   <v>       0.48840185       0.74172103       0.49880368 </v>
   <v>       0.72719461       0.98298232       0.49691128 </v>
   <v>       0.75738030       0.25959480       0.49817632 </v>
   <v>       0.76250276       0.50272952       0.49629673 </v>
   <v>       0.74223863       0.75805982       0.49695528 </v>
  </varray>
  <varray name="velocities" >
   <v>       0.00000000       0.00000000       0.00000000 </v>
   <v>       0.00000000       0.00000000       0.00000000 </v>
   <v>       0.00000000       0.00000000       0.00000000 </v>
   <v>       0.00000000       0.00000000       0.00000000 </v>
   <v>       0.00000000       0.00000000       0.00000000 </v>
   <v>       0.00000000       0.00000000       0.00000000 </v>
   <v>       0.00000000       0.00000000       0.00000000 </v>
   <v>       0.00000000       0.00000000       0.00000000 </v>
   <v>       0.00000000       0.00000000       0.00000000 </v>
   <v>       0.00000000       0.00000000       0.00000000 </v>
   <v>       0.00000000       0.00000000       0.00000000 </v>
   <v>       0.00000000       0.00000000       0.00000000 </v>
   <v>       0.00000000       0.00000000       0.00000000 </v>
   <v>       0.00000000       0.00000000       0.00000000 </v>
   <v>       0.00000000       0.00000000       0.00000000 </v>
   <v>       0.00000000       0.00000000       0.00000000 </v>
   <v>       0.00000000       0.00000000       0.00000000 </v>
   <v>       0.00000000       0.00000000       0.00000000 </v>
   <v>       0.00000000       0.00000000       0.00000000 </v>
   <v>       0.00000000       0.00000000       0.00000000 </v>
   <v>       0.00000000       0.00000000       0.00000000 </v>
   <v>       0.00000000       0.00000000       0.00000000 </v>
   <v>       0.00000000       0.00000000       0.00000000 </v>
   <v>       0.00000000       0.00000000       0.00000000 </v>
   <v>       0.00000000       0.00000000       0.00000000 </v>
   <v>       0.00000000       0.00000000       0.00000000 </v>
   <v>       0.00000000       0.00000000       0.00000000 </v>
   <v>       0.00000000       0.00000000       0.00000000 </v>
   <v>       0.00000000       0.00000000       0.00000000 </v>
   <v>       0.00000000       0.00000000       0.00000000 </v>
   <v>       0.00000000       0.00000000       0.00000000 </v>
   <v>       0.00000000       0.00000000       0.00000000 </v>
   <v>       0.00000000       0.00000000       0.00000000 </v>
   <v>       0.00000000       0.00000000       0.00000000 </v>
   <v>       0.00000000       0.00000000       0.00000000 </v>
   <v>       0.00000000       0.00000000       0.00000000 </v>
   <v>       0.00000000       0.00000000       0.00000000 </v>
   <v>       0.00000000       0.00000000       0.00000000 </v>
   <v>       0.00000000       0.00000000       0.00000000 </v>
   <v>       0.00000000       0.00000000       0.00000000 </v>
   <v>       0.00000000       0.00000000       0.00000000 </v>
   <v>       0.00000000       0.00000000       0.00000000 </v>
   <v>       0.00000000       0.00000000       0.00000000 </v>
   <v>       0.00000000       0.00000000       0.00000000 </v>
   <v>       0.00000000       0.00000000       0.00000000 </v>
   <v>       0.00000000       0.00000000       0.00000000 </v>
   <v>       0.00000000       0.00000000       0.00000000 </v>
   <v>       0.00000000       0.00000000       0.00000000 </v>
   <v>       0.00000000       0.00000000       0.00000000 </v>
   <v>       0.00000000       0.00000000       0.00000000 </v>
   <v>       0.00000000       0.00000000       0.00000000 </v>
   <v>       0.00000000       0.00000000       0.00000000 </v>
   <v>       0.00000000       0.00000000       0.00000000 </v>
   <v>       0.00000000       0.00000000       0.00000000 </v>
   <v>       0.00000000       0.00000000       0.00000000 </v>
   <v>       0.00000000       0.00000000       0.00000000 </v>
   <v>       0.00000000       0.00000000       0.00000000 </v>
   <v>       0.00000000       0.00000000       0.00000000 </v>
   <v>       0.00000000       0.00000000       0.00000000 </v>
   <v>       0.00000000       0.00000000       0.00000000 </v>
   <v>       0.00000000       0.00000000       0.00000000 </v>
   <v>       0.00000000       0.00000000       0.00000000 </v>
   <v>       0.00000000       0.00000000       0.00000000 </v>
   <v>       0.00000000       0.00000000       0.00000000 </v>
   <v>       0.00000000       0.00000000       0.00000000 </v>
   <v>       0.00000000       0.00000000       0.00000000 </v>
   <v>       0.00000000       0.00000000       0.00000000 </v>
   <v>       0.00000000       0.00000000       0.00000000 </v>
   <v>       0.00000000       0.00000000       0.00000000 </v>
   <v>       0.00000000       0.00000000       0.00000000 </v>
   <v>       0.00000000       0.00000000       0.00000000 </v>
   <v>       0.00000000       0.00000000       0.00000000 </v>
   <v>       0.00000000       0.00000000       0.00000000 </v>
   <v>       0.00000000       0.00000000       0.00000000 </v>
   <v>       0.00000000       0.00000000       0.00000000 </v>
   <v>       0.00000000       0.00000000       0.00000000 </v>
   <v>       0.00000000       0.00000000       0.00000000 </v>
   <v>       0.00000000       0.00000000       0.00000000 </v>
   <v>       0.00000000       0.00000000       0.00000000 </v>
   <v>       0.00000000       0.00000000       0.00000000 </v>
  </varray>
 </structure>
</modeling>
