<?xml version="1.0" encoding="ISO-8859-1"?>
<modeling>
 <generator>
  <i name="program" type="string">vasp </i>
  <i name="version" type="string">5.4.4.18Apr17-6-g9f103f2a35  </i>
  <i name="subversion" type="string">(build Mar 16 2023 09:39:13) complex            parallel </i>
  <i name="platform" type="string">LinuxIFC </i>
  <i name="date" type="string">2024 04 29 </i>
  <i name="time" type="string">19:16:49 </i>
 </generator>
 <incar>
  <i type="int" name="ISTART">     0</i>
  <i type="string" name="PREC">a</i>
  <i type="logical" name="ADDGRID"> T  </i>
  <i type="int" name="IBRION">    -1</i>
  <i name="EDIFF">      0.00000100</i>
  <i name="EDIFFG">     -0.01000000</i>
  <i type="int" name="NSW">     1</i>
  <i type="int" name="ISIF">     2</i>
  <i type="int" name="ISYM">     0</i>
  <i name="ENCUT">    600.00000000</i>
  <i name="POTIM">      1.00000000</i>
  <i type="string" name="LREAL">  A</i>
  <i type="int" name="ISMEAR">     0</i>
  <i name="SIGMA">      0.05000000</i>
  <i name="KSPACING">      0.30000000</i>
  <i type="logical" name="KGAMMA"> T  </i>
  <i type="logical" name="LWAVE"> F  </i>
  <i type="logical" name="LCHARG"> F  </i>
  <i type="logical" name="LSCALAPACK"> F  </i>
  <v type="int" name="KPOINT_BSE">    -1     0     0     0</v>
 </incar>
 <structure name="primitive_cell" >
  <crystal>
   <varray name="basis" >
    <v>      11.62817333       0.00000000       0.00000000 </v>
    <v>       0.00000000      11.62817333       0.00000000 </v>
    <v>       0.00000000       0.00000000      11.62817333 </v>
   </varray>
   <i name="volume">   1572.29665425 </i>
   <varray name="rec_basis" >
    <v>       0.08599803       0.00000000       0.00000000 </v>
    <v>       0.00000000       0.08599803       0.00000000 </v>
    <v>       0.00000000       0.00000000       0.08599803 </v>
   </varray>
  </crystal>
  <varray name="positions" >
   <v>      -0.06770930       0.45903953      -0.04842881 </v>
   <v>      -0.14918211       0.29617442      -0.03793685 </v>
   <v>       0.08283518       0.39828605      -0.13171887 </v>
   <v>      -0.13163905      -0.44520599      -0.19779279 </v>
   <v>      -0.01445790      -0.37546832       0.02601829 </v>
   <v>      -0.26685947      -0.43882079       0.03690608 </v>
   <v>      -0.01894593       0.34158504       0.16823214 </v>
   <v>      -0.27756512       0.40687246      -0.19046362 </v>
   <v>      -0.06399860      -0.49014767      -0.30306253 </v>
   <v>       0.04307272      -0.40626672       0.14647364 </v>
   <v>       0.18964822       0.47824984      -0.10737761 </v>
   <v>      -0.20724367       0.36941235       0.15794100 </v>
   <v>      -0.25869011       0.28571352      -0.13865710 </v>
   <v>       0.15243789       0.49805845       0.11987183 </v>
   <v>      -0.05843250      -0.44778862       0.21538264 </v>
   <v>      -0.12132148       0.42726415       0.23320012 </v>
   <v>       0.16070866      -0.35577048      -0.05832776 </v>
   <v>      -0.09565249       0.37497885      -0.32979244 </v>
   <v>       0.07370547      -0.44322784      -0.30350009 </v>
   <v>       0.11480717       0.35801438       0.18179982 </v>
   <v>      -0.31659507       0.49379768       0.14137024 </v>
   <v>      -0.08708132       0.16717198       0.07418726 </v>
   <v>      -0.24397762      -0.28508422      -0.12132696 </v>
   <v>      -0.19673932       0.17695175      -0.19917843 </v>
   <v>      -0.03730995      -0.19339591       0.01765341 </v>
   <v>      -0.32325671       0.47161517      -0.30382718 </v>
   <v>       0.29149789       0.41151183      -0.02753238 </v>
   <v>       0.14847114       0.22138600       0.12097854 </v>
   <v>      -0.31125627       0.21728946       0.11153119 </v>
   <v>       0.25966989       0.45195013      -0.23927437 </v>
   <v>      -0.30517823      -0.38091973      -0.29801108 </v>
   <v>       0.07491935      -0.26551116       0.17329571 </v>
   <v>      -0.41404027      -0.39655515      -0.12908058 </v>
   <v>       0.10067602       0.35402353      -0.38113259 </v>
   <v>      -0.42601972       0.41016882       0.09192751 </v>
   <v>       0.24108876       0.23972934      -0.14325376 </v>
   <v>      -0.37735835       0.21885026      -0.07968430 </v>
   <v>       0.07469359      -0.23292319      -0.25731622 </v>
   <v>       0.11383642       0.10400637      -0.12434254 </v>
   <v>      -0.10130530      -0.44778872      -0.44793769 </v>
   <v>       0.13843963      -0.32364118      -0.33914652 </v>
   <v>       0.16971338       0.39739797       0.28989841 </v>
   <v>      -0.34120539      -0.41250301       0.24201109 </v>
   <v>      -0.02418083       0.10757980      -0.27272198 </v>
   <v>      -0.17754914       0.46850773       0.36263593 </v>
   <v>       0.29132301      -0.30233318      -0.05495074 </v>
   <v>      -0.21797432      -0.28739314       0.27273971 </v>
   <v>      -0.28342043       0.42654649      -0.42952283 </v>
   <v>      -0.04926662      -0.12121604      -0.17809277 </v>
   <v>       0.13379941       0.18758289      -0.33729588 </v>
   <v>       0.49135031       0.42012247      -0.11193719 </v>
   <v>      -0.16956000      -0.15320996       0.15700485 </v>
   <v>      -0.07794551       0.17750153       0.30483179 </v>
   <v>       0.26348283      -0.36400154      -0.30257418 </v>
   <v>      -0.13827769       0.41108036      -0.49822543 </v>
   <v>      -0.15618754       0.00936295       0.01285868 </v>
   <v>      -0.45665566       0.46324441      -0.30220962 </v>
   <v>      -0.43380585      -0.32710702      -0.24173146 </v>
   <v>       0.13573279      -0.12249662      -0.11116518 </v>
   <v>      -0.36697416      -0.20325936      -0.20474177 </v>
   <v>       0.39541163      -0.40417245      -0.03375333 </v>
   <v>       0.28062583      -0.20862402       0.03925802 </v>
   <v>       0.39043982       0.47118222       0.12591546 </v>
   <v>       0.07725354      -0.10228544      -0.23468669 </v>
   <v>      -0.35516890      -0.13706768       0.02252333 </v>
   <v>       0.06696229      -0.15268151       0.23800048 </v>
   <v>      -0.26657150       0.01923267      -0.18796446 </v>
   <v>      -0.17828458       0.27352288       0.49721440 </v>
   <v>       0.04668987      -0.39526377       0.42035340 </v>
   <v>       0.20926539      -0.38085221       0.34384417 </v>
   <v>      -0.00156144       0.33770488       0.46120376 </v>
   <v>      -0.46178396      -0.29482400       0.16443583 </v>
   <v>       0.33466948       0.19003804       0.11752029 </v>
   <v>      -0.26850014       0.05944458       0.20148193 </v>
   <v>       0.13380836       0.11657843       0.27804596 </v>
   <v>       0.10123141      -0.27628059      -0.45612920 </v>
   <v>      -0.14110483      -0.25010699      -0.47825893 </v>
   <v>      -0.26094500      -0.27229102      -0.45494573 </v>
   <v>       0.19835660       0.00250409      -0.07168796 </v>
   <v>      -0.48685199       0.14535634      -0.13562980 </v>
   <v>      -0.36762683       0.30145710       0.36172747 </v>
   <v>      -0.01987579       0.13020870      -0.46699335 </v>
   <v>      -0.35726737       0.25076226      -0.45296791 </v>
   <v>       0.39846351       0.18831304      -0.06747396 </v>
   <v>      -0.07007670       0.20665711       0.43889965 </v>
   <v>       0.36942703      -0.22872050      -0.16270782 </v>
   <v>      -0.48208756       0.17743631       0.17852946 </v>
   <v>      -0.25466001      -0.04447958       0.09762786 </v>
   <v>       0.04154716      -0.19167070       0.36351295 </v>
   <v>      -0.39884249       0.49328356       0.39473948 </v>
   <v>       0.26030956       0.36791279       0.38946372 </v>
   <v>       0.36147460       0.33594012       0.29137877 </v>
   <v>       0.26452328       0.43440819       0.49956150 </v>
   <v>      -0.00657286      -0.04031813       0.20251299 </v>
   <v>       0.48435784       0.19830060      -0.26672050 </v>
   <v>      -0.33799407      -0.35684061       0.48578611 </v>
   <v>       0.17566255       0.09861922      -0.41782155 </v>
   <v>       0.36076973      -0.25444285      -0.29620126 </v>
   <v>      -0.38423807      -0.20962161       0.29611726 </v>
   <v>       0.10394575      -0.01050092      -0.33616167 </v>
   <v>      -0.14161524      -0.05783546      -0.36169443 </v>
   <v>       0.39208873      -0.48110343      -0.39862381 </v>
   <v>       0.31887519       0.02779071      -0.13125756 </v>
   <v>       0.25278560      -0.01976943       0.05363228 </v>
   <v>      -0.43784709       0.00713753      -0.12291485 </v>
   <v>      -0.35639439       0.04393580      -0.36087367 </v>
   <v>      -0.49849041       0.25686935       0.30858314 </v>
   <v>       0.47211113      -0.31141415      -0.34892858 </v>
   <v>      -0.13715257       0.00909978       0.33686786 </v>
   <v>       0.35191686      -0.37071133       0.34139643 </v>
   <v>       0.30459738      -0.11086165       0.13735507 </v>
   <v>      -0.49858717      -0.12566618      -0.05724871 </v>
   <v>       0.43346295      -0.46512195       0.27707976 </v>
   <v>       0.38406471       0.28502978      -0.40832340 </v>
   <v>       0.22158366      -0.11029477       0.26182068 </v>
   <v>      -0.00339483      -0.09882521      -0.46436456 </v>
   <v>       0.22586836       0.24141345       0.45561394 </v>
   <v>      -0.25256306      -0.01257045      -0.41804142 </v>
   <v>       0.34028152       0.12396767      -0.39164911 </v>
   <v>       0.37753249      -0.23065958       0.27791468 </v>
   <v>      -0.31481757      -0.14026143      -0.47762398 </v>
   <v>       0.32091002       0.08122741       0.29429780 </v>
   <v>       0.32536846      -0.15284174      -0.38017597 </v>
   <v>       0.24648569      -0.18954615       0.41824659 </v>
   <v>      -0.26278171       0.05308407       0.45675751 </v>
   <v>       0.48055034       0.35685721       0.46647948 </v>
   <v>       0.44573175      -0.10901331       0.11907502 </v>
   <v>      -0.47364922      -0.23010452       0.48862979 </v>
   <v>      -0.45519583      -0.00612034       0.30896202 </v>
   <v>       0.46735574       0.01230070      -0.36269069 </v>
   <v>       0.42637423      -0.37341815       0.45332754 </v>
   <v>       0.19809998      -0.00065749       0.45207248 </v>
   <v>       0.47921669       0.13396508       0.47110151 </v>
   <v>       0.34824616       0.06448411       0.43611431 </v>
   <v>       0.41078916      -0.07565894       0.44561255 </v>
  </varray>
 </structure>
 <varray name="primitive_index" >
  <v type="int" >        1 </v>
  <v type="int" >      130 </v>
  <v type="int" >      121 </v>
  <v type="int" >       76 </v>
  <v type="int" >       63 </v>
  <v type="int" >      112 </v>
  <v type="int" >      126 </v>
  <v type="int" >       82 </v>
  <v type="int" >       29 </v>
  <v type="int" >       52 </v>
  <v type="int" >       42 </v>
  <v type="int" >      133 </v>
  <v type="int" >       49 </v>
  <v type="int" >      110 </v>
  <v type="int" >      115 </v>
  <v type="int" >       32 </v>
  <v type="int" >       91 </v>
  <v type="int" >      114 </v>
  <v type="int" >      124 </v>
  <v type="int" >       50 </v>
  <v type="int" >       34 </v>
  <v type="int" >       18 </v>
  <v type="int" >       15 </v>
  <v type="int" >      102 </v>
  <v type="int" >        9 </v>
  <v type="int" >       41 </v>
  <v type="int" >       67 </v>
  <v type="int" >       75 </v>
  <v type="int" >        5 </v>
  <v type="int" >      119 </v>
  <v type="int" >      117 </v>
  <v type="int" >      135 </v>
  <v type="int" >       95 </v>
  <v type="int" >        7 </v>
  <v type="int" >       88 </v>
  <v type="int" >        2 </v>
  <v type="int" >      131 </v>
  <v type="int" >       98 </v>
  <v type="int" >      108 </v>
  <v type="int" >       64 </v>
  <v type="int" >       33 </v>
  <v type="int" >      100 </v>
  <v type="int" >       84 </v>
  <v type="int" >       10 </v>
  <v type="int" >       89 </v>
  <v type="int" >       46 </v>
  <v type="int" >       27 </v>
  <v type="int" >      113 </v>
  <v type="int" >       62 </v>
  <v type="int" >      106 </v>
  <v type="int" >       14 </v>
  <v type="int" >       93 </v>
  <v type="int" >      123 </v>
  <v type="int" >       96 </v>
  <v type="int" >       43 </v>
  <v type="int" >       73 </v>
  <v type="int" >      103 </v>
  <v type="int" >       48 </v>
  <v type="int" >      118 </v>
  <v type="int" >       90 </v>
  <v type="int" >       68 </v>
  <v type="int" >      132 </v>
  <v type="int" >       20 </v>
  <v type="int" >       39 </v>
  <v type="int" >       57 </v>
  <v type="int" >       54 </v>
  <v type="int" >       22 </v>
  <v type="int" >      101 </v>
  <v type="int" >        6 </v>
  <v type="int" >       58 </v>
  <v type="int" >       80 </v>
  <v type="int" >       23 </v>
  <v type="int" >       25 </v>
  <v type="int" >      107 </v>
  <v type="int" >        8 </v>
  <v type="int" >       72 </v>
  <v type="int" >       99 </v>
  <v type="int" >       51 </v>
  <v type="int" >       53 </v>
  <v type="int" >       31 </v>
  <v type="int" >       97 </v>
  <v type="int" >      120 </v>
  <v type="int" >       17 </v>
  <v type="int" >      109 </v>
  <v type="int" >       38 </v>
  <v type="int" >      111 </v>
  <v type="int" >      104 </v>
  <v type="int" >       44 </v>
  <v type="int" >      128 </v>
  <v type="int" >       24 </v>
  <v type="int" >       37 </v>
  <v type="int" >       92 </v>
  <v type="int" >      129 </v>
  <v type="int" >      105 </v>
  <v type="int" >       69 </v>
  <v type="int" >       56 </v>
  <v type="int" >       28 </v>
  <v type="int" >       35 </v>
  <v type="int" >       85 </v>
  <v type="int" >       94 </v>
  <v type="int" >       79 </v>
  <v type="int" >       13 </v>
  <v type="int" >       86 </v>
  <v type="int" >       81 </v>
  <v type="int" >       55 </v>
  <v type="int" >       65 </v>
  <v type="int" >       36 </v>
  <v type="int" >       59 </v>
  <v type="int" >       19 </v>
  <v type="int" >       30 </v>
  <v type="int" >       40 </v>
  <v type="int" >       12 </v>
  <v type="int" >       77 </v>
  <v type="int" >       21 </v>
  <v type="int" >       61 </v>
  <v type="int" >       11 </v>
  <v type="int" >      134 </v>
  <v type="int" >       45 </v>
  <v type="int" >       87 </v>
  <v type="int" >      125 </v>
  <v type="int" >      122 </v>
  <v type="int" >       74 </v>
  <v type="int" >       83 </v>
  <v type="int" >        3 </v>
  <v type="int" >      116 </v>
  <v type="int" >       60 </v>
  <v type="int" >       71 </v>
  <v type="int" >        4 </v>
  <v type="int" >       16 </v>
  <v type="int" >       26 </v>
  <v type="int" >       66 </v>
  <v type="int" >       78 </v>
  <v type="int" >      127 </v>
  <v type="int" >       47 </v>
  <v type="int" >       70 </v>
 </varray>
 <kpoints>
  <generation param="Gamma">
   <v type="int" name="divisions">       2        2        2 </v>
   <v name="usershift">      0.00000000       0.00000000       0.00000000 </v>
   <v name="genvec1">      0.50000000       0.00000000       0.00000000 </v>
   <v name="genvec2">      0.00000000       0.50000000       0.00000000 </v>
   <v name="genvec3">      0.00000000       0.00000000       0.50000000 </v>
   <v name="shift">      0.00000000       0.00000000       0.00000000 </v>
  </generation>
  <varray name="kpointlist" >
   <v>       0.00000000       0.00000000       0.00000000 </v>
   <v>       0.50000000       0.00000000       0.00000000 </v>
   <v>       0.00000000       0.50000000       0.00000000 </v>
   <v>       0.50000000       0.50000000       0.00000000 </v>
   <v>       0.00000000       0.00000000       0.50000000 </v>
   <v>       0.50000000       0.00000000       0.50000000 </v>
   <v>       0.00000000       0.50000000       0.50000000 </v>
   <v>       0.50000000       0.50000000       0.50000000 </v>
  </varray>
  <varray name="weights" >
   <v>       0.12500000 </v>
   <v>       0.12500000 </v>
   <v>       0.12500000 </v>
   <v>       0.12500000 </v>
   <v>       0.12500000 </v>
   <v>       0.12500000 </v>
   <v>       0.12500000 </v>
   <v>       0.12500000 </v>
  </varray>
 </kpoints>
 <parameters>
  <separator name="general" >
   <i type="string" name="SYSTEM">unknown system</i>
   <i type="logical" name="LCOMPAT"> F  </i>
  </separator>
  <separator name="electronic" >
   <i type="string" name="PREC">a</i>
   <i name="ENMAX">    600.00000000</i>
   <i name="ENAUG">    605.39200000</i>
   <i name="EDIFF">      0.00000100</i>
   <i type="int" name="IALGO">    38</i>
   <i type="int" name="IWAVPR">    10</i>
   <i type="int" name="NBANDS">   520</i>
   <i name="NELECT">    864.00000000</i>
   <i type="int" name="TURBO">     0</i>
   <i type="int" name="IRESTART">     0</i>
   <i type="int" name="NREBOOT">     0</i>
   <i type="int" name="NMIN">     0</i>
   <i name="EREF">      0.00000000</i>
   <separator name="electronic smearing" >
    <i type="int" name="ISMEAR">     0</i>
    <i name="SIGMA">      0.05000000</i>
    <i name="KSPACING">      0.30000000</i>
    <i type="logical" name="KGAMMA"> T  </i>
   </separator>
   <separator name="electronic projectors" >
    <i type="logical" name="LREAL"> T  </i>
    <v name="ROPT">     -0.00025000     -0.00025000     -0.00025000</v>
    <i type="int" name="LMAXPAW">  -100</i>
    <i type="int" name="LMAXMIX">     2</i>
    <i type="logical" name="NLSPLINE"> F  </i>
   </separator>
   <separator name="electronic startup" >
    <i type="int" name="ISTART">     0</i>
    <i type="int" name="ICHARG">     2</i>
    <i type="int" name="INIWAV">     1</i>
   </separator>
   <separator name="electronic spin" >
    <i type="int" name="ISPIN">     1</i>
    <i type="logical" name="LNONCOLLINEAR"> F  </i>
    <v name="MAGMOM">      1.00000000      1.00000000      1.00000000      1.00000000      1.00000000      1.00000000      1.00000000      1.00000000      1.00000000      1.00000000      1.00000000      1.00000000      1.00000000      1.00000000      1.00000000      1.00000000      1.00000000      1.00000000      1.00000000      1.00000000
      1.00000000      1.00000000      1.00000000      1.00000000      1.00000000      1.00000000      1.00000000      1.00000000      1.00000000      1.00000000      1.00000000      1.00000000      1.00000000      1.00000000      1.00000000      1.00000000      1.00000000      1.00000000      1.00000000      1.00000000
      1.00000000      1.00000000      1.00000000      1.00000000      1.00000000      1.00000000      1.00000000      1.00000000      1.00000000      1.00000000      1.00000000      1.00000000      1.00000000      1.00000000      1.00000000      1.00000000      1.00000000      1.00000000      1.00000000      1.00000000
      1.00000000      1.00000000      1.00000000      1.00000000      1.00000000      1.00000000      1.00000000      1.00000000      1.00000000      1.00000000      1.00000000      1.00000000      1.00000000      1.00000000      1.00000000      1.00000000      1.00000000      1.00000000      1.00000000      1.00000000
      1.00000000      1.00000000      1.00000000      1.00000000      1.00000000      1.00000000      1.00000000      1.00000000      1.00000000      1.00000000      1.00000000      1.00000000      1.00000000      1.00000000      1.00000000      1.00000000      1.00000000      1.00000000      1.00000000      1.00000000
      1.00000000      1.00000000      1.00000000      1.00000000      1.00000000      1.00000000      1.00000000      1.00000000      1.00000000      1.00000000      1.00000000      1.00000000      1.00000000      1.00000000      1.00000000      1.00000000      1.00000000      1.00000000      1.00000000      1.00000000
      1.00000000      1.00000000      1.00000000      1.00000000      1.00000000      1.00000000      1.00000000      1.00000000      1.00000000      1.00000000      1.00000000      1.00000000      1.00000000      1.00000000      1.00000000</v>
    <i name="NUPDOWN">     -1.00000000</i>
    <i type="logical" name="LSORBIT"> F  </i>
    <v name="SAXIS">      0.00000000      0.00000000      1.00000000</v>
    <i type="logical" name="LSPIRAL"> F  </i>
    <v name="QSPIRAL">      0.00000000      0.00000000      0.00000000</v>
    <i type="logical" name="LZEROZ"> F  </i>
   </separator>
   <separator name="electronic exchange-correlation" >
    <i type="logical" name="LASPH"> F  </i>
    <i type="logical" name="LMETAGGA"> F  </i>
   </separator>
   <separator name="electronic convergence" >
    <i type="int" name="NELM">    60</i>
    <i type="int" name="NELMDL">    -5</i>
    <i type="int" name="NELMIN">     2</i>
    <i name="ENINI">    600.00000000</i>
    <separator name="electronic convergence detail" >
     <i type="logical" name="LDIAG"> T  </i>
     <i type="logical" name="LSUBROT"> F  </i>
     <i name="WEIMIN">      0.00000000</i>
     <i name="EBREAK">      0.00000000</i>
     <i name="DEPER">      0.30000000</i>
     <i type="int" name="NRMM">     4</i>
     <i name="TIME">      0.40000000</i>
    </separator>
   </separator>
   <separator name="electronic mixer" >
    <i name="AMIX">      0.40000000</i>
    <i name="BMIX">      1.00000000</i>
    <i name="AMIN">      0.10000000</i>
    <i name="AMIX_MAG">      1.60000000</i>
    <i name="BMIX_MAG">      1.00000000</i>
    <separator name="electronic mixer details" >
     <i type="int" name="IMIX">     4</i>
     <i type="logical" name="MIXFIRST"> F  </i>
     <i type="int" name="MAXMIX">   -45</i>
     <i name="WC">    100.00000000</i>
     <i type="int" name="INIMIX">     1</i>
     <i type="int" name="MIXPRE">     1</i>
     <i type="int" name="MREMOVE">     5</i>
    </separator>
   </separator>
   <separator name="electronic dipolcorrection" >
    <i type="logical" name="LDIPOL"> F  </i>
    <i type="logical" name="LMONO"> F  </i>
    <i type="int" name="IDIPOL">     0</i>
    <i name="EPSILON">      1.00000000</i>
    <v name="DIPOL">   -100.00000000   -100.00000000   -100.00000000</v>
    <i name="EFIELD">      0.00000000</i>
   </separator>
  </separator>
  <separator name="grids" >
   <i type="int" name="NGX">    96</i>
   <i type="int" name="NGY">    96</i>
   <i type="int" name="NGZ">    96</i>
   <i type="int" name="NGXF">   192</i>
   <i type="int" name="NGYF">   192</i>
   <i type="int" name="NGZF">   192</i>
   <i type="logical" name="ADDGRID"> T  </i>
  </separator>
  <separator name="ionic" >
   <i type="int" name="NSW">     1</i>
   <i type="int" name="IBRION">    -1</i>
   <i type="int" name="MDALGO">     0</i>
   <i type="int" name="ISIF">     2</i>
   <i name="PSTRESS">      0.00000000</i>
   <i name="EDIFFG">     -0.01000000</i>
   <i type="int" name="NFREE">     0</i>
   <i name="POTIM">      1.00000000</i>
   <i name="SMASS">     -3.00000000</i>
   <i name="SCALEE">      1.00000000</i>
  </separator>
  <separator name="ionic md" >
   <i name="TEBEG">      0.00010000</i>
   <i name="TEEND">      0.00010000</i>
   <i type="int" name="NBLOCK">     1</i>
   <i type="int" name="KBLOCK">     1</i>
   <i type="int" name="NPACO">   256</i>
   <i name="APACO">     16.00000000</i>
  </separator>
  <separator name="symmetry" >
   <i type="int" name="ISYM">     0</i>
   <i name="SYMPREC">      0.00001000</i>
  </separator>
  <separator name="dos" >
   <i type="int" name="LORBIT">     0</i>
   <v name="RWIGS">     -1.00000000     -1.00000000     -1.00000000</v>
   <i type="int" name="NEDOS">   301</i>
   <i name="EMIN">     10.00000000</i>
   <i name="EMAX">    -10.00000000</i>
   <i name="EFERMI">      0.00000000</i>
  </separator>
  <separator name="writing" >
   <i type="int" name="NWRITE">     2</i>
   <i type="logical" name="LWAVE"> F  </i>
   <i type="logical" name="LDOWNSAMPLE"> F  </i>
   <i type="logical" name="LCHARG"> F  </i>
   <i type="logical" name="LPARD"> F  </i>
   <i type="logical" name="LVTOT"> F  </i>
   <i type="logical" name="LVHAR"> F  </i>
   <i type="logical" name="LELF"> F  </i>
   <i type="logical" name="LOPTICS"> F  </i>
   <v name="STM">      0.00000000      0.00000000      0.00000000      0.00000000      0.00000000      0.00000000      0.00000000</v>
  </separator>
  <separator name="performance" >
   <i type="int" name="NPAR">     4</i>
   <i type="int" name="NSIM">     4</i>
   <i type="int" name="NBLK">    -1</i>
   <i type="logical" name="LPLANE"> T  </i>
   <i type="logical" name="LSCALAPACK"> F  </i>
   <i type="logical" name="LSCAAWARE"> F  </i>
   <i type="logical" name="LSCALU"> F  </i>
   <i type="logical" name="LASYNC"> F  </i>
   <i type="logical" name="LORBITALREAL"> F  </i>
  </separator>
  <separator name="miscellaneous" >
   <i type="int" name="IDIOT">     3</i>
   <i type="int" name="ISPECIAL">     0</i>
   <i type="logical" name="LMUSIC"> F  </i>
   <v name="POMASS">     40.07800000     28.08500000     16.00000000</v>
   <v name="DARWINR">      0.00000000      0.00000000      0.00000000</v>
   <v name="DARWINV">      1.00000000      1.00000000      1.00000000</v>
   <i type="logical" name="LCORR"> T  </i>
  </separator>
  <i type="logical" name="GGA_COMPAT"> T  </i>
  <i type="logical" name="LBERRY"> F  </i>
  <i type="int" name="ICORELEVEL">     0</i>
  <i type="logical" name="LDAU"> F  </i>
  <i type="int" name="I_CONSTRAINED_M">     0</i>
  <separator name="electronic exchange-correlation" >
   <i type="string" name="GGA">--</i>
   <i type="int" name="VOSKOWN">     0</i>
   <i type="logical" name="LHFCALC"> F  </i>
   <i type="string" name="PRECFOCK"></i>
   <i type="logical" name="LSYMGRAD"> F  </i>
   <i type="logical" name="LHFONE"> F  </i>
   <i type="logical" name="LRHFCALC"> F  </i>
   <i type="logical" name="LTHOMAS"> F  </i>
   <i type="logical" name="LMODELHF"> F  </i>
   <i name="ENCUT4O">     -1.00000000</i>
   <i type="int" name="EXXOEP">     0</i>
   <i type="int" name="FOURORBIT">     0</i>
   <i name="AEXX">      0.00000000</i>
   <i name="HFALPHA">      0.00000000</i>
   <i name="MCALPHA">      0.00000000</i>
   <i name="ALDAX">      1.00000000</i>
   <i name="AGGAX">      1.00000000</i>
   <i name="ALDAC">      1.00000000</i>
   <i name="AGGAC">      1.00000000</i>
   <i type="int" name="NKREDX">     1</i>
   <i type="int" name="NKREDY">     1</i>
   <i type="int" name="NKREDZ">     1</i>
   <i type="logical" name="SHIFTRED"> F  </i>
   <i type="logical" name="ODDONLY"> F  </i>
   <i type="logical" name="EVENONLY"> F  </i>
   <i type="int" name="LMAXFOCK">     0</i>
   <i type="int" name="NMAXFOCKAE">     0</i>
   <i type="logical" name="LFOCKAEDFT"> F  </i>
   <i name="HFSCREEN">      0.00000000</i>
   <i name="HFSCREENC">      0.00000000</i>
   <i type="int" name="NBANDSGWLOW">     0</i>
  </separator>
  <separator name="vdW DFT" >
   <i type="logical" name="LUSE_VDW"> F  </i>
   <i name="Zab_VDW">     -0.84910000</i>
   <i name="PARAM1">      0.12340000</i>
   <i name="PARAM2">      1.00000000</i>
   <i name="PARAM3">      0.00000000</i>
  </separator>
  <separator name="model GW" >
   <i type="int" name="MODEL_GW">     0</i>
   <i name="MODEL_EPS0">      6.98798513</i>
   <i name="MODEL_ALPHA">      1.00000000</i>
  </separator>
  <separator name="linear response parameters" >
   <i type="logical" name="LEPSILON"> F  </i>
   <i type="logical" name="LRPA"> F  </i>
   <i type="logical" name="LNABLA"> F  </i>
   <i type="logical" name="LVEL"> F  </i>
   <i type="int" name="KINTER">     0</i>
   <i name="CSHIFT">      0.10000000</i>
   <i name="OMEGAMAX">     -1.00000000</i>
   <i name="DEG_THRESHOLD">      0.00200000</i>
   <i name="RTIME">     -0.10000000</i>
   <i name="WPLASMAI">      0.00000000</i>
   <v name="DFIELD">      0.00000000      0.00000000      0.00000000</v>
   <v name="WPLASMA">      0.00000000      0.00000000      0.00000000      0.00000000      0.00000000      0.00000000      0.00000000      0.00000000      0.00000000</v>
  </separator>
  <separator name="orbital magnetization" >
   <i type="logical" name="NUCIND"> F  </i>
   <v name="MAGPOS">      0.00000000      0.00000000      0.00000000</v>
   <i type="logical" name="LNICSALL"> T  </i>
   <i type="logical" name="ORBITALMAG"> F  </i>
   <i type="logical" name="LMAGBLOCH"> F  </i>
   <i type="logical" name="LCHIMAG"> F  </i>
   <i type="logical" name="LGAUGE"> T  </i>
   <i type="int" name="MAGATOM">     0</i>
   <v name="MAGDIPOL">      0.00000000      0.00000000      0.00000000</v>
   <v name="AVECCONST">      0.00000000      0.00000000      0.00000000</v>
  </separator>
  <separator name="response functions" >
   <i type="logical" name="LADDER"> F  </i>
   <i type="logical" name="LRPAFORCE"> F  </i>
   <i type="logical" name="LFXC"> F  </i>
   <i type="logical" name="LHARTREE"> T  </i>
   <i type="int" name="IBSE">     0</i>
   <v type="int" name="KPOINT">    -1     0     0     0</v>
   <i type="logical" name="LTCTE"> F  </i>
   <i type="logical" name="LTETE"> F  </i>
   <i type="logical" name="LTRIPLET"> F  </i>
   <i type="logical" name="LFXCEPS"> F  </i>
   <i type="logical" name="LFXHEG"> F  </i>
   <i type="int" name="NATURALO">     2</i>
   <i type="logical" name="L2ORDER"> F  </i>
   <i type="logical" name="LMP2LT"> F  </i>
   <i type="logical" name="LUSEW"> F  </i>
   <i name="ENCUTGW">     -2.00000000</i>
   <i name="ENCUTGWSOFT">     -2.00000000</i>
   <i name="ENCUTLF">     -1.00000000</i>
   <i type="int" name="LMAXMP2">    -1</i>
   <i name="SCISSOR">      0.00000000</i>
   <i type="int" name="NOMEGA">     0</i>
   <i type="int" name="NOMEGAR">     0</i>
   <i type="int" name="NBANDSGW">    -1</i>
   <i type="int" name="NBANDSO">    -1</i>
   <i type="int" name="NBANDSV">    -1</i>
   <i type="int" name="NELM">     1</i>
   <i type="int" name="NELMHF">     1</i>
   <i type="int" name="DIM">     3</i>
   <i type="int" name="ANTIRES">     0</i>
   <i name="OMEGAMAX">    -30.00000000</i>
   <i name="OMEGAMIN">    -30.00000000</i>
   <i name="OMEGATL">   -200.00000000</i>
   <i type="int" name="OMEGAGRID">   140</i>
   <i name="CSHIFT">     -0.10000000</i>
   <i type="logical" name="SELFENERGY"> F  </i>
   <i type="logical" name="LSPECTRAL"> F  </i>
   <i type="logical" name="LSPECTRALGW"> F  </i>
   <i type="logical" name="LSINGLES"> F  </i>
   <i type="logical" name="LFERMIGW"> F  </i>
   <i type="logical" name="ODDONLYGW"> F  </i>
   <i type="logical" name="EVENONLYGW"> F  </i>
   <i type="int" name="NKREDLFX">     1</i>
   <i type="int" name="NKREDLFY">     1</i>
   <i type="int" name="NKREDLFZ">     1</i>
   <i type="int" name="MAXMEM">  2800</i>
   <i type="int" name="TELESCOPE">     0</i>
   <i type="int" name="TAUPAR">     1</i>
   <i type="int" name="OMEGAPAR">    -1</i>
   <i name="LAMBDA">      1.00000000</i>
  </separator>
  <separator name="External order field" >
   <i name="OFIELD_KAPPA">      0.00000000</i>
   <v name="OFIELD_K">      0.00000000      0.00000000      0.00000000</v>
   <i name="OFIELD_Q6_NEAR">      0.00000000</i>
   <i name="OFIELD_Q6_FAR">      0.00000000</i>
   <i name="OFIELD_A">      0.00000000</i>
  </separator>
 </parameters>
 <atominfo>
  <atoms>     135 </atoms>
  <types>       3 </types>
  <array name="atoms" >
   <dimension dim="1">ion</dimension>
   <field type="string">element</field>
   <field type="int">atomtype</field>
   <set>
    <rc><c>Ca</c><c>   1</c></rc>
    <rc><c>Ca</c><c>   1</c></rc>
    <rc><c>Ca</c><c>   1</c></rc>
    <rc><c>Ca</c><c>   1</c></rc>
    <rc><c>Ca</c><c>   1</c></rc>
    <rc><c>Ca</c><c>   1</c></rc>
    <rc><c>Ca</c><c>   1</c></rc>
    <rc><c>Ca</c><c>   1</c></rc>
    <rc><c>Ca</c><c>   1</c></rc>
    <rc><c>Ca</c><c>   1</c></rc>
    <rc><c>Ca</c><c>   1</c></rc>
    <rc><c>Ca</c><c>   1</c></rc>
    <rc><c>Ca</c><c>   1</c></rc>
    <rc><c>Ca</c><c>   1</c></rc>
    <rc><c>Ca</c><c>   1</c></rc>
    <rc><c>Ca</c><c>   1</c></rc>
    <rc><c>Ca</c><c>   1</c></rc>
    <rc><c>Ca</c><c>   1</c></rc>
    <rc><c>Ca</c><c>   1</c></rc>
    <rc><c>Ca</c><c>   1</c></rc>
    <rc><c>Ca</c><c>   1</c></rc>
    <rc><c>Ca</c><c>   1</c></rc>
    <rc><c>Ca</c><c>   1</c></rc>
    <rc><c>Ca</c><c>   1</c></rc>
    <rc><c>Ca</c><c>   1</c></rc>
    <rc><c>Ca</c><c>   1</c></rc>
    <rc><c>Ca</c><c>   1</c></rc>
    <rc><c>Si</c><c>   2</c></rc>
    <rc><c>Si</c><c>   2</c></rc>
    <rc><c>Si</c><c>   2</c></rc>
    <rc><c>Si</c><c>   2</c></rc>
    <rc><c>Si</c><c>   2</c></rc>
    <rc><c>Si</c><c>   2</c></rc>
    <rc><c>Si</c><c>   2</c></rc>
    <rc><c>Si</c><c>   2</c></rc>
    <rc><c>Si</c><c>   2</c></rc>
    <rc><c>Si</c><c>   2</c></rc>
    <rc><c>Si</c><c>   2</c></rc>
    <rc><c>Si</c><c>   2</c></rc>
    <rc><c>Si</c><c>   2</c></rc>
    <rc><c>Si</c><c>   2</c></rc>
    <rc><c>Si</c><c>   2</c></rc>
    <rc><c>Si</c><c>   2</c></rc>
    <rc><c>Si</c><c>   2</c></rc>
    <rc><c>Si</c><c>   2</c></rc>
    <rc><c>Si</c><c>   2</c></rc>
    <rc><c>Si</c><c>   2</c></rc>
    <rc><c>Si</c><c>   2</c></rc>
    <rc><c>Si</c><c>   2</c></rc>
    <rc><c>Si</c><c>   2</c></rc>
    <rc><c>Si</c><c>   2</c></rc>
    <rc><c>Si</c><c>   2</c></rc>
    <rc><c>Si</c><c>   2</c></rc>
    <rc><c>Si</c><c>   2</c></rc>
    <rc><c>O </c><c>   3</c></rc>
    <rc><c>O </c><c>   3</c></rc>
    <rc><c>O </c><c>   3</c></rc>
    <rc><c>O </c><c>   3</c></rc>
    <rc><c>O </c><c>   3</c></rc>
    <rc><c>O </c><c>   3</c></rc>
    <rc><c>O </c><c>   3</c></rc>
    <rc><c>O </c><c>   3</c></rc>
    <rc><c>O </c><c>   3</c></rc>
    <rc><c>O </c><c>   3</c></rc>
    <rc><c>O </c><c>   3</c></rc>
    <rc><c>O </c><c>   3</c></rc>
    <rc><c>O </c><c>   3</c></rc>
    <rc><c>O </c><c>   3</c></rc>
    <rc><c>O </c><c>   3</c></rc>
    <rc><c>O </c><c>   3</c></rc>
    <rc><c>O </c><c>   3</c></rc>
    <rc><c>O </c><c>   3</c></rc>
    <rc><c>O </c><c>   3</c></rc>
    <rc><c>O </c><c>   3</c></rc>
    <rc><c>O </c><c>   3</c></rc>
    <rc><c>O </c><c>   3</c></rc>
    <rc><c>O </c><c>   3</c></rc>
    <rc><c>O </c><c>   3</c></rc>
    <rc><c>O </c><c>   3</c></rc>
    <rc><c>O </c><c>   3</c></rc>
    <rc><c>O </c><c>   3</c></rc>
    <rc><c>O </c><c>   3</c></rc>
    <rc><c>O </c><c>   3</c></rc>
    <rc><c>O </c><c>   3</c></rc>
    <rc><c>O </c><c>   3</c></rc>
    <rc><c>O </c><c>   3</c></rc>
    <rc><c>O </c><c>   3</c></rc>
    <rc><c>O </c><c>   3</c></rc>
    <rc><c>O </c><c>   3</c></rc>
    <rc><c>O </c><c>   3</c></rc>
    <rc><c>O </c><c>   3</c></rc>
    <rc><c>O </c><c>   3</c></rc>
    <rc><c>O </c><c>   3</c></rc>
    <rc><c>O </c><c>   3</c></rc>
    <rc><c>O </c><c>   3</c></rc>
    <rc><c>O </c><c>   3</c></rc>
    <rc><c>O </c><c>   3</c></rc>
    <rc><c>O </c><c>   3</c></rc>
    <rc><c>O </c><c>   3</c></rc>
    <rc><c>O </c><c>   3</c></rc>
    <rc><c>O </c><c>   3</c></rc>
    <rc><c>O </c><c>   3</c></rc>
    <rc><c>O </c><c>   3</c></rc>
    <rc><c>O </c><c>   3</c></rc>
    <rc><c>O </c><c>   3</c></rc>
    <rc><c>O </c><c>   3</c></rc>
    <rc><c>O </c><c>   3</c></rc>
    <rc><c>O </c><c>   3</c></rc>
    <rc><c>O </c><c>   3</c></rc>
    <rc><c>O </c><c>   3</c></rc>
    <rc><c>O </c><c>   3</c></rc>
    <rc><c>O </c><c>   3</c></rc>
    <rc><c>O </c><c>   3</c></rc>
    <rc><c>O </c><c>   3</c></rc>
    <rc><c>O </c><c>   3</c></rc>
    <rc><c>O </c><c>   3</c></rc>
    <rc><c>O </c><c>   3</c></rc>
    <rc><c>O </c><c>   3</c></rc>
    <rc><c>O </c><c>   3</c></rc>
    <rc><c>O </c><c>   3</c></rc>
    <rc><c>O </c><c>   3</c></rc>
    <rc><c>O </c><c>   3</c></rc>
    <rc><c>O </c><c>   3</c></rc>
    <rc><c>O </c><c>   3</c></rc>
    <rc><c>O </c><c>   3</c></rc>
    <rc><c>O </c><c>   3</c></rc>
    <rc><c>O </c><c>   3</c></rc>
    <rc><c>O </c><c>   3</c></rc>
    <rc><c>O </c><c>   3</c></rc>
    <rc><c>O </c><c>   3</c></rc>
    <rc><c>O </c><c>   3</c></rc>
    <rc><c>O </c><c>   3</c></rc>
    <rc><c>O </c><c>   3</c></rc>
    <rc><c>O </c><c>   3</c></rc>
    <rc><c>O </c><c>   3</c></rc>
   </set>
  </array>
  <array name="atomtypes" >
   <dimension dim="1">type</dimension>
   <field type="int">atomspertype</field>
   <field type="string">element</field>
   <field>mass</field>
   <field>valence</field>
   <field type="string">pseudopotential</field>
   <set>
    <rc><c>  27</c><c>Ca</c><c>     40.07800000</c><c>     10.00000000</c><c>  PAW_PBE Ca_sv 06Sep2000               </c></rc>
    <rc><c>  27</c><c>Si</c><c>     28.08500000</c><c>      4.00000000</c><c>  PAW_PBE Si 05Jan2001                  </c></rc>
    <rc><c>  81</c><c>O </c><c>     16.00000000</c><c>      6.00000000</c><c>  PAW_PBE O 08Apr2002                   </c></rc>
   </set>
  </array>
 </atominfo>
 <structure name="initialpos" >
  <crystal>
   <varray name="basis" >
    <v>      11.62817333       0.00000000       0.00000000 </v>
    <v>       0.00000000      11.62817333       0.00000000 </v>
    <v>       0.00000000       0.00000000      11.62817333 </v>
   </varray>
   <i name="volume">   1572.29665425 </i>
   <varray name="rec_basis" >
    <v>       0.08599803       0.00000000       0.00000000 </v>
    <v>       0.00000000       0.08599803       0.00000000 </v>
    <v>       0.00000000       0.00000000       0.08599803 </v>
   </varray>
  </crystal>
  <varray name="positions" >
   <v>       0.93229070       0.45903953       0.95157119 </v>
   <v>       0.24108876       0.23972934       0.85674624 </v>
   <v>       0.24648569       0.81045385       0.41824659 </v>
   <v>       0.52635078       0.76989548       0.48862979 </v>
   <v>       0.68874373       0.21728946       0.11153119 </v>
   <v>       0.04668987       0.60473623       0.42035340 </v>
   <v>       0.10067602       0.35402353       0.61886741 </v>
   <v>       0.13380836       0.11657843       0.27804596 </v>
   <v>       0.96269005       0.80660409       0.01765341 </v>
   <v>       0.97581917       0.10757980       0.72727802 </v>
   <v>       0.99660517       0.90117479       0.53563544 </v>
   <v>       0.50141283       0.87433382       0.94275129 </v>
   <v>       0.39208873       0.51889657       0.60137619 </v>
   <v>       0.49135031       0.42012247       0.88806281 </v>
   <v>       0.75602238       0.71491578       0.87867304 </v>
   <v>       0.54480417       0.99387966       0.30896202 </v>
   <v>       0.64273263       0.25076226       0.54703209 </v>
   <v>       0.91291868       0.16717198       0.07418726 </v>
   <v>       0.86284743       0.00909978       0.33686786 </v>
   <v>       0.39043982       0.47118222       0.12591546 </v>
   <v>       0.38406471       0.28502978       0.59167660 </v>
   <v>       0.73342850       0.01923267       0.81203554 </v>
   <v>       0.53821604       0.70517600       0.16443583 </v>
   <v>       0.60115751       0.49328356       0.39473948 </v>
   <v>       0.33466948       0.19003804       0.11752029 </v>
   <v>       0.46735574       0.01230070       0.63730931 </v>
   <v>       0.78202568       0.71260686       0.27273971 </v>
   <v>       0.17566255       0.09861922       0.58217845 </v>
   <v>       0.93600140       0.50985233       0.69693747 </v>
   <v>       0.35191686       0.62928867       0.34139643 </v>
   <v>       0.51314801       0.14535634       0.86437020 </v>
   <v>       0.87867852       0.42726415       0.23320012 </v>
   <v>       0.13843963       0.67635882       0.66085348 </v>
   <v>       0.68340493       0.49379768       0.14137024 </v>
   <v>       0.36076973       0.74555715       0.70379874 </v>
   <v>       0.50150959       0.25686935       0.30858314 </v>
   <v>       0.26030956       0.36791279       0.38946372 </v>
   <v>       0.92992330       0.20665711       0.43889965 </v>
   <v>       0.07725354       0.89771456       0.76531331 </v>
   <v>       0.30459738       0.88913835       0.13735507 </v>
   <v>       0.67674329       0.47161517       0.69617282 </v>
   <v>       0.18964822       0.47824984       0.89262239 </v>
   <v>       0.86172231       0.41108036       0.50177457 </v>
   <v>       0.74533999       0.95552042       0.09762786 </v>
   <v>       0.74743694       0.98742955       0.58195858 </v>
   <v>       0.29132301       0.69766682       0.94504926 </v>
   <v>       0.34824616       0.06448411       0.43611431 </v>
   <v>       0.56619415       0.67289298       0.75826854 </v>
   <v>       0.74130989       0.28571352       0.86134290 </v>
   <v>       0.11480717       0.35801438       0.18179982 </v>
   <v>       0.73905500       0.72770898       0.54505427 </v>
   <v>       0.04307272       0.59373328       0.14647364 </v>
   <v>       0.19835660       0.00250409       0.92831204 </v>
   <v>       0.06696229       0.84731849       0.23800048 </v>
   <v>       0.56215291       0.00713753       0.87708515 </v>
   <v>       0.66200593       0.64315939       0.48578611 </v>
   <v>       0.64483110       0.86293232       0.02252333 </v>
   <v>       0.20926539       0.61914779       0.34384417 </v>
   <v>       0.47211113       0.68858585       0.65107142 </v>
   <v>       0.48055034       0.35685721       0.46647948 </v>
   <v>       0.22158366       0.88970523       0.26182068 </v>
   <v>       0.95073338       0.87878396       0.82190723 </v>
   <v>       0.98554210       0.62453168       0.02601829 </v>
   <v>       0.89869470       0.55221128       0.55206231 </v>
   <v>       0.64360561       0.04393580       0.63912633 </v>
   <v>       0.42637423       0.62658185       0.45332754 </v>
   <v>       0.29149789       0.41151183       0.97246762 </v>
   <v>       0.39541163       0.59582755       0.96624667 </v>
   <v>       0.48435784       0.19830060       0.73327950 </v>
   <v>       0.41078916       0.92434106       0.44561255 </v>
   <v>       0.44573175       0.89098669       0.11907502 </v>
   <v>       0.10123141       0.72371941       0.54387080 </v>
   <v>       0.84381246       0.00936295       0.01285868 </v>
   <v>       0.32091002       0.08122741       0.29429780 </v>
   <v>       0.14847114       0.22138600       0.12097854 </v>
   <v>       0.86836095       0.55479401       0.80220721 </v>
   <v>       0.43346295       0.53487805       0.27707976 </v>
   <v>       0.19809998       0.99934251       0.45207248 </v>
   <v>       0.85838476       0.94216454       0.63830557 </v>
   <v>       0.99843856       0.33770488       0.46120376 </v>
   <v>       0.25278560       0.98023057       0.05363228 </v>
   <v>       0.72243488       0.40687246       0.80953638 </v>
   <v>       0.32536846       0.84715826       0.61982403 </v>
   <v>       0.65879461       0.58749699       0.24201109 </v>
   <v>       0.61576193       0.79037839       0.29611726 </v>
   <v>       0.31887519       0.02779071       0.86874244 </v>
   <v>       0.34028152       0.12396767       0.60835089 </v>
   <v>       0.57398028       0.41016882       0.09192751 </v>
   <v>       0.82245086       0.46850773       0.36263593 </v>
   <v>       0.63302584       0.79674064       0.79525823 </v>
   <v>       0.16070866       0.64422952       0.94167224 </v>
   <v>       0.36147460       0.33594012       0.29137877 </v>
   <v>       0.83044000       0.84679004       0.15700485 </v>
   <v>       0.10394575       0.98949908       0.66383833 </v>
   <v>       0.58595973       0.60344485       0.87091942 </v>
   <v>       0.26348283       0.63599846       0.69742582 </v>
   <v>       0.63237317       0.30145710       0.36172747 </v>
   <v>       0.07469359       0.76707681       0.74268378 </v>
   <v>       0.85889517       0.74989301       0.52174107 </v>
   <v>       0.16971338       0.39739797       0.28989841 </v>
   <v>       0.82171542       0.27352288       0.49721440 </v>
   <v>       0.80326068       0.17695175       0.80082157 </v>
   <v>       0.54334434       0.46324441       0.69779038 </v>
   <v>       0.51791244       0.17743631       0.17852946 </v>
   <v>       0.99342714       0.95968187       0.20251299 </v>
   <v>       0.13379941       0.18758289       0.66270412 </v>
   <v>       0.73149986       0.05944458       0.20148193 </v>
   <v>       0.11383642       0.10400637       0.87565746 </v>
   <v>       0.39846351       0.18831304       0.93252604 </v>
   <v>       0.15243789       0.49805845       0.11987183 </v>
   <v>       0.36942703       0.77127950       0.83729218 </v>
   <v>       0.73314053       0.56117921       0.03690608 </v>
   <v>       0.71657957       0.42654649       0.57047717 </v>
   <v>       0.90434751       0.37497885       0.67020756 </v>
   <v>       0.94156750       0.55221138       0.21538264 </v>
   <v>       0.73721829       0.05308407       0.45675751 </v>
   <v>       0.69482177       0.61908027       0.70198892 </v>
   <v>       0.13573279       0.87750338       0.88883482 </v>
   <v>       0.25966989       0.45195013       0.76072563 </v>
   <v>       0.98012421       0.13020870       0.53300665 </v>
   <v>       0.08283518       0.39828605       0.86828113 </v>
   <v>       0.68518243       0.85973857       0.52237602 </v>
   <v>       0.92205449       0.17750153       0.30483179 </v>
   <v>       0.07370547       0.55677216       0.69649991 </v>
   <v>       0.37753249       0.76934042       0.27791468 </v>
   <v>       0.98105407       0.34158504       0.16823214 </v>
   <v>       0.47921669       0.13396508       0.47110151 </v>
   <v>       0.04154716       0.80832930       0.36351295 </v>
   <v>       0.26452328       0.43440819       0.49956150 </v>
   <v>       0.85081789       0.29617442       0.96206315 </v>
   <v>       0.62264165       0.21885026       0.92031570 </v>
   <v>       0.28062583       0.79137598       0.03925802 </v>
   <v>       0.79275633       0.36941235       0.15794100 </v>
   <v>       0.22586836       0.24141345       0.45561394 </v>
   <v>       0.07491935       0.73448884       0.17329571 </v>
  </varray>
  <varray name="velocities" >
   <v>       0.00000000       0.00000000       0.00000000 </v>
   <v>       0.00000000       0.00000000       0.00000000 </v>
   <v>       0.00000000       0.00000000       0.00000000 </v>
   <v>       0.00000000       0.00000000       0.00000000 </v>
   <v>       0.00000000       0.00000000       0.00000000 </v>
   <v>       0.00000000       0.00000000       0.00000000 </v>
   <v>       0.00000000       0.00000000       0.00000000 </v>
   <v>       0.00000000       0.00000000       0.00000000 </v>
   <v>       0.00000000       0.00000000       0.00000000 </v>
   <v>       0.00000000       0.00000000       0.00000000 </v>
   <v>       0.00000000       0.00000000       0.00000000 </v>
   <v>       0.00000000       0.00000000       0.00000000 </v>
   <v>       0.00000000       0.00000000       0.00000000 </v>
   <v>       0.00000000       0.00000000       0.00000000 </v>
   <v>       0.00000000       0.00000000       0.00000000 </v>
   <v>       0.00000000       0.00000000       0.00000000 </v>
   <v>       0.00000000       0.00000000       0.00000000 </v>
   <v>       0.00000000       0.00000000       0.00000000 </v>
   <v>       0.00000000       0.00000000       0.00000000 </v>
   <v>       0.00000000       0.00000000       0.00000000 </v>
   <v>       0.00000000       0.00000000       0.00000000 </v>
   <v>       0.00000000       0.00000000       0.00000000 </v>
   <v>       0.00000000       0.00000000       0.00000000 </v>
   <v>       0.00000000       0.00000000       0.00000000 </v>
   <v>       0.00000000       0.00000000       0.00000000 </v>
   <v>       0.00000000       0.00000000       0.00000000 </v>
   <v>       0.00000000       0.00000000       0.00000000 </v>
   <v>       0.00000000       0.00000000       0.00000000 </v>
   <v>       0.00000000       0.00000000       0.00000000 </v>
   <v>       0.00000000       0.00000000       0.00000000 </v>
   <v>       0.00000000       0.00000000       0.00000000 </v>
   <v>       0.00000000       0.00000000       0.00000000 </v>
   <v>       0.00000000       0.00000000       0.00000000 </v>
   <v>       0.00000000       0.00000000       0.00000000 </v>
   <v>       0.00000000       0.00000000       0.00000000 </v>
   <v>       0.00000000       0.00000000       0.00000000 </v>
   <v>       0.00000000       0.00000000       0.00000000 </v>
   <v>       0.00000000       0.00000000       0.00000000 </v>
   <v>       0.00000000       0.00000000       0.00000000 </v>
   <v>       0.00000000       0.00000000       0.00000000 </v>
   <v>       0.00000000       0.00000000       0.00000000 </v>
   <v>       0.00000000       0.00000000       0.00000000 </v>
   <v>       0.00000000       0.00000000       0.00000000 </v>
   <v>       0.00000000       0.00000000       0.00000000 </v>
   <v>       0.00000000       0.00000000       0.00000000 </v>
   <v>       0.00000000       0.00000000       0.00000000 </v>
   <v>       0.00000000       0.00000000       0.00000000 </v>
   <v>       0.00000000       0.00000000       0.00000000 </v>
   <v>       0.00000000       0.00000000       0.00000000 </v>
   <v>       0.00000000       0.00000000       0.00000000 </v>
   <v>       0.00000000       0.00000000       0.00000000 </v>
   <v>       0.00000000       0.00000000       0.00000000 </v>
   <v>       0.00000000       0.00000000       0.00000000 </v>
   <v>       0.00000000       0.00000000       0.00000000 </v>
   <v>       0.00000000       0.00000000       0.00000000 </v>
   <v>       0.00000000       0.00000000       0.00000000 </v>
   <v>       0.00000000       0.00000000       0.00000000 </v>
   <v>       0.00000000       0.00000000       0.00000000 </v>
   <v>       0.00000000       0.00000000       0.00000000 </v>
   <v>       0.00000000       0.00000000       0.00000000 </v>
   <v>       0.00000000       0.00000000       0.00000000 </v>
   <v>       0.00000000       0.00000000       0.00000000 </v>
   <v>       0.00000000       0.00000000       0.00000000 </v>
   <v>       0.00000000       0.00000000       0.00000000 </v>
   <v>       0.00000000       0.00000000       0.00000000 </v>
   <v>       0.00000000       0.00000000       0.00000000 </v>
   <v>       0.00000000       0.00000000       0.00000000 </v>
   <v>       0.00000000       0.00000000       0.00000000 </v>
   <v>       0.00000000       0.00000000       0.00000000 </v>
   <v>       0.00000000       0.00000000       0.00000000 </v>
   <v>       0.00000000       0.00000000       0.00000000 </v>
   <v>       0.00000000       0.00000000       0.00000000 </v>
   <v>       0.00000000       0.00000000       0.00000000 </v>
   <v>       0.00000000       0.00000000       0.00000000 </v>
   <v>       0.00000000       0.00000000       0.00000000 </v>
   <v>       0.00000000       0.00000000       0.00000000 </v>
   <v>       0.00000000       0.00000000       0.00000000 </v>
   <v>       0.00000000       0.00000000       0.00000000 </v>
   <v>       0.00000000       0.00000000       0.00000000 </v>
   <v>       0.00000000       0.00000000       0.00000000 </v>
   <v>       0.00000000       0.00000000       0.00000000 </v>
   <v>       0.00000000       0.00000000       0.00000000 </v>
   <v>       0.00000000       0.00000000       0.00000000 </v>
   <v>       0.00000000       0.00000000       0.00000000 </v>
   <v>       0.00000000       0.00000000       0.00000000 </v>
   <v>       0.00000000       0.00000000       0.00000000 </v>
   <v>       0.00000000       0.00000000       0.00000000 </v>
   <v>       0.00000000       0.00000000       0.00000000 </v>
   <v>       0.00000000       0.00000000       0.00000000 </v>
   <v>       0.00000000       0.00000000       0.00000000 </v>
   <v>       0.00000000       0.00000000       0.00000000 </v>
   <v>       0.00000000       0.00000000       0.00000000 </v>
   <v>       0.00000000       0.00000000       0.00000000 </v>
   <v>       0.00000000       0.00000000       0.00000000 </v>
   <v>       0.00000000       0.00000000       0.00000000 </v>
   <v>       0.00000000       0.00000000       0.00000000 </v>
   <v>       0.00000000       0.00000000       0.00000000 </v>
   <v>       0.00000000       0.00000000       0.00000000 </v>
   <v>       0.00000000       0.00000000       0.00000000 </v>
   <v>       0.00000000       0.00000000       0.00000000 </v>
   <v>       0.00000000       0.00000000       0.00000000 </v>
   <v>       0.00000000       0.00000000       0.00000000 </v>
   <v>       0.00000000       0.00000000       0.00000000 </v>
   <v>       0.00000000       0.00000000       0.00000000 </v>
   <v>       0.00000000       0.00000000       0.00000000 </v>
   <v>       0.00000000       0.00000000       0.00000000 </v>
   <v>       0.00000000       0.00000000       0.00000000 </v>
   <v>       0.00000000       0.00000000       0.00000000 </v>
   <v>       0.00000000       0.00000000       0.00000000 </v>
   <v>       0.00000000       0.00000000       0.00000000 </v>
   <v>       0.00000000       0.00000000       0.00000000 </v>
   <v>       0.00000000       0.00000000       0.00000000 </v>
   <v>       0.00000000       0.00000000       0.00000000 </v>
   <v>       0.00000000       0.00000000       0.00000000 </v>
   <v>       0.00000000       0.00000000       0.00000000 </v>
   <v>       0.00000000       0.00000000       0.00000000 </v>
   <v>       0.00000000       0.00000000       0.00000000 </v>
   <v>       0.00000000       0.00000000       0.00000000 </v>
   <v>       0.00000000       0.00000000       0.00000000 </v>
   <v>       0.00000000       0.00000000       0.00000000 </v>
   <v>       0.00000000       0.00000000       0.00000000 </v>
   <v>       0.00000000       0.00000000       0.00000000 </v>
   <v>       0.00000000       0.00000000       0.00000000 </v>
   <v>       0.00000000       0.00000000       0.00000000 </v>
   <v>       0.00000000       0.00000000       0.00000000 </v>
   <v>       0.00000000       0.00000000       0.00000000 </v>
   <v>       0.00000000       0.00000000       0.00000000 </v>
   <v>       0.00000000       0.00000000       0.00000000 </v>
   <v>       0.00000000       0.00000000       0.00000000 </v>
   <v>       0.00000000       0.00000000       0.00000000 </v>
   <v>       0.00000000       0.00000000       0.00000000 </v>
   <v>       0.00000000       0.00000000       0.00000000 </v>
   <v>       0.00000000       0.00000000       0.00000000 </v>
   <v>       0.00000000       0.00000000       0.00000000 </v>
   <v>       0.00000000       0.00000000       0.00000000 </v>
  </varray>
 </structure>
 <calculation>
  <scstep>
   <time name="dav">   34.23   34.34</time>
   <time name="total">   34.66   34.76</time>
   <energy>
    <i name="alphaZ">   3039.22321400 </i>
    <i name="ewald"> -48777.88414261 </i>
    <i name="hartreedc"> -15868.03894725 </i>
    <i name="XCdc">   3194.01753999 </i>
    <i name="pawpsdc">  50594.51003143 </i>
    <i name="pawaedc"> -49994.65612350 </i>
    <i name="eentropy">     -0.03409557 </i>
    <i name="bandstr">   2601.88605918 </i>
    <i name="atom">  64968.54023382 </i>
    <i name="e_fr_energy">   9757.56376950 </i>
    <i name="e_wo_entrp">   9757.59786507 </i>
    <i name="e_0_energy">   9757.58081728 </i>
   </energy>
  </scstep>
  <scstep>
   <time name="dav">   38.35   38.55</time>
   <time name="total">   38.35   38.55</time>
   <energy>
    <i name="e_fr_energy">     38.31267427 </i>
    <i name="e_wo_entrp">     38.31267427 </i>
    <i name="e_0_energy">     38.31267427 </i>
   </energy>
  </scstep>
  <scstep>
   <time name="dav">   40.03   40.17</time>
   <time name="total">   40.03   40.17</time>
   <energy>
    <i name="e_fr_energy">  -1013.77359259 </i>
    <i name="e_wo_entrp">  -1013.77359259 </i>
    <i name="e_0_energy">  -1013.77359259 </i>
   </energy>
  </scstep>
  <scstep>
   <time name="dav">   44.02   44.21</time>
   <time name="total">   44.02   44.21</time>
   <energy>
    <i name="e_fr_energy">  -1064.09401307 </i>
    <i name="e_wo_entrp">  -1064.09401307 </i>
    <i name="e_0_energy">  -1064.09401307 </i>
   </energy>
  </scstep>
  <scstep>
   <time name="dav">   52.58   52.79</time>
   <time name="total">   53.89   54.10</time>
   <energy>
    <i name="e_fr_energy">  -1068.95544788 </i>
    <i name="e_wo_entrp">  -1068.95544788 </i>
    <i name="e_0_energy">  -1068.95544788 </i>
   </energy>
  </scstep>
  <scstep>
   <time name="dav">   38.96   39.09</time>
   <time name="total">   40.67   40.82</time>
   <energy>
    <i name="e_fr_energy">   -920.44083902 </i>
    <i name="e_wo_entrp">   -920.44083902 </i>
    <i name="e_0_energy">   -920.44083902 </i>
   </energy>
  </scstep>
  <scstep>
   <time name="dav">   42.02   42.30</time>
   <time name="total">   43.74   44.04</time>
   <energy>
    <i name="e_fr_energy">   -922.47207557 </i>
    <i name="e_wo_entrp">   -922.47207557 </i>
    <i name="e_0_energy">   -922.47207557 </i>
   </energy>
  </scstep>
  <scstep>
   <time name="dav">   40.82   40.97</time>
   <time name="total">   42.55   42.71</time>
   <energy>
    <i name="e_fr_energy">   -921.27888650 </i>
    <i name="e_wo_entrp">   -921.27888650 </i>
    <i name="e_0_energy">   -921.27888650 </i>
   </energy>
  </scstep>
  <scstep>
   <time name="dav">   41.43   41.56</time>
   <time name="total">   43.16   43.30</time>
   <energy>
    <i name="e_fr_energy">   -920.87470244 </i>
    <i name="e_wo_entrp">   -920.87470244 </i>
    <i name="e_0_energy">   -920.87470244 </i>
   </energy>
  </scstep>
  <scstep>
   <time name="dav">   43.96   44.15</time>
   <time name="total">   45.67   45.87</time>
   <energy>
    <i name="e_fr_energy">   -920.95054690 </i>
    <i name="e_wo_entrp">   -920.95054690 </i>
    <i name="e_0_energy">   -920.95054690 </i>
   </energy>
  </scstep>
  <scstep>
   <time name="dav">   43.35   43.49</time>
   <time name="total">   45.08   45.23</time>
   <energy>
    <i name="e_fr_energy">   -920.95979686 </i>
    <i name="e_wo_entrp">   -920.95979686 </i>
    <i name="e_0_energy">   -920.95979686 </i>
   </energy>
  </scstep>
  <scstep>
   <time name="dav">   41.44   41.68</time>
   <time name="total">   43.14   43.40</time>
   <energy>
    <i name="e_fr_energy">   -920.96413538 </i>
    <i name="e_wo_entrp">   -920.96413538 </i>
    <i name="e_0_energy">   -920.96413538 </i>
   </energy>
  </scstep>
  <scstep>
   <time name="dav">   44.85   45.03</time>
   <time name="total">   46.57   46.77</time>
   <energy>
    <i name="e_fr_energy">   -920.96569568 </i>
    <i name="e_wo_entrp">   -920.96569568 </i>
    <i name="e_0_energy">   -920.96569568 </i>
   </energy>
  </scstep>
  <scstep>
   <time name="dav">   43.34   44.46</time>
   <time name="total">   45.01   46.18</time>
   <energy>
    <i name="e_fr_energy">   -920.96591520 </i>
    <i name="e_wo_entrp">   -920.96591520 </i>
    <i name="e_0_energy">   -920.96591520 </i>
   </energy>
  </scstep>
  <scstep>
   <time name="dav">   42.35   42.47</time>
   <time name="total">   44.08   44.22</time>
   <energy>
    <i name="e_fr_energy">   -920.96591479 </i>
    <i name="e_wo_entrp">   -920.96591479 </i>
    <i name="e_0_energy">   -920.96591479 </i>
   </energy>
  </scstep>
  <scstep>
   <time name="dav">   39.22   39.40</time>
   <time name="total">   40.94   41.13</time>
   <energy>
    <i name="e_fr_energy">   -920.96588517 </i>
    <i name="e_wo_entrp">   -920.96588517 </i>
    <i name="e_0_energy">   -920.96588517 </i>
   </energy>
  </scstep>
  <scstep>
   <time name="dav">   43.74   44.65</time>
   <time name="total">   45.42   46.37</time>
   <energy>
    <i name="e_fr_energy">   -920.96589013 </i>
    <i name="e_wo_entrp">   -920.96589013 </i>
    <i name="e_0_energy">   -920.96589013 </i>
   </energy>
  </scstep>
  <scstep>
   <time name="dav">   44.25   44.63</time>
   <time name="total">   46.74   47.16</time>
   <energy>
    <i name="e_fr_energy">   -920.96588955 </i>
    <i name="e_wo_entrp">   -920.96588955 </i>
    <i name="e_0_energy">   -920.96588955 </i>
   </energy>
  </scstep>
  <scstep>
   <time name="dav">   40.99   41.35</time>
   <time name="total">   42.83   43.25</time>
   <energy>
    <i name="e_fr_energy">   -920.96588826 </i>
    <i name="e_wo_entrp">   -920.96588826 </i>
    <i name="e_0_energy">   -920.96588826 </i>
   </energy>
  </scstep>
  <scstep>
   <time name="dav">   27.60   27.69</time>
   <time name="total">   28.01   28.11</time>
   <energy>
    <i name="alphaZ">   3039.22321400 </i>
    <i name="ewald"> -48777.88414261 </i>
    <i name="hartreedc"> -17389.82992358 </i>
    <i name="XCdc">   3294.30423953 </i>
    <i name="pawpsdc">  98667.51506493 </i>
    <i name="pawaedc"> -98323.19052413 </i>
    <i name="eentropy">     -0.00000000 </i>
    <i name="bandstr">  -6399.64404995 </i>
    <i name="atom">  64968.54023382 </i>
    <i name="e_fr_energy">   -920.96588799 </i>
    <i name="e_wo_entrp">   -920.96588799 </i>
    <i name="e_0_energy">   -920.96588799 </i>
   </energy>
  </scstep>
  <structure>
   <crystal>
    <varray name="basis" >
     <v>      11.62817333       0.00000000       0.00000000 </v>
     <v>       0.00000000      11.62817333       0.00000000 </v>
     <v>       0.00000000       0.00000000      11.62817333 </v>
    </varray>
    <i name="volume">   1572.29665425 </i>
    <varray name="rec_basis" >
     <v>       0.08599803       0.00000000       0.00000000 </v>
     <v>       0.00000000       0.08599803       0.00000000 </v>
     <v>       0.00000000       0.00000000       0.08599803 </v>
    </varray>
   </crystal>
   <varray name="positions" >
    <v>       0.93229070       0.45903953       0.95157119 </v>
    <v>       0.24108876       0.23972934       0.85674624 </v>
    <v>       0.24648569       0.81045385       0.41824659 </v>
    <v>       0.52635078       0.76989548       0.48862979 </v>
    <v>       0.68874373       0.21728946       0.11153119 </v>
    <v>       0.04668987       0.60473623       0.42035340 </v>
    <v>       0.10067602       0.35402353       0.61886741 </v>
    <v>       0.13380836       0.11657843       0.27804596 </v>
    <v>       0.96269005       0.80660409       0.01765341 </v>
    <v>       0.97581917       0.10757980       0.72727802 </v>
    <v>       0.99660517       0.90117479       0.53563544 </v>
    <v>       0.50141283       0.87433382       0.94275129 </v>
    <v>       0.39208873       0.51889657       0.60137619 </v>
    <v>       0.49135031       0.42012247       0.88806281 </v>
    <v>       0.75602238       0.71491578       0.87867304 </v>
    <v>       0.54480417       0.99387966       0.30896202 </v>
    <v>       0.64273263       0.25076226       0.54703209 </v>
    <v>       0.91291868       0.16717198       0.07418726 </v>
    <v>       0.86284743       0.00909978       0.33686786 </v>
    <v>       0.39043982       0.47118222       0.12591546 </v>
    <v>       0.38406471       0.28502978       0.59167660 </v>
    <v>       0.73342850       0.01923267       0.81203554 </v>
    <v>       0.53821604       0.70517600       0.16443583 </v>
    <v>       0.60115751       0.49328356       0.39473948 </v>
    <v>       0.33466948       0.19003804       0.11752029 </v>
    <v>       0.46735574       0.01230070       0.63730931 </v>
    <v>       0.78202568       0.71260686       0.27273971 </v>
    <v>       0.17566255       0.09861922       0.58217845 </v>
    <v>       0.93600140       0.50985233       0.69693747 </v>
    <v>       0.35191686       0.62928867       0.34139643 </v>
    <v>       0.51314801       0.14535634       0.86437020 </v>
    <v>       0.87867852       0.42726415       0.23320012 </v>
    <v>       0.13843963       0.67635882       0.66085348 </v>
    <v>       0.68340493       0.49379768       0.14137024 </v>
    <v>       0.36076973       0.74555715       0.70379874 </v>
    <v>       0.50150959       0.25686935       0.30858314 </v>
    <v>       0.26030956       0.36791279       0.38946372 </v>
    <v>       0.92992330       0.20665711       0.43889965 </v>
    <v>       0.07725354       0.89771456       0.76531331 </v>
    <v>       0.30459738       0.88913835       0.13735507 </v>
    <v>       0.67674329       0.47161517       0.69617282 </v>
    <v>       0.18964822       0.47824984       0.89262239 </v>
    <v>       0.86172231       0.41108036       0.50177457 </v>
    <v>       0.74533999       0.95552042       0.09762786 </v>
    <v>       0.74743694       0.98742955       0.58195858 </v>
    <v>       0.29132301       0.69766682       0.94504926 </v>
    <v>       0.34824616       0.06448411       0.43611431 </v>
    <v>       0.56619415       0.67289298       0.75826854 </v>
    <v>       0.74130989       0.28571352       0.86134290 </v>
    <v>       0.11480717       0.35801438       0.18179982 </v>
    <v>       0.73905500       0.72770898       0.54505427 </v>
    <v>       0.04307272       0.59373328       0.14647364 </v>
    <v>       0.19835660       0.00250409       0.92831204 </v>
    <v>       0.06696229       0.84731849       0.23800048 </v>
    <v>       0.56215291       0.00713753       0.87708515 </v>
    <v>       0.66200593       0.64315939       0.48578611 </v>
    <v>       0.64483110       0.86293232       0.02252333 </v>
    <v>       0.20926539       0.61914779       0.34384417 </v>
    <v>       0.47211113       0.68858585       0.65107142 </v>
    <v>       0.48055034       0.35685721       0.46647948 </v>
    <v>       0.22158366       0.88970523       0.26182068 </v>
    <v>       0.95073338       0.87878396       0.82190723 </v>
    <v>       0.98554210       0.62453168       0.02601829 </v>
    <v>       0.89869470       0.55221128       0.55206231 </v>
    <v>       0.64360561       0.04393580       0.63912633 </v>
    <v>       0.42637423       0.62658185       0.45332754 </v>
    <v>       0.29149789       0.41151183       0.97246762 </v>
    <v>       0.39541163       0.59582755       0.96624667 </v>
    <v>       0.48435784       0.19830060       0.73327950 </v>
    <v>       0.41078916       0.92434106       0.44561255 </v>
    <v>       0.44573175       0.89098669       0.11907502 </v>
    <v>       0.10123141       0.72371941       0.54387080 </v>
    <v>       0.84381246       0.00936295       0.01285868 </v>
    <v>       0.32091002       0.08122741       0.29429780 </v>
    <v>       0.14847114       0.22138600       0.12097854 </v>
    <v>       0.86836095       0.55479401       0.80220721 </v>
    <v>       0.43346295       0.53487805       0.27707976 </v>
    <v>       0.19809998       0.99934251       0.45207248 </v>
    <v>       0.85838476       0.94216454       0.63830557 </v>
    <v>       0.99843856       0.33770488       0.46120376 </v>
    <v>       0.25278560       0.98023057       0.05363228 </v>
    <v>       0.72243488       0.40687246       0.80953638 </v>
    <v>       0.32536846       0.84715826       0.61982403 </v>
    <v>       0.65879461       0.58749699       0.24201109 </v>
    <v>       0.61576193       0.79037839       0.29611726 </v>
    <v>       0.31887519       0.02779071       0.86874244 </v>
    <v>       0.34028152       0.12396767       0.60835089 </v>
    <v>       0.57398028       0.41016882       0.09192751 </v>
    <v>       0.82245086       0.46850773       0.36263593 </v>
    <v>       0.63302584       0.79674064       0.79525823 </v>
    <v>       0.16070866       0.64422952       0.94167224 </v>
    <v>       0.36147460       0.33594012       0.29137877 </v>
    <v>       0.83044000       0.84679004       0.15700485 </v>
    <v>       0.10394575       0.98949908       0.66383833 </v>
    <v>       0.58595973       0.60344485       0.87091942 </v>
    <v>       0.26348283       0.63599846       0.69742582 </v>
    <v>       0.63237317       0.30145710       0.36172747 </v>
    <v>       0.07469359       0.76707681       0.74268378 </v>
    <v>       0.85889517       0.74989301       0.52174107 </v>
    <v>       0.16971338       0.39739797       0.28989841 </v>
    <v>       0.82171542       0.27352288       0.49721440 </v>
    <v>       0.80326068       0.17695175       0.80082157 </v>
    <v>       0.54334434       0.46324441       0.69779038 </v>
    <v>       0.51791244       0.17743631       0.17852946 </v>
    <v>       0.99342714       0.95968187       0.20251299 </v>
    <v>       0.13379941       0.18758289       0.66270412 </v>
    <v>       0.73149986       0.05944458       0.20148193 </v>
    <v>       0.11383642       0.10400637       0.87565746 </v>
    <v>       0.39846351       0.18831304       0.93252604 </v>
    <v>       0.15243789       0.49805845       0.11987183 </v>
    <v>       0.36942703       0.77127950       0.83729218 </v>
    <v>       0.73314053       0.56117921       0.03690608 </v>
    <v>       0.71657957       0.42654649       0.57047717 </v>
    <v>       0.90434751       0.37497885       0.67020756 </v>
    <v>       0.94156750       0.55221138       0.21538264 </v>
    <v>       0.73721829       0.05308407       0.45675751 </v>
    <v>       0.69482177       0.61908027       0.70198892 </v>
    <v>       0.13573279       0.87750338       0.88883482 </v>
    <v>       0.25966989       0.45195013       0.76072563 </v>
    <v>       0.98012421       0.13020870       0.53300665 </v>
    <v>       0.08283518       0.39828605       0.86828113 </v>
    <v>       0.68518243       0.85973857       0.52237602 </v>
    <v>       0.92205449       0.17750153       0.30483179 </v>
    <v>       0.07370547       0.55677216       0.69649991 </v>
    <v>       0.37753249       0.76934042       0.27791468 </v>
    <v>       0.98105407       0.34158504       0.16823214 </v>
    <v>       0.47921669       0.13396508       0.47110151 </v>
    <v>       0.04154716       0.80832930       0.36351295 </v>
    <v>       0.26452328       0.43440819       0.49956150 </v>
    <v>       0.85081789       0.29617442       0.96206315 </v>
    <v>       0.62264165       0.21885026       0.92031570 </v>
    <v>       0.28062583       0.79137598       0.03925802 </v>
    <v>       0.79275633       0.36941235       0.15794100 </v>
    <v>       0.22586836       0.24141345       0.45561394 </v>
    <v>       0.07491935       0.73448884       0.17329571 </v>
   </varray>
  </structure>
  <varray name="forces" >
   <v>      -1.29789820       1.14913767       0.25444661 </v>
   <v>      -0.11292731       0.41884101      -1.04747168 </v>
   <v>       0.31446251       0.18910790       2.42419910 </v>
   <v>      -1.73283955       2.40727473      -3.23347280 </v>
   <v>      -2.49453818       1.13699207       0.33128745 </v>
   <v>      -1.31124311       0.20982510       0.18740605 </v>
   <v>       1.27567940       2.28043307       0.21151393 </v>
   <v>       0.13369624      -1.91758093       1.13752998 </v>
   <v>       0.60742392       1.77110623      -1.58295346 </v>
   <v>      -2.38025158       1.78376859       1.96325043 </v>
   <v>       0.62008036      -2.89289602      -1.85259472 </v>
   <v>      -5.27026373      -3.21249787      -0.20345036 </v>
   <v>      -0.49270526      -0.54459126       0.02864616 </v>
   <v>      -0.70842293       1.19964414       0.28904320 </v>
   <v>       2.04269798      -2.09856986       1.98544907 </v>
   <v>       0.46862234      -1.66910653      -0.88162501 </v>
   <v>      -1.11990109      -1.99557578      -0.41173135 </v>
   <v>       3.00812131      -0.92317757       0.27811920 </v>
   <v>      -1.31715834      -2.72681307      -1.92425502 </v>
   <v>      -1.12165577      -0.43692080      -2.20620394 </v>
   <v>      -0.04933021       1.71332745       1.07905520 </v>
   <v>       0.39402574      -3.41319631       1.55042263 </v>
   <v>      -2.05783074       2.03165402      -0.81348809 </v>
   <v>      -1.12498877      -0.58224967       0.81646123 </v>
   <v>       1.38681946      -1.26056008      -0.63159612 </v>
   <v>       0.13318035      -2.35504736       1.54690052 </v>
   <v>       0.47556119       1.23575777       1.43519774 </v>
   <v>       5.14397652      -4.91672327      -4.41286586 </v>
   <v>       0.61676016       1.69494128      -2.53855824 </v>
   <v>       0.26467591       1.70200568      -4.33813649 </v>
   <v>      -2.78594419      -1.34224828      -1.09074898 </v>
   <v>       3.34753072       1.02224772       5.27117360 </v>
   <v>      -2.20923364      -0.79118584       2.60744878 </v>
   <v>      -2.33586445      -1.78519230      -3.11137796 </v>
   <v>      -5.42554431       2.28598247      -0.73240298 </v>
   <v>       0.76804514       1.72763590       3.20651710 </v>
   <v>       1.64997646      -5.17791783      -1.66768506 </v>
   <v>      -1.13644665       5.31747144      -0.25824314 </v>
   <v>      -2.31433193      -1.30003320       3.83886012 </v>
   <v>       3.44031994      -3.55551969       2.78222177 </v>
   <v>       1.13787473       3.00087897      -1.52211995 </v>
   <v>       4.36553660       1.23181160      -1.57329637 </v>
   <v>      -0.57947807       1.01776575       2.05646520 </v>
   <v>       0.88329238      -5.00608098       0.24213941 </v>
   <v>      -2.44289468      -2.08184484      -6.80865225 </v>
   <v>       2.56847006      -3.08408449      -0.06576250 </v>
   <v>       0.85893601      -2.04130959      -0.55745333 </v>
   <v>       4.15462163       1.30323804       0.79326086 </v>
   <v>       3.83571872      -4.39278597       2.52513882 </v>
   <v>       1.43783692      -1.35988180      -7.66451429 </v>
   <v>      -2.54235052       1.17353378       2.61676916 </v>
   <v>       6.16330019       3.83440628      -6.43843006 </v>
   <v>       1.75796867      -0.57636886      -2.70159767 </v>
   <v>       2.73119868       5.10321604       2.98148849 </v>
   <v>       0.23462228       7.91504184      -2.80824959 </v>
   <v>      -1.56812869      -2.46101740      -1.55137630 </v>
   <v>       6.50808343       1.75053872       3.72904775 </v>
   <v>       2.02464319      -0.22697308      -0.04820925 </v>
   <v>       3.01181689      -1.26987810       1.92903634 </v>
   <v>      -0.49090579       0.99693090       0.15529282 </v>
   <v>      -3.53034166       1.12630960      -4.98781218 </v>
   <v>      -3.51053420       3.10784420       0.61862483 </v>
   <v>      -1.85292522      -0.84245488      -0.19909659 </v>
   <v>       1.02688677      -3.19218843       0.72280311 </v>
   <v>      -0.53205322       1.84539221       3.45575054 </v>
   <v>      -0.94233396      -0.22415669       2.72669734 </v>
   <v>      -1.40841996      -1.52743684      -0.02280927 </v>
   <v>      -1.80649487       2.08610753       1.00720495 </v>
   <v>       1.98410884      -0.01508696       1.43218514 </v>
   <v>       0.01924256       3.50237069      -0.26176648 </v>
   <v>      -0.88948110       2.06895178       1.99773227 </v>
   <v>       1.14393172       0.78331420      -2.55405439 </v>
   <v>      -1.52241334       0.66915224      -1.37559615 </v>
   <v>       1.45870707       1.37630811       0.57544519 </v>
   <v>      -0.71318370       3.38586318       1.33720908 </v>
   <v>       0.19887125       1.48898843       0.93840901 </v>
   <v>      -0.06831065       1.51121814       0.10499073 </v>
   <v>      -0.82420746       4.07757870       3.54307670 </v>
   <v>       0.34494232       1.87861498       2.10924947 </v>
   <v>       0.00226349       1.82186441      -1.63070890 </v>
   <v>      -3.03690969       4.96824433       1.76695893 </v>
   <v>      -1.23016703       0.20154630       0.07070832 </v>
   <v>       0.13768678      -0.38596518       1.06065607 </v>
   <v>       0.48311458      -3.58314474      -0.73733036 </v>
   <v>       0.84254507       2.18531453       1.06312646 </v>
   <v>      -0.40544225      -1.26905196      -2.32509928 </v>
   <v>      -8.14289818      -4.51597689      -2.11923750 </v>
   <v>       0.93692145       0.46219052       1.04334466 </v>
   <v>       1.63576159      -1.87044591      -0.09005335 </v>
   <v>      -3.22965790       1.25012040      -2.77476223 </v>
   <v>       2.30164107      -3.40822289      -2.87845870 </v>
   <v>       2.01454712      -2.66551463      -1.77758003 </v>
   <v>      -1.63106318       0.42219475      -0.45515832 </v>
   <v>       1.61124753      -1.25861276      -0.53733547 </v>
   <v>      -1.32472571      -1.27510372       1.65423119 </v>
   <v>       2.76407695       2.37390028      -0.69244059 </v>
   <v>      -0.63488689      -1.87516354      -4.55460773 </v>
   <v>       2.02593372      -3.80045446      -2.69857666 </v>
   <v>       8.17227546       1.38182004      -1.81819820 </v>
   <v>       0.16494420       0.72883176       5.10459310 </v>
   <v>      -1.63304188      -1.19241469      -0.84420178 </v>
   <v>       0.14795534       1.62311693      -2.06411897 </v>
   <v>      -2.63786030      -1.20152622       0.26325469 </v>
   <v>      -0.87055024       1.64659423       3.69835333 </v>
   <v>       2.75382090       0.90047782      -0.61003896 </v>
   <v>      -0.72823874       4.52543958       4.48263366 </v>
   <v>      -0.65646551      -1.69837840      -1.46055151 </v>
   <v>      -1.68865738      -0.69246528       1.94444968 </v>
   <v>       2.63910769       2.25500922       2.39703148 </v>
   <v>      -2.76360394      -0.93213748       0.85238386 </v>
   <v>      -0.64969145      -0.52211146       0.92318668 </v>
   <v>       1.84865136       0.91781122      -0.74382874 </v>
   <v>       0.64142737       0.51224750      -0.26487042 </v>
   <v>       1.94133843       0.17030465      -0.39549700 </v>
   <v>      -3.26455158      -1.35740383       4.35107083 </v>
   <v>       1.25114676       0.67593652       0.14096098 </v>
   <v>       0.12777975       0.48244372      -2.24623673 </v>
   <v>       3.24658363       2.52040663       2.87564766 </v>
   <v>       0.64491250      -1.84539575       0.94511775 </v>
   <v>       2.03502364      -4.32738852       0.42052986 </v>
   <v>      -1.27247897      -1.07511432       0.65717510 </v>
   <v>      -0.26669107       0.18474078       2.47410459 </v>
   <v>       1.30419976       0.14918229      -0.01767046 </v>
   <v>      -1.91002506      -1.90726393      -0.79547356 </v>
   <v>      -0.17343421      -4.65418202       1.20017088 </v>
   <v>      -1.30882060       1.42334932       1.35411089 </v>
   <v>      -0.48208731       0.21647796      -3.87444597 </v>
   <v>      -1.80367514       0.23831070       2.12544471 </v>
   <v>      -1.32890271       3.66212824       3.34449664 </v>
   <v>      -3.37270083      -0.48566909      -0.63061393 </v>
   <v>       1.74555149       2.08433642       0.15292575 </v>
   <v>      -0.52069910      -1.04203807       1.58363322 </v>
   <v>      -6.05894892       0.56610069      -1.93719181 </v>
   <v>      -0.48100516      -1.43187425      -1.10554450 </v>
   <v>       0.16893388      -4.59079949      -2.61397854 </v>
  </varray>
  <varray name="stress" >
   <v>     180.06130574      15.55886915      11.87199154 </v>
   <v>      15.55886916     140.64025528       1.04061126 </v>
   <v>      11.87199151       1.04061126     164.91911369 </v>
  </varray>
  <energy>
   <i name="e_fr_energy">   -920.96588799 </i>
   <i name="e_wo_entrp">   -920.96588799 </i>
   <i name="e_0_energy">     -0.00000000 </i>
  </energy>
  <time name="totalsc">  895.64  901.57</time>
  <eigenvalues>
   <array>
    <dimension dim="1">band</dimension>
    <dimension dim="2">kpoint</dimension>
    <dimension dim="3">spin</dimension>
    <field>eigene</field>
    <field>occ</field>
    <set>
     <set comment="spin 1">
      <set comment="kpoint 1">
       <r>  -35.7102    1.0000 </r>
       <r>  -35.5245    1.0000 </r>
       <r>  -35.3291    1.0000 </r>
       <r>  -35.0763    1.0000 </r>
       <r>  -34.9182    1.0000 </r>
       <r>  -34.8811    1.0000 </r>
       <r>  -34.8729    1.0000 </r>
       <r>  -34.7912    1.0000 </r>
       <r>  -34.7005    1.0000 </r>
       <r>  -34.6712    1.0000 </r>
       <r>  -34.6228    1.0000 </r>
       <r>  -34.5931    1.0000 </r>
       <r>  -34.4178    1.0000 </r>
       <r>  -34.1480    1.0000 </r>
       <r>  -34.1215    1.0000 </r>
       <r>  -34.0810    1.0000 </r>
       <r>  -34.0385    1.0000 </r>
       <r>  -33.9557    1.0000 </r>
       <r>  -33.8188    1.0000 </r>
       <r>  -33.7781    1.0000 </r>
       <r>  -33.7293    1.0000 </r>
       <r>  -33.5094    1.0000 </r>
       <r>  -33.3710    1.0000 </r>
       <r>  -33.3146    1.0000 </r>
       <r>  -33.2911    1.0000 </r>
       <r>  -33.2360    1.0000 </r>
       <r>  -32.1989    1.0000 </r>
[...]
       <r>     5.8372     0.0000   864.0000 </r>
       <r>     6.0086     0.0000   864.0000 </r>
       <r>     6.1801     0.0000   864.0000 </r>
       <r>     6.3515     0.0000   864.0000 </r>
       <r>     6.5229     0.0001   864.0000 </r>
       <r>     6.6943     1.1801   864.2023 </r>
       <r>     6.8658     1.5786   864.4729 </r>
       <r>     7.0372     6.4593   865.5802 </r>
       <r>     7.2086     8.7040   867.0723 </r>
       <r>     7.3800    10.4762   868.8682 </r>
       <r>     7.5515     6.8554   870.0434 </r>
       <r>     7.7229    18.5657   873.2260 </r>
       <r>     7.8943    20.9415   876.8159 </r>
       <r>     8.0657    20.2103   880.2805 </r>
       <r>     8.2372    20.9814   883.8773 </r>
       <r>     8.4086    27.5425   888.5988 </r>
       <r>     8.5800    30.6193   893.8477 </r>
       <r>     8.7514    35.8901   900.0002 </r>
       <r>     8.9229    40.2153   906.8942 </r>
       <r>     9.0943    32.5673   912.4771 </r>
       <r>     9.2657    48.4285   920.7790 </r>
       <r>     9.4371    48.6596   929.1205 </r>
       <r>     9.6086    53.1553   938.2327 </r>
       <r>     9.7800    58.0940   948.1915 </r>
       <r>     9.9514    70.3406   960.2497 </r>
       <r>    10.1229    74.6689   973.0499 </r>
       <r>    10.2943    77.0388   986.2564 </r>
       <r>    10.4657    80.3174  1000.0249 </r>
       <r>    10.6371    79.7030  1013.6880 </r>
       <r>    10.8086    78.2390  1027.1002 </r>
       <r>    10.9800    61.6194  1037.6634 </r>
       <r>    11.1514    13.6285  1039.9997 </r>
       <r>    11.3228     0.0020  1040.0000 </r>
       <r>    11.4943     0.0000  1040.0000 </r>
       <r>    11.6657     0.0000  1040.0000 </r>
       <r>    11.8371     0.0000  1040.0000 </r>
       <r>    12.0085     0.0000  1040.0000 </r>
       <r>    12.1800     0.0000  1040.0000 </r>
       <r>    12.3514     0.0000  1040.0000 </r>
       <r>    12.5228     0.0000  1040.0000 </r>
       <r>    12.6942     0.0000  1040.0000 </r>
       <r>    12.8657     0.0000  1040.0000 </r>
       <r>    13.0371     0.0000  1040.0000 </r>
       <r>    13.2085     0.0000  1040.0000 </r>
       <r>    13.3799     0.0000  1040.0000 </r>
      </set>
     </set>
    </array>
   </total>
  </dos>
 </calculation>
 <structure name="finalpos" >
  <crystal>
   <varray name="basis" >
    <v>      11.62817333       0.00000000       0.00000000 </v>
    <v>       0.00000000      11.62817333       0.00000000 </v>
    <v>       0.00000000       0.00000000      11.62817333 </v>
   </varray>
   <i name="volume">   1572.29665425 </i>
   <varray name="rec_basis" >
    <v>       0.08599803       0.00000000       0.00000000 </v>
    <v>       0.00000000       0.08599803       0.00000000 </v>
    <v>       0.00000000       0.00000000       0.08599803 </v>
   </varray>
  </crystal>
  <varray name="positions" >
   <v>       0.93229070       0.45903953       0.95157119 </v>
   <v>       0.24108876       0.23972934       0.85674624 </v>
   <v>       0.24648569       0.81045385       0.41824659 </v>
   <v>       0.52635078       0.76989548       0.48862979 </v>
   <v>       0.68874373       0.21728946       0.11153119 </v>
   <v>       0.04668987       0.60473623       0.42035340 </v>
   <v>       0.10067602       0.35402353       0.61886741 </v>
   <v>       0.13380836       0.11657843       0.27804596 </v>
   <v>       0.96269005       0.80660409       0.01765341 </v>
   <v>       0.97581917       0.10757980       0.72727802 </v>
   <v>       0.99660517       0.90117479       0.53563544 </v>
   <v>       0.50141283       0.87433382       0.94275129 </v>
   <v>       0.39208873       0.51889657       0.60137619 </v>
   <v>       0.49135031       0.42012247       0.88806281 </v>
   <v>       0.75602238       0.71491578       0.87867304 </v>
   <v>       0.54480417       0.99387966       0.30896202 </v>
   <v>       0.64273263       0.25076226       0.54703209 </v>
   <v>       0.91291868       0.16717198       0.07418726 </v>
   <v>       0.86284743       0.00909978       0.33686786 </v>
   <v>       0.39043982       0.47118222       0.12591546 </v>
   <v>       0.38406471       0.28502978       0.59167660 </v>
   <v>       0.73342850       0.01923267       0.81203554 </v>
   <v>       0.53821604       0.70517600       0.16443583 </v>
   <v>       0.60115751       0.49328356       0.39473948 </v>
   <v>       0.33466948       0.19003804       0.11752029 </v>
   <v>       0.46735574       0.01230070       0.63730931 </v>
   <v>       0.78202568       0.71260686       0.27273971 </v>
   <v>       0.17566255       0.09861922       0.58217845 </v>
   <v>       0.93600140       0.50985233       0.69693747 </v>
   <v>       0.35191686       0.62928867       0.34139643 </v>
   <v>       0.51314801       0.14535634       0.86437020 </v>
   <v>       0.87867852       0.42726415       0.23320012 </v>
   <v>       0.13843963       0.67635882       0.66085348 </v>
   <v>       0.68340493       0.49379768       0.14137024 </v>
   <v>       0.36076973       0.74555715       0.70379874 </v>
   <v>       0.50150959       0.25686935       0.30858314 </v>
   <v>       0.26030956       0.36791279       0.38946372 </v>
   <v>       0.92992330       0.20665711       0.43889965 </v>
   <v>       0.07725354       0.89771456       0.76531331 </v>
   <v>       0.30459738       0.88913835       0.13735507 </v>
   <v>       0.67674329       0.47161517       0.69617282 </v>
   <v>       0.18964822       0.47824984       0.89262239 </v>
   <v>       0.86172231       0.41108036       0.50177457 </v>
   <v>       0.74533999       0.95552042       0.09762786 </v>
   <v>       0.74743694       0.98742955       0.58195858 </v>
   <v>       0.29132301       0.69766682       0.94504926 </v>
   <v>       0.34824616       0.06448411       0.43611431 </v>
   <v>       0.56619415       0.67289298       0.75826854 </v>
   <v>       0.74130989       0.28571352       0.86134290 </v>
   <v>       0.11480717       0.35801438       0.18179982 </v>
   <v>       0.73905500       0.72770898       0.54505427 </v>
   <v>       0.04307272       0.59373328       0.14647364 </v>
   <v>       0.19835660       0.00250409       0.92831204 </v>
   <v>       0.06696229       0.84731849       0.23800048 </v>
   <v>       0.56215291       0.00713753       0.87708515 </v>
   <v>       0.66200593       0.64315939       0.48578611 </v>
   <v>       0.64483110       0.86293232       0.02252333 </v>
   <v>       0.20926539       0.61914779       0.34384417 </v>
   <v>       0.47211113       0.68858585       0.65107142 </v>
   <v>       0.48055034       0.35685721       0.46647948 </v>
   <v>       0.22158366       0.88970523       0.26182068 </v>
   <v>       0.95073338       0.87878396       0.82190723 </v>
   <v>       0.98554210       0.62453168       0.02601829 </v>
   <v>       0.89869470       0.55221128       0.55206231 </v>
   <v>       0.64360561       0.04393580       0.63912633 </v>
   <v>       0.42637423       0.62658185       0.45332754 </v>
   <v>       0.29149789       0.41151183       0.97246762 </v>
   <v>       0.39541163       0.59582755       0.96624667 </v>
   <v>       0.48435784       0.19830060       0.73327950 </v>
   <v>       0.41078916       0.92434106       0.44561255 </v>
   <v>       0.44573175       0.89098669       0.11907502 </v>
   <v>       0.10123141       0.72371941       0.54387080 </v>
   <v>       0.84381246       0.00936295       0.01285868 </v>
   <v>       0.32091002       0.08122741       0.29429780 </v>
   <v>       0.14847114       0.22138600       0.12097854 </v>
   <v>       0.86836095       0.55479401       0.80220721 </v>
   <v>       0.43346295       0.53487805       0.27707976 </v>
   <v>       0.19809998       0.99934251       0.45207248 </v>
   <v>       0.85838476       0.94216454       0.63830557 </v>
   <v>       0.99843856       0.33770488       0.46120376 </v>
   <v>       0.25278560       0.98023057       0.05363228 </v>
   <v>       0.72243488       0.40687246       0.80953638 </v>
   <v>       0.32536846       0.84715826       0.61982403 </v>
   <v>       0.65879461       0.58749699       0.24201109 </v>
   <v>       0.61576193       0.79037839       0.29611726 </v>
   <v>       0.31887519       0.02779071       0.86874244 </v>
   <v>       0.34028152       0.12396767       0.60835089 </v>
   <v>       0.57398028       0.41016882       0.09192751 </v>
   <v>       0.82245086       0.46850773       0.36263593 </v>
   <v>       0.63302584       0.79674064       0.79525823 </v>
   <v>       0.16070866       0.64422952       0.94167224 </v>
   <v>       0.36147460       0.33594012       0.29137877 </v>
   <v>       0.83044000       0.84679004       0.15700485 </v>
   <v>       0.10394575       0.98949908       0.66383833 </v>
   <v>       0.58595973       0.60344485       0.87091942 </v>
   <v>       0.26348283       0.63599846       0.69742582 </v>
   <v>       0.63237317       0.30145710       0.36172747 </v>
   <v>       0.07469359       0.76707681       0.74268378 </v>
   <v>       0.85889517       0.74989301       0.52174107 </v>
   <v>       0.16971338       0.39739797       0.28989841 </v>
   <v>       0.82171542       0.27352288       0.49721440 </v>
   <v>       0.80326068       0.17695175       0.80082157 </v>
   <v>       0.54334434       0.46324441       0.69779038 </v>
   <v>       0.51791244       0.17743631       0.17852946 </v>
   <v>       0.99342714       0.95968187       0.20251299 </v>
   <v>       0.13379941       0.18758289       0.66270412 </v>
   <v>       0.73149986       0.05944458       0.20148193 </v>
   <v>       0.11383642       0.10400637       0.87565746 </v>
   <v>       0.39846351       0.18831304       0.93252604 </v>
   <v>       0.15243789       0.49805845       0.11987183 </v>
   <v>       0.36942703       0.77127950       0.83729218 </v>
   <v>       0.73314053       0.56117921       0.03690608 </v>
   <v>       0.71657957       0.42654649       0.57047717 </v>
   <v>       0.90434751       0.37497885       0.67020756 </v>
   <v>       0.94156750       0.55221138       0.21538264 </v>
   <v>       0.73721829       0.05308407       0.45675751 </v>
   <v>       0.69482177       0.61908027       0.70198892 </v>
   <v>       0.13573279       0.87750338       0.88883482 </v>
   <v>       0.25966989       0.45195013       0.76072563 </v>
   <v>       0.98012421       0.13020870       0.53300665 </v>
   <v>       0.08283518       0.39828605       0.86828113 </v>
   <v>       0.68518243       0.85973857       0.52237602 </v>
   <v>       0.92205449       0.17750153       0.30483179 </v>
   <v>       0.07370547       0.55677216       0.69649991 </v>
   <v>       0.37753249       0.76934042       0.27791468 </v>
   <v>       0.98105407       0.34158504       0.16823214 </v>
   <v>       0.47921669       0.13396508       0.47110151 </v>
   <v>       0.04154716       0.80832930       0.36351295 </v>
   <v>       0.26452328       0.43440819       0.49956150 </v>
   <v>       0.85081789       0.29617442       0.96206315 </v>
   <v>       0.62264165       0.21885026       0.92031570 </v>
   <v>       0.28062583       0.79137598       0.03925802 </v>
   <v>       0.79275633       0.36941235       0.15794100 </v>
   <v>       0.22586836       0.24141345       0.45561394 </v>
   <v>       0.07491935       0.73448884       0.17329571 </v>
  </varray>
  <varray name="velocities" >
   <v>       0.00000000       0.00000000       0.00000000 </v>
   <v>       0.00000000       0.00000000       0.00000000 </v>
   <v>       0.00000000       0.00000000       0.00000000 </v>
   <v>       0.00000000       0.00000000       0.00000000 </v>
   <v>       0.00000000       0.00000000       0.00000000 </v>
   <v>       0.00000000       0.00000000       0.00000000 </v>
   <v>       0.00000000       0.00000000       0.00000000 </v>
   <v>       0.00000000       0.00000000       0.00000000 </v>
   <v>       0.00000000       0.00000000       0.00000000 </v>
   <v>       0.00000000       0.00000000       0.00000000 </v>
   <v>       0.00000000       0.00000000       0.00000000 </v>
   <v>       0.00000000       0.00000000       0.00000000 </v>
   <v>       0.00000000       0.00000000       0.00000000 </v>
   <v>       0.00000000       0.00000000       0.00000000 </v>
   <v>       0.00000000       0.00000000       0.00000000 </v>
   <v>       0.00000000       0.00000000       0.00000000 </v>
   <v>       0.00000000       0.00000000       0.00000000 </v>
   <v>       0.00000000       0.00000000       0.00000000 </v>
   <v>       0.00000000       0.00000000       0.00000000 </v>
   <v>       0.00000000       0.00000000       0.00000000 </v>
   <v>       0.00000000       0.00000000       0.00000000 </v>
   <v>       0.00000000       0.00000000       0.00000000 </v>
   <v>       0.00000000       0.00000000       0.00000000 </v>
   <v>       0.00000000       0.00000000       0.00000000 </v>
   <v>       0.00000000       0.00000000       0.00000000 </v>
   <v>       0.00000000       0.00000000       0.00000000 </v>
   <v>       0.00000000       0.00000000       0.00000000 </v>
   <v>       0.00000000       0.00000000       0.00000000 </v>
   <v>       0.00000000       0.00000000       0.00000000 </v>
   <v>       0.00000000       0.00000000       0.00000000 </v>
   <v>       0.00000000       0.00000000       0.00000000 </v>
   <v>       0.00000000       0.00000000       0.00000000 </v>
   <v>       0.00000000       0.00000000       0.00000000 </v>
   <v>       0.00000000       0.00000000       0.00000000 </v>
   <v>       0.00000000       0.00000000       0.00000000 </v>
   <v>       0.00000000       0.00000000       0.00000000 </v>
   <v>       0.00000000       0.00000000       0.00000000 </v>
   <v>       0.00000000       0.00000000       0.00000000 </v>
   <v>       0.00000000       0.00000000       0.00000000 </v>
   <v>       0.00000000       0.00000000       0.00000000 </v>
   <v>       0.00000000       0.00000000       0.00000000 </v>
   <v>       0.00000000       0.00000000       0.00000000 </v>
   <v>       0.00000000       0.00000000       0.00000000 </v>
   <v>       0.00000000       0.00000000       0.00000000 </v>
   <v>       0.00000000       0.00000000       0.00000000 </v>
   <v>       0.00000000       0.00000000       0.00000000 </v>
   <v>       0.00000000       0.00000000       0.00000000 </v>
   <v>       0.00000000       0.00000000       0.00000000 </v>
   <v>       0.00000000       0.00000000       0.00000000 </v>
   <v>       0.00000000       0.00000000       0.00000000 </v>
   <v>       0.00000000       0.00000000       0.00000000 </v>
   <v>       0.00000000       0.00000000       0.00000000 </v>
   <v>       0.00000000       0.00000000       0.00000000 </v>
   <v>       0.00000000       0.00000000       0.00000000 </v>
   <v>       0.00000000       0.00000000       0.00000000 </v>
   <v>       0.00000000       0.00000000       0.00000000 </v>
   <v>       0.00000000       0.00000000       0.00000000 </v>
   <v>       0.00000000       0.00000000       0.00000000 </v>
   <v>       0.00000000       0.00000000       0.00000000 </v>
   <v>       0.00000000       0.00000000       0.00000000 </v>
   <v>       0.00000000       0.00000000       0.00000000 </v>
   <v>       0.00000000       0.00000000       0.00000000 </v>
   <v>       0.00000000       0.00000000       0.00000000 </v>
   <v>       0.00000000       0.00000000       0.00000000 </v>
   <v>       0.00000000       0.00000000       0.00000000 </v>
   <v>       0.00000000       0.00000000       0.00000000 </v>
   <v>       0.00000000       0.00000000       0.00000000 </v>
   <v>       0.00000000       0.00000000       0.00000000 </v>
   <v>       0.00000000       0.00000000       0.00000000 </v>
   <v>       0.00000000       0.00000000       0.00000000 </v>
   <v>       0.00000000       0.00000000       0.00000000 </v>
   <v>       0.00000000       0.00000000       0.00000000 </v>
   <v>       0.00000000       0.00000000       0.00000000 </v>
   <v>       0.00000000       0.00000000       0.00000000 </v>
   <v>       0.00000000       0.00000000       0.00000000 </v>
   <v>       0.00000000       0.00000000       0.00000000 </v>
   <v>       0.00000000       0.00000000       0.00000000 </v>
   <v>       0.00000000       0.00000000       0.00000000 </v>
   <v>       0.00000000       0.00000000       0.00000000 </v>
   <v>       0.00000000       0.00000000       0.00000000 </v>
   <v>       0.00000000       0.00000000       0.00000000 </v>
   <v>       0.00000000       0.00000000       0.00000000 </v>
   <v>       0.00000000       0.00000000       0.00000000 </v>
   <v>       0.00000000       0.00000000       0.00000000 </v>
   <v>       0.00000000       0.00000000       0.00000000 </v>
   <v>       0.00000000       0.00000000       0.00000000 </v>
   <v>       0.00000000       0.00000000       0.00000000 </v>
   <v>       0.00000000       0.00000000       0.00000000 </v>
   <v>       0.00000000       0.00000000       0.00000000 </v>
   <v>       0.00000000       0.00000000       0.00000000 </v>
   <v>       0.00000000       0.00000000       0.00000000 </v>
   <v>       0.00000000       0.00000000       0.00000000 </v>
   <v>       0.00000000       0.00000000       0.00000000 </v>
   <v>       0.00000000       0.00000000       0.00000000 </v>
   <v>       0.00000000       0.00000000       0.00000000 </v>
   <v>       0.00000000       0.00000000       0.00000000 </v>
   <v>       0.00000000       0.00000000       0.00000000 </v>
   <v>       0.00000000       0.00000000       0.00000000 </v>
   <v>       0.00000000       0.00000000       0.00000000 </v>
   <v>       0.00000000       0.00000000       0.00000000 </v>
   <v>       0.00000000       0.00000000       0.00000000 </v>
   <v>       0.00000000       0.00000000       0.00000000 </v>
   <v>       0.00000000       0.00000000       0.00000000 </v>
   <v>       0.00000000       0.00000000       0.00000000 </v>
   <v>       0.00000000       0.00000000       0.00000000 </v>
   <v>       0.00000000       0.00000000       0.00000000 </v>
   <v>       0.00000000       0.00000000       0.00000000 </v>
   <v>       0.00000000       0.00000000       0.00000000 </v>
   <v>       0.00000000       0.00000000       0.00000000 </v>
   <v>       0.00000000       0.00000000       0.00000000 </v>
   <v>       0.00000000       0.00000000       0.00000000 </v>
   <v>       0.00000000       0.00000000       0.00000000 </v>
   <v>       0.00000000       0.00000000       0.00000000 </v>
   <v>       0.00000000       0.00000000       0.00000000 </v>
   <v>       0.00000000       0.00000000       0.00000000 </v>
   <v>       0.00000000       0.00000000       0.00000000 </v>
   <v>       0.00000000       0.00000000       0.00000000 </v>
   <v>       0.00000000       0.00000000       0.00000000 </v>
   <v>       0.00000000       0.00000000       0.00000000 </v>
   <v>       0.00000000       0.00000000       0.00000000 </v>
   <v>       0.00000000       0.00000000       0.00000000 </v>
   <v>       0.00000000       0.00000000       0.00000000 </v>
   <v>       0.00000000       0.00000000       0.00000000 </v>
   <v>       0.00000000       0.00000000       0.00000000 </v>
   <v>       0.00000000       0.00000000       0.00000000 </v>
   <v>       0.00000000       0.00000000       0.00000000 </v>
   <v>       0.00000000       0.00000000       0.00000000 </v>
   <v>       0.00000000       0.00000000       0.00000000 </v>
   <v>       0.00000000       0.00000000       0.00000000 </v>
   <v>       0.00000000       0.00000000       0.00000000 </v>
   <v>       0.00000000       0.00000000       0.00000000 </v>
   <v>       0.00000000       0.00000000       0.00000000 </v>
   <v>       0.00000000       0.00000000       0.00000000 </v>
   <v>       0.00000000       0.00000000       0.00000000 </v>
   <v>       0.00000000       0.00000000       0.00000000 </v>
  </varray>
 </structure>
</modeling>
