<?xml version="1.0" encoding="ISO-8859-1"?>
<modeling>
 <generator>
  <i name="program" type="string">vasp </i>
  <i name="version" type="string">5.4.4.18Apr17-6-g9f103f2a35  </i>
  <i name="subversion" type="string">(build Mar 16 2023 09:39:13) complex            parallel </i>
  <i name="platform" type="string">LinuxIFC </i>
  <i name="date" type="string">2024 04 30 </i>
  <i name="time" type="string">02:18:08 </i>
 </generator>
 <incar>
  <i type="int" name="ISTART">     0</i>
  <i type="string" name="PREC">a</i>
  <i type="logical" name="ADDGRID"> T  </i>
  <i type="int" name="IBRION">    -1</i>
  <i name="EDIFF">      0.00000100</i>
  <i name="EDIFFG">     -0.01000000</i>
  <i type="int" name="NSW">     1</i>
  <i type="int" name="ISIF">     2</i>
  <i type="int" name="ISYM">     0</i>
  <i name="ENCUT">    600.00000000</i>
  <i name="POTIM">      1.00000000</i>
  <i type="string" name="LREAL">  A</i>
  <i type="int" name="ISMEAR">     0</i>
  <i name="SIGMA">      0.05000000</i>
  <i name="KSPACING">      0.30000000</i>
  <i type="logical" name="KGAMMA"> T  </i>
  <i type="logical" name="LWAVE"> F  </i>
  <i type="logical" name="LCHARG"> F  </i>
  <i type="logical" name="LSCALAPACK"> F  </i>
  <v type="int" name="KPOINT_BSE">    -1     0     0     0</v>
 </incar>
 <structure name="primitive_cell" >
  <crystal>
   <varray name="basis" >
    <v>      12.93041299       0.00000000       0.00000000 </v>
    <v>       0.00000000      12.93041299       0.00000000 </v>
    <v>       0.00000000       0.00000000      12.93041299 </v>
   </varray>
   <i name="volume">   2161.90790069 </i>
   <varray name="rec_basis" >
    <v>       0.07733705       0.00000000       0.00000000 </v>
    <v>       0.00000000       0.07733705       0.00000000 </v>
    <v>       0.00000000       0.00000000       0.07733705 </v>
   </varray>
  </crystal>
  <varray name="positions" >
   <v>       0.26475634      -0.23011803      -0.12761661 </v>
   <v>       0.37683539      -0.30578034      -0.03319410 </v>
   <v>       0.22770606      -0.14953320      -0.28614404 </v>
   <v>       0.18662751      -0.06462499      -0.09786295 </v>
   <v>       0.39656278      -0.08479730      -0.11143772 </v>
   <v>       0.17392516      -0.38328660      -0.04285870 </v>
   <v>       0.30655392      -0.04342603      -0.03242302 </v>
   <v>       0.05908580      -0.23746955      -0.05895006 </v>
   <v>       0.24969097      -0.10334488       0.06213371 </v>
   <v>       0.15277994      -0.05659367      -0.23307029 </v>
   <v>       0.24615571      -0.27974454       0.09917046 </v>
   <v>       0.42982732      -0.39816847      -0.11484724 </v>
   <v>       0.46995626      -0.34649087      -0.21620526 </v>
   <v>       0.33673741      -0.30051022      -0.36095296 </v>
   <v>       0.23373278      -0.23559651      -0.39241355 </v>
   <v>       0.19689748       0.49906738      -0.08387630 </v>
   <v>       0.11626374      -0.26102689      -0.37614451 </v>
   <v>      -0.01922065      -0.22147963      -0.21575885 </v>
   <v>       0.32688319       0.47976533      -0.09603223 </v>
   <v>       0.00459435      -0.19365825       0.03902048 </v>
   <v>       0.00953254      -0.07278841      -0.23262976 </v>
   <v>       0.09537462      -0.15278787       0.13363713 </v>
   <v>       0.28097929       0.07493170      -0.00234851 </v>
   <v>       0.17587825       0.04474414      -0.30330444 </v>
   <v>       0.40143324       0.01912385      -0.31556422 </v>
   <v>       0.22684141      -0.49175482      -0.34666009 </v>
   <v>       0.33262071      -0.43739955      -0.39928981 </v>
   <v>       0.08298187       0.03083976       0.03045629 </v>
   <v>      -0.49370303      -0.48605966      -0.06930987 </v>
   <v>      -0.37947517      -0.20144884      -0.19704754 </v>
   <v>       0.37067575       0.11124267      -0.19515737 </v>
   <v>      -0.42999935      -0.25859612      -0.32429735 </v>
   <v>       0.10329737       0.44585540      -0.18765061 </v>
   <v>       0.27822656      -0.19430841      -0.49842983 </v>
   <v>      -0.43480915      -0.29503634       0.08582797 </v>
   <v>      -0.43795065      -0.01434226      -0.00611917 </v>
   <v>       0.14656833       0.41519506      -0.01747719 </v>
   <v>      -0.04048171      -0.28128485       0.11608182 </v>
   <v>      -0.06231710      -0.09306077       0.04976819 </v>
   <v>       0.21368461      -0.19738363       0.26961282 </v>
   <v>       0.42390934       0.47345334      -0.34769030 </v>
   <v>       0.39354274      -0.38743926       0.22622603 </v>
   <v>       0.29870203       0.00580630       0.20861982 </v>
   <v>       0.48979997      -0.05988868      -0.44217218 </v>
   <v>       0.47824958       0.03198758       0.12657907 </v>
   <v>       0.05608551      -0.20517915       0.24038792 </v>
   <v>       0.29595975       0.37909415      -0.29221070 </v>
   <v>      -0.41998500       0.03202873      -0.27364540 </v>
   <v>       0.34078242       0.19718188      -0.08361689 </v>
   <v>       0.45905148       0.42748880       0.07084364 </v>
   <v>       0.32433665      -0.40229031       0.46991283 </v>
   <v>       0.05030777       0.38440111      -0.08252371 </v>
   <v>      -0.39438829      -0.10859207       0.13106244 </v>
   <v>      -0.10995468      -0.42117283       0.02399269 </v>
   <v>       0.17035365      -0.45410797       0.49255435 </v>
   <v>      -0.05204027       0.08882371      -0.09089982 </v>
   <v>      -0.12120507      -0.45360444      -0.20339132 </v>
   <v>      -0.35017974      -0.47155230      -0.11920070 </v>
   <v>      -0.27656502      -0.22669151      -0.14198144 </v>
   <v>      -0.03773520       0.43927033      -0.01329310 </v>
   <v>      -0.01078087      -0.23689615       0.49750032 </v>
   <v>      -0.31567463      -0.38745759      -0.25582574 </v>
   <v>      -0.10155481      -0.36630481      -0.38229775 </v>
   <v>       0.27013836       0.29629441      -0.11745732 </v>
   <v>       0.44001310      -0.15290983       0.43154217 </v>
   <v>       0.12694600      -0.10117190       0.42897459 </v>
   <v>       0.13844409       0.09908802       0.20201815 </v>
   <v>      -0.20453093      -0.25074464      -0.24112163 </v>
   <v>      -0.26703597      -0.30993364      -0.01691635 </v>
   <v>      -0.38651509      -0.01204220      -0.38995376 </v>
   <v>       0.23142159      -0.13387681       0.39463638 </v>
   <v>      -0.17980156      -0.36143555      -0.28641954 </v>
   <v>      -0.45612316      -0.02490051       0.22140608 </v>
   <v>      -0.41781864      -0.27199530       0.49395268 </v>
   <v>      -0.42698846      -0.48161514       0.17873080 </v>
   <v>       0.09978462       0.07343236      -0.49623659 </v>
   <v>      -0.16887042       0.02311466      -0.19516809 </v>
   <v>      -0.38522643       0.13989848      -0.07909838 </v>
   <v>      -0.23706265      -0.11234825      -0.09941321 </v>
   <v>       0.02727747      -0.31313865       0.31929107 </v>
   <v>      -0.49814759      -0.44825101       0.28048045 </v>
   <v>       0.00342289      -0.10013145       0.30342435 </v>
   <v>       0.14675365       0.26343749      -0.27113003 </v>
   <v>       0.45075963       0.26243082      -0.05327678 </v>
   <v>       0.31646106      -0.03370458       0.37928693 </v>
   <v>      -0.44980460       0.12389288      -0.41543624 </v>
   <v>      -0.36532837       0.38173272      -0.07180387 </v>
   <v>      -0.21951876      -0.12784863       0.08622506 </v>
   <v>       0.03936205       0.26587553      -0.11418546 </v>
   <v>      -0.07158362       0.19959269      -0.13722078 </v>
   <v>      -0.04278753       0.21180339      -0.27249332 </v>
   <v>      -0.49255903      -0.04207277       0.33813064 </v>
   <v>       0.14791611       0.22109879      -0.43918097 </v>
   <v>      -0.37227184       0.16124907      -0.31357781 </v>
   <v>      -0.40543333      -0.35849888       0.31473585 </v>
   <v>      -0.13290682       0.38579610      -0.27364105 </v>
   <v>       0.02202349       0.48526469       0.30512288 </v>
   <v>       0.14318025       0.32964742       0.21786325 </v>
   <v>      -0.11095292      -0.11507857       0.45406735 </v>
   <v>       0.19992511       0.21000451       0.23847141 </v>
   <v>       0.32309994       0.20678710       0.24875743 </v>
   <v>      -0.42047850       0.26229123      -0.12140728 </v>
   <v>      -0.43023316       0.25720696      -0.26313503 </v>
   <v>      -0.29873001      -0.03363723      -0.48236164 </v>
   <v>      -0.09674481      -0.39702563       0.31589057 </v>
   <v>       0.46029686       0.36730747       0.47786654 </v>
   <v>       0.33501674       0.28744402      -0.48116498 </v>
   <v>      -0.34895146      -0.36890131       0.42285150 </v>
   <v>      -0.36645998       0.06353172       0.26326106 </v>
   <v>      -0.33706830      -0.48376383       0.48216146 </v>
   <v>      -0.16459479       0.45197172       0.18924897 </v>
   <v>       0.47356503       0.44600302       0.36510604 </v>
   <v>       0.14545533       0.36179111       0.41317776 </v>
   <v>      -0.15911307       0.02460477       0.25891759 </v>
   <v>      -0.26471011       0.12132892      -0.36600550 </v>
   <v>       0.05239272       0.36450049       0.31449818 </v>
   <v>      -0.08088056      -0.01127267       0.36066744 </v>
   <v>       0.47830829       0.12679235       0.38772696 </v>
   <v>      -0.28056389      -0.15756919       0.42893929 </v>
   <v>      -0.07964314       0.08090073       0.43127396 </v>
   <v>       0.18471901       0.18060824       0.37948896 </v>
   <v>       0.22334842       0.26582197       0.45859068 </v>
   <v>      -0.20046308       0.40923692      -0.42151258 </v>
   <v>      -0.17746740       0.27029204      -0.14655282 </v>
   <v>      -0.03967677       0.30857309       0.25590820 </v>
   <v>      -0.23590728       0.15504126       0.11664595 </v>
   <v>      -0.24011034      -0.31223585       0.39692986 </v>
   <v>      -0.15780349       0.20957954      -0.46163264 </v>
   <v>      -0.24784957       0.12187731       0.23568531 </v>
   <v>      -0.23807112       0.30365974       0.04577296 </v>
   <v>      -0.15165695       0.36464824       0.27197167 </v>
   <v>      -0.27334589       0.41008721       0.46679892 </v>
   <v>      -0.36041307       0.32755919       0.45170446 </v>
   <v>      -0.18124485       0.41195268       0.38117281 </v>
   <v>      -0.24269808       0.22624220       0.28734468 </v>
  </varray>
 </structure>
 <varray name="primitive_index" >
  <v type="int" >        1 </v>
  <v type="int" >       98 </v>
  <v type="int" >      107 </v>
  <v type="int" >       97 </v>
  <v type="int" >       94 </v>
  <v type="int" >       80 </v>
  <v type="int" >       44 </v>
  <v type="int" >      103 </v>
  <v type="int" >      123 </v>
  <v type="int" >       49 </v>
  <v type="int" >       26 </v>
  <v type="int" >       43 </v>
  <v type="int" >       61 </v>
  <v type="int" >      125 </v>
  <v type="int" >       47 </v>
  <v type="int" >       32 </v>
  <v type="int" >      130 </v>
  <v type="int" >        8 </v>
  <v type="int" >       73 </v>
  <v type="int" >       37 </v>
  <v type="int" >       65 </v>
  <v type="int" >      132 </v>
  <v type="int" >      129 </v>
  <v type="int" >      124 </v>
  <v type="int" >        3 </v>
  <v type="int" >       84 </v>
  <v type="int" >       54 </v>
  <v type="int" >       19 </v>
  <v type="int" >      100 </v>
  <v type="int" >       87 </v>
  <v type="int" >      101 </v>
  <v type="int" >        7 </v>
  <v type="int" >       60 </v>
  <v type="int" >      112 </v>
  <v type="int" >        2 </v>
  <v type="int" >       15 </v>
  <v type="int" >       69 </v>
  <v type="int" >      133 </v>
  <v type="int" >      119 </v>
  <v type="int" >       63 </v>
  <v type="int" >       59 </v>
  <v type="int" >       74 </v>
  <v type="int" >       17 </v>
  <v type="int" >       81 </v>
  <v type="int" >      131 </v>
  <v type="int" >       35 </v>
  <v type="int" >       21 </v>
  <v type="int" >       66 </v>
  <v type="int" >       41 </v>
  <v type="int" >       20 </v>
  <v type="int" >      127 </v>
  <v type="int" >       51 </v>
  <v type="int" >       62 </v>
  <v type="int" >       12 </v>
  <v type="int" >       11 </v>
  <v type="int" >       55 </v>
  <v type="int" >      113 </v>
  <v type="int" >       23 </v>
  <v type="int" >       36 </v>
  <v type="int" >       76 </v>
  <v type="int" >        5 </v>
  <v type="int" >       67 </v>
  <v type="int" >       86 </v>
  <v type="int" >      126 </v>
  <v type="int" >       25 </v>
  <v type="int" >       96 </v>
  <v type="int" >       88 </v>
  <v type="int" >       68 </v>
  <v type="int" >       58 </v>
  <v type="int" >       39 </v>
  <v type="int" >       31 </v>
  <v type="int" >       52 </v>
  <v type="int" >       38 </v>
  <v type="int" >       79 </v>
  <v type="int" >      117 </v>
  <v type="int" >       27 </v>
  <v type="int" >       16 </v>
  <v type="int" >      118 </v>
  <v type="int" >       92 </v>
  <v type="int" >       72 </v>
  <v type="int" >       40 </v>
  <v type="int" >       91 </v>
  <v type="int" >        4 </v>
  <v type="int" >      111 </v>
  <v type="int" >      105 </v>
  <v type="int" >      115 </v>
  <v type="int" >      109 </v>
  <v type="int" >       22 </v>
  <v type="int" >       93 </v>
  <v type="int" >       29 </v>
  <v type="int" >      135 </v>
  <v type="int" >      106 </v>
  <v type="int" >      120 </v>
  <v type="int" >       28 </v>
  <v type="int" >       57 </v>
  <v type="int" >        9 </v>
  <v type="int" >       78 </v>
  <v type="int" >       83 </v>
  <v type="int" >       56 </v>
  <v type="int" >       53 </v>
  <v type="int" >       70 </v>
  <v type="int" >       50 </v>
  <v type="int" >      116 </v>
  <v type="int" >       64 </v>
  <v type="int" >       10 </v>
  <v type="int" >       14 </v>
  <v type="int" >       95 </v>
  <v type="int" >       34 </v>
  <v type="int" >      128 </v>
  <v type="int" >      114 </v>
  <v type="int" >      108 </v>
  <v type="int" >       90 </v>
  <v type="int" >       75 </v>
  <v type="int" >       85 </v>
  <v type="int" >       99 </v>
  <v type="int" >       45 </v>
  <v type="int" >       42 </v>
  <v type="int" >       24 </v>
  <v type="int" >       18 </v>
  <v type="int" >       71 </v>
  <v type="int" >       82 </v>
  <v type="int" >       30 </v>
  <v type="int" >      104 </v>
  <v type="int" >      102 </v>
  <v type="int" >       77 </v>
  <v type="int" >      110 </v>
  <v type="int" >      122 </v>
  <v type="int" >       13 </v>
  <v type="int" >       33 </v>
  <v type="int" >        6 </v>
  <v type="int" >       48 </v>
  <v type="int" >       46 </v>
  <v type="int" >      134 </v>
  <v type="int" >       89 </v>
  <v type="int" >      121 </v>
 </varray>
 <kpoints>
  <generation param="Gamma">
   <v type="int" name="divisions">       2        2        2 </v>
   <v name="usershift">      0.00000000       0.00000000       0.00000000 </v>
   <v name="genvec1">      0.50000000       0.00000000       0.00000000 </v>
   <v name="genvec2">      0.00000000       0.50000000       0.00000000 </v>
   <v name="genvec3">      0.00000000       0.00000000       0.50000000 </v>
   <v name="shift">      0.00000000       0.00000000       0.00000000 </v>
  </generation>
  <varray name="kpointlist" >
   <v>       0.00000000       0.00000000       0.00000000 </v>
   <v>       0.50000000       0.00000000       0.00000000 </v>
   <v>       0.00000000       0.50000000       0.00000000 </v>
   <v>       0.50000000       0.50000000       0.00000000 </v>
   <v>       0.00000000       0.00000000       0.50000000 </v>
   <v>       0.50000000       0.00000000       0.50000000 </v>
   <v>       0.00000000       0.50000000       0.50000000 </v>
   <v>       0.50000000       0.50000000       0.50000000 </v>
  </varray>
  <varray name="weights" >
   <v>       0.12500000 </v>
   <v>       0.12500000 </v>
   <v>       0.12500000 </v>
   <v>       0.12500000 </v>
   <v>       0.12500000 </v>
   <v>       0.12500000 </v>
   <v>       0.12500000 </v>
   <v>       0.12500000 </v>
  </varray>
 </kpoints>
 <parameters>
  <separator name="general" >
   <i type="string" name="SYSTEM">unknown system</i>
   <i type="logical" name="LCOMPAT"> F  </i>
  </separator>
  <separator name="electronic" >
   <i type="string" name="PREC">a</i>
   <i name="ENMAX">    600.00000000</i>
   <i name="ENAUG">    605.39200000</i>
   <i name="EDIFF">      0.00000100</i>
   <i type="int" name="IALGO">    38</i>
   <i type="int" name="IWAVPR">    10</i>
   <i type="int" name="NBANDS">   520</i>
   <i name="NELECT">    864.00000000</i>
   <i type="int" name="TURBO">     0</i>
   <i type="int" name="IRESTART">     0</i>
   <i type="int" name="NREBOOT">     0</i>
   <i type="int" name="NMIN">     0</i>
   <i name="EREF">      0.00000000</i>
   <separator name="electronic smearing" >
    <i type="int" name="ISMEAR">     0</i>
    <i name="SIGMA">      0.05000000</i>
    <i name="KSPACING">      0.30000000</i>
    <i type="logical" name="KGAMMA"> T  </i>
   </separator>
   <separator name="electronic projectors" >
    <i type="logical" name="LREAL"> T  </i>
    <v name="ROPT">     -0.00025000     -0.00025000     -0.00025000</v>
    <i type="int" name="LMAXPAW">  -100</i>
    <i type="int" name="LMAXMIX">     2</i>
    <i type="logical" name="NLSPLINE"> F  </i>
   </separator>
   <separator name="electronic startup" >
    <i type="int" name="ISTART">     0</i>
    <i type="int" name="ICHARG">     2</i>
    <i type="int" name="INIWAV">     1</i>
   </separator>
   <separator name="electronic spin" >
    <i type="int" name="ISPIN">     1</i>
    <i type="logical" name="LNONCOLLINEAR"> F  </i>
    <v name="MAGMOM">      1.00000000      1.00000000      1.00000000      1.00000000      1.00000000      1.00000000      1.00000000      1.00000000      1.00000000      1.00000000      1.00000000      1.00000000      1.00000000      1.00000000      1.00000000      1.00000000      1.00000000      1.00000000      1.00000000      1.00000000
      1.00000000      1.00000000      1.00000000      1.00000000      1.00000000      1.00000000      1.00000000      1.00000000      1.00000000      1.00000000      1.00000000      1.00000000      1.00000000      1.00000000      1.00000000      1.00000000      1.00000000      1.00000000      1.00000000      1.00000000
      1.00000000      1.00000000      1.00000000      1.00000000      1.00000000      1.00000000      1.00000000      1.00000000      1.00000000      1.00000000      1.00000000      1.00000000      1.00000000      1.00000000      1.00000000      1.00000000      1.00000000      1.00000000      1.00000000      1.00000000
      1.00000000      1.00000000      1.00000000      1.00000000      1.00000000      1.00000000      1.00000000      1.00000000      1.00000000      1.00000000      1.00000000      1.00000000      1.00000000      1.00000000      1.00000000      1.00000000      1.00000000      1.00000000      1.00000000      1.00000000
      1.00000000      1.00000000      1.00000000      1.00000000      1.00000000      1.00000000      1.00000000      1.00000000      1.00000000      1.00000000      1.00000000      1.00000000      1.00000000      1.00000000      1.00000000      1.00000000      1.00000000      1.00000000      1.00000000      1.00000000
      1.00000000      1.00000000      1.00000000      1.00000000      1.00000000      1.00000000      1.00000000      1.00000000      1.00000000      1.00000000      1.00000000      1.00000000      1.00000000      1.00000000      1.00000000      1.00000000      1.00000000      1.00000000      1.00000000      1.00000000
      1.00000000      1.00000000      1.00000000      1.00000000      1.00000000      1.00000000      1.00000000      1.00000000      1.00000000      1.00000000      1.00000000      1.00000000      1.00000000      1.00000000      1.00000000</v>
    <i name="NUPDOWN">     -1.00000000</i>
    <i type="logical" name="LSORBIT"> F  </i>
    <v name="SAXIS">      0.00000000      0.00000000      1.00000000</v>
    <i type="logical" name="LSPIRAL"> F  </i>
    <v name="QSPIRAL">      0.00000000      0.00000000      0.00000000</v>
    <i type="logical" name="LZEROZ"> F  </i>
   </separator>
   <separator name="electronic exchange-correlation" >
    <i type="logical" name="LASPH"> F  </i>
    <i type="logical" name="LMETAGGA"> F  </i>
   </separator>
   <separator name="electronic convergence" >
    <i type="int" name="NELM">    60</i>
    <i type="int" name="NELMDL">    -5</i>
    <i type="int" name="NELMIN">     2</i>
    <i name="ENINI">    600.00000000</i>
    <separator name="electronic convergence detail" >
     <i type="logical" name="LDIAG"> T  </i>
     <i type="logical" name="LSUBROT"> F  </i>
     <i name="WEIMIN">      0.00000000</i>
     <i name="EBREAK">      0.00000000</i>
     <i name="DEPER">      0.30000000</i>
     <i type="int" name="NRMM">     4</i>
     <i name="TIME">      0.40000000</i>
    </separator>
   </separator>
   <separator name="electronic mixer" >
    <i name="AMIX">      0.40000000</i>
    <i name="BMIX">      1.00000000</i>
    <i name="AMIN">      0.10000000</i>
    <i name="AMIX_MAG">      1.60000000</i>
    <i name="BMIX_MAG">      1.00000000</i>
    <separator name="electronic mixer details" >
     <i type="int" name="IMIX">     4</i>
     <i type="logical" name="MIXFIRST"> F  </i>
     <i type="int" name="MAXMIX">   -45</i>
     <i name="WC">    100.00000000</i>
     <i type="int" name="INIMIX">     1</i>
     <i type="int" name="MIXPRE">     1</i>
     <i type="int" name="MREMOVE">     5</i>
    </separator>
   </separator>
   <separator name="electronic dipolcorrection" >
    <i type="logical" name="LDIPOL"> F  </i>
    <i type="logical" name="LMONO"> F  </i>
    <i type="int" name="IDIPOL">     0</i>
    <i name="EPSILON">      1.00000000</i>
    <v name="DIPOL">   -100.00000000   -100.00000000   -100.00000000</v>
    <i name="EFIELD">      0.00000000</i>
   </separator>
  </separator>
  <separator name="grids" >
   <i type="int" name="NGX">   108</i>
   <i type="int" name="NGY">   108</i>
   <i type="int" name="NGZ">   108</i>
   <i type="int" name="NGXF">   216</i>
   <i type="int" name="NGYF">   216</i>
   <i type="int" name="NGZF">   216</i>
   <i type="logical" name="ADDGRID"> T  </i>
  </separator>
  <separator name="ionic" >
   <i type="int" name="NSW">     1</i>
   <i type="int" name="IBRION">    -1</i>
   <i type="int" name="MDALGO">     0</i>
   <i type="int" name="ISIF">     2</i>
   <i name="PSTRESS">      0.00000000</i>
   <i name="EDIFFG">     -0.01000000</i>
   <i type="int" name="NFREE">     0</i>
   <i name="POTIM">      1.00000000</i>
   <i name="SMASS">     -3.00000000</i>
   <i name="SCALEE">      1.00000000</i>
  </separator>
  <separator name="ionic md" >
   <i name="TEBEG">      0.00010000</i>
   <i name="TEEND">      0.00010000</i>
   <i type="int" name="NBLOCK">     1</i>
   <i type="int" name="KBLOCK">     1</i>
   <i type="int" name="NPACO">   256</i>
   <i name="APACO">     16.00000000</i>
  </separator>
  <separator name="symmetry" >
   <i type="int" name="ISYM">     0</i>
   <i name="SYMPREC">      0.00001000</i>
  </separator>
  <separator name="dos" >
   <i type="int" name="LORBIT">     0</i>
   <v name="RWIGS">     -1.00000000     -1.00000000     -1.00000000</v>
   <i type="int" name="NEDOS">   301</i>
   <i name="EMIN">     10.00000000</i>
   <i name="EMAX">    -10.00000000</i>
   <i name="EFERMI">      0.00000000</i>
  </separator>
  <separator name="writing" >
   <i type="int" name="NWRITE">     2</i>
   <i type="logical" name="LWAVE"> F  </i>
   <i type="logical" name="LDOWNSAMPLE"> F  </i>
   <i type="logical" name="LCHARG"> F  </i>
   <i type="logical" name="LPARD"> F  </i>
   <i type="logical" name="LVTOT"> F  </i>
   <i type="logical" name="LVHAR"> F  </i>
   <i type="logical" name="LELF"> F  </i>
   <i type="logical" name="LOPTICS"> F  </i>
   <v name="STM">      0.00000000      0.00000000      0.00000000      0.00000000      0.00000000      0.00000000      0.00000000</v>
  </separator>
  <separator name="performance" >
   <i type="int" name="NPAR">     4</i>
   <i type="int" name="NSIM">     4</i>
   <i type="int" name="NBLK">    -1</i>
   <i type="logical" name="LPLANE"> T  </i>
   <i type="logical" name="LSCALAPACK"> F  </i>
   <i type="logical" name="LSCAAWARE"> F  </i>
   <i type="logical" name="LSCALU"> F  </i>
   <i type="logical" name="LASYNC"> F  </i>
   <i type="logical" name="LORBITALREAL"> F  </i>
  </separator>
  <separator name="miscellaneous" >
   <i type="int" name="IDIOT">     3</i>
   <i type="int" name="ISPECIAL">     0</i>
   <i type="logical" name="LMUSIC"> F  </i>
   <v name="POMASS">     40.07800000     28.08500000     16.00000000</v>
   <v name="DARWINR">      0.00000000      0.00000000      0.00000000</v>
   <v name="DARWINV">      1.00000000      1.00000000      1.00000000</v>
   <i type="logical" name="LCORR"> T  </i>
  </separator>
  <i type="logical" name="GGA_COMPAT"> T  </i>
  <i type="logical" name="LBERRY"> F  </i>
  <i type="int" name="ICORELEVEL">     0</i>
  <i type="logical" name="LDAU"> F  </i>
  <i type="int" name="I_CONSTRAINED_M">     0</i>
  <separator name="electronic exchange-correlation" >
   <i type="string" name="GGA">--</i>
   <i type="int" name="VOSKOWN">     0</i>
   <i type="logical" name="LHFCALC"> F  </i>
   <i type="string" name="PRECFOCK"></i>
   <i type="logical" name="LSYMGRAD"> F  </i>
   <i type="logical" name="LHFONE"> F  </i>
   <i type="logical" name="LRHFCALC"> F  </i>
   <i type="logical" name="LTHOMAS"> F  </i>
   <i type="logical" name="LMODELHF"> F  </i>
   <i name="ENCUT4O">     -1.00000000</i>
   <i type="int" name="EXXOEP">     0</i>
   <i type="int" name="FOURORBIT">     0</i>
   <i name="AEXX">      0.00000000</i>
   <i name="HFALPHA">      0.00000000</i>
   <i name="MCALPHA">      0.00000000</i>
   <i name="ALDAX">      1.00000000</i>
   <i name="AGGAX">      1.00000000</i>
   <i name="ALDAC">      1.00000000</i>
   <i name="AGGAC">      1.00000000</i>
   <i type="int" name="NKREDX">     1</i>
   <i type="int" name="NKREDY">     1</i>
   <i type="int" name="NKREDZ">     1</i>
   <i type="logical" name="SHIFTRED"> F  </i>
   <i type="logical" name="ODDONLY"> F  </i>
   <i type="logical" name="EVENONLY"> F  </i>
   <i type="int" name="LMAXFOCK">     0</i>
   <i type="int" name="NMAXFOCKAE">     0</i>
   <i type="logical" name="LFOCKAEDFT"> F  </i>
   <i name="HFSCREEN">      0.00000000</i>
   <i name="HFSCREENC">      0.00000000</i>
   <i type="int" name="NBANDSGWLOW">     0</i>
  </separator>
  <separator name="vdW DFT" >
   <i type="logical" name="LUSE_VDW"> F  </i>
   <i name="Zab_VDW">     -0.84910000</i>
   <i name="PARAM1">      0.12340000</i>
   <i name="PARAM2">      1.00000000</i>
   <i name="PARAM3">      0.00000000</i>
  </separator>
  <separator name="model GW" >
   <i type="int" name="MODEL_GW">     0</i>
   <i name="MODEL_EPS0">      9.60847956</i>
   <i name="MODEL_ALPHA">      1.00000000</i>
  </separator>
  <separator name="linear response parameters" >
   <i type="logical" name="LEPSILON"> F  </i>
   <i type="logical" name="LRPA"> F  </i>
   <i type="logical" name="LNABLA"> F  </i>
   <i type="logical" name="LVEL"> F  </i>
   <i type="int" name="KINTER">     0</i>
   <i name="CSHIFT">      0.10000000</i>
   <i name="OMEGAMAX">     -1.00000000</i>
   <i name="DEG_THRESHOLD">      0.00200000</i>
   <i name="RTIME">     -0.10000000</i>
   <i name="WPLASMAI">      0.00000000</i>
   <v name="DFIELD">      0.00000000      0.00000000      0.00000000</v>
   <v name="WPLASMA">      0.00000000      0.00000000      0.00000000      0.00000000      0.00000000      0.00000000      0.00000000      0.00000000      0.00000000</v>
  </separator>
  <separator name="orbital magnetization" >
   <i type="logical" name="NUCIND"> F  </i>
   <v name="MAGPOS">      0.00000000      0.00000000      0.00000000</v>
   <i type="logical" name="LNICSALL"> T  </i>
   <i type="logical" name="ORBITALMAG"> F  </i>
   <i type="logical" name="LMAGBLOCH"> F  </i>
   <i type="logical" name="LCHIMAG"> F  </i>
   <i type="logical" name="LGAUGE"> T  </i>
   <i type="int" name="MAGATOM">     0</i>
   <v name="MAGDIPOL">      0.00000000      0.00000000      0.00000000</v>
   <v name="AVECCONST">      0.00000000      0.00000000      0.00000000</v>
  </separator>
  <separator name="response functions" >
   <i type="logical" name="LADDER"> F  </i>
   <i type="logical" name="LRPAFORCE"> F  </i>
   <i type="logical" name="LFXC"> F  </i>
   <i type="logical" name="LHARTREE"> T  </i>
   <i type="int" name="IBSE">     0</i>
   <v type="int" name="KPOINT">    -1     0     0     0</v>
   <i type="logical" name="LTCTE"> F  </i>
   <i type="logical" name="LTETE"> F  </i>
   <i type="logical" name="LTRIPLET"> F  </i>
   <i type="logical" name="LFXCEPS"> F  </i>
   <i type="logical" name="LFXHEG"> F  </i>
   <i type="int" name="NATURALO">     2</i>
   <i type="logical" name="L2ORDER"> F  </i>
   <i type="logical" name="LMP2LT"> F  </i>
   <i type="logical" name="LUSEW"> F  </i>
   <i name="ENCUTGW">     -2.00000000</i>
   <i name="ENCUTGWSOFT">     -2.00000000</i>
   <i name="ENCUTLF">     -1.00000000</i>
   <i type="int" name="LMAXMP2">    -1</i>
   <i name="SCISSOR">      0.00000000</i>
   <i type="int" name="NOMEGA">     0</i>
   <i type="int" name="NOMEGAR">     0</i>
   <i type="int" name="NBANDSGW">    -1</i>
   <i type="int" name="NBANDSO">    -1</i>
   <i type="int" name="NBANDSV">    -1</i>
   <i type="int" name="NELM">     1</i>
   <i type="int" name="NELMHF">     1</i>
   <i type="int" name="DIM">     3</i>
   <i type="int" name="ANTIRES">     0</i>
   <i name="OMEGAMAX">    -30.00000000</i>
   <i name="OMEGAMIN">    -30.00000000</i>
   <i name="OMEGATL">   -200.00000000</i>
   <i type="int" name="OMEGAGRID">   140</i>
   <i name="CSHIFT">     -0.10000000</i>
   <i type="logical" name="SELFENERGY"> F  </i>
   <i type="logical" name="LSPECTRAL"> F  </i>
   <i type="logical" name="LSPECTRALGW"> F  </i>
   <i type="logical" name="LSINGLES"> F  </i>
   <i type="logical" name="LFERMIGW"> F  </i>
   <i type="logical" name="ODDONLYGW"> F  </i>
   <i type="logical" name="EVENONLYGW"> F  </i>
   <i type="int" name="NKREDLFX">     1</i>
   <i type="int" name="NKREDLFY">     1</i>
   <i type="int" name="NKREDLFZ">     1</i>
   <i type="int" name="MAXMEM">  2800</i>
   <i type="int" name="TELESCOPE">     0</i>
   <i type="int" name="TAUPAR">     1</i>
   <i type="int" name="OMEGAPAR">    -1</i>
   <i name="LAMBDA">      1.00000000</i>
  </separator>
  <separator name="External order field" >
   <i name="OFIELD_KAPPA">      0.00000000</i>
   <v name="OFIELD_K">      0.00000000      0.00000000      0.00000000</v>
   <i name="OFIELD_Q6_NEAR">      0.00000000</i>
   <i name="OFIELD_Q6_FAR">      0.00000000</i>
   <i name="OFIELD_A">      0.00000000</i>
  </separator>
 </parameters>
 <atominfo>
  <atoms>     135 </atoms>
  <types>       3 </types>
  <array name="atoms" >
   <dimension dim="1">ion</dimension>
   <field type="string">element</field>
   <field type="int">atomtype</field>
   <set>
    <rc><c>Ca</c><c>   1</c></rc>
    <rc><c>Ca</c><c>   1</c></rc>
    <rc><c>Ca</c><c>   1</c></rc>
    <rc><c>Ca</c><c>   1</c></rc>
    <rc><c>Ca</c><c>   1</c></rc>
    <rc><c>Ca</c><c>   1</c></rc>
    <rc><c>Ca</c><c>   1</c></rc>
    <rc><c>Ca</c><c>   1</c></rc>
    <rc><c>Ca</c><c>   1</c></rc>
    <rc><c>Ca</c><c>   1</c></rc>
    <rc><c>Ca</c><c>   1</c></rc>
    <rc><c>Ca</c><c>   1</c></rc>
    <rc><c>Ca</c><c>   1</c></rc>
    <rc><c>Ca</c><c>   1</c></rc>
    <rc><c>Ca</c><c>   1</c></rc>
    <rc><c>Ca</c><c>   1</c></rc>
    <rc><c>Ca</c><c>   1</c></rc>
    <rc><c>Ca</c><c>   1</c></rc>
    <rc><c>Ca</c><c>   1</c></rc>
    <rc><c>Ca</c><c>   1</c></rc>
    <rc><c>Ca</c><c>   1</c></rc>
    <rc><c>Ca</c><c>   1</c></rc>
    <rc><c>Ca</c><c>   1</c></rc>
    <rc><c>Ca</c><c>   1</c></rc>
    <rc><c>Ca</c><c>   1</c></rc>
    <rc><c>Ca</c><c>   1</c></rc>
    <rc><c>Ca</c><c>   1</c></rc>
    <rc><c>Si</c><c>   2</c></rc>
    <rc><c>Si</c><c>   2</c></rc>
    <rc><c>Si</c><c>   2</c></rc>
    <rc><c>Si</c><c>   2</c></rc>
    <rc><c>Si</c><c>   2</c></rc>
    <rc><c>Si</c><c>   2</c></rc>
    <rc><c>Si</c><c>   2</c></rc>
    <rc><c>Si</c><c>   2</c></rc>
    <rc><c>Si</c><c>   2</c></rc>
    <rc><c>Si</c><c>   2</c></rc>
    <rc><c>Si</c><c>   2</c></rc>
    <rc><c>Si</c><c>   2</c></rc>
    <rc><c>Si</c><c>   2</c></rc>
    <rc><c>Si</c><c>   2</c></rc>
    <rc><c>Si</c><c>   2</c></rc>
    <rc><c>Si</c><c>   2</c></rc>
    <rc><c>Si</c><c>   2</c></rc>
    <rc><c>Si</c><c>   2</c></rc>
    <rc><c>Si</c><c>   2</c></rc>
    <rc><c>Si</c><c>   2</c></rc>
    <rc><c>Si</c><c>   2</c></rc>
    <rc><c>Si</c><c>   2</c></rc>
    <rc><c>Si</c><c>   2</c></rc>
    <rc><c>Si</c><c>   2</c></rc>
    <rc><c>Si</c><c>   2</c></rc>
    <rc><c>Si</c><c>   2</c></rc>
    <rc><c>Si</c><c>   2</c></rc>
    <rc><c>O </c><c>   3</c></rc>
    <rc><c>O </c><c>   3</c></rc>
    <rc><c>O </c><c>   3</c></rc>
    <rc><c>O </c><c>   3</c></rc>
    <rc><c>O </c><c>   3</c></rc>
    <rc><c>O </c><c>   3</c></rc>
    <rc><c>O </c><c>   3</c></rc>
    <rc><c>O </c><c>   3</c></rc>
    <rc><c>O </c><c>   3</c></rc>
    <rc><c>O </c><c>   3</c></rc>
    <rc><c>O </c><c>   3</c></rc>
    <rc><c>O </c><c>   3</c></rc>
    <rc><c>O </c><c>   3</c></rc>
    <rc><c>O </c><c>   3</c></rc>
    <rc><c>O </c><c>   3</c></rc>
    <rc><c>O </c><c>   3</c></rc>
    <rc><c>O </c><c>   3</c></rc>
    <rc><c>O </c><c>   3</c></rc>
    <rc><c>O </c><c>   3</c></rc>
    <rc><c>O </c><c>   3</c></rc>
    <rc><c>O </c><c>   3</c></rc>
    <rc><c>O </c><c>   3</c></rc>
    <rc><c>O </c><c>   3</c></rc>
    <rc><c>O </c><c>   3</c></rc>
    <rc><c>O </c><c>   3</c></rc>
    <rc><c>O </c><c>   3</c></rc>
    <rc><c>O </c><c>   3</c></rc>
    <rc><c>O </c><c>   3</c></rc>
    <rc><c>O </c><c>   3</c></rc>
    <rc><c>O </c><c>   3</c></rc>
    <rc><c>O </c><c>   3</c></rc>
    <rc><c>O </c><c>   3</c></rc>
    <rc><c>O </c><c>   3</c></rc>
    <rc><c>O </c><c>   3</c></rc>
    <rc><c>O </c><c>   3</c></rc>
    <rc><c>O </c><c>   3</c></rc>
    <rc><c>O </c><c>   3</c></rc>
    <rc><c>O </c><c>   3</c></rc>
    <rc><c>O </c><c>   3</c></rc>
    <rc><c>O </c><c>   3</c></rc>
    <rc><c>O </c><c>   3</c></rc>
    <rc><c>O </c><c>   3</c></rc>
    <rc><c>O </c><c>   3</c></rc>
    <rc><c>O </c><c>   3</c></rc>
    <rc><c>O </c><c>   3</c></rc>
    <rc><c>O </c><c>   3</c></rc>
    <rc><c>O </c><c>   3</c></rc>
    <rc><c>O </c><c>   3</c></rc>
    <rc><c>O </c><c>   3</c></rc>
    <rc><c>O </c><c>   3</c></rc>
    <rc><c>O </c><c>   3</c></rc>
    <rc><c>O </c><c>   3</c></rc>
    <rc><c>O </c><c>   3</c></rc>
    <rc><c>O </c><c>   3</c></rc>
    <rc><c>O </c><c>   3</c></rc>
    <rc><c>O </c><c>   3</c></rc>
    <rc><c>O </c><c>   3</c></rc>
    <rc><c>O </c><c>   3</c></rc>
    <rc><c>O </c><c>   3</c></rc>
    <rc><c>O </c><c>   3</c></rc>
    <rc><c>O </c><c>   3</c></rc>
    <rc><c>O </c><c>   3</c></rc>
    <rc><c>O </c><c>   3</c></rc>
    <rc><c>O </c><c>   3</c></rc>
    <rc><c>O </c><c>   3</c></rc>
    <rc><c>O </c><c>   3</c></rc>
    <rc><c>O </c><c>   3</c></rc>
    <rc><c>O </c><c>   3</c></rc>
    <rc><c>O </c><c>   3</c></rc>
    <rc><c>O </c><c>   3</c></rc>
    <rc><c>O </c><c>   3</c></rc>
    <rc><c>O </c><c>   3</c></rc>
    <rc><c>O </c><c>   3</c></rc>
    <rc><c>O </c><c>   3</c></rc>
    <rc><c>O </c><c>   3</c></rc>
    <rc><c>O </c><c>   3</c></rc>
    <rc><c>O </c><c>   3</c></rc>
    <rc><c>O </c><c>   3</c></rc>
    <rc><c>O </c><c>   3</c></rc>
    <rc><c>O </c><c>   3</c></rc>
    <rc><c>O </c><c>   3</c></rc>
   </set>
  </array>
  <array name="atomtypes" >
   <dimension dim="1">type</dimension>
   <field type="int">atomspertype</field>
   <field type="string">element</field>
   <field>mass</field>
   <field>valence</field>
   <field type="string">pseudopotential</field>
   <set>
    <rc><c>  27</c><c>Ca</c><c>     40.07800000</c><c>     10.00000000</c><c>  PAW_PBE Ca_sv 06Sep2000               </c></rc>
    <rc><c>  27</c><c>Si</c><c>     28.08500000</c><c>      4.00000000</c><c>  PAW_PBE Si 05Jan2001                  </c></rc>
    <rc><c>  81</c><c>O </c><c>     16.00000000</c><c>      6.00000000</c><c>  PAW_PBE O 08Apr2002                   </c></rc>
   </set>
  </array>
 </atominfo>
 <structure name="initialpos" >
  <crystal>
   <varray name="basis" >
    <v>      12.93041299       0.00000000       0.00000000 </v>
    <v>       0.00000000      12.93041299       0.00000000 </v>
    <v>       0.00000000       0.00000000      12.93041299 </v>
   </varray>
   <i name="volume">   2161.90790069 </i>
   <varray name="rec_basis" >
    <v>       0.07733705       0.00000000       0.00000000 </v>
    <v>       0.00000000       0.07733705       0.00000000 </v>
    <v>       0.00000000       0.00000000       0.07733705 </v>
   </varray>
  </crystal>
  <varray name="positions" >
   <v>       0.26475634       0.76988197       0.87238339 </v>
   <v>       0.56519085       0.70496366       0.08582797 </v>
   <v>       0.40143324       0.01912385       0.68443578 </v>
   <v>       0.14675365       0.26343749       0.72886997 </v>
   <v>       0.98921913       0.76310385       0.49750032 </v>
   <v>       0.76192888       0.30365974       0.04577296 </v>
   <v>       0.57000065       0.74140388       0.67570265 </v>
   <v>       0.98077935       0.77852037       0.78424115 </v>
   <v>       0.86709318       0.38579610       0.72635895 </v>
   <v>       0.90325519       0.60297437       0.31589057 </v>
   <v>       0.17035365       0.54589203       0.49255435 </v>
   <v>       0.89004532       0.57882717       0.02399269 </v>
   <v>       0.84219651       0.20957954       0.53836736 </v>
   <v>       0.46029686       0.36730747       0.47786654 </v>
   <v>       0.56204935       0.98565774       0.99388083 </v>
   <v>       0.83112958       0.02311466       0.80483191 </v>
   <v>       0.29870203       0.00580630       0.20861982 </v>
   <v>       0.71943611       0.84243081       0.42893929 </v>
   <v>       0.08298187       0.03083976       0.03045629 </v>
   <v>       0.45905148       0.42748880       0.07084364 </v>
   <v>       0.29595975       0.37909415       0.70778930 </v>
   <v>       0.78048124       0.87215137       0.08622506 </v>
   <v>       0.64982026       0.52844770       0.88079930 </v>
   <v>       0.47830829       0.12679235       0.38772696 </v>
   <v>       0.44001310       0.84709017       0.43154217 </v>
   <v>       0.24615571       0.72025546       0.09917046 </v>
   <v>       0.09978462       0.07343236       0.50376341 </v>
   <v>       0.62772816       0.16124907       0.68642219 </v>
   <v>       0.92841638       0.19959269       0.86277922 </v>
   <v>       0.22334842       0.26582197       0.45859068 </v>
   <v>       0.23142159       0.86612319       0.39463638 </v>
   <v>       0.19689748       0.49906738       0.91612370 </v>
   <v>       0.75215043       0.12187731       0.23568531 </v>
   <v>       0.65104854       0.63109869       0.42285150 </v>
   <v>       0.05608551       0.79482085       0.24038792 </v>
   <v>       0.72343498       0.77330849       0.85801856 </v>
   <v>       0.00459435       0.80634175       0.03902048 </v>
   <v>       0.54387684       0.97509949       0.22140608 </v>
   <v>       0.61348491       0.98795780       0.61004624 </v>
   <v>       0.50185241       0.55174899       0.28048045 </v>
   <v>       0.34078242       0.19718188       0.91638311 </v>
   <v>       0.91911944       0.98872733       0.36066744 </v>
   <v>       0.42982732       0.60183153       0.88515276 </v>
   <v>       0.30655392       0.95657397       0.96757698 </v>
   <v>       0.05239272       0.36450049       0.31449818 </v>
   <v>       0.72665411       0.41008721       0.46679892 </v>
   <v>       0.23373278       0.76440349       0.60758645 </v>
   <v>       0.84834305       0.36464824       0.27197167 </v>
   <v>       0.15277994       0.94340633       0.76692971 </v>
   <v>       0.57952150       0.26229123       0.87859272 </v>
   <v>       0.05030777       0.38440111       0.91747629 </v>
   <v>       0.82019844       0.63856445       0.71358046 </v>
   <v>       0.19992511       0.21000451       0.23847141 </v>
   <v>       0.33262071       0.56260045       0.60071019 </v>
   <v>       0.94795973       0.08882371       0.90910018 </v>
   <v>       0.88904708       0.88492143       0.45406735 </v>
   <v>       0.59456667       0.64150112       0.31473585 </v>
   <v>       0.73296403       0.69006636       0.98308365 </v>
   <v>       0.42390934       0.47345334       0.65230970 </v>
   <v>       0.10329737       0.44585540       0.81234939 </v>
   <v>       0.46995626       0.65350913       0.78379474 </v>
   <v>       0.60561171       0.89140793       0.13106244 </v>
   <v>       0.21368461       0.80261637       0.26961282 </v>
   <v>       0.70126999       0.96636277       0.51763836 </v>
   <v>       0.00953254       0.92721159       0.76737024 </v>
   <v>       0.58001500       0.03202873       0.72635460 </v>
   <v>       0.68432537       0.61254241       0.74417426 </v>
   <v>       0.79546907       0.74925536       0.75887837 </v>
   <v>       0.14656833       0.41519506       0.98252281 </v>
   <v>       0.32309994       0.20678710       0.24875743 </v>
   <v>       0.92035686       0.08090073       0.43127396 </v>
   <v>       0.02727747       0.68686135       0.31929107 </v>
   <v>       0.32688319       0.47976533       0.90396777 </v>
   <v>       0.39354274       0.61256074       0.22622603 </v>
   <v>       0.14545533       0.36179111       0.41317776 </v>
   <v>       0.96226480       0.43927033       0.98670690 </v>
   <v>       0.96032323       0.30857309       0.25590820 </v>
   <v>       0.02202349       0.48526469       0.30512288 </v>
   <v>       0.58218136       0.72800470       0.49395268 </v>
   <v>       0.17392516       0.61671340       0.95714130 </v>
   <v>       0.48979997       0.94011132       0.55782782 </v>
   <v>       0.18471901       0.18060824       0.37948896 </v>
   <v>       0.14318025       0.32964742       0.21786325 </v>
   <v>       0.22684141       0.50824518       0.65333991 </v>
   <v>       0.84088693       0.02460477       0.25891759 </v>
   <v>       0.89844519       0.63369519       0.61770225 </v>
   <v>       0.62052483       0.79855116       0.80295246 </v>
   <v>       0.13844409       0.09908802       0.20201815 </v>
   <v>       0.81875515       0.41195268       0.38117281 </v>
   <v>       0.47356503       0.44600302       0.36510604 </v>
   <v>       0.00342289       0.89986855       0.30342435 </v>
   <v>       0.76293735       0.88765175       0.90058679 </v>
   <v>       0.03936205       0.26587553       0.88581454 </v>
   <v>       0.39656278       0.91520270       0.88856228 </v>
   <v>       0.33501674       0.28744402       0.51883502 </v>
   <v>       0.12694600       0.89882810       0.42897459 </v>
   <v>       0.18662751       0.93537501       0.90213705 </v>
   <v>       0.37683539       0.69421966       0.96680590 </v>
   <v>       0.73528989       0.12132892       0.63399450 </v>
   <v>       0.50629697       0.51394034       0.93069013 </v>
   <v>       0.37067575       0.11124267       0.80484263 </v>
   <v>       0.82253260       0.27029204       0.85344718 </v>
   <v>       0.05908580       0.76253045       0.94104994 </v>
   <v>       0.79953692       0.40923692       0.57848742 </v>
   <v>       0.31646106       0.96629542       0.37928693 </v>
   <v>       0.50744097       0.95792723       0.33813064 </v>
   <v>       0.22770606       0.85046680       0.71385596 </v>
   <v>       0.83540521       0.45197172       0.18924897 </v>
   <v>       0.63467163       0.38173272       0.92819613 </v>
   <v>       0.76409272       0.15504126       0.11664595 </v>
   <v>       0.45075963       0.26243082       0.94672322 </v>
   <v>       0.27822656       0.80569159       0.50157017 </v>
   <v>       0.87879493       0.54639556       0.79660868 </v>
   <v>       0.66293170       0.51623617       0.48216146 </v>
   <v>       0.55019540       0.12389288       0.58456376 </v>
   <v>       0.56976684       0.25720696       0.73686497 </v>
   <v>       0.57301154       0.51838486       0.17873080 </v>
   <v>       0.61477357       0.13989848       0.92090162 </v>
   <v>       0.93768290       0.90693923       0.04976819 </v>
   <v>       0.14791611       0.22109879       0.56081903 </v>
   <v>       0.75730192       0.22624220       0.28734468 </v>
   <v>       0.75988966       0.68776415       0.39692986 </v>
   <v>       0.24969097       0.89665512       0.06213371 </v>
   <v>       0.17587825       0.04474414       0.69669556 </v>
   <v>       0.33673741       0.69948978       0.63904704 </v>
   <v>       0.27013836       0.29629441       0.88254268 </v>
   <v>       0.32433665       0.59770969       0.46991283 </v>
   <v>       0.63354002       0.06353172       0.26326106 </v>
   <v>       0.28097929       0.07493170       0.99765149 </v>
   <v>       0.11626374       0.73897311       0.62385549 </v>
   <v>       0.47824958       0.03198758       0.12657907 </v>
   <v>       0.09537462       0.84721213       0.13363713 </v>
   <v>       0.95951829       0.71871515       0.11608182 </v>
   <v>       0.63958693       0.32755919       0.45170446 </v>
   <v>       0.95721247       0.21180339       0.72750668 </v>
  </varray>
  <varray name="velocities" >
   <v>       0.00000000       0.00000000       0.00000000 </v>
   <v>       0.00000000       0.00000000       0.00000000 </v>
   <v>       0.00000000       0.00000000       0.00000000 </v>
   <v>       0.00000000       0.00000000       0.00000000 </v>
   <v>       0.00000000       0.00000000       0.00000000 </v>
   <v>       0.00000000       0.00000000       0.00000000 </v>
   <v>       0.00000000       0.00000000       0.00000000 </v>
   <v>       0.00000000       0.00000000       0.00000000 </v>
   <v>       0.00000000       0.00000000       0.00000000 </v>
   <v>       0.00000000       0.00000000       0.00000000 </v>
   <v>       0.00000000       0.00000000       0.00000000 </v>
   <v>       0.00000000       0.00000000       0.00000000 </v>
   <v>       0.00000000       0.00000000       0.00000000 </v>
   <v>       0.00000000       0.00000000       0.00000000 </v>
   <v>       0.00000000       0.00000000       0.00000000 </v>
   <v>       0.00000000       0.00000000       0.00000000 </v>
   <v>       0.00000000       0.00000000       0.00000000 </v>
   <v>       0.00000000       0.00000000       0.00000000 </v>
   <v>       0.00000000       0.00000000       0.00000000 </v>
   <v>       0.00000000       0.00000000       0.00000000 </v>
   <v>       0.00000000       0.00000000       0.00000000 </v>
   <v>       0.00000000       0.00000000       0.00000000 </v>
   <v>       0.00000000       0.00000000       0.00000000 </v>
   <v>       0.00000000       0.00000000       0.00000000 </v>
   <v>       0.00000000       0.00000000       0.00000000 </v>
   <v>       0.00000000       0.00000000       0.00000000 </v>
   <v>       0.00000000       0.00000000       0.00000000 </v>
   <v>       0.00000000       0.00000000       0.00000000 </v>
   <v>       0.00000000       0.00000000       0.00000000 </v>
   <v>       0.00000000       0.00000000       0.00000000 </v>
   <v>       0.00000000       0.00000000       0.00000000 </v>
   <v>       0.00000000       0.00000000       0.00000000 </v>
   <v>       0.00000000       0.00000000       0.00000000 </v>
   <v>       0.00000000       0.00000000       0.00000000 </v>
   <v>       0.00000000       0.00000000       0.00000000 </v>
   <v>       0.00000000       0.00000000       0.00000000 </v>
   <v>       0.00000000       0.00000000       0.00000000 </v>
   <v>       0.00000000       0.00000000       0.00000000 </v>
   <v>       0.00000000       0.00000000       0.00000000 </v>
   <v>       0.00000000       0.00000000       0.00000000 </v>
   <v>       0.00000000       0.00000000       0.00000000 </v>
   <v>       0.00000000       0.00000000       0.00000000 </v>
   <v>       0.00000000       0.00000000       0.00000000 </v>
   <v>       0.00000000       0.00000000       0.00000000 </v>
   <v>       0.00000000       0.00000000       0.00000000 </v>
   <v>       0.00000000       0.00000000       0.00000000 </v>
   <v>       0.00000000       0.00000000       0.00000000 </v>
   <v>       0.00000000       0.00000000       0.00000000 </v>
   <v>       0.00000000       0.00000000       0.00000000 </v>
   <v>       0.00000000       0.00000000       0.00000000 </v>
   <v>       0.00000000       0.00000000       0.00000000 </v>
   <v>       0.00000000       0.00000000       0.00000000 </v>
   <v>       0.00000000       0.00000000       0.00000000 </v>
   <v>       0.00000000       0.00000000       0.00000000 </v>
   <v>       0.00000000       0.00000000       0.00000000 </v>
   <v>       0.00000000       0.00000000       0.00000000 </v>
   <v>       0.00000000       0.00000000       0.00000000 </v>
   <v>       0.00000000       0.00000000       0.00000000 </v>
   <v>       0.00000000       0.00000000       0.00000000 </v>
   <v>       0.00000000       0.00000000       0.00000000 </v>
   <v>       0.00000000       0.00000000       0.00000000 </v>
   <v>       0.00000000       0.00000000       0.00000000 </v>
   <v>       0.00000000       0.00000000       0.00000000 </v>
   <v>       0.00000000       0.00000000       0.00000000 </v>
   <v>       0.00000000       0.00000000       0.00000000 </v>
   <v>       0.00000000       0.00000000       0.00000000 </v>
   <v>       0.00000000       0.00000000       0.00000000 </v>
   <v>       0.00000000       0.00000000       0.00000000 </v>
   <v>       0.00000000       0.00000000       0.00000000 </v>
   <v>       0.00000000       0.00000000       0.00000000 </v>
   <v>       0.00000000       0.00000000       0.00000000 </v>
   <v>       0.00000000       0.00000000       0.00000000 </v>
   <v>       0.00000000       0.00000000       0.00000000 </v>
   <v>       0.00000000       0.00000000       0.00000000 </v>
   <v>       0.00000000       0.00000000       0.00000000 </v>
   <v>       0.00000000       0.00000000       0.00000000 </v>
   <v>       0.00000000       0.00000000       0.00000000 </v>
   <v>       0.00000000       0.00000000       0.00000000 </v>
   <v>       0.00000000       0.00000000       0.00000000 </v>
   <v>       0.00000000       0.00000000       0.00000000 </v>
   <v>       0.00000000       0.00000000       0.00000000 </v>
   <v>       0.00000000       0.00000000       0.00000000 </v>
   <v>       0.00000000       0.00000000       0.00000000 </v>
   <v>       0.00000000       0.00000000       0.00000000 </v>
   <v>       0.00000000       0.00000000       0.00000000 </v>
   <v>       0.00000000       0.00000000       0.00000000 </v>
   <v>       0.00000000       0.00000000       0.00000000 </v>
   <v>       0.00000000       0.00000000       0.00000000 </v>
   <v>       0.00000000       0.00000000       0.00000000 </v>
   <v>       0.00000000       0.00000000       0.00000000 </v>
   <v>       0.00000000       0.00000000       0.00000000 </v>
   <v>       0.00000000       0.00000000       0.00000000 </v>
   <v>       0.00000000       0.00000000       0.00000000 </v>
   <v>       0.00000000       0.00000000       0.00000000 </v>
   <v>       0.00000000       0.00000000       0.00000000 </v>
   <v>       0.00000000       0.00000000       0.00000000 </v>
   <v>       0.00000000       0.00000000       0.00000000 </v>
   <v>       0.00000000       0.00000000       0.00000000 </v>
   <v>       0.00000000       0.00000000       0.00000000 </v>
   <v>       0.00000000       0.00000000       0.00000000 </v>
   <v>       0.00000000       0.00000000       0.00000000 </v>
   <v>       0.00000000       0.00000000       0.00000000 </v>
   <v>       0.00000000       0.00000000       0.00000000 </v>
   <v>       0.00000000       0.00000000       0.00000000 </v>
   <v>       0.00000000       0.00000000       0.00000000 </v>
   <v>       0.00000000       0.00000000       0.00000000 </v>
   <v>       0.00000000       0.00000000       0.00000000 </v>
   <v>       0.00000000       0.00000000       0.00000000 </v>
   <v>       0.00000000       0.00000000       0.00000000 </v>
   <v>       0.00000000       0.00000000       0.00000000 </v>
   <v>       0.00000000       0.00000000       0.00000000 </v>
   <v>       0.00000000       0.00000000       0.00000000 </v>
   <v>       0.00000000       0.00000000       0.00000000 </v>
   <v>       0.00000000       0.00000000       0.00000000 </v>
   <v>       0.00000000       0.00000000       0.00000000 </v>
   <v>       0.00000000       0.00000000       0.00000000 </v>
   <v>       0.00000000       0.00000000       0.00000000 </v>
   <v>       0.00000000       0.00000000       0.00000000 </v>
   <v>       0.00000000       0.00000000       0.00000000 </v>
   <v>       0.00000000       0.00000000       0.00000000 </v>
   <v>       0.00000000       0.00000000       0.00000000 </v>
   <v>       0.00000000       0.00000000       0.00000000 </v>
   <v>       0.00000000       0.00000000       0.00000000 </v>
   <v>       0.00000000       0.00000000       0.00000000 </v>
   <v>       0.00000000       0.00000000       0.00000000 </v>
   <v>       0.00000000       0.00000000       0.00000000 </v>
   <v>       0.00000000       0.00000000       0.00000000 </v>
   <v>       0.00000000       0.00000000       0.00000000 </v>
   <v>       0.00000000       0.00000000       0.00000000 </v>
   <v>       0.00000000       0.00000000       0.00000000 </v>
   <v>       0.00000000       0.00000000       0.00000000 </v>
   <v>       0.00000000       0.00000000       0.00000000 </v>
   <v>       0.00000000       0.00000000       0.00000000 </v>
   <v>       0.00000000       0.00000000       0.00000000 </v>
   <v>       0.00000000       0.00000000       0.00000000 </v>
  </varray>
 </structure>
 <calculation>
  <scstep>
   <time name="dav">   50.19   50.46</time>
   <time name="total">   50.72   51.00</time>
   <energy>
    <i name="alphaZ">   2210.34415451 </i>
    <i name="ewald"> -39220.94570291 </i>
    <i name="hartreedc"> -22210.06474668 </i>
    <i name="XCdc">   3140.91934716 </i>
    <i name="pawpsdc">  50594.51003143 </i>
    <i name="pawaedc"> -49994.65612350 </i>
    <i name="eentropy">     -0.03821927 </i>
    <i name="bandstr">   -148.66425839 </i>
    <i name="atom">  64968.54023382 </i>
    <i name="e_fr_energy">   9339.94471617 </i>
    <i name="e_wo_entrp">   9339.98293544 </i>
    <i name="e_0_energy">   9339.96382581 </i>
   </energy>
  </scstep>
  <scstep>
   <time name="dav">   58.30   58.71</time>
   <time name="total">   58.30   58.71</time>
   <energy>
    <i name="e_fr_energy">     -6.68084901 </i>
    <i name="e_wo_entrp">     -6.68084901 </i>
    <i name="e_0_energy">     -6.68084901 </i>
   </energy>
  </scstep>
  <scstep>
   <time name="dav">   59.47   59.78</time>
   <time name="total">   59.47   59.78</time>
   <energy>
    <i name="e_fr_energy">  -1028.36417393 </i>
    <i name="e_wo_entrp">  -1028.36417393 </i>
    <i name="e_0_energy">  -1028.36417393 </i>
   </energy>
  </scstep>
  <scstep>
   <time name="dav">   64.58   65.08</time>
   <time name="total">   64.59   65.09</time>
   <energy>
    <i name="e_fr_energy">  -1076.94420729 </i>
    <i name="e_wo_entrp">  -1076.94420729 </i>
    <i name="e_0_energy">  -1076.94420729 </i>
   </energy>
  </scstep>
  <scstep>
   <time name="dav">   80.18   80.72</time>
   <time name="total">   82.64   83.20</time>
   <energy>
    <i name="e_fr_energy">  -1083.07498670 </i>
    <i name="e_wo_entrp">  -1083.07498670 </i>
    <i name="e_0_energy">  -1083.07498670 </i>
   </energy>
  </scstep>
  <scstep>
   <time name="dav">   59.70   60.07</time>
   <time name="total">   62.70   63.09</time>
   <energy>
    <i name="e_fr_energy">   -924.24738443 </i>
    <i name="e_wo_entrp">   -924.24738443 </i>
    <i name="e_0_energy">   -924.24738443 </i>
   </energy>
  </scstep>
  <scstep>
   <time name="dav">   63.58   63.91</time>
   <time name="total">   66.65   67.02</time>
   <energy>
    <i name="e_fr_energy">   -925.77592629 </i>
    <i name="e_wo_entrp">   -925.77592629 </i>
    <i name="e_0_energy">   -925.77592629 </i>
   </energy>
  </scstep>
  <scstep>
   <time name="dav">   60.15   60.45</time>
   <time name="total">   63.17   63.51</time>
   <energy>
    <i name="e_fr_energy">   -924.18225556 </i>
    <i name="e_wo_entrp">   -924.18225556 </i>
    <i name="e_0_energy">   -924.18225556 </i>
   </energy>
  </scstep>
  <scstep>
   <time name="dav">   63.76   64.10</time>
   <time name="total">   66.70   67.07</time>
   <energy>
    <i name="e_fr_energy">   -923.81139750 </i>
    <i name="e_wo_entrp">   -923.81139750 </i>
    <i name="e_0_energy">   -923.81139750 </i>
   </energy>
  </scstep>
  <scstep>
   <time name="dav">   64.93   65.20</time>
   <time name="total">   67.89   68.17</time>
   <energy>
    <i name="e_fr_energy">   -923.97439306 </i>
    <i name="e_wo_entrp">   -923.97439306 </i>
    <i name="e_0_energy">   -923.97439306 </i>
   </energy>
  </scstep>
  <scstep>
   <time name="dav">   74.14   75.16</time>
   <time name="total">   77.11   78.14</time>
   <energy>
    <i name="e_fr_energy">   -923.99744278 </i>
    <i name="e_wo_entrp">   -923.99744278 </i>
    <i name="e_0_energy">   -923.99744278 </i>
   </energy>
  </scstep>
  <scstep>
   <time name="dav">   56.71   57.07</time>
   <time name="total">   59.73   60.11</time>
   <energy>
    <i name="e_fr_energy">   -924.02674965 </i>
    <i name="e_wo_entrp">   -924.02674965 </i>
    <i name="e_0_energy">   -924.02674965 </i>
   </energy>
  </scstep>
  <scstep>
   <time name="dav">   61.61   61.99</time>
   <time name="total">   64.58   64.98</time>
   <energy>
    <i name="e_fr_energy">   -924.03538286 </i>
    <i name="e_wo_entrp">   -924.03538286 </i>
    <i name="e_0_energy">   -924.03538286 </i>
   </energy>
  </scstep>
  <scstep>
   <time name="dav">   65.93   66.25</time>
   <time name="total">   68.87   69.21</time>
   <energy>
    <i name="e_fr_energy">   -924.03682815 </i>
    <i name="e_wo_entrp">   -924.03682815 </i>
    <i name="e_0_energy">   -924.03682815 </i>
   </energy>
  </scstep>
  <scstep>
   <time name="dav">   57.56   57.86</time>
   <time name="total">   60.53   60.86</time>
   <energy>
    <i name="e_fr_energy">   -924.03724701 </i>
    <i name="e_wo_entrp">   -924.03724701 </i>
    <i name="e_0_energy">   -924.03724701 </i>
   </energy>
  </scstep>
  <scstep>
   <time name="dav">   55.16   56.26</time>
   <time name="total">   58.07   59.27</time>
   <energy>
    <i name="e_fr_energy">   -924.03740108 </i>
    <i name="e_wo_entrp">   -924.03740108 </i>
    <i name="e_0_energy">   -924.03740108 </i>
   </energy>
  </scstep>
  <scstep>
   <time name="dav">   66.61   66.93</time>
   <time name="total">   69.56   69.91</time>
   <energy>
    <i name="e_fr_energy">   -924.03742518 </i>
    <i name="e_wo_entrp">   -924.03742518 </i>
    <i name="e_0_energy">   -924.03742518 </i>
   </energy>
  </scstep>
  <scstep>
   <time name="dav">   60.15   60.55</time>
   <time name="total">   63.13   63.57</time>
   <energy>
    <i name="e_fr_energy">   -924.03742836 </i>
    <i name="e_wo_entrp">   -924.03742836 </i>
    <i name="e_0_energy">   -924.03742836 </i>
   </energy>
  </scstep>
  <scstep>
   <time name="dav">   53.89   54.20</time>
   <time name="total">   56.85   57.22</time>
   <energy>
    <i name="e_fr_energy">   -924.03742656 </i>
    <i name="e_wo_entrp">   -924.03742656 </i>
    <i name="e_0_energy">   -924.03742656 </i>
   </energy>
  </scstep>
  <scstep>
   <time name="dav">   56.68   57.05</time>
   <time name="total">   59.64   60.04</time>
   <energy>
    <i name="e_fr_energy">   -924.03742748 </i>
    <i name="e_wo_entrp">   -924.03742748 </i>
    <i name="e_0_energy">   -924.03742748 </i>
   </energy>
  </scstep>
  <scstep>
   <time name="dav">   50.73   51.01</time>
   <time name="total">   51.25   51.53</time>
   <energy>
    <i name="alphaZ">   2210.34415451 </i>
    <i name="ewald"> -39220.94570291 </i>
    <i name="hartreedc"> -24042.40982065 </i>
    <i name="XCdc">   3249.33624060 </i>
    <i name="pawpsdc">  89687.41409905 </i>
    <i name="pawaedc"> -89352.19241580 </i>
    <i name="eentropy">     -0.00000000 </i>
    <i name="bandstr">  -8424.12421680 </i>
    <i name="atom">  64968.54023382 </i>
    <i name="e_fr_energy">   -924.03742819 </i>
    <i name="e_wo_entrp">   -924.03742819 </i>
    <i name="e_0_energy">   -924.03742819 </i>
   </energy>
  </scstep>
  <structure>
   <crystal>
    <varray name="basis" >
     <v>      12.93041299       0.00000000       0.00000000 </v>
     <v>       0.00000000      12.93041299       0.00000000 </v>
     <v>       0.00000000       0.00000000      12.93041299 </v>
    </varray>
    <i name="volume">   2161.90790069 </i>
    <varray name="rec_basis" >
     <v>       0.07733705       0.00000000       0.00000000 </v>
     <v>       0.00000000       0.07733705       0.00000000 </v>
     <v>       0.00000000       0.00000000       0.07733705 </v>
    </varray>
   </crystal>
   <varray name="positions" >
    <v>       0.26475634       0.76988197       0.87238339 </v>
    <v>       0.56519085       0.70496366       0.08582797 </v>
    <v>       0.40143324       0.01912385       0.68443578 </v>
    <v>       0.14675365       0.26343749       0.72886997 </v>
    <v>       0.98921913       0.76310385       0.49750032 </v>
    <v>       0.76192888       0.30365974       0.04577296 </v>
    <v>       0.57000065       0.74140388       0.67570265 </v>
    <v>       0.98077935       0.77852037       0.78424115 </v>
    <v>       0.86709318       0.38579610       0.72635895 </v>
    <v>       0.90325519       0.60297437       0.31589057 </v>
    <v>       0.17035365       0.54589203       0.49255435 </v>
    <v>       0.89004532       0.57882717       0.02399269 </v>
    <v>       0.84219651       0.20957954       0.53836736 </v>
    <v>       0.46029686       0.36730747       0.47786654 </v>
    <v>       0.56204935       0.98565774       0.99388083 </v>
    <v>       0.83112958       0.02311466       0.80483191 </v>
    <v>       0.29870203       0.00580630       0.20861982 </v>
    <v>       0.71943611       0.84243081       0.42893929 </v>
    <v>       0.08298187       0.03083976       0.03045629 </v>
    <v>       0.45905148       0.42748880       0.07084364 </v>
    <v>       0.29595975       0.37909415       0.70778930 </v>
    <v>       0.78048124       0.87215137       0.08622506 </v>
    <v>       0.64982026       0.52844770       0.88079930 </v>
    <v>       0.47830829       0.12679235       0.38772696 </v>
    <v>       0.44001310       0.84709017       0.43154217 </v>
    <v>       0.24615571       0.72025546       0.09917046 </v>
    <v>       0.09978462       0.07343236       0.50376341 </v>
    <v>       0.62772816       0.16124907       0.68642219 </v>
    <v>       0.92841638       0.19959269       0.86277922 </v>
    <v>       0.22334842       0.26582197       0.45859068 </v>
    <v>       0.23142159       0.86612319       0.39463638 </v>
    <v>       0.19689748       0.49906738       0.91612370 </v>
    <v>       0.75215043       0.12187731       0.23568531 </v>
    <v>       0.65104854       0.63109869       0.42285150 </v>
    <v>       0.05608551       0.79482085       0.24038792 </v>
    <v>       0.72343498       0.77330849       0.85801856 </v>
    <v>       0.00459435       0.80634175       0.03902048 </v>
    <v>       0.54387684       0.97509949       0.22140608 </v>
    <v>       0.61348491       0.98795780       0.61004624 </v>
    <v>       0.50185241       0.55174899       0.28048045 </v>
    <v>       0.34078242       0.19718188       0.91638311 </v>
    <v>       0.91911944       0.98872733       0.36066744 </v>
    <v>       0.42982732       0.60183153       0.88515276 </v>
    <v>       0.30655392       0.95657397       0.96757698 </v>
    <v>       0.05239272       0.36450049       0.31449818 </v>
    <v>       0.72665411       0.41008721       0.46679892 </v>
    <v>       0.23373278       0.76440349       0.60758645 </v>
    <v>       0.84834305       0.36464824       0.27197167 </v>
    <v>       0.15277994       0.94340633       0.76692971 </v>
    <v>       0.57952150       0.26229123       0.87859272 </v>
    <v>       0.05030777       0.38440111       0.91747629 </v>
    <v>       0.82019844       0.63856445       0.71358046 </v>
    <v>       0.19992511       0.21000451       0.23847141 </v>
    <v>       0.33262071       0.56260045       0.60071019 </v>
    <v>       0.94795973       0.08882371       0.90910018 </v>
    <v>       0.88904708       0.88492143       0.45406735 </v>
    <v>       0.59456667       0.64150112       0.31473585 </v>
    <v>       0.73296403       0.69006636       0.98308365 </v>
    <v>       0.42390934       0.47345334       0.65230970 </v>
    <v>       0.10329737       0.44585540       0.81234939 </v>
    <v>       0.46995626       0.65350913       0.78379474 </v>
    <v>       0.60561171       0.89140793       0.13106244 </v>
    <v>       0.21368461       0.80261637       0.26961282 </v>
    <v>       0.70126999       0.96636277       0.51763836 </v>
    <v>       0.00953254       0.92721159       0.76737024 </v>
    <v>       0.58001500       0.03202873       0.72635460 </v>
    <v>       0.68432537       0.61254241       0.74417426 </v>
    <v>       0.79546907       0.74925536       0.75887837 </v>
    <v>       0.14656833       0.41519506       0.98252281 </v>
    <v>       0.32309994       0.20678710       0.24875743 </v>
    <v>       0.92035686       0.08090073       0.43127396 </v>
    <v>       0.02727747       0.68686135       0.31929107 </v>
    <v>       0.32688319       0.47976533       0.90396777 </v>
    <v>       0.39354274       0.61256074       0.22622603 </v>
    <v>       0.14545533       0.36179111       0.41317776 </v>
    <v>       0.96226480       0.43927033       0.98670690 </v>
    <v>       0.96032323       0.30857309       0.25590820 </v>
    <v>       0.02202349       0.48526469       0.30512288 </v>
    <v>       0.58218136       0.72800470       0.49395268 </v>
    <v>       0.17392516       0.61671340       0.95714130 </v>
    <v>       0.48979997       0.94011132       0.55782782 </v>
    <v>       0.18471901       0.18060824       0.37948896 </v>
    <v>       0.14318025       0.32964742       0.21786325 </v>
    <v>       0.22684141       0.50824518       0.65333991 </v>
    <v>       0.84088693       0.02460477       0.25891759 </v>
    <v>       0.89844519       0.63369519       0.61770225 </v>
    <v>       0.62052483       0.79855116       0.80295246 </v>
    <v>       0.13844409       0.09908802       0.20201815 </v>
    <v>       0.81875515       0.41195268       0.38117281 </v>
    <v>       0.47356503       0.44600302       0.36510604 </v>
    <v>       0.00342289       0.89986855       0.30342435 </v>
    <v>       0.76293735       0.88765175       0.90058679 </v>
    <v>       0.03936205       0.26587553       0.88581454 </v>
    <v>       0.39656278       0.91520270       0.88856228 </v>
    <v>       0.33501674       0.28744402       0.51883502 </v>
    <v>       0.12694600       0.89882810       0.42897459 </v>
    <v>       0.18662751       0.93537501       0.90213705 </v>
    <v>       0.37683539       0.69421966       0.96680590 </v>
    <v>       0.73528989       0.12132892       0.63399450 </v>
    <v>       0.50629697       0.51394034       0.93069013 </v>
    <v>       0.37067575       0.11124267       0.80484263 </v>
    <v>       0.82253260       0.27029204       0.85344718 </v>
    <v>       0.05908580       0.76253045       0.94104994 </v>
    <v>       0.79953692       0.40923692       0.57848742 </v>
    <v>       0.31646106       0.96629542       0.37928693 </v>
    <v>       0.50744097       0.95792723       0.33813064 </v>
    <v>       0.22770606       0.85046680       0.71385596 </v>
    <v>       0.83540521       0.45197172       0.18924897 </v>
    <v>       0.63467163       0.38173272       0.92819613 </v>
    <v>       0.76409272       0.15504126       0.11664595 </v>
    <v>       0.45075963       0.26243082       0.94672322 </v>
    <v>       0.27822656       0.80569159       0.50157017 </v>
    <v>       0.87879493       0.54639556       0.79660868 </v>
    <v>       0.66293170       0.51623617       0.48216146 </v>
    <v>       0.55019540       0.12389288       0.58456376 </v>
    <v>       0.56976684       0.25720696       0.73686497 </v>
    <v>       0.57301154       0.51838486       0.17873080 </v>
    <v>       0.61477357       0.13989848       0.92090162 </v>
    <v>       0.93768290       0.90693923       0.04976819 </v>
    <v>       0.14791611       0.22109879       0.56081903 </v>
    <v>       0.75730192       0.22624220       0.28734468 </v>
    <v>       0.75988966       0.68776415       0.39692986 </v>
    <v>       0.24969097       0.89665512       0.06213371 </v>
    <v>       0.17587825       0.04474414       0.69669556 </v>
    <v>       0.33673741       0.69948978       0.63904704 </v>
    <v>       0.27013836       0.29629441       0.88254268 </v>
    <v>       0.32433665       0.59770969       0.46991283 </v>
    <v>       0.63354002       0.06353172       0.26326106 </v>
    <v>       0.28097929       0.07493170       0.99765149 </v>
    <v>       0.11626374       0.73897311       0.62385549 </v>
    <v>       0.47824958       0.03198758       0.12657907 </v>
    <v>       0.09537462       0.84721213       0.13363713 </v>
    <v>       0.95951829       0.71871515       0.11608182 </v>
    <v>       0.63958693       0.32755919       0.45170446 </v>
    <v>       0.95721247       0.21180339       0.72750668 </v>
   </varray>
  </structure>
  <varray name="forces" >
   <v>      -0.49841571      -0.67946500      -0.99462257 </v>
   <v>      -0.64499571      -1.20029172       0.58875999 </v>
   <v>      -0.92841981      -0.24376903       0.19412346 </v>
   <v>      -3.38383419      -3.42300547       0.95948999 </v>
   <v>      -0.00580524       0.44758374      -0.03990651 </v>
   <v>       0.31591672      -0.12944639      -0.80107033 </v>
   <v>      -1.76489826      -2.75220426      -2.70009434 </v>
   <v>       0.23530196      -2.76488751      -0.02342321 </v>
   <v>       0.25908360       0.96752647       0.51177610 </v>
   <v>      -3.16781187      -2.26235413      -0.60734608 </v>
   <v>      -2.35145455      -0.69224928      -2.12600795 </v>
   <v>       0.26440555       0.07904883      -0.27245216 </v>
   <v>       0.00641939      -0.26634132      -0.36176543 </v>
   <v>       3.60324607      -0.43833157       5.12736927 </v>
   <v>      -0.27007099       1.01356780      -2.89807402 </v>
   <v>      -0.06992611      -1.31254819      -0.32767831 </v>
   <v>      -0.70154767       0.43055203      -0.76945471 </v>
   <v>       0.45267206      -0.38701079      -1.10138920 </v>
   <v>      -0.26264678      -0.09408309       0.64846376 </v>
   <v>      -0.11092706       0.11217070      -0.24365599 </v>
   <v>       3.96622353       0.18002076       1.33648794 </v>
   <v>       0.87992336       0.31743970      -0.50800492 </v>
   <v>       3.07718637       2.33205295      -1.96973829 </v>
   <v>       0.46991293      -0.41426110       0.52208282 </v>
   <v>       0.76527695      -2.43413429       1.35575938 </v>
   <v>       0.44090728      -0.73177047       1.01427034 </v>
   <v>       0.05939658      -1.32901215       0.14073024 </v>
   <v>      -2.50446931      -3.27747818      -2.98945934 </v>
   <v>       1.60554800       3.23593248      -4.45822274 </v>
   <v>      -2.39672904       0.42298467       4.00842314 </v>
   <v>       2.52098233       0.09050641      -3.12398170 </v>
   <v>       2.64150539       3.72872862      -1.60909444 </v>
   <v>      -0.36172096      -4.21354404      -2.88187428 </v>
   <v>      -0.04575358       1.68518929       3.88701187 </v>
   <v>       0.03786594       1.01106588       4.23798600 </v>
   <v>      -0.01106095       0.52646527       3.13331955 </v>
   <v>       1.68811435       0.40616608       2.14835829 </v>
   <v>       3.08797819       1.73158658      -3.15969393 </v>
   <v>      -3.00081044       2.04814095      -5.72083212 </v>
   <v>      -2.49200314      -1.00394188      -1.18003825 </v>
   <v>       0.72657631      -2.40770183      -4.48510573 </v>
   <v>      -1.03886986      -7.92608392      -2.16392022 </v>
   <v>      -2.58013159      -0.75933974       1.50209227 </v>
   <v>      -0.93188010      -0.02741532      -2.25362568 </v>
   <v>       5.84914970       3.09488320      -2.43201112 </v>
   <v>      -0.03958085       0.08892160       4.00834180 </v>
   <v>       0.37954814       1.16314283       3.18465499 </v>
   <v>      -1.25609369      -2.19898085      -0.42286842 </v>
   <v>      -2.48264962       2.02136801      -0.07305558 </v>
   <v>      -0.76725677      -1.54399595       2.35718923 </v>
   <v>      -1.96988913       2.13498375       0.35032831 </v>
   <v>      -1.65078222      -7.38394979       0.84387816 </v>
   <v>      -1.98647045      -0.67519385       1.42906027 </v>
   <v>       4.14652676       1.49285611       0.63634507 </v>
   <v>      -0.60405140      -0.29110101       0.93065205 </v>
   <v>      -0.72678224       1.77782762      -1.72405140 </v>
   <v>      -2.56082739      -0.81623997      -1.22352230 </v>
   <v>      -0.86575785       1.32692992      -1.89317447 </v>
   <v>      -2.12952249       1.85162121      -2.20943805 </v>
   <v>       0.68683693      -0.16350370      -0.08212075 </v>
   <v>      -0.79125161      -0.29005044       0.28399839 </v>
   <v>       0.13672014      -1.33210542       2.10695051 </v>
   <v>      -0.37925000       0.69428226       2.81385754 </v>
   <v>      -2.31082330       1.42063142       4.42816838 </v>
   <v>       3.32259523       1.62722756      -0.39910545 </v>
   <v>       2.50054709      -0.95825689       2.08665806 </v>
   <v>       2.28847334      -0.35744278      -2.19785126 </v>
   <v>       4.07806816       3.67429668       0.44837707 </v>
   <v>       1.89195568      -2.40567832       5.47720902 </v>
   <v>       1.35564938      -0.53646119      -0.73820622 </v>
   <v>       1.97072812       4.82139998       3.26323124 </v>
   <v>       3.06636839       4.78586118      -0.97088769 </v>
   <v>      -1.10145120       2.46762328      -1.38777926 </v>
   <v>       2.27085063      -0.51385957       0.34140633 </v>
   <v>      -0.57955897       1.27035043       0.70508458 </v>
   <v>      -1.39907891      -1.36120656      -0.99565197 </v>
   <v>      -2.37241700      -2.62984529       1.01410218 </v>
   <v>       0.48331914      -1.00198004       1.68844604 </v>
   <v>       1.45229228      -1.31227835      -0.81475425 </v>
   <v>       1.02578009      -1.06550899      -0.71624627 </v>
   <v>       2.72188956      -0.38196674       2.17964932 </v>
   <v>       0.07279587      -1.51125988      -2.29215260 </v>
   <v>       0.47692517      -2.41021065       1.40660111 </v>
   <v>      -0.56823674       1.89715168      -2.32441951 </v>
   <v>      -0.62957152      -0.40321887       0.76254624 </v>
   <v>      -0.21469808       1.90336018      -0.72377593 </v>
   <v>      -1.67663521       2.21237104       2.91272527 </v>
   <v>       1.44664103       1.79554932      -1.06709970 </v>
   <v>       0.67360884       0.25921579       0.29325463 </v>
   <v>       1.05896288       6.63789507      -7.67945354 </v>
   <v>      -1.28618663       0.13169675      -2.23944764 </v>
   <v>       0.45716201       0.13318931       1.16680391 </v>
   <v>      -0.34312771      -0.99618351       1.10488698 </v>
   <v>      -0.59502149       0.16040005       2.02806076 </v>
   <v>      -3.75245662      -1.77662288      -1.09796750 </v>
   <v>      -4.54602975       2.07753258       3.52477430 </v>
   <v>      -0.76185295       0.36184646      -4.13800909 </v>
   <v>       2.11131292      -1.78326267       0.35751862 </v>
   <v>       0.76336959       1.16439954       2.58073111 </v>
   <v>      -1.87954424       1.74662016       2.21118932 </v>
   <v>      -1.04612458       4.00946806       4.05353899 </v>
   <v>       0.20536673      -1.07095782       2.34909702 </v>
   <v>      -0.53640988       0.34740744      -1.81579186 </v>
   <v>      -0.48993888      -2.17624210      -1.73376690 </v>
   <v>      -1.18729316      -1.79609181      -0.10202979 </v>
   <v>      -0.02418806      -0.43549111      -1.66755184 </v>
   <v>       0.74229250       0.37078760       0.45923069 </v>
   <v>      -1.18784133       0.19198945      -2.02209295 </v>
   <v>      -0.75292123      -7.02470167      -0.12669820 </v>
   <v>      -0.10531990      -1.03441062      -1.46854377 </v>
   <v>       1.65611297       0.03921002      -0.25802247 </v>
   <v>       0.73170632       1.15566067      -2.92710198 </v>
   <v>      -1.48705211       1.91002754      -0.08810161 </v>
   <v>      -0.71069664       3.56376750      -1.36287907 </v>
   <v>       0.22860420       1.01392776      -1.59378437 </v>
   <v>       0.58747225       1.57769967       3.72347051 </v>
   <v>      -0.84904152      -0.91259441      -1.73783090 </v>
   <v>       0.24453393       3.30948912      -1.47387768 </v>
   <v>      -1.00813568       1.88367666      -1.14684137 </v>
   <v>       1.08857962       1.78612351       0.18254542 </v>
   <v>       1.88050867       6.65668145       3.52065657 </v>
   <v>       1.78485107      -1.54188799      -0.39054883 </v>
   <v>       3.17495277      -0.68600992       0.92394849 </v>
   <v>      -0.00293166      -0.19470365       0.22920918 </v>
   <v>      -0.34027741      -2.88409195       1.17775005 </v>
   <v>      -0.57385735      -2.68111019      -0.91829559 </v>
   <v>      -0.55499163      -2.22044194       3.27993911 </v>
   <v>       1.19525335       0.67483631      -0.56175735 </v>
   <v>       1.38786759       4.59934988      -0.12748019 </v>
   <v>      -1.73935488      -1.97820714      -1.60448236 </v>
   <v>      -1.52416519      -0.47010016       2.66673601 </v>
   <v>      -0.46539876      -1.43734583      -1.64540875 </v>
   <v>      -1.59402543      -1.68095719       1.41353428 </v>
   <v>      -0.34676578      -2.10434278       0.23022548 </v>
   <v>      -0.42285193      -0.45154366      -0.06659676 </v>
  </varray>
  <varray name="stress" >
   <v>       9.74400230       7.24717158       4.26254330 </v>
   <v>       7.24717155      -5.51033054      12.22833510 </v>
   <v>       4.26254329      12.22833511     -23.73243873 </v>
  </varray>
  <energy>
   <i name="e_fr_energy">   -924.03742819 </i>
   <i name="e_wo_entrp">   -924.03742819 </i>
   <i name="e_0_energy">     -0.00000000 </i>
  </energy>
  <time name="totalsc"> 1392.22 1401.98</time>
  <eigenvalues>
   <array>
    <dimension dim="1">band</dimension>
    <dimension dim="2">kpoint</dimension>
    <dimension dim="3">spin</dimension>
    <field>eigene</field>
    <field>occ</field>
    <set>
     <set comment="spin 1">
      <set comment="kpoint 1">
       <r>  -39.8386    1.0000 </r>
       <r>  -39.6022    1.0000 </r>
       <r>  -38.6355    1.0000 </r>
       <r>  -38.5870    1.0000 </r>
       <r>  -38.5812    1.0000 </r>
       <r>  -38.4130    1.0000 </r>
       <r>  -38.3140    1.0000 </r>
       <r>  -38.1984    1.0000 </r>
       <r>  -38.1800    1.0000 </r>
       <r>  -38.1182    1.0000 </r>
       <r>  -37.9187    1.0000 </r>
       <r>  -37.9180    1.0000 </r>
       <r>  -37.9101    1.0000 </r>
       <r>  -37.6982    1.0000 </r>
       <r>  -37.5765    1.0000 </r>
       <r>  -37.5705    1.0000 </r>
       <r>  -37.4353    1.0000 </r>
       <r>  -37.2307    1.0000 </r>
       <r>  -37.2060    1.0000 </r>
[...]
       <r>     2.2951     0.0017   864.0000 </r>
       <r>     2.4690     0.0000   864.0000 </r>
       <r>     2.6428     0.0000   864.0000 </r>
       <r>     2.8167     0.0000   864.0000 </r>
       <r>     2.9905     0.0000   864.0000 </r>
       <r>     3.1644     0.0000   864.0000 </r>
       <r>     3.3382     0.0000   864.0000 </r>
       <r>     3.5121     0.0476   864.0083 </r>
       <r>     3.6859     1.8166   864.3241 </r>
       <r>     3.8598     8.8062   865.8550 </r>
       <r>     4.0336     2.1431   866.2276 </r>
       <r>     4.2074     7.2233   867.4833 </r>
       <r>     4.3813    13.8948   869.8988 </r>
       <r>     4.5551     9.5405   871.5574 </r>
       <r>     4.7290     8.2061   872.9840 </r>
       <r>     4.9028    12.0366   875.0765 </r>
       <r>     5.0767    25.2624   879.4683 </r>
       <r>     5.2505    22.9324   883.4550 </r>
       <r>     5.4244    53.5138   892.7581 </r>
       <r>     5.5982    56.3999   902.5629 </r>
       <r>     5.7721    52.0569   911.6128 </r>
       <r>     5.9459    53.7540   920.9577 </r>
       <r>     6.1197    45.0938   928.7970 </r>
       <r>     6.2936    58.3148   938.9348 </r>
       <r>     6.4674    65.5041   950.3224 </r>
       <r>     6.6413    67.6709   962.0866 </r>
       <r>     6.8151    76.8299   975.4432 </r>
       <r>     6.9890    90.1035   991.1072 </r>
       <r>     7.1628    86.2387  1006.0994 </r>
       <r>     7.3367    91.6106  1022.0255 </r>
       <r>     7.5105    80.6359  1036.0437 </r>
       <r>     7.6844    22.7547  1039.9995 </r>
       <r>     7.8582     0.0028  1040.0000 </r>
       <r>     8.0320     0.0000  1040.0000 </r>
       <r>     8.2059     0.0000  1040.0000 </r>
       <r>     8.3797     0.0000  1040.0000 </r>
       <r>     8.5536     0.0000  1040.0000 </r>
       <r>     8.7274     0.0000  1040.0000 </r>
       <r>     8.9013     0.0000  1040.0000 </r>
       <r>     9.0751     0.0000  1040.0000 </r>
       <r>     9.2490     0.0000  1040.0000 </r>
       <r>     9.4228     0.0000  1040.0000 </r>
       <r>     9.5967     0.0000  1040.0000 </r>
       <r>     9.7705     0.0000  1040.0000 </r>
       <r>     9.9443     0.0000  1040.0000 </r>
      </set>
     </set>
    </array>
   </total>
  </dos>
 </calculation>
 <structure name="finalpos" >
  <crystal>
   <varray name="basis" >
    <v>      12.93041299       0.00000000       0.00000000 </v>
    <v>       0.00000000      12.93041299       0.00000000 </v>
    <v>       0.00000000       0.00000000      12.93041299 </v>
   </varray>
   <i name="volume">   2161.90790069 </i>
   <varray name="rec_basis" >
    <v>       0.07733705       0.00000000       0.00000000 </v>
    <v>       0.00000000       0.07733705       0.00000000 </v>
    <v>       0.00000000       0.00000000       0.07733705 </v>
   </varray>
  </crystal>
  <varray name="positions" >
   <v>       0.26475634       0.76988197       0.87238339 </v>
   <v>       0.56519085       0.70496366       0.08582797 </v>
   <v>       0.40143324       0.01912385       0.68443578 </v>
   <v>       0.14675365       0.26343749       0.72886997 </v>
   <v>       0.98921913       0.76310385       0.49750032 </v>
   <v>       0.76192888       0.30365974       0.04577296 </v>
   <v>       0.57000065       0.74140388       0.67570265 </v>
   <v>       0.98077935       0.77852037       0.78424115 </v>
   <v>       0.86709318       0.38579610       0.72635895 </v>
   <v>       0.90325519       0.60297437       0.31589057 </v>
   <v>       0.17035365       0.54589203       0.49255435 </v>
   <v>       0.89004532       0.57882717       0.02399269 </v>
   <v>       0.84219651       0.20957954       0.53836736 </v>
   <v>       0.46029686       0.36730747       0.47786654 </v>
   <v>       0.56204935       0.98565774       0.99388083 </v>
   <v>       0.83112958       0.02311466       0.80483191 </v>
   <v>       0.29870203       0.00580630       0.20861982 </v>
   <v>       0.71943611       0.84243081       0.42893929 </v>
   <v>       0.08298187       0.03083976       0.03045629 </v>
   <v>       0.45905148       0.42748880       0.07084364 </v>
   <v>       0.29595975       0.37909415       0.70778930 </v>
   <v>       0.78048124       0.87215137       0.08622506 </v>
   <v>       0.64982026       0.52844770       0.88079930 </v>
   <v>       0.47830829       0.12679235       0.38772696 </v>
   <v>       0.44001310       0.84709017       0.43154217 </v>
   <v>       0.24615571       0.72025546       0.09917046 </v>
   <v>       0.09978462       0.07343236       0.50376341 </v>
   <v>       0.62772816       0.16124907       0.68642219 </v>
   <v>       0.92841638       0.19959269       0.86277922 </v>
   <v>       0.22334842       0.26582197       0.45859068 </v>
   <v>       0.23142159       0.86612319       0.39463638 </v>
   <v>       0.19689748       0.49906738       0.91612370 </v>
   <v>       0.75215043       0.12187731       0.23568531 </v>
   <v>       0.65104854       0.63109869       0.42285150 </v>
   <v>       0.05608551       0.79482085       0.24038792 </v>
   <v>       0.72343498       0.77330849       0.85801856 </v>
   <v>       0.00459435       0.80634175       0.03902048 </v>
   <v>       0.54387684       0.97509949       0.22140608 </v>
   <v>       0.61348491       0.98795780       0.61004624 </v>
   <v>       0.50185241       0.55174899       0.28048045 </v>
   <v>       0.34078242       0.19718188       0.91638311 </v>
   <v>       0.91911944       0.98872733       0.36066744 </v>
   <v>       0.42982732       0.60183153       0.88515276 </v>
   <v>       0.30655392       0.95657397       0.96757698 </v>
   <v>       0.05239272       0.36450049       0.31449818 </v>
   <v>       0.72665411       0.41008721       0.46679892 </v>
   <v>       0.23373278       0.76440349       0.60758645 </v>
   <v>       0.84834305       0.36464824       0.27197167 </v>
   <v>       0.15277994       0.94340633       0.76692971 </v>
   <v>       0.57952150       0.26229123       0.87859272 </v>
   <v>       0.05030777       0.38440111       0.91747629 </v>
   <v>       0.82019844       0.63856445       0.71358046 </v>
   <v>       0.19992511       0.21000451       0.23847141 </v>
   <v>       0.33262071       0.56260045       0.60071019 </v>
   <v>       0.94795973       0.08882371       0.90910018 </v>
   <v>       0.88904708       0.88492143       0.45406735 </v>
   <v>       0.59456667       0.64150112       0.31473585 </v>
   <v>       0.73296403       0.69006636       0.98308365 </v>
   <v>       0.42390934       0.47345334       0.65230970 </v>
   <v>       0.10329737       0.44585540       0.81234939 </v>
   <v>       0.46995626       0.65350913       0.78379474 </v>
   <v>       0.60561171       0.89140793       0.13106244 </v>
   <v>       0.21368461       0.80261637       0.26961282 </v>
   <v>       0.70126999       0.96636277       0.51763836 </v>
   <v>       0.00953254       0.92721159       0.76737024 </v>
   <v>       0.58001500       0.03202873       0.72635460 </v>
   <v>       0.68432537       0.61254241       0.74417426 </v>
   <v>       0.79546907       0.74925536       0.75887837 </v>
   <v>       0.14656833       0.41519506       0.98252281 </v>
   <v>       0.32309994       0.20678710       0.24875743 </v>
   <v>       0.92035686       0.08090073       0.43127396 </v>
   <v>       0.02727747       0.68686135       0.31929107 </v>
   <v>       0.32688319       0.47976533       0.90396777 </v>
   <v>       0.39354274       0.61256074       0.22622603 </v>
   <v>       0.14545533       0.36179111       0.41317776 </v>
   <v>       0.96226480       0.43927033       0.98670690 </v>
   <v>       0.96032323       0.30857309       0.25590820 </v>
   <v>       0.02202349       0.48526469       0.30512288 </v>
   <v>       0.58218136       0.72800470       0.49395268 </v>
   <v>       0.17392516       0.61671340       0.95714130 </v>
   <v>       0.48979997       0.94011132       0.55782782 </v>
   <v>       0.18471901       0.18060824       0.37948896 </v>
   <v>       0.14318025       0.32964742       0.21786325 </v>
   <v>       0.22684141       0.50824518       0.65333991 </v>
   <v>       0.84088693       0.02460477       0.25891759 </v>
   <v>       0.89844519       0.63369519       0.61770225 </v>
   <v>       0.62052483       0.79855116       0.80295246 </v>
   <v>       0.13844409       0.09908802       0.20201815 </v>
   <v>       0.81875515       0.41195268       0.38117281 </v>
   <v>       0.47356503       0.44600302       0.36510604 </v>
   <v>       0.00342289       0.89986855       0.30342435 </v>
   <v>       0.76293735       0.88765175       0.90058679 </v>
   <v>       0.03936205       0.26587553       0.88581454 </v>
   <v>       0.39656278       0.91520270       0.88856228 </v>
   <v>       0.33501674       0.28744402       0.51883502 </v>
   <v>       0.12694600       0.89882810       0.42897459 </v>
   <v>       0.18662751       0.93537501       0.90213705 </v>
   <v>       0.37683539       0.69421966       0.96680590 </v>
   <v>       0.73528989       0.12132892       0.63399450 </v>
   <v>       0.50629697       0.51394034       0.93069013 </v>
   <v>       0.37067575       0.11124267       0.80484263 </v>
   <v>       0.82253260       0.27029204       0.85344718 </v>
   <v>       0.05908580       0.76253045       0.94104994 </v>
   <v>       0.79953692       0.40923692       0.57848742 </v>
   <v>       0.31646106       0.96629542       0.37928693 </v>
   <v>       0.50744097       0.95792723       0.33813064 </v>
   <v>       0.22770606       0.85046680       0.71385596 </v>
   <v>       0.83540521       0.45197172       0.18924897 </v>
   <v>       0.63467163       0.38173272       0.92819613 </v>
   <v>       0.76409272       0.15504126       0.11664595 </v>
   <v>       0.45075963       0.26243082       0.94672322 </v>
   <v>       0.27822656       0.80569159       0.50157017 </v>
   <v>       0.87879493       0.54639556       0.79660868 </v>
   <v>       0.66293170       0.51623617       0.48216146 </v>
   <v>       0.55019540       0.12389288       0.58456376 </v>
   <v>       0.56976684       0.25720696       0.73686497 </v>
   <v>       0.57301154       0.51838486       0.17873080 </v>
   <v>       0.61477357       0.13989848       0.92090162 </v>
   <v>       0.93768290       0.90693923       0.04976819 </v>
   <v>       0.14791611       0.22109879       0.56081903 </v>
   <v>       0.75730192       0.22624220       0.28734468 </v>
   <v>       0.75988966       0.68776415       0.39692986 </v>
   <v>       0.24969097       0.89665512       0.06213371 </v>
   <v>       0.17587825       0.04474414       0.69669556 </v>
   <v>       0.33673741       0.69948978       0.63904704 </v>
   <v>       0.27013836       0.29629441       0.88254268 </v>
   <v>       0.32433665       0.59770969       0.46991283 </v>
   <v>       0.63354002       0.06353172       0.26326106 </v>
   <v>       0.28097929       0.07493170       0.99765149 </v>
   <v>       0.11626374       0.73897311       0.62385549 </v>
   <v>       0.47824958       0.03198758       0.12657907 </v>
   <v>       0.09537462       0.84721213       0.13363713 </v>
   <v>       0.95951829       0.71871515       0.11608182 </v>
   <v>       0.63958693       0.32755919       0.45170446 </v>
   <v>       0.95721247       0.21180339       0.72750668 </v>
  </varray>
  <varray name="velocities" >
   <v>       0.00000000       0.00000000       0.00000000 </v>
   <v>       0.00000000       0.00000000       0.00000000 </v>
   <v>       0.00000000       0.00000000       0.00000000 </v>
   <v>       0.00000000       0.00000000       0.00000000 </v>
   <v>       0.00000000       0.00000000       0.00000000 </v>
   <v>       0.00000000       0.00000000       0.00000000 </v>
   <v>       0.00000000       0.00000000       0.00000000 </v>
   <v>       0.00000000       0.00000000       0.00000000 </v>
   <v>       0.00000000       0.00000000       0.00000000 </v>
   <v>       0.00000000       0.00000000       0.00000000 </v>
   <v>       0.00000000       0.00000000       0.00000000 </v>
   <v>       0.00000000       0.00000000       0.00000000 </v>
   <v>       0.00000000       0.00000000       0.00000000 </v>
   <v>       0.00000000       0.00000000       0.00000000 </v>
   <v>       0.00000000       0.00000000       0.00000000 </v>
   <v>       0.00000000       0.00000000       0.00000000 </v>
   <v>       0.00000000       0.00000000       0.00000000 </v>
   <v>       0.00000000       0.00000000       0.00000000 </v>
   <v>       0.00000000       0.00000000       0.00000000 </v>
   <v>       0.00000000       0.00000000       0.00000000 </v>
   <v>       0.00000000       0.00000000       0.00000000 </v>
   <v>       0.00000000       0.00000000       0.00000000 </v>
   <v>       0.00000000       0.00000000       0.00000000 </v>
   <v>       0.00000000       0.00000000       0.00000000 </v>
   <v>       0.00000000       0.00000000       0.00000000 </v>
   <v>       0.00000000       0.00000000       0.00000000 </v>
   <v>       0.00000000       0.00000000       0.00000000 </v>
   <v>       0.00000000       0.00000000       0.00000000 </v>
   <v>       0.00000000       0.00000000       0.00000000 </v>
   <v>       0.00000000       0.00000000       0.00000000 </v>
   <v>       0.00000000       0.00000000       0.00000000 </v>
   <v>       0.00000000       0.00000000       0.00000000 </v>
   <v>       0.00000000       0.00000000       0.00000000 </v>
   <v>       0.00000000       0.00000000       0.00000000 </v>
   <v>       0.00000000       0.00000000       0.00000000 </v>
   <v>       0.00000000       0.00000000       0.00000000 </v>
   <v>       0.00000000       0.00000000       0.00000000 </v>
   <v>       0.00000000       0.00000000       0.00000000 </v>
   <v>       0.00000000       0.00000000       0.00000000 </v>
   <v>       0.00000000       0.00000000       0.00000000 </v>
   <v>       0.00000000       0.00000000       0.00000000 </v>
   <v>       0.00000000       0.00000000       0.00000000 </v>
   <v>       0.00000000       0.00000000       0.00000000 </v>
   <v>       0.00000000       0.00000000       0.00000000 </v>
   <v>       0.00000000       0.00000000       0.00000000 </v>
   <v>       0.00000000       0.00000000       0.00000000 </v>
   <v>       0.00000000       0.00000000       0.00000000 </v>
   <v>       0.00000000       0.00000000       0.00000000 </v>
   <v>       0.00000000       0.00000000       0.00000000 </v>
   <v>       0.00000000       0.00000000       0.00000000 </v>
   <v>       0.00000000       0.00000000       0.00000000 </v>
   <v>       0.00000000       0.00000000       0.00000000 </v>
   <v>       0.00000000       0.00000000       0.00000000 </v>
   <v>       0.00000000       0.00000000       0.00000000 </v>
   <v>       0.00000000       0.00000000       0.00000000 </v>
   <v>       0.00000000       0.00000000       0.00000000 </v>
   <v>       0.00000000       0.00000000       0.00000000 </v>
   <v>       0.00000000       0.00000000       0.00000000 </v>
   <v>       0.00000000       0.00000000       0.00000000 </v>
   <v>       0.00000000       0.00000000       0.00000000 </v>
   <v>       0.00000000       0.00000000       0.00000000 </v>
   <v>       0.00000000       0.00000000       0.00000000 </v>
   <v>       0.00000000       0.00000000       0.00000000 </v>
   <v>       0.00000000       0.00000000       0.00000000 </v>
   <v>       0.00000000       0.00000000       0.00000000 </v>
   <v>       0.00000000       0.00000000       0.00000000 </v>
   <v>       0.00000000       0.00000000       0.00000000 </v>
   <v>       0.00000000       0.00000000       0.00000000 </v>
   <v>       0.00000000       0.00000000       0.00000000 </v>
   <v>       0.00000000       0.00000000       0.00000000 </v>
   <v>       0.00000000       0.00000000       0.00000000 </v>
   <v>       0.00000000       0.00000000       0.00000000 </v>
   <v>       0.00000000       0.00000000       0.00000000 </v>
   <v>       0.00000000       0.00000000       0.00000000 </v>
   <v>       0.00000000       0.00000000       0.00000000 </v>
   <v>       0.00000000       0.00000000       0.00000000 </v>
   <v>       0.00000000       0.00000000       0.00000000 </v>
   <v>       0.00000000       0.00000000       0.00000000 </v>
   <v>       0.00000000       0.00000000       0.00000000 </v>
   <v>       0.00000000       0.00000000       0.00000000 </v>
   <v>       0.00000000       0.00000000       0.00000000 </v>
   <v>       0.00000000       0.00000000       0.00000000 </v>
   <v>       0.00000000       0.00000000       0.00000000 </v>
   <v>       0.00000000       0.00000000       0.00000000 </v>
   <v>       0.00000000       0.00000000       0.00000000 </v>
   <v>       0.00000000       0.00000000       0.00000000 </v>
   <v>       0.00000000       0.00000000       0.00000000 </v>
   <v>       0.00000000       0.00000000       0.00000000 </v>
   <v>       0.00000000       0.00000000       0.00000000 </v>
   <v>       0.00000000       0.00000000       0.00000000 </v>
   <v>       0.00000000       0.00000000       0.00000000 </v>
   <v>       0.00000000       0.00000000       0.00000000 </v>
   <v>       0.00000000       0.00000000       0.00000000 </v>
   <v>       0.00000000       0.00000000       0.00000000 </v>
   <v>       0.00000000       0.00000000       0.00000000 </v>
   <v>       0.00000000       0.00000000       0.00000000 </v>
   <v>       0.00000000       0.00000000       0.00000000 </v>
   <v>       0.00000000       0.00000000       0.00000000 </v>
   <v>       0.00000000       0.00000000       0.00000000 </v>
   <v>       0.00000000       0.00000000       0.00000000 </v>
   <v>       0.00000000       0.00000000       0.00000000 </v>
   <v>       0.00000000       0.00000000       0.00000000 </v>
   <v>       0.00000000       0.00000000       0.00000000 </v>
   <v>       0.00000000       0.00000000       0.00000000 </v>
   <v>       0.00000000       0.00000000       0.00000000 </v>
   <v>       0.00000000       0.00000000       0.00000000 </v>
   <v>       0.00000000       0.00000000       0.00000000 </v>
   <v>       0.00000000       0.00000000       0.00000000 </v>
   <v>       0.00000000       0.00000000       0.00000000 </v>
   <v>       0.00000000       0.00000000       0.00000000 </v>
   <v>       0.00000000       0.00000000       0.00000000 </v>
   <v>       0.00000000       0.00000000       0.00000000 </v>
   <v>       0.00000000       0.00000000       0.00000000 </v>
   <v>       0.00000000       0.00000000       0.00000000 </v>
   <v>       0.00000000       0.00000000       0.00000000 </v>
   <v>       0.00000000       0.00000000       0.00000000 </v>
   <v>       0.00000000       0.00000000       0.00000000 </v>
   <v>       0.00000000       0.00000000       0.00000000 </v>
   <v>       0.00000000       0.00000000       0.00000000 </v>
   <v>       0.00000000       0.00000000       0.00000000 </v>
   <v>       0.00000000       0.00000000       0.00000000 </v>
   <v>       0.00000000       0.00000000       0.00000000 </v>
   <v>       0.00000000       0.00000000       0.00000000 </v>
   <v>       0.00000000       0.00000000       0.00000000 </v>
   <v>       0.00000000       0.00000000       0.00000000 </v>
   <v>       0.00000000       0.00000000       0.00000000 </v>
   <v>       0.00000000       0.00000000       0.00000000 </v>
   <v>       0.00000000       0.00000000       0.00000000 </v>
   <v>       0.00000000       0.00000000       0.00000000 </v>
   <v>       0.00000000       0.00000000       0.00000000 </v>
   <v>       0.00000000       0.00000000       0.00000000 </v>
   <v>       0.00000000       0.00000000       0.00000000 </v>
   <v>       0.00000000       0.00000000       0.00000000 </v>
   <v>       0.00000000       0.00000000       0.00000000 </v>
   <v>       0.00000000       0.00000000       0.00000000 </v>
  </varray>
 </structure>
</modeling>
