 running on   52 total cores
 distrk:  each k-point on   52 cores,    1 groups
 distr:  one band on   13 cores,    4 groups
 using from now: INCAR     
 vasp.5.4.4.18Apr17-6-g9f103f2a35 (build Oct 31 2019 15:01:46) complex          
  
 POSCAR found type information on POSCAR  Sc Cl C 
 POSCAR found :  3 types and      80 ions
 scaLAPACK is switched off
 LDA part: xc-table for Pade appr. of Perdew
 generate k-points for:    3    3    1
 POSCAR, INCAR and KPOINTS ok, starting setup
 FFT: planning ...
 WAVECAR not read
 entering main loop
       N       E                     dE             d eps       ncg     rms          rms(c)
DAV:   1     0.121899005941E+05    0.12190E+05   -0.26823E+05  4432   0.152E+03
DAV:   2     0.171728295139E+04   -0.10473E+05   -0.10210E+05  5248   0.522E+02
DAV:   3    -0.414684118196E+03   -0.21320E+04   -0.20478E+04  6800   0.284E+02
DAV:   4    -0.645762417997E+03   -0.23108E+03   -0.22673E+03  6088   0.985E+01
DAV:   5    -0.655888853855E+03   -0.10126E+02   -0.10075E+02  6080   0.277E+01    0.695E+01
DAV:   6    -0.525221018479E+03    0.13067E+03   -0.69619E+02  5832   0.497E+01    0.301E+01
DAV:   7    -0.530089070448E+03   -0.48681E+01   -0.86479E+01  5888   0.226E+01    0.152E+01
DAV:   8    -0.527858984197E+03    0.22301E+01   -0.95273E+00  6040   0.701E+00    0.924E+00
DAV:   9    -0.527335698862E+03    0.52329E+00   -0.36736E+00  5416   0.379E+00    0.305E+00
DAV:  10    -0.527207919512E+03    0.12778E+00   -0.60033E-01  5648   0.200E+00    0.170E+00
DAV:  11    -0.527187700694E+03    0.20219E-01   -0.19830E-01  5648   0.835E-01    0.767E-01
DAV:  12    -0.527173526803E+03    0.14174E-01   -0.34629E-02  5984   0.497E-01    0.296E-01
DAV:  13    -0.527170303991E+03    0.32228E-02   -0.88412E-03  5360   0.249E-01    0.177E-01
DAV:  14    -0.527168566919E+03    0.17371E-02   -0.69214E-03  5200   0.150E-01    0.174E-01
DAV:  15    -0.527170136854E+03   -0.15699E-02   -0.16801E-03  5600   0.886E-02    0.100E-01
DAV:  16    -0.527172477679E+03   -0.23408E-02   -0.10742E-03  5768   0.548E-02    0.565E-02
DAV:  17    -0.527176381058E+03   -0.39034E-02   -0.71315E-04  4904   0.493E-02    0.309E-02
DAV:  18    -0.527178131521E+03   -0.17505E-02   -0.21762E-04  5104   0.268E-02    0.233E-02
DAV:  19    -0.527179275078E+03   -0.11436E-02   -0.90185E-05  4976   0.177E-02    0.164E-02
DAV:  20    -0.527180440373E+03   -0.11653E-02   -0.38459E-05  4312   0.126E-02    0.118E-02
DAV:  21    -0.527180871459E+03   -0.43109E-03   -0.18514E-05  4088   0.779E-03    0.842E-03
DAV:  22    -0.527181229639E+03   -0.35818E-03   -0.44512E-06  3792   0.502E-03    0.550E-03
DAV:  23    -0.527181856870E+03   -0.62723E-03   -0.17932E-05  3616   0.514E-03    0.362E-03
DAV:  24    -0.527182027865E+03   -0.17099E-03   -0.41366E-06  3792   0.356E-03    0.353E-03
DAV:  25    -0.527182102955E+03   -0.75090E-04   -0.12373E-06  2920   0.232E-03    0.208E-03
DAV:  26    -0.527182196535E+03   -0.93580E-04   -0.31180E-06  3336   0.243E-03    0.221E-03
DAV:  27    -0.527182216982E+03   -0.20448E-04   -0.32797E-07  2728   0.187E-03    0.162E-03
DAV:  28    -0.527182229701E+03   -0.12719E-04   -0.32536E-07  2736   0.140E-03    0.669E-04
DAV:  29    -0.527182239629E+03   -0.99273E-05   -0.33043E-07  2680   0.130E-03    0.571E-04
DAV:  30    -0.527182249125E+03   -0.94958E-05   -0.29821E-07  2696   0.136E-03    0.581E-04
DAV:  31    -0.527182251933E+03   -0.28086E-05   -0.18324E-07  2504   0.115E-03    0.237E-04
DAV:  32    -0.527182254281E+03   -0.23474E-05   -0.14875E-07  2552   0.797E-04    0.297E-04
DAV:  33    -0.527182255221E+03   -0.94012E-06   -0.95782E-08  2448   0.869E-04
   1 F= -.52718226E+03 E0= -.52718226E+03  d E =-.372420E-13
