 vasp.5.4.4.18Apr17-6-g9f103f2a35 (build Oct 31 2019 15:01:46) complex          
  
 executed on             LinuxIFC date 2024.04.30  05:10:55
 running on   52 total cores
 distrk:  each k-point on   52 cores,    1 groups
 distr:  one band on NCORES_PER_BAND=  13 cores,    4 groups


--------------------------------------------------------------------------------------------------------


 INCAR:
 POTCAR:    PAW_PBE Sc_sv 07Sep2000               
 POTCAR:    PAW_PBE Cl 06Sep2000                  
 POTCAR:    PAW_PBE C 08Apr2002                   
 POTCAR:    PAW_PBE Sc_sv 07Sep2000               
   VRHFIN =Sc: 3p4s3d                                                           
   LEXCH  = PE                                                                  
   EATOM  =  1273.2868 eV,   93.5839 Ry                                         
                                                                                
   TITEL  = PAW_PBE Sc_sv 07Sep2000                                             
   LULTRA =        F    use ultrasoft PP ?                                      
   IUNSCR =        1    unscreen: 0-lin 1-nonlin 2-no                           
   RPACOR =    2.200    partial core radius                                     
   POMASS =   44.956; ZVAL   =   11.000    mass and valenz                      
   RCORE  =    2.500    outmost cutoff radius                                   
   RWIGS  =    2.700; RWIGS  =    1.429    wigner-seitz radius (au A)           
   ENMAX  =  222.660; ENMIN  =  166.995 eV                                      
   RCLOC  =    1.805    cutoff for local pot                                    
   LCOR   =        T    correct aug charges                                     
   LPAW   =        T    paw PP                                                  
   EAUG   =  443.063                                                            
   RMAX   =    2.551    core radius for proj-oper                               
   RAUG   =    1.300    factor for augmentation sphere                          
   RDEP   =    2.650    radius for radial grids                                 
   RDEPT  =    2.038    core radius for aug-charge                              
                                                                                
   Atomic configuration                                                         
    8 entries                                                                   
     n  l   j            E        occ.                                          
     1  0  0.50     -4394.2533   2.0000                                         
     2  0  0.50      -471.0040   2.0000                                         
     2  1  1.50      -384.9788   6.0000                                         
     3  0  0.50       -52.1410   2.0000                                         
     4  0  0.50        -3.5584   1.0000                                         
     3  1  1.50       -30.8841   6.0000                                         
     3  2  2.50        -1.3655   2.0000                                         
     4  3  2.50        -1.3606   0.0000                                         
   Description                                                                  
     l       E           TYP  RCUT    TYP  RCUT                                 
     0    -52.1409870     23  1.800                                             
     0     -3.5583698     23  2.500                                             
     1    -30.8840697     23  2.300                                             
     1      4.0817478     23  2.300                                             
     2     -1.3655397     23  2.500                                             
     2      0.3564476     23  2.500                                             
  local pseudopotential read in
  partial core-charges read in
  partial kinetic energy density read in
  atomic valenz-charges read in
  non local Contribution for L=           0  read in
    real space projection operators read in
  non local Contribution for L=           0  read in
    real space projection operators read in
  non local Contribution for L=           1  read in
    real space projection operators read in
  non local Contribution for L=           1  read in
    real space projection operators read in
  non local Contribution for L=           2  read in
    real space projection operators read in
  non local Contribution for L=           2  read in
    real space projection operators read in
    PAW grid and wavefunctions read in
 
   number of l-projection  operators is LMAX  =           6
   number of lm-projection operators is LMMAX =          18
 
 POTCAR:    PAW_PBE Cl 06Sep2000                  
   VRHFIN =Cl: s2p5                                                             
   LEXCH  = PE                                                                  
   EATOM  =   409.7259 eV,   30.1140 Ry                                         
                                                                                
   TITEL  = PAW_PBE Cl 06Sep2000                                                
   LULTRA =        F    use ultrasoft PP ?                                      
   IUNSCR =        1    unscreen: 0-lin 1-nonlin 2-no                           
   RPACOR =    1.500    partial core radius                                     
   POMASS =   35.453; ZVAL   =    7.000    mass and valenz                      
   RCORE  =    1.900    outmost cutoff radius                                   
   RWIGS  =    2.100; RWIGS  =    1.111    wigner-seitz radius (au A)           
   ENMAX  =  262.472; ENMIN  =  196.854 eV                                      
   ICORE  =        2    local potential                                         
   LCOR   =        T    correct aug charges                                     
   LPAW   =        T    paw PP                                                  
   EAUG   =  356.192                                                            
   DEXC   =    0.000                                                            
   RMAX   =    1.945    core radius for proj-oper                               
   RAUG   =    1.300    factor for augmentation sphere                          
   RDEP   =    2.020    radius for radial grids                                 
   RDEPT  =    1.678    core radius for aug-charge                              
                                                                                
   Atomic configuration                                                         
    6 entries                                                                   
     n  l   j            E        occ.                                          
     1  0  0.50     -2751.1850   2.0000                                         
     2  0  0.50      -252.6861   2.0000                                         
     2  1  1.50      -191.6157   6.0000                                         
     3  0  0.50       -20.6916   2.0000                                         
     3  1  0.50        -8.5949   5.0000                                         
     3  2  1.50        -8.1635   0.0000                                         
   Description                                                                  
     l       E           TYP  RCUT    TYP  RCUT                                 
     0    -20.6915656     23  1.900                                             
     0    -22.0521482     23  1.900                                             
     1     -8.5948577     23  1.900                                             
     1     -5.3847331     23  1.900                                             
     2     -8.1634956     23  1.900                                             
  local pseudopotential read in
  partial core-charges read in
  partial kinetic energy density read in
  atomic valenz-charges read in
  non local Contribution for L=           0  read in
    real space projection operators read in
  non local Contribution for L=           0  read in
    real space projection operators read in
  non local Contribution for L=           1  read in
    real space projection operators read in
  non local Contribution for L=           1  read in
    real space projection operators read in
    PAW grid and wavefunctions read in
 
   number of l-projection  operators is LMAX  =           4
   number of lm-projection operators is LMMAX =           8
 
 POTCAR:    PAW_PBE C 08Apr2002                   
   VRHFIN =C: s2p2                                                              
   LEXCH  = PE                                                                  
   EATOM  =   147.1560 eV,   10.8157 Ry                                         
                                                                                
   TITEL  = PAW_PBE C 08Apr2002                                                 
   LULTRA =        F    use ultrasoft PP ?                                      
   IUNSCR =        1    unscreen: 0-lin 1-nonlin 2-no                           
   RPACOR =    1.200    partial core radius                                     
   POMASS =   12.011; ZVAL   =    4.000    mass and valenz                      
   RCORE  =    1.500    outmost cutoff radius                                   
   RWIGS  =    1.630; RWIGS  =    0.863    wigner-seitz radius (au A)           
   ENMAX  =  400.000; ENMIN  =  300.000 eV                                      
   ICORE  =        2    local potential                                         
   LCOR   =        T    correct aug charges                                     
   LPAW   =        T    paw PP                                                  
   EAUG   =  644.873                                                            
   DEXC   =    0.000                                                            
   RMAX   =    1.529    core radius for proj-oper                               
   RAUG   =    1.300    factor for augmentation sphere                          
   RDEP   =    1.501    radius for radial grids                                 
   RDEPT  =    1.300    core radius for aug-charge                              
                                                                                
   Atomic configuration                                                         
    4 entries                                                                   
     n  l   j            E        occ.                                          
     1  0  0.50      -273.3789   2.0000                                         
     2  0  0.50       -13.7508   2.0000                                         
     2  1  0.50        -5.2854   2.0000                                         
     3  2  1.50        -5.4423   0.0000                                         
   Description                                                                  
     l       E           TYP  RCUT    TYP  RCUT                                 
     0    -13.7508458     23  1.200                                             
     0     -8.2022199     23  1.200                                             
     1     -5.2854383     23  1.500                                             
     1     34.0145650     23  1.500                                             
     2     -5.4423304      7  1.500                                             
  local pseudopotential read in
  partial core-charges read in
  partial kinetic energy density read in
  atomic valenz-charges read in
  non local Contribution for L=           0  read in
    real space projection operators read in
  non local Contribution for L=           0  read in
    real space projection operators read in
  non local Contribution for L=           1  read in
    real space projection operators read in
  non local Contribution for L=           1  read in
    real space projection operators read in
    PAW grid and wavefunctions read in
 
   number of l-projection  operators is LMAX  =           4
   number of lm-projection operators is LMMAX =           8
 
 Optimization of the real space projectors (new method)

 maximal supplied QI-value         = 15.12
 optimisation between [QCUT,QGAM] = [ 12.55, 25.10] = [ 44.09,176.36] Ry 
 Optimized for a Real-space Cutoff    1.56 Angstroem

   l    n(q)    QCUT    max X(q) W(low)/X(q) W(high)/X(q)  e(spline) 
   0     12    12.548     2.962    0.12E-05    0.11E-06    0.46E-07
   0     12    12.548    26.414    0.30E-04    0.15E-05    0.76E-07
   1     11    12.548     3.969    0.45E-05    0.12E-05    0.60E-07
   1     11    12.548     5.137    0.15E-04    0.18E-04    0.36E-06
   2     11    12.548   143.970    0.20E-03    0.19E-03    0.76E-06
   2     11    12.548   121.201    0.20E-03    0.19E-03    0.76E-06
 Optimization of the real space projectors (new method)

 maximal supplied QI-value         = 19.84
 optimisation between [QCUT,QGAM] = [ 12.50, 25.00] = [ 43.76,175.03] Ry 
 Optimized for a Real-space Cutoff    1.20 Angstroem

   l    n(q)    QCUT    max X(q) W(low)/X(q) W(high)/X(q)  e(spline) 
   0      9    12.501   168.010    0.44E-04    0.61E-04    0.77E-07
   0      9    12.501   164.674    0.43E-04    0.60E-04    0.75E-07
   1      8    12.501    69.222    0.11E-03    0.13E-03    0.91E-07
   1      8    12.501    56.786    0.11E-03    0.13E-03    0.90E-07
 Optimization of the real space projectors (new method)

 maximal supplied QI-value         = 25.13
 optimisation between [QCUT,QGAM] = [ 12.32, 24.88] = [ 42.47,173.37] Ry 
 Optimized for a Real-space Cutoff    1.16 Angstroem

   l    n(q)    QCUT    max X(q) W(low)/X(q) W(high)/X(q)  e(spline) 
   0      9    12.315   115.676    0.19E-03    0.80E-05    0.34E-06
   0      9    12.315    87.132    0.19E-03    0.82E-05    0.34E-06
   1      8    12.315     4.429    0.18E-03    0.13E-03    0.22E-06
   1      8    12.315     2.733    0.14E-03    0.10E-03    0.18E-06
  PAW_PBE Sc_sv 07Sep2000               :
 energy of atom  1       EATOM=-1273.2868
 kinetic energy error for atom=    0.0014 (will be added to EATOM!!)
  PAW_PBE Cl 06Sep2000                  :
 energy of atom  2       EATOM= -409.7259
 kinetic energy error for atom=    0.0013 (will be added to EATOM!!)
  PAW_PBE C 08Apr2002                   :
 energy of atom  3       EATOM= -147.1560
 kinetic energy error for atom=    0.0057 (will be added to EATOM!!)
 
 
 POSCAR: Sc Cl  C                                
  positions in cartesian coordinates
  No initial velocities read in
 exchange correlation table for  LEXCH =        8
   RHO(1)=    0.500       N(1)  =     2000
   RHO(2)=  100.500       N(2)  =     4000
 


--------------------------------------------------------------------------------------------------------


 ion  position               nearest neighbor table
   1  0.076  0.160  0.543-  65 2.31  66 2.33  70 2.44  61 2.58  50 2.58  49 2.78  29 3.02  17 3.13
                            18 3.25  13 3.39   4 3.43
   2  0.082  0.418  0.546-  67 2.41  71 2.42  66 2.44  62 2.56  51 2.60  50 2.61  18 3.15  30 3.21
                            19 3.25  14 3.37
   3  0.075  0.669  0.541-  68 2.20  67 2.35  72 2.38  63 2.55  52 2.57  51 2.63  31 3.08  20 3.09
                            19 3.14  15 3.30   4 3.35  14 3.37
   4  0.084  0.916  0.546-  65 2.29  68 2.33  69 2.36  52 2.48  49 2.56  64 2.60  20 3.12  32 3.18
                            17 3.21   3 3.35   8 3.38   1 3.43
   5  0.334  0.164  0.547-  69 2.36  74 2.38  70 2.48  53 2.61  49 2.65  54 2.69  21 3.23  17 3.26
                            22 3.27   8 3.34   6 3.41  10 3.42
   6  0.334  0.412  0.547-  75 2.29  70 2.30  71 2.42  55 2.49  50 2.53  54 2.53  23 3.18  22 3.18
                            18 3.20  11 3.28  10 3.33   5 3.41
   7  0.339  0.678  0.545-  72 2.32  76 2.34  71 2.45  56 2.58  51 2.61  55 2.72  23 3.17  24 3.20
                            19 3.22  12 3.27  11 3.38   8 3.40
   8  0.331  0.921  0.546-  69 2.23  72 2.32  52 2.48  73 2.49  53 2.60  56 2.73  21 3.17  20 3.24
                             5 3.34   4 3.38   7 3.40  24 3.41
   9  0.590  0.174  0.542-  78 2.17  74 2.33  73 2.39  58 2.47  57 2.69  53 2.78  26 3.09  21 3.22
                            25 3.23  14 3.39  13 3.41  10 3.42
  10  0.577  0.415  0.542-  75 2.27  74 2.29  79 2.40  54 2.55  59 2.60  58 2.70  22 3.08  27 3.20
                            26 3.22  11 3.33   6 3.33   9 3.42   5 3.42
  11  0.569  0.652  0.547-  75 2.19  76 2.53  55 2.57  80 2.61  60 2.61  59 2.70  23 3.02  27 3.28
                             6 3.28  10 3.33  28 3.34   7 3.38
  12  0.578  0.913  0.545-  76 2.25  73 2.33  77 2.48  56 2.55  60 2.62  57 2.69  28 3.18  24 3.18
                             7 3.27  25 3.30
  13  0.830  0.160  0.543-  77 2.31  66 2.38  78 2.39  61 2.63  57 2.66  62 2.70  29 3.14  30 3.19
                            25 3.23   1 3.39   9 3.41
  14  0.838  0.418  0.539-  67 2.21  78 2.28  79 2.31  63 2.58  62 2.78  58 2.80  31 3.05  30 3.07
                            26 3.19   3 3.37   2 3.37   9 3.39
  15  0.835  0.667  0.545-  80 2.28  79 2.34  68 2.44  63 2.60  64 2.61  59 2.68  27 3.06  31 3.15
                            32 3.19   3 3.30  16 3.37
  16  0.825  0.906  0.548-  77 2.23  80 2.31  60 2.41  65 2.55  61 2.60  64 2.61  28 3.07  32 3.18
                            29 3.34  15 3.37
  17  0.163  0.082  0.456-  65 2.24  70 2.39  69 2.43  37 2.53  33 2.58  36 2.60   1 3.13   4 3.21
                             5 3.26  29 3.32  20 3.36  32 3.37
  18  0.169  0.343  0.457-  71 2.25  66 2.32  70 2.34  38 2.55  33 2.60  34 2.62   2 3.15   6 3.20
                             1 3.25  23 3.39  30 3.40  19 3.42
  19  0.167  0.590  0.455-  72 2.36  67 2.37  71 2.44  35 2.57  34 2.61  39 2.65   3 3.14   7 3.22
                             2 3.25  18 3.42
  20  0.158  0.835  0.456-  68 2.15  69 2.32  72 2.42  35 2.55  36 2.56  40 2.65   3 3.09   4 3.12
                             8 3.24  32 3.33  17 3.36
  21  0.413  0.081  0.455-  69 2.33  74 2.38  73 2.38  40 2.54  37 2.56  41 2.64   8 3.17   9 3.22
                             5 3.23  26 3.43
  22  0.416  0.334  0.455-  70 2.30  74 2.34  75 2.39  38 2.58  37 2.61  42 2.61  10 3.08   6 3.18
                             5 3.27  23 3.41
  23  0.419  0.583  0.459-  75 2.25  71 2.27  76 2.37  38 2.65  43 2.67  39 2.70  11 3.02   7 3.17
                             6 3.18  18 3.39  22 3.41  24 3.43
  24  0.426  0.834  0.451-  76 2.19  73 2.40  72 2.51  39 2.58  40 2.65  44 2.65  12 3.18   7 3.20
                            25 3.36   8 3.41  28 3.43  23 3.43
  25  0.665  0.081  0.451-  73 2.30  78 2.45  45 2.55  44 2.57  77 2.60  41 2.61  13 3.23   9 3.23
                            12 3.30  24 3.36  26 3.42  28 3.43
  26  0.663  0.328  0.453-  78 2.34  74 2.36  79 2.45  41 2.50  42 2.65  46 2.74   9 3.09  14 3.19
                            10 3.22  25 3.42  21 3.43
  27  0.682  0.593  0.456-  80 2.22  79 2.27  75 2.58  47 2.59  42 2.60  43 2.65  15 3.06  10 3.20
                            31 3.24  11 3.28  32 3.32
  28  0.677  0.839  0.458-  77 2.20  80 2.36  76 2.37  48 2.54  43 2.60  44 2.62  16 3.07  12 3.18
                            32 3.34  11 3.34  29 3.42  25 3.43  24 3.43
  29  0.925  0.086  0.456-  66 2.24  77 2.35  65 2.39  33 2.50  48 2.55  45 2.72   1 3.02  13 3.14
                            17 3.32  16 3.34  32 3.37  28 3.42
  30  0.916  0.331  0.455-  66 2.33  67 2.34  78 2.42  34 2.55  45 2.56  46 2.74  14 3.07  13 3.19
                             2 3.21  18 3.40
  31  0.911  0.581  0.455-  79 2.25  67 2.30  68 2.41  47 2.47  35 2.48  46 2.58  14 3.05   3 3.08
                            15 3.15  27 3.24
  32  0.918  0.839  0.457-  65 2.23  80 2.26  68 2.35  36 2.57  48 2.59  47 2.60  16 3.18   4 3.18
                            15 3.19  27 3.32  20 3.33  28 3.34  17 3.37  29 3.37
  33  0.084  0.172  0.398-  29 2.50  17 2.58  18 2.60
  34  0.080  0.421  0.396-  30 2.55  19 2.61  18 2.62
  35  0.073  0.667  0.400-  31 2.48  20 2.55  19 2.57
  36  0.078  0.916  0.395-  20 2.56  32 2.57  17 2.60
  37  0.325  0.161  0.397-  17 2.53  21 2.56  22 2.61
  38  0.330  0.415  0.397-  18 2.55  22 2.58  23 2.65
  39  0.336  0.665  0.393-  24 2.58  19 2.65  23 2.70
  40  0.330  0.919  0.396-  21 2.54  24 2.65  20 2.65
  41  0.582  0.171  0.393-  26 2.50  25 2.61  21 2.64
  42  0.585  0.427  0.396-  27 2.60  22 2.61  26 2.65
  43  0.589  0.674  0.397-  28 2.60  27 2.65  23 2.67
  44  0.599  0.917  0.391-  25 2.57  28 2.62  24 2.65
  45  0.833  0.171  0.394-  25 2.55  30 2.56  29 2.72
  46  0.840  0.427  0.390-  31 2.58  26 2.74  30 2.74
  47  0.849  0.673  0.396-  31 2.47  27 2.59  32 2.60
  48  0.836  0.923  0.397-  28 2.54  29 2.55  32 2.59
  49  0.165  0.073  0.609-   4 2.56   5 2.65   1 2.78
  50  0.166  0.327  0.602-   6 2.53   1 2.58   2 2.61
  51  0.166  0.592  0.602-   2 2.60   7 2.61   3 2.63
  52  0.167  0.833  0.600-   4 2.48   8 2.48   3 2.57
  53  0.416  0.081  0.609-   8 2.60   5 2.61   9 2.78
  54  0.426  0.343  0.606-   6 2.53  10 2.55   5 2.69
  55  0.404  0.568  0.606-   6 2.49  11 2.57   7 2.72
  56  0.423  0.837  0.608-  12 2.55   7 2.58   8 2.73
  57  0.666  0.084  0.608-  13 2.66   9 2.69  12 2.69
  58  0.657  0.322  0.604-   9 2.47  10 2.70  14 2.80
  59  0.664  0.570  0.607-  10 2.60  15 2.68  11 2.70
  60  0.668  0.828  0.602-  16 2.41  11 2.61  12 2.62
  61  0.915  0.079  0.605-   1 2.58  16 2.60  13 2.63
  62  0.921  0.329  0.607-   2 2.56  13 2.70  14 2.78
  63  0.917  0.577  0.602-   3 2.55  14 2.58  15 2.60
  64  0.918  0.831  0.607-   4 2.60  16 2.61  15 2.61
  65  0.006  0.996  0.500-  32 2.23  17 2.24   4 2.29   1 2.31  29 2.39  16 2.55
  66  1.000  0.247  0.498-  29 2.24  18 2.32  30 2.33   1 2.33  13 2.38   2 2.44
  67  0.995  0.500  0.498-  14 2.21  31 2.30  30 2.34   3 2.35  19 2.37   2 2.41
  68  0.007  0.756  0.498-  20 2.15   3 2.20   4 2.33  32 2.35  31 2.41  15 2.44
  69  0.251  0.997  0.502-   8 2.23  20 2.32  21 2.33   4 2.36   5 2.36  17 2.43
  70  0.252  0.256  0.498-  22 2.30   6 2.30  18 2.34  17 2.39   1 2.44   5 2.48
  71  0.254  0.501  0.500-  18 2.25  23 2.27   6 2.42   2 2.42  19 2.44   7 2.45
  72  0.251  0.756  0.501-   7 2.32   8 2.32  19 2.36   3 2.38  20 2.42  24 2.51
  73  0.507  0.003  0.498-  25 2.30  12 2.33  21 2.38   9 2.39  24 2.40   8 2.49
  74  0.499  0.250  0.500-  10 2.29   9 2.33  22 2.34  26 2.36   5 2.38  21 2.38
  75  0.496  0.500  0.502-  11 2.19  23 2.25  10 2.27   6 2.29  22 2.39  27 2.58
  76  0.501  0.761  0.497-  24 2.19  12 2.25   7 2.34  28 2.37  23 2.37  11 2.53
  77  0.759  0.992  0.501-  28 2.20  16 2.23  13 2.31  29 2.35  12 2.48  25 2.60
  78  0.745  0.249  0.501-   9 2.17  14 2.28  26 2.34  13 2.39  30 2.42  25 2.45
  79  0.753  0.502  0.499-  31 2.25  27 2.27  14 2.31  15 2.34  10 2.40  26 2.45
  80  0.758  0.749  0.499-  27 2.22  32 2.26  15 2.28  16 2.31  28 2.36  11 2.61
 
  LATTYP: Found a hexagonal cell.
 ALAT       =    13.7939866762
 C/A-ratio  =     2.0161119278
  
  Lattice vectors:
  
 A1 = (  13.7939866800,   0.0000000000,   0.0000000000)
 A2 = (  -6.8969933400,  11.9459428800,   0.0000000000)
 A3 = (   0.0000000000,   0.0000000000,  27.8102210700)


Analysis of symmetry for initial positions (statically):
=====================================================================
 Subroutine PRICEL returns:
 Original cell was already a primitive cell.
 

 Routine SETGRP: Setting up the symmetry group for a 
 hexagonal supercell.


 Subroutine GETGRP returns: Found  1 space group operations
 (whereof  1 operations were pure point group operations)
 out of a pool of 24 trial point group operations.


The static configuration has the point symmetry C_1 .


Analysis of symmetry for dynamics (positions and initial velocities):
=====================================================================
 Subroutine PRICEL returns:
 Original cell was already a primitive cell.
 

 Routine SETGRP: Setting up the symmetry group for a 
 hexagonal supercell.


 Subroutine GETGRP returns: Found  1 space group operations
 (whereof  1 operations were pure point group operations)
 out of a pool of 24 trial point group operations.


The dynamic configuration has the point symmetry C_1 .


 Subroutine INISYM returns: Found  1 space group operations
 (whereof  1 operations are pure point group operations),
 and found     1 'primitive' translations

 
 

Automatic generation of k-mesh.
 generate k-points for:    3    3    1
Space group operators:
 irot       det(A)        alpha          n_x          n_y          n_z        tau_x        tau_y        tau_z
    1     1.000000     0.000000     1.000000     0.000000     0.000000     0.000000     0.000000     0.000000
 
 Subroutine IBZKPT returns following result:
 ===========================================
 
 Found      5 irreducible k-points:
 
 Following reciprocal coordinates:
            Coordinates               Weight
  0.000000  0.000000  0.000000      1.000000
  0.333333 -0.000000  0.000000      2.000000
  0.000000  0.333333  0.000000      2.000000
  0.333333  0.333333  0.000000      2.000000
 -0.333333  0.333333  0.000000      2.000000
 
 Following cartesian coordinates:
            Coordinates               Weight
  0.000000  0.000000  0.000000      1.000000
  0.024165  0.013952  0.000000      2.000000
  0.000000  0.027903  0.000000      2.000000
  0.024165  0.041855  0.000000      2.000000
 -0.024165  0.013952  0.000000      2.000000
 


--------------------------------------------------------------------------------------------------------




 Dimension of arrays:
   k-points           NKPTS =      5   k-points in BZ     NKDIM =      5   number of bands    NBANDS=    384
   number of dos      NEDOS =    301   number of ions     NIONS =     80
   non local maximal  LDIM  =      6   non local SUM 2l+1 LMDIM =     18
   total plane-waves  NPLWV = ******
   max r-space proj   IRMAX =   9806   max aug-charges    IRDMAX= 216835
   dimension x,y,z NGX =   112 NGY =  112 NGZ =  224
   dimension x,y,z NGXF=   224 NGYF=  224 NGZF=  448
   support grid    NGXF=   448 NGYF=  448 NGZF=  896
   ions per type =              32  32  16
   NGX,Y,Z   is equivalent  to a cutoff of  13.50, 13.50, 13.39 a.u.
   NGXF,Y,Z  is equivalent  to a cutoff of  27.00, 27.00, 26.78 a.u.

 SYSTEM =  unknown system                          
 POSCAR =  Sc Cl  C                                

 Startparameter for this run:
   NWRITE =      2    write-flag & timer
   PREC   = anorma    normal or accurate (medium, high low for compatibility)
   ISTART =      0    job   : 0-new  1-cont  2-samecut
   ICHARG =      2    charge: 1-file 2-atom 10-const
   ISPIN  =      1    spin polarized calculation?
   LNONCOLLINEAR =      F non collinear calculations
   LSORBIT =      F    spin-orbit coupling
   INIWAV =      1    electr: 0-lowe 1-rand  2-diag
   LASPH  =      F    aspherical Exc in radial PAW
   METAGGA=      F    non-selfconsistent MetaGGA calc.

 Electronic Relaxation 1
   ENCUT  =  600.0 eV  44.10 Ry    6.64 a.u.  27.55 27.55 55.54*2*pi/ulx,y,z
   ENINI  =  600.0     initial cutoff
   ENAUG  =  644.9 eV  augmentation charge cutoff
   NELM   =     60;   NELMIN=  2; NELMDL= -5     # of ELM steps 
   EDIFF  = 0.1E-05   stopping-criterion for ELM
   LREAL  =      T    real-space projection
   NLSPLINE    = F    spline interpolate recip. space projectors
   LCOMPAT=      F    compatible to vasp.4.4
   GGA_COMPAT  = T    GGA compatible to vasp.4.4-vasp.4.6
   LMAXPAW     = -100 max onsite density
   LMAXMIX     =    2 max onsite mixed and CHGCAR
   VOSKOWN=      0    Vosko Wilk Nusair interpolation
   ROPT   =   -0.00025  -0.00025  -0.00025
 Ionic relaxation
   EDIFFG = -.1E-01   stopping-criterion for IOM
   NSW    =      1    number of steps for IOM
   NBLOCK =      1;   KBLOCK =      1    inner block; outer block 
   IBRION =     -1    ionic relax: 0-MD 1-quasi-New 2-CG
   NFREE  =      0    steps in history (QN), initial steepest desc. (CG)
   ISIF   =      2    stress and relaxation
   IWAVPR =     10    prediction:  0-non 1-charg 2-wave 3-comb
   ISYM   =      2    0-nonsym 1-usesym 2-fastsym
   LCORR  =      T    Harris-Foulkes like correction to forces

   POTIM  = 1.0000    time-step for ionic-motion
   TEIN   =    0.0    initial temperature
   TEBEG  =    0.0;   TEEND  =   0.0 temperature during run
   SMASS  =  -3.00    Nose mass-parameter (am)
   estimated Nose-frequenzy (Omega)   =  0.10E-29 period in steps =****** mass=  -0.435E-26a.u.
   SCALEE = 1.0000    scale energy and forces
   NPACO  =    256;   APACO  = 16.0  distance and # of slots for P.C.
   PSTRESS=    0.0 pullay stress

  Mass of Ions in am
   POMASS =  44.96 35.45 12.01
  Ionic Valenz
   ZVAL   =  11.00  7.00  4.00
  Atomic Wigner-Seitz radii
   RWIGS  =  -1.00 -1.00 -1.00
  virtual crystal weights 
   VCA    =   1.00  1.00  1.00
   NELECT =     640.0000    total number of electrons
   NUPDOWN=      -1.0000    fix difference up-down

 DOS related values:
   EMIN   =  10.00;   EMAX   =-10.00  energy-range for DOS
   EFERMI =   0.00
   ISMEAR =     0;   SIGMA  =   0.05  broadening in eV -4-tet -1-fermi 0-gaus

 Electronic relaxation 2 (details)
   IALGO  =     38    algorithm
   LDIAG  =      T    sub-space diagonalisation (order eigenvalues)
   LSUBROT=      F    optimize rotation matrix (better conditioning)
   TURBO    =      0    0=normal 1=particle mesh
   IRESTART =      0    0=no restart 2=restart with 2 vectors
   NREBOOT  =      0    no. of reboots
   NMIN     =      0    reboot dimension
   EREF     =   0.00    reference energy to select bands
   IMIX   =      4    mixing-type and parameters
     AMIX     =   0.40;   BMIX     =  1.00
     AMIX_MAG =   1.60;   BMIX_MAG =  1.00
     AMIN     =   0.10
     WC   =   100.;   INIMIX=   1;  MIXPRE=   1;  MAXMIX= -45

 Intra band minimization:
   WEIMIN = 0.0000     energy-eigenvalue tresh-hold
   EBREAK =  0.65E-09  absolut break condition
   DEPER  =   0.30     relativ break condition  

   TIME   =   0.40     timestep for ELM

  volume/ion in A,a.u.               =      57.28       386.56
  Fermi-wavevector in a.u.,A,eV,Ry     =   0.849369  1.605075  9.815628  0.721428
  Thomas-Fermi vector in A             =   1.965179
 
 Write flags
   LWAVE        =      F    write WAVECAR
   LDOWNSAMPLE  =      F    k-point downsampling of WAVECAR
   LCHARG       =      F    write CHGCAR
   LVTOT        =      F    write LOCPOT, total local potential
   LVHAR        =      F    write LOCPOT, Hartree potential only
   LELF         =      F    write electronic localiz. function (ELF)
   LORBIT       =      0    0 simple, 1 ext, 2 COOP (PROOUT), +10 PAW based schemes


 Dipole corrections
   LMONO  =      F    monopole corrections only (constant potential shift)
   LDIPOL =      F    correct potential (dipole corrections)
   IDIPOL =      0    1-x, 2-y, 3-z, 4-all directions 
   EPSILON=  1.0000000 bulk dielectric constant

 Exchange correlation treatment:
   GGA     =    --    GGA type
   LEXCH   =     8    internal setting for exchange type
   VOSKOWN=      0    Vosko Wilk Nusair interpolation
   LHFCALC =     F    Hartree Fock is set to
   LHFONE  =     F    Hartree Fock one center treatment
   AEXX    =    0.0000 exact exchange contribution

 Linear response parameters
   LEPSILON=     F    determine dielectric tensor
   LRPA    =     F    only Hartree local field effects (RPA)
   LNABLA  =     F    use nabla operator in PAW spheres
   LVEL    =     F    velocity operator in full k-point grid
   LINTERFAST=   F  fast interpolation
   KINTER  =     0    interpolate to denser k-point grid
   CSHIFT  =0.1000    complex shift for real part using Kramers Kronig
   OMEGAMAX=  -1.0    maximum frequency
   DEG_THRESHOLD= 0.2000000E-02 threshold for treating states as degnerate
   RTIME   =   -0.100 relaxation time in fs
  (WPLASMAI=    0.000 imaginary part of plasma frequency in eV, 0.658/RTIME)
   DFIELD  = 0.0000000 0.0000000 0.0000000 field for delta impulse in time
 
 Orbital magnetization related:
   ORBITALMAG=     F  switch on orbital magnetization
   LCHIMAG   =     F  perturbation theory with respect to B field
   DQ        =  0.001000  dq finite difference perturbation B field
   LLRAUG    =     F  two centre corrections for induced B field



--------------------------------------------------------------------------------------------------------


 Static calculation
 charge density and potential will be updated during run
 non-spin polarized calculation
 Variant of blocked Davidson
 Davidson routine will perform the subspace rotation
 perform sub-space diagonalisation
    after iterative eigenvector-optimisation
 modified Broyden-mixing scheme, WC =      100.0
 initial mixing is a Kerker type mixing with AMIX =  0.4000 and BMIX =      1.0000
 Hartree-type preconditioning will be used
 using additional bands           64
 real space projection scheme for non local part
 use partial core corrections
 calculate Harris-corrections to forces 
   (improved forces if not selfconsistent)
 use gradient corrections 
 use of overlap-Matrix (Vanderbilt PP)
 Gauss-broadening in eV      SIGMA  =   0.05


--------------------------------------------------------------------------------------------------------


  energy-cutoff  :      600.00
  volume of cell :     4582.63
      direct lattice vectors                 reciprocal lattice vectors
    13.793986680  0.000000000  0.000000000     0.072495358  0.041855214  0.000000000
    -6.896993340 11.945942880  0.000000000     0.000000000  0.083710429  0.000000000
     0.000000000  0.000000000 27.810221070     0.000000000  0.000000000  0.035958003

  length of vectors
    13.793986680 13.793986676 27.810221070     0.083710429  0.083710429  0.035958003


 
 k-points in units of 2pi/SCALE and weight: read from INCAR                         
   0.00000000  0.00000000  0.00000000       0.111
   0.02416512  0.01395174  0.00000000       0.222
   0.00000000  0.02790348  0.00000000       0.222
   0.02416512  0.04185521  0.00000000       0.222
  -0.02416512  0.01395174  0.00000000       0.222
 
 k-points in reciprocal lattice and weights: read from INCAR                         
   0.00000000  0.00000000  0.00000000       0.111
   0.33333333 -0.00000000  0.00000000       0.222
   0.00000000  0.33333333  0.00000000       0.222
   0.33333333  0.33333333  0.00000000       0.222
  -0.33333333  0.33333333  0.00000000       0.222
 
 position of ions in fractional coordinates (direct lattice) 
   0.07623355  0.16027513  0.54308606
   0.08189133  0.41790429  0.54578636
   0.07491882  0.66871994  0.54095171
   0.08357056  0.91552812  0.54638416
   0.33362762  0.16405707  0.54730036
   0.33442120  0.41184837  0.54675810
   0.33872458  0.67826378  0.54463338
   0.33094946  0.92072885  0.54566369
   0.59024941  0.17402918  0.54195369
   0.57747946  0.41515036  0.54151069
   0.56938450  0.65216936  0.54674389
   0.57847607  0.91256565  0.54489554
   0.82982030  0.15955881  0.54266805
   0.83759111  0.41780895  0.53935942
   0.83458268  0.66689206  0.54468669
   0.82465459  0.90589586  0.54762117
   0.16318741  0.08162812  0.45570462
   0.16854642  0.34272280  0.45659573
   0.16700262  0.59008522  0.45523343
   0.15776726  0.83519045  0.45584992
   0.41328165  0.08083684  0.45477575
   0.41573905  0.33374823  0.45514453
   0.41907295  0.58269342  0.45928053
   0.42592966  0.83394044  0.45104914
   0.66519647  0.08121031  0.45074935
   0.66274129  0.32790947  0.45260482
   0.68231721  0.59301805  0.45599995
   0.67655785  0.83911892  0.45760922
   0.92469296  0.08647599  0.45605158
   0.91648458  0.33129072  0.45484017
   0.91128899  0.58106356  0.45532303
   0.91818730  0.83869958  0.45692168
   0.08444184  0.17240920  0.39817187
   0.07956604  0.42081428  0.39585581
   0.07290963  0.66708118  0.39958106
   0.07813173  0.91623910  0.39505117
   0.32547914  0.16116058  0.39745763
   0.32983628  0.41541683  0.39667965
   0.33553559  0.66509047  0.39345507
   0.33036049  0.91861760  0.39587653
   0.58181022  0.17083359  0.39339376
   0.58504355  0.42738084  0.39572363
   0.58889232  0.67359026  0.39695467
   0.59902750  0.91703538  0.39127310
   0.83306431  0.17079766  0.39400227
   0.83973748  0.42737046  0.39013737
   0.84906047  0.67306610  0.39640510
   0.83571590  0.92254364  0.39731743
   0.16451028  0.07313822  0.60895753
   0.16593629  0.32731065  0.60186987
   0.16589937  0.59156142  0.60187931
   0.16683054  0.83335080  0.60048422
   0.41635075  0.08132330  0.60854500
   0.42588089  0.34258276  0.60594334
   0.40408502  0.56804811  0.60588296
   0.42346840  0.83659681  0.60783194
   0.66603934  0.08433526  0.60763813
   0.65738101  0.32176194  0.60380624
   0.66422633  0.57002144  0.60723167
   0.66785196  0.82819553  0.60234984
   0.91486196  0.07857581  0.60476096
   0.92131153  0.32919363  0.60673767
   0.91677769  0.57739414  0.60201565
   0.91804269  0.83050226  0.60713466
   0.00642230  0.99597690  0.49969910
   0.99950309  0.24689454  0.49752336
   0.99532466  0.49976832  0.49794406
   0.00749531  0.75637898  0.49825851
   0.25137798  0.99725429  0.50164853
   0.25177157  0.25575643  0.49818714
   0.25384192  0.50142483  0.49985039
   0.25129435  0.75618227  0.50118398
   0.50729569  0.00267196  0.49784752
   0.49876076  0.25030701  0.49970460
   0.49585498  0.50021118  0.50249616
   0.50109810  0.76052123  0.49726556
   0.75908422  0.99248510  0.50148686
   0.74453344  0.24905618  0.50102931
   0.75265405  0.50207420  0.49914146
   0.75763566  0.74884829  0.49946701
 
 position of ions in cartesian coordinates  (Angst):
  -0.05385191  1.91463759 15.10334352
  -1.75267521  4.99226079 15.17843945
  -3.57872777  7.98849020 15.04398664
  -5.16162017 10.93684664 15.19506424
   3.47055440  1.95981638 15.22054388
   1.77248615  4.91991710 15.20546374
  -0.00561837  8.10250037 15.14637476
  -1.78514831 10.99897430 15.17502783
   6.94161439  2.07894265 15.07185203
   5.10245467  4.95936252 15.05953213
   3.35607451  7.79077790 15.20506851
   1.68553195 10.90145711 15.15366556
  10.34605408  1.90608044 15.09171833
   8.67209511  4.99112184 14.99970481
   6.91267223  7.96665448 15.14785724
   5.12731666 10.82178025 15.22946581
   1.68801634  0.97512490 12.67324623
  -0.03882980  4.09414694 12.69802828
  -1.76618191  7.04912430 12.66014223
  -3.58406353  9.97713743 12.67728699
   5.14327041  0.96567222 12.64741427
   3.43283958  3.98693730 12.65766996
   1.76185407  6.96082226 12.77269303
   0.12358645  9.96220483 12.54377639
   8.61560437  0.97013367 12.53543916
   6.88025512  3.91718781 12.58704021
   5.32183298  7.08415981 12.68145953
   3.54503241 10.02406670 12.72621360
  12.15877802  1.03303718 12.68289514
  10.35706613  3.95758002 12.64920570
   8.56271676  6.94135204 12.66263400
   6.88095795 10.01905731 12.70709298
  -0.02431551  2.05959045 11.07324781
  -1.80482034  5.02702334 11.00883748
  -3.59513995  7.96891370 11.11243766
  -5.24154690 10.94534001 10.98646026
   3.37813155  1.92521505 11.05338451
   1.68463008  4.96254574 11.03174873
   0.04124893  7.94513281 10.94207244
  -1.77871123 10.97375335 11.00941393
   6.84724425  2.04076828 10.94036754
   5.12244014  5.10546709 11.00516173
   3.47742535  8.04667073 11.03939717
   1.93819039 10.95485228 10.88139147
  10.31328765  2.04033910 10.95729021
   8.63575646  5.10534311 10.84980641
   7.06979637  8.04040923 11.02411344
   5.16507664 11.02065364 11.04948556
   1.76481884  0.87370497 16.93524367
   0.03146362  3.91003434 16.73813404
  -1.79158152  7.06675895 16.73839660
  -3.44635659  9.95516103 16.69959901
   5.18225040  0.97148345 16.92377111
   3.51180434  4.09247407 16.85141814
   1.65611933  6.78587023 16.84973915
   0.07131481  9.99393770 16.90394067
   8.60567807  1.00746415 16.89855082
   6.84871501  3.84374970 16.79198489
   5.23089505  6.80944354 16.88724703
   3.50028198  9.89357645 16.75148215
  12.07765685  0.93866217 16.81853596
  10.43811266  3.93252827 16.87350864
   8.66373569  6.89751742 16.74218838
   6.93550011  9.92113261 16.88454899
  -6.78065700 11.89788319 13.89674253
  12.08430222  2.94938812 13.83623459
  10.28259640  5.97020376 13.84793426
  -5.11335062  9.03566010 13.85667921
  -3.41055161 11.91314275 13.95095664
   1.70898330  3.05525175 13.85469459
   0.04316835  5.98999235 13.90094987
  -1.74903320  9.03331018 13.93803741
   6.97920146  0.03191904 13.84524948
   5.15353347  2.99015319 13.89689547
   3.38986386  5.97549413 13.97452939
   1.66683063  9.08514320 13.82906516
   3.62563442 11.85617036 13.94646043
   8.55234559  2.97521086 13.93373587
   6.91929747  5.99774977 13.88123429
   5.28601452  8.94569889 13.89028797
 


--------------------------------------------------------------------------------------------------------


 k-point  1 :   0.0000 0.0000 0.0000  plane waves:  153003
 k-point  2 :   0.3333-0.0000 0.0000  plane waves:  152954
 k-point  3 :   0.0000 0.3333 0.0000  plane waves:  152954
 k-point  4 :   0.3333 0.3333 0.0000  plane waves:  152898
 k-point  5 :  -0.3333 0.3333 0.0000  plane waves:  152954

 maximum and minimum number of plane-waves per node :     11814    11730

 maximum number of plane-waves:    153003
 maximum index in each direction: 
   IXMAX=   27   IYMAX=   27   IZMAX=   55
   IXMIN=  -27   IYMIN=  -27   IZMIN=  -55


 real space projection operators:
  total allocation   :      55027.94 KBytes
  max/ min on nodes  :       4464.77       3873.12


 parallel 3D FFT for wavefunctions:
    minimum data exchange during FFTs selected (reduces bandwidth)
 parallel 3D FFT for charge:
    minimum data exchange during FFTs selected (reduces bandwidth)


 total amount of memory used by VASP MPI-rank0   253933. kBytes
=======================================================================

   base      :      30000. kBytes
   nonlr-proj:      18749. kBytes
   fftplans  :      72602. kBytes
   grid      :      41267. kBytes
   one-center:        108. kBytes
   wavefun   :      91207. kBytes
 
     INWAV:  cpu time    0.0000: real time    0.0000
 Broyden mixing: mesh for mixing (old mesh)
   NGX = 55   NGY = 55   NGZ =111
  (NGX  =224   NGY  =224   NGZ  =448)
  gives a total of 335775 points

 initial charge density was supplied:
 charge density of overlapping atoms calculated
 number of electron     640.0000000 magnetization 
 keeping initial charge density in first step


--------------------------------------------------------------------------------------------------------


 Maximum index for non-local projection operator          949
 Maximum index for augmentation-charges         5080 (set IRDMAX)


--------------------------------------------------------------------------------------------------------


 First call to EWALD:  gamma=   0.107
 Maximum number of real-space cells 4x 4x 2
 Maximum number of reciprocal cells 2x 2x 4

    FEWALD:  cpu time    0.0029: real time    0.0029


--------------------------------------- Iteration      1(   1)  ---------------------------------------


    POTLOK:  cpu time    1.2041: real time    1.2150
    SETDIJ:  cpu time    1.1603: real time    1.1645
     EDDAV:  cpu time  148.8320: real time  148.8365
       DOS:  cpu time    0.0015: real time    0.0015
    --------------------------------------------
      LOOP:  cpu time  151.1979: real time  151.2176

 eigenvalue-minimisations  :  4432
 total energy-change (2. order) : 0.1218990E+05  (-0.2682300E+05)
 number of electron     640.0000000 magnetization 
 augmentation part      640.0000000 magnetization 

 Free energy of the ion-electron system (eV)
  ---------------------------------------------------
  alpha Z        PSCENC =       784.57699423
  Ewald energy   TEWEN  =    253025.61235297
  -Hartree energ DENC   =   -300677.23729832
  -exchange      EXHF   =         0.00000000
  -V(xc)+E(xc)   XCENC  =      2503.26176030
  PAW double counting   =     43679.68029659   -43417.33247688
  entropy T*S    EENTRO =        -0.07111116
  eigenvalues    EBANDS =        80.68613912
  atomic energy  EATOM  =     56210.72393729
  Solvation  Ediel_sol  =         0.00000000
  ---------------------------------------------------
  free energy    TOTEN  =     12189.90059413 eV

  energy without entropy =    12189.97170529  energy(sigma->0) =    12189.93614971


--------------------------------------------------------------------------------------------------------




--------------------------------------- Iteration      1(   2)  ---------------------------------------


     EDDAV:  cpu time  167.1804: real time  167.1963
       DOS:  cpu time    0.0019: real time    0.0019
    --------------------------------------------
      LOOP:  cpu time  167.1823: real time  167.1982

 eigenvalue-minimisations  :  5248
 total energy-change (2. order) :-0.1047262E+05  (-0.1021048E+05)
 number of electron     640.0000000 magnetization 
 augmentation part      640.0000000 magnetization 

 Free energy of the ion-electron system (eV)
  ---------------------------------------------------
  alpha Z        PSCENC =       784.57699423
  Ewald energy   TEWEN  =    253025.61235297
  -Hartree energ DENC   =   -300677.23729832
  -exchange      EXHF   =         0.00000000
  -V(xc)+E(xc)   XCENC  =      2503.26176030
  PAW double counting   =     43679.68029659   -43417.33247688
  entropy T*S    EENTRO =        -0.04775989
  eigenvalues    EBANDS =    -10391.95485490
  atomic energy  EATOM  =     56210.72393729
  Solvation  Ediel_sol  =         0.00000000
  ---------------------------------------------------
  free energy    TOTEN  =      1717.28295139 eV

  energy without entropy =     1717.33071128  energy(sigma->0) =     1717.30683133


--------------------------------------------------------------------------------------------------------




--------------------------------------- Iteration      1(   3)  ---------------------------------------


     EDDAV:  cpu time  207.5336: real time  207.5445
       DOS:  cpu time    0.0014: real time    0.0014
    --------------------------------------------
      LOOP:  cpu time  207.5350: real time  207.5459

 eigenvalue-minimisations  :  6800
 total energy-change (2. order) :-0.2131967E+04  (-0.2047773E+04)
 number of electron     640.0000000 magnetization 
 augmentation part      640.0000000 magnetization 

 Free energy of the ion-electron system (eV)
  ---------------------------------------------------
  alpha Z        PSCENC =       784.57699423
  Ewald energy   TEWEN  =    253025.61235297
  -Hartree energ DENC   =   -300677.23729832
  -exchange      EXHF   =         0.00000000
  -V(xc)+E(xc)   XCENC  =      2503.26176030
  PAW double counting   =     43679.68029659   -43417.33247688
  entropy T*S    EENTRO =        -0.00000306
  eigenvalues    EBANDS =    -12523.96968132
  atomic energy  EATOM  =     56210.72393729
  Solvation  Ediel_sol  =         0.00000000
  ---------------------------------------------------
  free energy    TOTEN  =      -414.68411820 eV

  energy without entropy =     -414.68411514  energy(sigma->0) =     -414.68411667


--------------------------------------------------------------------------------------------------------




--------------------------------------- Iteration      1(   4)  ---------------------------------------


     EDDAV:  cpu time  188.9554: real time  188.9663
       DOS:  cpu time    0.0011: real time    0.0011
    --------------------------------------------
      LOOP:  cpu time  188.9565: real time  188.9674

 eigenvalue-minimisations  :  6088
 total energy-change (2. order) :-0.2310783E+03  (-0.2267312E+03)
 number of electron     640.0000000 magnetization 
 augmentation part      640.0000000 magnetization 

 Free energy of the ion-electron system (eV)
  ---------------------------------------------------
  alpha Z        PSCENC =       784.57699423
  Ewald energy   TEWEN  =    253025.61235297
  -Hartree energ DENC   =   -300677.23729832
  -exchange      EXHF   =         0.00000000
  -V(xc)+E(xc)   XCENC  =      2503.26176030
  PAW double counting   =     43679.68029659   -43417.33247688
  entropy T*S    EENTRO =        -0.00000000
  eigenvalues    EBANDS =    -12755.04798418
  atomic energy  EATOM  =     56210.72393729
  Solvation  Ediel_sol  =         0.00000000
  ---------------------------------------------------
  free energy    TOTEN  =      -645.76241800 eV

  energy without entropy =     -645.76241800  energy(sigma->0) =     -645.76241800


--------------------------------------------------------------------------------------------------------




--------------------------------------- Iteration      1(   5)  ---------------------------------------


     EDDAV:  cpu time  188.7322: real time  188.7436
       DOS:  cpu time    0.0012: real time    0.0011
    CHARGE:  cpu time   13.1445: real time   13.1446
    MIXING:  cpu time    0.1996: real time    0.1997
    --------------------------------------------
      LOOP:  cpu time  202.0775: real time  202.0891

 eigenvalue-minimisations  :  6080
 total energy-change (2. order) :-0.1012644E+02  (-0.1007452E+02)
 number of electron     640.0000003 magnetization 
 augmentation part       59.2357131 magnetization 

 Broyden mixing:
  rms(total) = 0.69477E+01    rms(broyden)= 0.69476E+01
  rms(prec ) = 0.73108E+01
  weight for this iteration     100.00

 Free energy of the ion-electron system (eV)
  ---------------------------------------------------
  alpha Z        PSCENC =       784.57699423
  Ewald energy   TEWEN  =    253025.61235297
  -Hartree energ DENC   =   -300677.23729832
  -exchange      EXHF   =         0.00000000
  -V(xc)+E(xc)   XCENC  =      2503.26176030
  PAW double counting   =     43679.68029659   -43417.33247688
  entropy T*S    EENTRO =        -0.00000000
  eigenvalues    EBANDS =    -12765.17442003
  atomic energy  EATOM  =     56210.72393729
  Solvation  Ediel_sol  =         0.00000000
  ---------------------------------------------------
  free energy    TOTEN  =      -655.88885386 eV

  energy without entropy =     -655.88885386  energy(sigma->0) =     -655.88885386


--------------------------------------------------------------------------------------------------------




--------------------------------------- Iteration      1(   6)  ---------------------------------------


    POTLOK:  cpu time    1.1702: real time    1.1782
    SETDIJ:  cpu time    1.2083: real time    1.2083
     EDDAV:  cpu time  179.8014: real time  179.8038
       DOS:  cpu time    0.0010: real time    0.0010
    CHARGE:  cpu time   13.4067: real time   13.4068
    MIXING:  cpu time    0.1986: real time    0.1986
    --------------------------------------------
      LOOP:  cpu time  195.7864: real time  195.7967

 eigenvalue-minimisations  :  5832
 total energy-change (2. order) : 0.1306678E+03  (-0.6961940E+02)
 number of electron     640.0000004 magnetization 
 augmentation part       70.0449322 magnetization 

 Broyden mixing:
  rms(total) = 0.30090E+01    rms(broyden)= 0.30088E+01
  rms(prec ) = 0.30412E+01
  weight for this iteration     100.00

 eigenvalues of (default mixing * dielectric matrix)
  average eigenvalue GAMMA=   0.9554
  0.9554

 Free energy of the ion-electron system (eV)
  ---------------------------------------------------
  alpha Z        PSCENC =       784.57699423
  Ewald energy   TEWEN  =    253025.61235297
  -Hartree energ DENC   =   -300490.44564472
  -exchange      EXHF   =         0.00000000
  -V(xc)+E(xc)   XCENC  =      2492.77186056
  PAW double counting   =     49221.47319078   -49013.71848679
  entropy T*S    EENTRO =        -0.00000000
  eigenvalues    EBANDS =    -12756.21522280
  atomic energy  EATOM  =     56210.72393729
  Solvation  Ediel_sol  =         0.00000000
  ---------------------------------------------------
  free energy    TOTEN  =      -525.22101848 eV

  energy without entropy =     -525.22101848  energy(sigma->0) =     -525.22101848


--------------------------------------------------------------------------------------------------------




--------------------------------------- Iteration      1(   7)  ---------------------------------------


    POTLOK:  cpu time    1.1691: real time    1.1811
    SETDIJ:  cpu time    1.2110: real time    1.2110
     EDDAV:  cpu time  180.9942: real time  180.9954
       DOS:  cpu time    0.0010: real time    0.0010
    CHARGE:  cpu time   13.4139: real time   13.4140
    MIXING:  cpu time    0.2028: real time    0.2028
    --------------------------------------------
      LOOP:  cpu time  196.9921: real time  197.0053

 eigenvalue-minimisations  :  5888
 total energy-change (2. order) :-0.4868052E+01  (-0.8647907E+01)
 number of electron     640.0000004 magnetization 
 augmentation part       69.5293997 magnetization 

 Broyden mixing:
  rms(total) = 0.15190E+01    rms(broyden)= 0.15189E+01
  rms(prec ) = 0.15546E+01
  weight for this iteration     100.00

 eigenvalues of (default mixing * dielectric matrix)
  average eigenvalue GAMMA=   1.0058
  1.0058  1.0058

 Free energy of the ion-electron system (eV)
  ---------------------------------------------------
  alpha Z        PSCENC =       784.57699423
  Ewald energy   TEWEN  =    253025.61235297
  -Hartree energ DENC   =   -300589.89928943
  -exchange      EXHF   =         0.00000000
  -V(xc)+E(xc)   XCENC  =      2488.76897901
  PAW double counting   =     54228.31205433   -54035.01407188
  entropy T*S    EENTRO =        -0.00000000
  eigenvalues    EBANDS =    -12643.17002697
  atomic energy  EATOM  =     56210.72393729
  Solvation  Ediel_sol  =         0.00000000
  ---------------------------------------------------
  free energy    TOTEN  =      -530.08907045 eV

  energy without entropy =     -530.08907045  energy(sigma->0) =     -530.08907045


--------------------------------------------------------------------------------------------------------




--------------------------------------- Iteration      1(   8)  ---------------------------------------


    POTLOK:  cpu time    1.1706: real time    1.1843
    SETDIJ:  cpu time    1.2037: real time    1.2037
     EDDAV:  cpu time  184.9300: real time  184.9434
       DOS:  cpu time    0.0011: real time    0.0011
    CHARGE:  cpu time   13.3963: real time   13.3964
    MIXING:  cpu time    0.2071: real time    0.2071
    --------------------------------------------
      LOOP:  cpu time  200.9088: real time  200.9360

 eigenvalue-minimisations  :  6040
 total energy-change (2. order) : 0.2230086E+01  (-0.9527317E+00)
 number of electron     640.0000004 magnetization 
 augmentation part       69.2693740 magnetization 

 Broyden mixing:
  rms(total) = 0.92360E+00    rms(broyden)= 0.92359E+00
  rms(prec ) = 0.93944E+00
  weight for this iteration     100.00

 eigenvalues of (default mixing * dielectric matrix)
  average eigenvalue GAMMA=   1.4391
  2.5737  0.8717  0.8717

 Free energy of the ion-electron system (eV)
  ---------------------------------------------------
  alpha Z        PSCENC =       784.57699423
  Ewald energy   TEWEN  =    253025.61235297
  -Hartree energ DENC   =   -300661.44858425
  -exchange      EXHF   =         0.00000000
  -V(xc)+E(xc)   XCENC  =      2488.80308329
  PAW double counting   =     56177.90343589   -55995.32447580
  entropy T*S    EENTRO =        -0.00000000
  eigenvalues    EBANDS =    -12558.70572782
  atomic energy  EATOM  =     56210.72393729
  Solvation  Ediel_sol  =         0.00000000
  ---------------------------------------------------
  free energy    TOTEN  =      -527.85898420 eV

  energy without entropy =     -527.85898420  energy(sigma->0) =     -527.85898420


--------------------------------------------------------------------------------------------------------




--------------------------------------- Iteration      1(   9)  ---------------------------------------


    POTLOK:  cpu time    1.1740: real time    1.1822
    SETDIJ:  cpu time    1.2083: real time    1.2083
     EDDAV:  cpu time  168.9612: real time  168.9635
       DOS:  cpu time    0.0010: real time    0.0010
    CHARGE:  cpu time   13.4067: real time   13.4068
    MIXING:  cpu time    0.2044: real time    0.2044
    --------------------------------------------
      LOOP:  cpu time  184.9556: real time  184.9662

 eigenvalue-minimisations  :  5416
 total energy-change (2. order) : 0.5232853E+00  (-0.3673610E+00)
 number of electron     640.0000004 magnetization 
 augmentation part       69.9957024 magnetization 

 Broyden mixing:
  rms(total) = 0.30512E+00    rms(broyden)= 0.30511E+00
  rms(prec ) = 0.31761E+00
  weight for this iteration     100.00

 eigenvalues of (default mixing * dielectric matrix)
  average eigenvalue GAMMA=   1.2276
  2.1187  0.8715  0.8715  1.0486

 Free energy of the ion-electron system (eV)
  ---------------------------------------------------
  alpha Z        PSCENC =       784.57699423
  Ewald energy   TEWEN  =    253025.61235297
  -Hartree energ DENC   =   -300792.92956326
  -exchange      EXHF   =         0.00000000
  -V(xc)+E(xc)   XCENC  =      2488.29097653
  PAW double counting   =     59990.19804756   -59824.84346015
  entropy T*S    EENTRO =        -0.00000000
  eigenvalues    EBANDS =    -12408.96498402
  atomic energy  EATOM  =     56210.72393729
  Solvation  Ediel_sol  =         0.00000000
  ---------------------------------------------------
  free energy    TOTEN  =      -527.33569886 eV

  energy without entropy =     -527.33569886  energy(sigma->0) =     -527.33569886


--------------------------------------------------------------------------------------------------------




--------------------------------------- Iteration      1(  10)  ---------------------------------------


    POTLOK:  cpu time    1.1695: real time    1.1781
    SETDIJ:  cpu time    1.2086: real time    1.2086
     EDDAV:  cpu time  175.0020: real time  175.0031
       DOS:  cpu time    0.0007: real time    0.0007
    CHARGE:  cpu time   13.3869: real time   13.3870
    MIXING:  cpu time    0.2075: real time    0.2075
    --------------------------------------------
      LOOP:  cpu time  190.9753: real time  190.9849

 eigenvalue-minimisations  :  5648
 total energy-change (2. order) : 0.1277793E+00  (-0.6003266E-01)
 number of electron     640.0000004 magnetization 
 augmentation part       69.7883248 magnetization 

 Broyden mixing:
  rms(total) = 0.17049E+00    rms(broyden)= 0.17049E+00
  rms(prec ) = 0.17711E+00
  weight for this iteration     100.00

 eigenvalues of (default mixing * dielectric matrix)
  average eigenvalue GAMMA=   1.2428
  1.8772  1.8772  0.9027  0.9027  0.6539

 Free energy of the ion-electron system (eV)
  ---------------------------------------------------
  alpha Z        PSCENC =       784.57699423
  Ewald energy   TEWEN  =    253025.61235297
  -Hartree energ DENC   =   -300818.96290877
  -exchange      EXHF   =         0.00000000
  -V(xc)+E(xc)   XCENC  =      2488.93627781
  PAW double counting   =     59364.01452813   -59195.91120380
  entropy T*S    EENTRO =        -0.00000000
  eigenvalues    EBANDS =    -12386.19789736
  atomic energy  EATOM  =     56210.72393729
  Solvation  Ediel_sol  =         0.00000000
  ---------------------------------------------------
  free energy    TOTEN  =      -527.20791951 eV

  energy without entropy =     -527.20791951  energy(sigma->0) =     -527.20791951


--------------------------------------------------------------------------------------------------------




--------------------------------------- Iteration      1(  11)  ---------------------------------------


    POTLOK:  cpu time    1.1714: real time    1.1796
    SETDIJ:  cpu time    1.2096: real time    1.2096
     EDDAV:  cpu time  174.7691: real time  174.7789
       DOS:  cpu time    0.0007: real time    0.0007
    CHARGE:  cpu time   13.4245: real time   13.4247
    MIXING:  cpu time    0.2036: real time    0.2036
    --------------------------------------------
      LOOP:  cpu time  190.7789: real time  190.7971

 eigenvalue-minimisations  :  5648
 total energy-change (2. order) : 0.2021882E-01  (-0.1983019E-01)
 number of electron     640.0000004 magnetization 
 augmentation part       69.7170234 magnetization 

 Broyden mixing:
  rms(total) = 0.76732E-01    rms(broyden)= 0.76730E-01
  rms(prec ) = 0.82847E-01
  weight for this iteration     100.00

 eigenvalues of (default mixing * dielectric matrix)
  average eigenvalue GAMMA=   1.2689
  2.4602  1.7389  0.8886  0.8886  0.8186  0.8186

 Free energy of the ion-electron system (eV)
  ---------------------------------------------------
  alpha Z        PSCENC =       784.57699423
  Ewald energy   TEWEN  =    253025.61235297
  -Hartree energ DENC   =   -300871.69616588
  -exchange      EXHF   =         0.00000000
  -V(xc)+E(xc)   XCENC  =      2489.56019608
  PAW double counting   =     59489.88460493   -59321.99673505
  entropy T*S    EENTRO =        -0.00000000
  eigenvalues    EBANDS =    -12333.85288526
  atomic energy  EATOM  =     56210.72393729
  Solvation  Ediel_sol  =         0.00000000
  ---------------------------------------------------
  free energy    TOTEN  =      -527.18770069 eV

  energy without entropy =     -527.18770069  energy(sigma->0) =     -527.18770069


--------------------------------------------------------------------------------------------------------




--------------------------------------- Iteration      1(  12)  ---------------------------------------


    POTLOK:  cpu time    1.1723: real time    1.1872
    SETDIJ:  cpu time    1.2026: real time    1.2056
     EDDAV:  cpu time  183.2989: real time  183.3009
       DOS:  cpu time    0.0009: real time    0.0008
    CHARGE:  cpu time   13.4875: real time   13.4877
    MIXING:  cpu time    0.2096: real time    0.2096
    --------------------------------------------
      LOOP:  cpu time  199.3718: real time  199.3919

 eigenvalue-minimisations  :  5984
 total energy-change (2. order) : 0.1417389E-01  (-0.3462943E-02)
 number of electron     640.0000004 magnetization 
 augmentation part       69.7313807 magnetization 

 Broyden mixing:
  rms(total) = 0.29623E-01    rms(broyden)= 0.29623E-01
  rms(prec ) = 0.36746E-01
  weight for this iteration     100.00

 eigenvalues of (default mixing * dielectric matrix)
  average eigenvalue GAMMA=   1.2710
  2.2304  2.2304  0.9370  0.9370  0.9229  0.9229  0.7169

 Free energy of the ion-electron system (eV)
  ---------------------------------------------------
  alpha Z        PSCENC =       784.57699423
  Ewald energy   TEWEN  =    253025.61235297
  -Hartree energ DENC   =   -300902.80967548
  -exchange      EXHF   =         0.00000000
  -V(xc)+E(xc)   XCENC  =      2489.88340105
  PAW double counting   =     59611.07793736   -59443.56502261
  entropy T*S    EENTRO =        -0.00000000
  eigenvalues    EBANDS =    -12302.67345161
  atomic energy  EATOM  =     56210.72393729
  Solvation  Ediel_sol  =         0.00000000
  ---------------------------------------------------
  free energy    TOTEN  =      -527.17352680 eV

  energy without entropy =     -527.17352680  energy(sigma->0) =     -527.17352680


--------------------------------------------------------------------------------------------------------




--------------------------------------- Iteration      1(  13)  ---------------------------------------


    POTLOK:  cpu time    1.1735: real time    1.1820
    SETDIJ:  cpu time    1.2072: real time    1.2072
     EDDAV:  cpu time  167.3516: real time  167.3593
       DOS:  cpu time    0.0008: real time    0.0008
    CHARGE:  cpu time   13.4145: real time   13.4147
    MIXING:  cpu time    0.2052: real time    0.2052
    --------------------------------------------
      LOOP:  cpu time  183.3529: real time  183.3693

 eigenvalue-minimisations  :  5360
 total energy-change (2. order) : 0.3222812E-02  (-0.8841209E-03)
 number of electron     640.0000004 magnetization 
 augmentation part       69.7386598 magnetization 

 Broyden mixing:
  rms(total) = 0.17721E-01    rms(broyden)= 0.17721E-01
  rms(prec ) = 0.24531E-01
  weight for this iteration     100.00

 eigenvalues of (default mixing * dielectric matrix)
  average eigenvalue GAMMA=   1.3378
  2.8296  1.9275  1.6853  0.9037  0.9037  0.8885  0.8885  0.6758

 Free energy of the ion-electron system (eV)
  ---------------------------------------------------
  alpha Z        PSCENC =       784.57699423
  Ewald energy   TEWEN  =    253025.61235297
  -Hartree energ DENC   =   -300924.94311895
  -exchange      EXHF   =         0.00000000
  -V(xc)+E(xc)   XCENC  =      2490.07409030
  PAW double counting   =     59578.97018827   -59411.32395354
  entropy T*S    EENTRO =        -0.00000000
  eigenvalues    EBANDS =    -12280.86079456
  atomic energy  EATOM  =     56210.72393729
  Solvation  Ediel_sol  =         0.00000000
  ---------------------------------------------------
  free energy    TOTEN  =      -527.17030399 eV

  energy without entropy =     -527.17030399  energy(sigma->0) =     -527.17030399


--------------------------------------------------------------------------------------------------------




--------------------------------------- Iteration      1(  14)  ---------------------------------------


    POTLOK:  cpu time    1.1744: real time    1.1828
    SETDIJ:  cpu time    1.2076: real time    1.2076
     EDDAV:  cpu time  162.5900: real time  162.5974
       DOS:  cpu time    0.0008: real time    0.0008
    CHARGE:  cpu time   13.2097: real time   13.2099
    MIXING:  cpu time    0.2122: real time    0.2122
    --------------------------------------------
      LOOP:  cpu time  178.3948: real time  178.4107

 eigenvalue-minimisations  :  5200
 total energy-change (2. order) : 0.1737072E-02  (-0.6921438E-03)
 number of electron     640.0000004 magnetization 
 augmentation part       69.7484380 magnetization 

 Broyden mixing:
  rms(total) = 0.17417E-01    rms(broyden)= 0.17417E-01
  rms(prec ) = 0.20781E-01
  weight for this iteration     100.00

 eigenvalues of (default mixing * dielectric matrix)
  average eigenvalue GAMMA=   1.3321
  2.6150  2.6150  1.6805  0.9422  0.9422  0.8905  0.8905  0.7063  0.7063

 Free energy of the ion-electron system (eV)
  ---------------------------------------------------
  alpha Z        PSCENC =       784.57699423
  Ewald energy   TEWEN  =    253025.61235297
  -Hartree energ DENC   =   -300953.52910738
  -exchange      EXHF   =         0.00000000
  -V(xc)+E(xc)   XCENC  =      2490.25251904
  PAW double counting   =     59582.14094637   -59414.51720315
  entropy T*S    EENTRO =        -0.00000000
  eigenvalues    EBANDS =    -12252.42900628
  atomic energy  EATOM  =     56210.72393729
  Solvation  Ediel_sol  =         0.00000000
  ---------------------------------------------------
  free energy    TOTEN  =      -527.16856692 eV

  energy without entropy =     -527.16856692  energy(sigma->0) =     -527.16856692


--------------------------------------------------------------------------------------------------------




--------------------------------------- Iteration      1(  15)  ---------------------------------------


    POTLOK:  cpu time    1.1725: real time    1.1805
    SETDIJ:  cpu time    1.2080: real time    1.2080
     EDDAV:  cpu time  171.5775: real time  171.5805
       DOS:  cpu time    0.0008: real time    0.0008
    CHARGE:  cpu time   13.2299: real time   13.2300
    MIXING:  cpu time    0.2090: real time    0.2090
    --------------------------------------------
      LOOP:  cpu time  187.3976: real time  187.4088

 eigenvalue-minimisations  :  5600
 total energy-change (2. order) :-0.1569935E-02  (-0.1680130E-03)
 number of electron     640.0000004 magnetization 
 augmentation part       69.7490972 magnetization 

 Broyden mixing:
  rms(total) = 0.10003E-01    rms(broyden)= 0.10003E-01
  rms(prec ) = 0.13014E-01
  weight for this iteration     100.00

 eigenvalues of (default mixing * dielectric matrix)
  average eigenvalue GAMMA=   1.3509
  2.9358  2.6458  1.4419  1.2218  0.9886  0.9886  0.8621  0.8621  0.9067  0.6553

 Free energy of the ion-electron system (eV)
  ---------------------------------------------------
  alpha Z        PSCENC =       784.57699423
  Ewald energy   TEWEN  =    253025.61235297
  -Hartree energ DENC   =   -300968.19112351
  -exchange      EXHF   =         0.00000000
  -V(xc)+E(xc)   XCENC  =      2490.31639211
  PAW double counting   =     59547.30459636   -59379.56644029
  entropy T*S    EENTRO =        -0.00000000
  eigenvalues    EBANDS =    -12237.94684601
  atomic energy  EATOM  =     56210.72393729
  Solvation  Ediel_sol  =         0.00000000
  ---------------------------------------------------
  free energy    TOTEN  =      -527.17013685 eV

  energy without entropy =     -527.17013685  energy(sigma->0) =     -527.17013685


--------------------------------------------------------------------------------------------------------




--------------------------------------- Iteration      1(  16)  ---------------------------------------


    POTLOK:  cpu time    1.1675: real time    1.1754
    SETDIJ:  cpu time    1.2039: real time    1.2039
     EDDAV:  cpu time  174.2053: real time  174.2082
       DOS:  cpu time    0.0009: real time    0.0009
    CHARGE:  cpu time   13.0411: real time   13.0411
    MIXING:  cpu time    0.2106: real time    0.2106
    --------------------------------------------
      LOOP:  cpu time  189.8292: real time  189.8401

 eigenvalue-minimisations  :  5768
 total energy-change (2. order) :-0.2340824E-02  (-0.1074228E-03)
 number of electron     640.0000004 magnetization 
 augmentation part       69.7484162 magnetization 

 Broyden mixing:
  rms(total) = 0.56471E-02    rms(broyden)= 0.56470E-02
  rms(prec ) = 0.79481E-02
  weight for this iteration     100.00

 eigenvalues of (default mixing * dielectric matrix)
  average eigenvalue GAMMA=   1.4384
  3.6266  2.5064  2.2674  1.3315  0.9980  0.9612  0.9612  0.8739  0.8739  0.6668
  0.7557

 Free energy of the ion-electron system (eV)
  ---------------------------------------------------
  alpha Z        PSCENC =       784.57699423
  Ewald energy   TEWEN  =    253025.61235297
  -Hartree energ DENC   =   -300981.84665818
  -exchange      EXHF   =         0.00000000
  -V(xc)+E(xc)   XCENC  =      2490.37686014
  PAW double counting   =     59537.48755332   -59369.75226471
  entropy T*S    EENTRO =        -0.00000000
  eigenvalues    EBANDS =    -12224.35125274
  atomic energy  EATOM  =     56210.72393729
  Solvation  Ediel_sol  =         0.00000000
  ---------------------------------------------------
  free energy    TOTEN  =      -527.17247768 eV

  energy without entropy =     -527.17247768  energy(sigma->0) =     -527.17247768


--------------------------------------------------------------------------------------------------------




--------------------------------------- Iteration      1(  17)  ---------------------------------------


    POTLOK:  cpu time    1.1699: real time    1.1790
    SETDIJ:  cpu time    1.2061: real time    1.2061
     EDDAV:  cpu time  152.6348: real time  152.6358
       DOS:  cpu time    0.0009: real time    0.0009
    CHARGE:  cpu time   13.0374: real time   13.0375
    MIXING:  cpu time    0.2187: real time    0.2187
    --------------------------------------------
      LOOP:  cpu time  168.2679: real time  168.2780

 eigenvalue-minimisations  :  4904
 total energy-change (2. order) :-0.3903380E-02  (-0.7131523E-04)
 number of electron     640.0000004 magnetization 
 augmentation part       69.7475352 magnetization 

 Broyden mixing:
  rms(total) = 0.30864E-02    rms(broyden)= 0.30863E-02
  rms(prec ) = 0.43876E-02
  weight for this iteration     100.00

 eigenvalues of (default mixing * dielectric matrix)
  average eigenvalue GAMMA=   1.4737
  4.3069  2.6922  2.3390  1.4011  0.9629  0.9629  1.0082  0.8825  0.8825  0.7962
  0.7962  0.6537

 Free energy of the ion-electron system (eV)
  ---------------------------------------------------
  alpha Z        PSCENC =       784.57699423
  Ewald energy   TEWEN  =    253025.61235297
  -Hartree energ DENC   =   -300996.44468873
  -exchange      EXHF   =         0.00000000
  -V(xc)+E(xc)   XCENC  =      2490.42066654
  PAW double counting   =     59533.10731603   -59365.40739015
  entropy T*S    EENTRO =        -0.00000000
  eigenvalues    EBANDS =    -12209.76556924
  atomic energy  EATOM  =     56210.72393729
  Solvation  Ediel_sol  =         0.00000000
  ---------------------------------------------------
  free energy    TOTEN  =      -527.17638106 eV

  energy without entropy =     -527.17638106  energy(sigma->0) =     -527.17638106


--------------------------------------------------------------------------------------------------------




--------------------------------------- Iteration      1(  18)  ---------------------------------------


    POTLOK:  cpu time    1.1713: real time    1.1811
    SETDIJ:  cpu time    1.2044: real time    1.2044
     EDDAV:  cpu time  157.6904: real time  157.6916
       DOS:  cpu time    0.0009: real time    0.0009
    CHARGE:  cpu time   13.0451: real time   13.0451
    MIXING:  cpu time    0.2126: real time    0.2126
    --------------------------------------------
      LOOP:  cpu time  173.3247: real time  173.3356

 eigenvalue-minimisations  :  5104
 total energy-change (2. order) :-0.1750463E-02  (-0.2176198E-04)
 number of electron     640.0000004 magnetization 
 augmentation part       69.7481036 magnetization 

 Broyden mixing:
  rms(total) = 0.23324E-02    rms(broyden)= 0.23324E-02
  rms(prec ) = 0.31065E-02
  weight for this iteration     100.00

 eigenvalues of (default mixing * dielectric matrix)
  average eigenvalue GAMMA=   1.4795
  4.6030  2.6843  2.2371  1.6183  1.1343  1.1343  0.9124  0.9124  0.8739  0.8739
  0.8703  0.6741  0.7045

 Free energy of the ion-electron system (eV)
  ---------------------------------------------------
  alpha Z        PSCENC =       784.57699423
  Ewald energy   TEWEN  =    253025.61235297
  -Hartree energ DENC   =   -301002.89150873
  -exchange      EXHF   =         0.00000000
  -V(xc)+E(xc)   XCENC  =      2490.43868762
  PAW double counting   =     59530.59770484   -59362.90466720
  entropy T*S    EENTRO =        -0.00000000
  eigenvalues    EBANDS =    -12203.33163253
  atomic energy  EATOM  =     56210.72393729
  Solvation  Ediel_sol  =         0.00000000
  ---------------------------------------------------
  free energy    TOTEN  =      -527.17813152 eV

  energy without entropy =     -527.17813152  energy(sigma->0) =     -527.17813152


--------------------------------------------------------------------------------------------------------




--------------------------------------- Iteration      1(  19)  ---------------------------------------


    POTLOK:  cpu time    1.1721: real time    1.1862
    SETDIJ:  cpu time    1.2042: real time    1.2042
     EDDAV:  cpu time  154.5835: real time  154.5892
       DOS:  cpu time    0.0008: real time    0.0008
    CHARGE:  cpu time   13.0823: real time   13.0824
    MIXING:  cpu time    0.2187: real time    0.2187
    --------------------------------------------
      LOOP:  cpu time  170.2616: real time  170.2815

 eigenvalue-minimisations  :  4976
 total energy-change (2. order) :-0.1143556E-02  (-0.9018550E-05)
 number of electron     640.0000004 magnetization 
 augmentation part       69.7479444 magnetization 

 Broyden mixing:
  rms(total) = 0.16408E-02    rms(broyden)= 0.16407E-02
  rms(prec ) = 0.22305E-02
  weight for this iteration     100.00

 eigenvalues of (default mixing * dielectric matrix)
  average eigenvalue GAMMA=   1.5535
  5.2107  2.9917  2.1965  2.1965  1.2074  1.2074  0.9746  0.9746  0.8853  0.8853
  0.8340  0.8340  0.7000  0.6510

 Free energy of the ion-electron system (eV)
  ---------------------------------------------------
  alpha Z        PSCENC =       784.57699423
  Ewald energy   TEWEN  =    253025.61235297
  -Hartree energ DENC   =   -301006.02965413
  -exchange      EXHF   =         0.00000000
  -V(xc)+E(xc)   XCENC  =      2490.44788056
  PAW double counting   =     59530.11202618   -59362.41756120
  entropy T*S    EENTRO =        -0.00000000
  eigenvalues    EBANDS =    -12200.20525098
  atomic energy  EATOM  =     56210.72393729
  Solvation  Ediel_sol  =         0.00000000
  ---------------------------------------------------
  free energy    TOTEN  =      -527.17927508 eV

  energy without entropy =     -527.17927508  energy(sigma->0) =     -527.17927508


--------------------------------------------------------------------------------------------------------




--------------------------------------- Iteration      1(  20)  ---------------------------------------


    POTLOK:  cpu time    1.1752: real time    1.1838
    SETDIJ:  cpu time    1.2044: real time    1.2047
     EDDAV:  cpu time  138.0128: real time  138.0151
       DOS:  cpu time    0.0007: real time    0.0007
    CHARGE:  cpu time   13.1059: real time   13.1060
    MIXING:  cpu time    0.2183: real time    0.2182
    --------------------------------------------
      LOOP:  cpu time  153.7171: real time  153.7284

 eigenvalue-minimisations  :  4312
 total energy-change (2. order) :-0.1165296E-02  (-0.3845863E-05)
 number of electron     640.0000004 magnetization 
 augmentation part       69.7477049 magnetization 

 Broyden mixing:
  rms(total) = 0.11767E-02    rms(broyden)= 0.11766E-02
  rms(prec ) = 0.14890E-02
  weight for this iteration     100.00

 eigenvalues of (default mixing * dielectric matrix)
  average eigenvalue GAMMA=   1.5766
  5.9966  3.0556  2.3990  2.0490  1.2748  1.0663  1.0663  0.9805  0.9805  0.8710
  0.8710  0.9132  0.7598  0.7167  0.6493

 Free energy of the ion-electron system (eV)
  ---------------------------------------------------
  alpha Z        PSCENC =       784.57699423
  Ewald energy   TEWEN  =    253025.61235297
  -Hartree energ DENC   =   -301009.21165144
  -exchange      EXHF   =         0.00000000
  -V(xc)+E(xc)   XCENC  =      2490.45221214
  PAW double counting   =     59529.86652755   -59362.17377976
  entropy T*S    EENTRO =        -0.00000000
  eigenvalues    EBANDS =    -12197.02703335
  atomic energy  EATOM  =     56210.72393729
  Solvation  Ediel_sol  =         0.00000000
  ---------------------------------------------------
  free energy    TOTEN  =      -527.18044037 eV

  energy without entropy =     -527.18044037  energy(sigma->0) =     -527.18044037


--------------------------------------------------------------------------------------------------------




--------------------------------------- Iteration      1(  21)  ---------------------------------------


    POTLOK:  cpu time    1.1858: real time    1.1947
    SETDIJ:  cpu time    1.1821: real time    1.1821
     EDDAV:  cpu time  132.9279: real time  132.9306
       DOS:  cpu time    0.0006: real time    0.0006
    CHARGE:  cpu time   13.2361: real time   13.2362
    MIXING:  cpu time    0.2169: real time    0.2169
    --------------------------------------------
      LOOP:  cpu time  148.7494: real time  148.7611

 eigenvalue-minimisations  :  4088
 total energy-change (2. order) :-0.4310858E-03  (-0.1851386E-05)
 number of electron     640.0000004 magnetization 
 augmentation part       69.7478653 magnetization 

 Broyden mixing:
  rms(total) = 0.84158E-03    rms(broyden)= 0.84144E-03
  rms(prec ) = 0.10792E-02
  weight for this iteration     100.00

 eigenvalues of (default mixing * dielectric matrix)
  average eigenvalue GAMMA=   1.5744
  6.3931  2.9985  2.4657  1.7424  1.5839  1.2140  1.2140  0.9967  0.9967  0.8771
  0.8771  0.8660  0.8275  0.8275  0.6726  0.6373

 Free energy of the ion-electron system (eV)
  ---------------------------------------------------
  alpha Z        PSCENC =       784.57699423
  Ewald energy   TEWEN  =    253025.61235297
  -Hartree energ DENC   =   -301010.57919379
  -exchange      EXHF   =         0.00000000
  -V(xc)+E(xc)   XCENC  =      2490.45296082
[...]
    -6.896993340 11.945942880  0.000000000     0.000000000  0.083710429  0.000000000
     0.000000000  0.000000000 27.810221070     0.000000000  0.000000000  0.035958003

  length of vectors
    13.793986680 13.793986676 27.810221070     0.083710429  0.083710429  0.035958003


 FORCES acting on ions
    electron-ion (+dipol)            ewald-force                    non-local-force                 convergence-correction
 -----------------------------------------------------------------------------------------------
   -.187E+02 -.233E+02 -.107E+04   0.193E+02 0.237E+02 0.106E+04   0.179E+00 0.309E-01 0.450E+01   -.116E-04 -.345E-04 0.408E-06
   -.790E+01 -.879E+01 -.110E+04   0.804E+01 0.909E+01 0.110E+04   0.646E-01 -.534E-01 0.368E+01   -.291E-04 0.503E-04 -.375E-04
   -.582E+02 0.304E+02 -.102E+04   0.593E+02 -.300E+02 0.102E+04   0.136E+00 -.337E+00 0.428E+01   -.538E-04 -.118E-04 -.147E-04
   0.158E+02 -.280E+02 -.113E+04   -.158E+02 0.286E+02 0.112E+04   -.262E+00 -.281E+00 0.413E+01   0.422E-04 -.450E-04 -.236E-04
   0.115E+02 -.176E+02 -.112E+04   -.112E+02 0.172E+02 0.112E+04   -.403E+00 0.522E+00 0.418E+01   0.612E-04 0.159E-05 -.549E-04
   0.405E+02 0.179E+02 -.111E+04   -.413E+02 -.183E+02 0.110E+04   -.183E-01 0.173E+00 0.402E+01   0.181E-04 0.566E-04 0.342E-04
   0.674E+01 0.224E+02 -.107E+04   -.848E+01 -.227E+02 0.107E+04   0.935E+00 -.368E+00 0.462E+01   0.144E-04 -.268E-04 -.314E-04
   -.761E+02 -.482E+01 -.108E+04   0.757E+02 0.429E+01 0.107E+04   0.109E+01 0.239E+00 0.446E+01   -.715E-04 -.106E-04 0.329E-05
   0.356E+01 0.475E+02 -.102E+04   -.332E+01 -.476E+02 0.102E+04   -.586E+00 -.993E+00 0.405E+01   -.562E-04 0.772E-04 -.513E-05
   -.437E+02 0.183E+01 -.996E+03   0.443E+02 -.196E+01 0.993E+03   0.382E+00 0.743E-01 0.381E+01   0.611E-05 -.580E-04 -.227E-04
   -.903E+01 -.490E+02 -.112E+04   0.977E+01 0.483E+02 0.111E+04   0.842E-01 0.136E+01 0.394E+01   -.197E-04 -.102E-05 -.165E-04
   0.541E+01 -.361E+02 -.108E+04   -.597E+01 0.367E+02 0.108E+04   0.701E+00 0.280E+00 0.446E+01   0.872E-04 -.541E-05 -.189E-04
   0.260E+02 -.166E+02 -.104E+04   -.259E+02 0.163E+02 0.104E+04   -.172E+00 0.482E+00 0.392E+01   -.156E-04 -.627E-04 -.442E-04
   0.740E+01 0.452E+02 -.102E+04   -.797E+01 -.453E+02 0.102E+04   -.737E-01 -.473E+00 0.490E+01   0.217E-04 0.504E-04 0.691E-05
   0.225E+02 0.202E+02 -.112E+04   -.229E+02 -.204E+02 0.112E+04   0.263E+00 -.598E-01 0.441E+01   0.603E-04 -.153E-04 -.913E-05
   -.794E+01 -.168E+02 -.115E+04   0.804E+01 0.173E+02 0.115E+04   0.682E+00 0.289E+00 0.408E+01   -.532E-04 0.407E-04 -.249E-04
   -.301E+02 -.396E+02 0.106E+04   0.302E+02 0.401E+02 -.106E+04   0.157E+00 -.132E+00 -.422E+01   -.133E-05 -.385E-04 -.569E-05
   0.197E+01 -.116E+02 0.105E+04   -.107E+01 0.115E+02 -.104E+04   -.442E+00 -.321E+00 -.432E+01   -.342E-04 0.223E-04 -.497E-04
   -.491E+02 -.498E+01 0.107E+04   0.494E+02 0.517E+01 -.106E+04   0.174E+00 -.180E+00 -.426E+01   -.485E-04 -.286E-04 0.386E-04
   -.849E+02 -.226E+02 0.109E+04   0.860E+02 0.226E+02 -.109E+04   0.261E+00 0.310E+00 -.472E+01   -.697E-04 -.423E-04 0.647E-05
   -.205E+02 -.609E+00 0.107E+04   0.205E+02 0.140E+00 -.107E+04   0.137E+00 0.358E+00 -.427E+01   -.578E-04 0.738E-04 0.495E-04
   -.112E+02 -.951E+00 0.110E+04   0.103E+02 0.317E+00 -.110E+04   0.491E+00 0.284E+00 -.445E+01   0.845E-04 -.114E-04 0.251E-04
   0.608E+01 -.175E+02 0.102E+04   -.701E+01 0.172E+02 -.102E+04   0.343E+00 0.355E+00 -.453E+01   0.100E-05 0.945E-05 0.402E-04
   0.395E+02 -.640E+01 0.117E+04   -.400E+02 0.644E+01 -.117E+04   -.418E+00 0.274E+00 -.451E+01   0.847E-05 -.438E-04 0.331E-04
   -.261E+01 0.390E+01 0.114E+04   0.152E+01 -.403E+01 -.113E+04   0.845E+00 0.972E-01 -.389E+01   0.649E-04 0.110E-04 0.458E-04
   0.443E+01 -.959E+01 0.114E+04   -.462E+01 0.101E+02 -.114E+04   0.119E+00 0.386E+00 -.424E+01   -.368E-04 -.313E-05 0.520E-04
   0.673E+02 0.348E+02 0.108E+04   -.672E+02 -.347E+02 -.107E+04   -.102E+01 -.621E+00 -.413E+01   0.261E-04 -.752E-05 0.102E-04
   0.385E+02 0.343E+02 0.101E+04   -.387E+02 -.345E+02 -.101E+04   -.196E+00 -.555E+00 -.407E+01   0.134E-04 0.672E-04 0.501E-04
   0.352E+02 -.877E+01 0.106E+04   -.355E+02 0.861E+01 -.106E+04   -.375E+00 -.317E+00 -.416E+01   -.152E-04 -.468E-04 0.754E-05
   0.958E+01 0.109E+02 0.107E+04   -.930E+01 -.105E+02 -.107E+04   -.362E+00 -.121E+00 -.395E+01   -.821E-05 0.491E-04 0.142E-04
   -.508E+01 0.350E+02 0.107E+04   0.543E+01 -.356E+02 -.106E+04   0.511E-01 0.469E+00 -.356E+01   0.364E-04 0.495E-04 0.877E-05
   0.211E+02 -.348E+00 0.105E+04   -.202E+02 0.421E+00 -.105E+04   -.485E+00 -.323E+00 -.447E+01   0.430E-04 -.215E-04 -.376E-04
   -.861E+01 -.189E+02 0.145E+04   0.860E+01 0.190E+02 -.145E+04   0.181E+00 -.139E+00 0.156E+01   0.475E-05 -.103E-04 -.461E-05
   -.161E+02 -.753E+01 0.145E+04   0.160E+02 0.750E+01 -.145E+04   0.300E+00 0.630E-01 0.205E+01   -.103E-04 0.165E-05 0.242E-04
   -.428E+02 -.655E+01 0.144E+04   0.427E+02 0.651E+01 -.145E+04   0.104E+01 0.275E+00 0.133E+01   -.179E-04 -.875E-05 0.937E-05
   -.829E+01 -.157E+02 0.148E+04   0.833E+01 0.156E+02 -.148E+04   0.980E-01 0.328E+00 0.188E+01   -.898E-05 0.870E-06 0.949E-06
   -.683E+01 -.162E+02 0.145E+04   0.675E+01 0.162E+02 -.145E+04   0.347E+00 0.425E+00 0.171E+01   -.370E-05 -.903E-05 0.140E-04
   -.569E+01 -.129E+02 0.145E+04   0.566E+01 0.129E+02 -.145E+04   0.224E+00 0.263E+00 0.196E+01   -.472E-05 -.290E-05 0.114E-04
   -.345E+00 0.102E+02 0.146E+04   0.470E+00 -.103E+02 -.146E+04   -.273E+00 0.193E+00 0.236E+01   -.655E-05 -.894E-05 0.359E-04
   -.114E+02 0.164E+02 0.144E+04   0.112E+02 -.164E+02 -.144E+04   0.346E+00 -.168E+00 0.191E+01   -.144E-04 0.301E-05 0.381E-05
   0.103E+02 0.106E+02 0.147E+04   -.104E+02 -.104E+02 -.147E+04   0.183E+00 -.426E+00 0.192E+01   -.672E-05 0.706E-05 0.181E-04
   0.150E+02 0.195E+01 0.145E+04   -.151E+02 -.175E+01 -.145E+04   0.272E+00 -.514E+00 0.222E+01   0.566E-05 0.280E-05 0.240E-04
   0.127E+02 0.206E+02 0.143E+04   -.128E+02 -.206E+02 -.144E+04   0.258E+00 -.344E+00 0.236E+01   0.132E-04 -.869E-05 0.230E-04
   0.151E+02 0.981E+01 0.148E+04   -.147E+02 -.991E+01 -.148E+04   -.917E+00 0.213E+00 0.234E+01   0.107E-04 0.861E-05 0.346E-04
   -.822E+01 -.315E-01 0.146E+04   0.826E+01 0.109E+00 -.146E+04   0.163E+00 -.156E+00 0.217E+01   0.677E-05 0.170E-05 0.229E-04
   0.266E+01 0.244E+02 0.148E+04   -.254E+01 -.242E+02 -.148E+04   -.323E+00 -.843E+00 0.278E+01   0.868E-05 0.136E-04 0.139E-04
   0.291E+02 -.396E+01 0.147E+04   -.288E+02 0.394E+01 -.148E+04   -.124E+01 0.535E-01 0.165E+01   0.127E-04 0.437E-05 0.775E-05
   0.242E+01 0.217E+00 0.146E+04   -.250E+01 -.207E+00 -.146E+04   0.385E+00 -.111E+00 0.170E+01   0.140E-04 0.655E-05 0.240E-05
   0.118E+02 -.295E+02 -.148E+04   -.118E+02 0.294E+02 0.148E+04   -.153E+00 0.694E+00 -.263E+01   0.385E-05 -.495E-05 -.195E-04
   0.148E+02 0.286E+01 -.143E+04   -.148E+02 -.293E+01 0.143E+04   -.235E+00 0.285E-01 -.180E+01   0.371E-06 0.578E-05 -.386E-05
   -.657E+01 0.562E+01 -.143E+04   0.643E+01 -.555E+01 0.143E+04   0.368E+00 -.367E+00 -.209E+01   -.633E-05 0.561E-05 -.109E-04
   -.192E+02 0.223E+02 -.145E+04   0.192E+02 -.223E+02 0.145E+04   0.218E-01 -.344E+00 -.114E+01   -.121E-04 -.152E-04 0.986E-05
   -.220E+02 -.699E+01 -.147E+04   0.222E+02 0.704E+01 0.147E+04   -.252E+00 0.321E-01 -.262E+01   -.253E-05 0.179E-04 -.253E-04
   -.218E+01 0.233E+02 -.147E+04   0.235E+01 -.230E+02 0.147E+04   -.333E+00 -.101E+01 -.207E+01   0.129E-04 0.674E-05 -.111E-04
   0.296E+02 -.246E+02 -.147E+04   -.297E+02 0.244E+02 0.147E+04   0.150E+00 0.120E+01 -.190E+01   -.335E-05 0.172E-05 -.130E-04
   0.700E+01 0.119E+01 -.147E+04   -.694E+01 -.109E+01 0.147E+04   -.199E+00 -.245E+00 -.229E+01   0.680E-05 -.180E-04 -.189E-04
   -.172E+01 -.272E+01 -.145E+04   0.158E+01 0.288E+01 0.145E+04   0.369E+00 -.275E+00 -.291E+01   0.530E-05 0.492E-05 -.321E-04
   -.208E+02 -.232E+02 -.144E+04   0.207E+02 0.230E+02 0.144E+04   0.263E+00 0.983E+00 -.220E+01   -.621E-05 0.258E-05 -.218E-04
   -.123E+02 -.117E+02 -.147E+04   0.124E+02 0.114E+02 0.147E+04   -.271E+00 0.902E+00 -.272E+01   0.100E-04 -.274E-05 -.116E-04
   0.231E+02 0.116E+02 -.145E+04   -.229E+02 -.115E+02 0.145E+04   -.686E+00 -.552E+00 -.134E+01   -.614E-05 0.163E-05 -.174E-04
   0.786E+01 -.139E+02 -.146E+04   -.785E+01 0.141E+02 0.146E+04   -.127E-02 -.587E-01 -.225E+01   -.665E-05 -.258E-05 -.297E-04
   0.165E+02 0.200E+01 -.146E+04   -.165E+02 -.204E+01 0.146E+04   -.228E+00 0.102E+00 -.275E+01   -.946E-05 0.113E-04 -.155E-04
   -.166E+00 0.237E+02 -.146E+04   0.282E+00 -.238E+02 0.146E+04   -.306E+00 0.198E+00 -.188E+01   -.286E-05 0.539E-05 -.208E-05
   0.622E+01 0.738E+01 -.148E+04   -.615E+01 -.735E+01 0.148E+04   -.113E+00 -.216E+00 -.227E+01   0.988E-05 -.211E-04 -.103E-04
   0.184E+02 -.695E+01 -.174E+02   -.179E+02 0.683E+01 0.173E+02   -.103E+01 0.791E+00 0.368E+00   0.327E-05 0.812E-05 -.109E-04
   0.738E+01 -.184E+02 0.520E+01   -.727E+01 0.183E+02 -.551E+01   -.596E+00 0.353E+00 0.991E+00   -.603E-05 -.278E-05 -.813E-05
   -.318E+02 0.726E+01 0.153E+02   0.317E+02 -.724E+01 -.153E+02   0.716E+00 -.211E+00 0.221E+00   0.463E-05 0.521E-05 -.119E-04
   0.218E+02 0.866E+01 0.914E+01   -.216E+02 -.844E+01 -.931E+01   -.141E+01 -.831E+00 0.944E+00   -.611E-05 -.121E-04 -.367E-05
   -.249E+01 -.188E+02 -.645E+01   0.273E+01 0.186E+02 0.647E+01   -.501E+00 0.937E+00 -.869E-01   -.881E-05 0.146E-04 -.727E-05
   -.114E+00 0.133E+02 0.951E+01   0.697E-01 -.130E+02 -.990E+01   0.271E+00 -.109E+01 0.108E+01   0.617E-05 -.142E-04 -.688E-05
   0.149E+02 -.148E+02 -.139E+02   -.147E+02 0.147E+02 0.136E+02   -.826E+00 0.440E+00 0.572E+00   -.408E-05 0.177E-04 -.401E-05
   -.195E+02 -.579E+01 0.136E+01   0.194E+02 0.587E+01 -.111E+01   0.288E+00 -.691E+00 -.679E+00   0.629E-05 -.202E-04 -.193E-05
   0.104E+02 0.540E+01 0.905E+01   -.102E+02 -.526E+01 -.903E+01   -.302E+00 -.191E+00 -.252E+00   0.973E-05 0.773E-05 -.571E-05
   0.333E+01 0.108E+02 0.626E+01   -.335E+01 -.107E+02 -.611E+01   0.647E-02 0.479E-01 -.479E+00   0.307E-06 -.504E-05 -.108E-05
   -.155E+02 0.324E+00 0.884E+01   0.153E+02 -.314E+00 -.877E+01   0.651E+00 0.147E+00 -.225E+00   0.199E-05 0.424E-05 -.559E-05
   -.146E+02 0.154E+02 0.227E+02   0.143E+02 -.150E+02 -.232E+02   0.988E+00 -.148E+01 0.142E+01   -.472E-05 -.528E-05 0.477E-05
   0.302E+02 -.221E+02 -.152E+02   -.297E+02 0.218E+02 0.154E+02   -.146E+01 0.980E+00 -.238E+00   -.544E-05 0.502E-05 -.997E-06
   -.197E+02 0.864E+01 -.431E+01   0.195E+02 -.855E+01 0.482E+01   0.121E+01 -.293E-01 -.172E+01   0.799E-07 -.341E-05 -.382E-05
   0.158E+02 0.280E+02 -.711E+01   -.158E+02 -.279E+02 0.724E+01   -.290E+00 -.994E-01 -.243E+00   -.296E-05 0.927E-05 -.225E-05
   0.338E+02 0.915E+01 -.123E+02   -.334E+02 -.908E+01 0.120E+02   -.864E+00 -.306E-01 0.732E+00   0.437E-05 -.114E-04 -.282E-05
 -----------------------------------------------------------------------------------------------
   0.143E+01 -.792E-01 0.869E+00   0.412E-12 -.284E-13 0.704E-11   -.143E+01 0.794E-01 -.870E+00   0.199E-05 0.422E-04 -.340E-04
 
 
 POSITION                                       TOTAL-FORCE (eV/Angst)
 -----------------------------------------------------------------------------------
     -0.05385      1.91464     15.10334         0.747297      0.445733      0.357338
     -1.75268      4.99226     15.17844         0.211101      0.249374     -0.273674
     -3.57873      7.98849     15.04399         1.255336      0.066769      0.431634
     -5.16162     10.93685     15.19506        -0.273575      0.303876     -0.501812
      3.47055      1.95982     15.22054        -0.156371      0.110568     -0.430635
      1.77249      4.91992     15.20546        -0.759049     -0.239693     -0.916771
     -0.00562      8.10250     15.14637        -0.803795     -0.615600     -0.386858
     -1.78515     10.99897     15.17503         0.717893     -0.290464     -0.648678
      6.94161      2.07894     15.07185        -0.341136     -1.134024      0.592203
      5.10245      4.95936     15.05953         1.005403     -0.052335      0.597296
      3.35607      7.79078     15.20507         0.829716      0.663845      0.114736
      1.68553     10.90146     15.15367         0.136463      0.936154     -0.375881
     10.34605      1.90608     15.09172        -0.094985      0.214941      0.541468
      8.67210      4.99112     14.99970        -0.648573     -0.480281      1.347656
      6.91267      7.96665     15.14786        -0.123152     -0.260289      0.291912
      5.12732     10.82178     15.22947         0.785462      0.831419     -0.564687
      1.68802      0.97512     12.67325         0.261230      0.359739      0.438782
     -0.03883      4.09415     12.69803         0.457172     -0.411083      0.069678
     -1.76618      7.04912     12.66014         0.466191      0.002545      0.270752
     -3.58406      9.97714     12.67729         1.320569      0.212612     -0.125748
      5.14327      0.96567     12.64741         0.141838     -0.111098      0.539932
      3.43284      3.98694     12.65767        -0.354758     -0.350586      0.065770
      1.76185      6.96082     12.77269        -0.589954      0.125024     -1.071392
      0.12359      9.96220     12.54378        -0.961500      0.310527      0.526747
      8.61560      0.97013     12.53544        -0.242726     -0.032754      0.926898
      6.88026      3.91719     12.58704        -0.071533      0.860553      0.231382
      5.32183      7.08416     12.68146        -0.911018     -0.491469     -0.397482
      3.54503     10.02407     12.72621        -0.381806     -0.725529     -0.286666
     12.15878      1.03304     12.68290        -0.664923     -0.471359     -0.011426
     10.35707      3.95758     12.64921        -0.080476      0.256317     -0.210816
      8.56272      6.94135     12.66263         0.402938     -0.102443     -0.140786
      6.88096     10.01906     12.70709         0.370622     -0.250024     -0.071325
     -0.02432      2.05959     11.07325         0.172559     -0.092696     -0.528984
     -1.80482      5.02702     11.00884         0.233582      0.038769     -0.055902
     -3.59514      7.96891     11.11244         0.903706      0.234717     -0.761272
     -5.24155     10.94534     10.98646         0.129340      0.252268     -0.169921
      3.37813      1.92522     11.05338         0.270669      0.335685     -0.387581
      1.68463      4.96255     11.03175         0.186653      0.290288     -0.142892
      0.04125      7.94513     10.94207        -0.147652      0.049652      0.222849
     -1.77871     10.97375     11.00941         0.185901     -0.142489     -0.209106
      6.84724      2.04077     10.94037         0.112717     -0.269900     -0.173092
      5.12244      5.10547     11.00516         0.143865     -0.319715      0.037693
      3.47743      8.04667     11.03940         0.133814     -0.304965      0.198694
      1.93819     10.95485     10.88139        -0.588381      0.107887      0.239297
     10.31329      2.04034     10.95729         0.199430     -0.078516      0.029845
      8.63576      5.10534     10.84981        -0.201908     -0.604905      0.570636
      7.06980      8.04041     11.02411        -0.985812      0.039995     -0.365437
      5.16508     11.02065     11.04949         0.302074     -0.100449     -0.355713
      1.76482      0.87370     16.93524        -0.145608      0.542693     -0.450473
      0.03146      3.91003     16.73813        -0.253370     -0.045973      0.346338
     -1.79158      7.06676     16.73840         0.226174     -0.291359      0.084767
     -3.44636      9.95516     16.69960         0.055725     -0.342053      0.914962
      5.18225      0.97148     16.92377        -0.079412      0.082089     -0.498910
      3.51180      4.09247     16.85142        -0.157549     -0.754873      0.017133
      1.65612      6.78587     16.84974         0.067011      0.987325      0.202649
      0.07131      9.99394     16.90394        -0.142173     -0.150985     -0.243659
      8.60568      1.00746     16.89855         0.230923     -0.119986     -0.701312
      6.84872      3.84375     16.79198         0.218286      0.751325     -0.129865
      5.23090      6.80944     16.88725        -0.129392      0.606993     -0.511280
      3.50028      9.89358     16.75148        -0.541248     -0.411469      0.705211
     12.07766      0.93866     16.81854         0.011917      0.073743     -0.091092
     10.43811      3.93253     16.87351        -0.240598      0.064394     -0.572719
      8.66374      6.89752     16.74219        -0.189511      0.075472      0.177954
      6.93550      9.92113     16.88455        -0.044101     -0.194632     -0.118329
     -6.78066     11.89788     13.89674        -0.602780      0.670567      0.283973
     12.08430      2.94939     13.83623        -0.484134      0.255412      0.680825
     10.28260      5.97020     13.84793         0.548899     -0.191775      0.175165
     -5.11335      9.03566     13.85668        -1.138826     -0.607038      0.778786
     -3.41055     11.91314     13.95096        -0.255558      0.735805     -0.066508
      1.70898      3.05525     13.85469         0.226512     -0.746276      0.691917
      0.04317      5.98999     13.90095        -0.582359      0.309303      0.296464
     -1.74903      9.03331     13.93804         0.248175     -0.613004     -0.424654
      6.97920      0.03192     13.84525        -0.066835     -0.051317     -0.222955
      5.15353      2.99015     13.89690        -0.008911      0.091194     -0.325784
      3.38986      5.97549     13.97453         0.501019      0.156772     -0.148911
      1.66683      9.08514     13.82907         0.663972     -1.083184      0.961202
      3.62563     11.85617     13.94646        -0.883520      0.767225     -0.048707
      8.55235      2.97521     13.93374         0.963073      0.059434     -1.215468
      6.91930      5.99775     13.88123        -0.231041     -0.032245     -0.115423
      5.28601      8.94570     13.89029        -0.485216      0.039830      0.490045
 -----------------------------------------------------------------------------------
    total drift:                               -0.003239      0.000270     -0.001013


--------------------------------------------------------------------------------------------------------



  FREE ENERGIE OF THE ION-ELECTRON SYSTEM (eV)
  ---------------------------------------------------
  free  energy   TOTEN  =      -527.18225522 eV

  energy  without entropy=     -527.18225522  energy(sigma->0) =     -527.18225522
 


--------------------------------------------------------------------------------------------------------


    POTLOK:  cpu time    2.3175: real time    2.3201


--------------------------------------------------------------------------------------------------------


     LOOP+:  cpu time 5462.8530: real time 5463.3313
    4ORBIT:  cpu time    0.0000: real time    0.0000

 total amount of memory used by VASP MPI-rank0   253933. kBytes
=======================================================================

   base      :      30000. kBytes
   nonlr-proj:      18749. kBytes
   fftplans  :      72602. kBytes
   grid      :      41267. kBytes
   one-center:        108. kBytes
   wavefun   :      91207. kBytes
 
  
  
 General timing and accounting informations for this job:
 ========================================================
  
                  Total CPU time used (sec):     5514.722
                            User time (sec):     5443.171
                          System time (sec):       71.552
                         Elapsed time (sec):     5515.332
  
                   Maximum memory used (kb):      449352.
                   Average memory used (kb):           0.
  
                          Minor page faults:       269550
                          Major page faults:            0
                 Voluntary context switches:         2177
