<?xml version="1.0" encoding="ISO-8859-1"?>
<modeling>
 <generator>
  <i name="program" type="string">vasp </i>
  <i name="version" type="string">5.4.4.18Apr17-6-g9f103f2a35  </i>
  <i name="subversion" type="string">(build Oct 31 2019 15:01:46) complex            parallel </i>
  <i name="platform" type="string">LinuxIFC </i>
  <i name="date" type="string">2024 04 30 </i>
  <i name="time" type="string">05:10:55 </i>
 </generator>
 <incar>
  <i type="int" name="ISTART">     0</i>
  <i type="string" name="PREC">anormal</i>
  <i type="logical" name="ADDGRID"> T  </i>
  <i type="int" name="IBRION">    -1</i>
  <i name="EDIFF">      0.00000100</i>
  <i name="EDIFFG">     -0.01000000</i>
  <i type="int" name="NSW">     1</i>
  <i type="int" name="ISIF">     2</i>
  <i type="int" name="ISYM">     2</i>
  <i name="ENCUT">    600.00000000</i>
  <i name="POTIM">      1.00000000</i>
  <i type="string" name="LREAL"> Auto.</i>
  <i type="int" name="ISMEAR">     0</i>
  <i name="SIGMA">      0.05000000</i>
  <i name="KSPACING">      0.25000000</i>
  <i type="logical" name="LWAVE"> F  </i>
  <i type="logical" name="LCHARG"> F  </i>
  <i type="logical" name="LSCALAPACK"> F  </i>
  <v type="int" name="KPOINT_BSE">    -1     0     0     0</v>
 </incar>
 <structure name="primitive_cell" >
  <crystal>
   <varray name="basis" >
    <v>      13.79398668       0.00000000       0.00000000 </v>
    <v>      -6.89699334      11.94594288       0.00000000 </v>
    <v>       0.00000000       0.00000000      27.81022107 </v>
   </varray>
   <i name="volume">   4582.62876984 </i>
   <varray name="rec_basis" >
    <v>       0.07249536       0.04185521       0.00000000 </v>
    <v>       0.00000000       0.08371043       0.00000000 </v>
    <v>       0.00000000       0.00000000       0.03595800 </v>
   </varray>
  </crystal>
  <varray name="positions" >
   <v>       0.07623355       0.16027513      -0.45691394 </v>
   <v>       0.00642230      -0.00402310       0.49969910 </v>
   <v>      -0.00049691       0.24689454       0.49752336 </v>
   <v>       0.25177157       0.25575643       0.49818714 </v>
   <v>      -0.08513804       0.07857581      -0.39523904 </v>
   <v>       0.16593629       0.32731065      -0.39813013 </v>
   <v>       0.16451028       0.07313822      -0.39104247 </v>
   <v>      -0.07530704       0.08647599       0.45605158 </v>
   <v>       0.16318741       0.08162812       0.45570462 </v>
   <v>       0.16854642       0.34272280       0.45659573 </v>
   <v>      -0.17017970       0.15955881      -0.45733195 </v>
   <v>       0.08357056      -0.08447188      -0.45361584 </v>
   <v>      -0.17534541      -0.09410414      -0.45237883 </v>
   <v>       0.08189133       0.41790429      -0.45421364 </v>
   <v>       0.33442120       0.41184837      -0.45324190 </v>
   <v>       0.33362762       0.16405707      -0.45269964 </v>
   <v>      -0.24091578      -0.00751490      -0.49851314 </v>
   <v>       0.08444184       0.17240920       0.39817187 </v>
   <v>       0.25137798      -0.00274571      -0.49835147 </v>
   <v>       0.25384192      -0.49857517       0.49985039 </v>
   <v>      -0.07868847       0.32919363      -0.39326233 </v>
   <v>      -0.08195731      -0.16949774      -0.39286534 </v>
   <v>      -0.08181270      -0.16130042       0.45692168 </v>
   <v>       0.42588089       0.34258276      -0.39405666 </v>
   <v>      -0.08351542       0.33129072       0.45484017 </v>
   <v>       0.41573905       0.33374823       0.45514453 </v>
   <v>      -0.16428410      -0.07745636       0.39731743 </v>
   <v>      -0.24236434      -0.25115171       0.49946701 </v>
   <v>       0.32547914       0.16116058       0.39745763 </v>
   <v>       0.00749531      -0.24362102       0.49825851 </v>
   <v>       0.07813173      -0.08376090       0.39505117 </v>
   <v>       0.32983628       0.41541683       0.39667965 </v>
   <v>      -0.16693569       0.17079766       0.39400227 </v>
   <v>      -0.25546656       0.24905618      -0.49897069 </v>
   <v>       0.07956604       0.42081428       0.39585581 </v>
   <v>       0.49585498      -0.49978882      -0.49750384 </v>
   <v>      -0.33214804      -0.17180447      -0.39765016 </v>
   <v>       0.40408502      -0.43195189      -0.39411704 </v>
   <v>       0.49876076       0.25030701       0.49970460 </v>
   <v>      -0.00467534       0.49976832       0.49794406 </v>
   <v>       0.16683054      -0.16664920      -0.39951578 </v>
   <v>      -0.33396066       0.08433526      -0.39236187 </v>
   <v>      -0.32344215      -0.16088108       0.45760922 </v>
   <v>       0.41635075       0.08132330      -0.39145500 </v>
   <v>       0.16589937      -0.40843858      -0.39812069 </v>
   <v>       0.15776726      -0.16480955       0.45584992 </v>
   <v>      -0.33480353       0.08121031       0.45074935 </v>
   <v>       0.41328165       0.08083684       0.45477575 </v>
   <v>       0.41907295      -0.41730658       0.45928053 </v>
   <v>      -0.16541732      -0.33310794      -0.45531331 </v>
   <v>       0.33094946      -0.07927115      -0.45433631 </v>
   <v>      -0.16240889       0.41780895      -0.46064058 </v>
   <v>       0.16700262      -0.40991478       0.45523343 </v>
   <v>      -0.42152393      -0.08743435      -0.45510446 </v>
   <v>      -0.42252054       0.41515036      -0.45848931 </v>
   <v>       0.33872458      -0.32173622      -0.45536662 </v>
   <v>       0.07491882      -0.33128006      -0.45904829 </v>
   <v>      -0.43061550      -0.34783064      -0.45325611 </v>
   <v>      -0.40975059       0.17402918      -0.45804631 </v>
   <v>      -0.40097250      -0.08296462       0.39127310 </v>
   <v>      -0.15093953      -0.32693390       0.39640510 </v>
   <v>      -0.49270431       0.00267196       0.49784752 </v>
   <v>      -0.49890190      -0.23947877       0.49726556 </v>
   <v>       0.25129435      -0.24381773      -0.49881602 </v>
   <v>       0.33036049      -0.08138240       0.39587653 </v>
   <v>      -0.08322231      -0.42260586      -0.39798435 </v>
   <v>       0.33553559      -0.33490953       0.39345507 </v>
   <v>      -0.41495645       0.42738084       0.39572363 </v>
   <v>      -0.34261899       0.32176194      -0.39619376 </v>
   <v>      -0.31768279      -0.40698195       0.45599995 </v>
   <v>      -0.16026252       0.42737046       0.39013737 </v>
   <v>      -0.33577367      -0.42997856      -0.39276833 </v>
   <v>      -0.08871101      -0.41893644       0.45532303 </v>
   <v>      -0.33725871       0.32790947       0.45260482 </v>
   <v>      -0.41110768      -0.32640974       0.39695467 </v>
   <v>       0.07290963      -0.33291882       0.39958106 </v>
   <v>      -0.24734595      -0.49792580       0.49914146 </v>
   <v>       0.42346840      -0.16340319      -0.39216806 </v>
   <v>      -0.41818978       0.17083359       0.39339376 </v>
   <v>       0.42592966      -0.16605956       0.45104914 </v>
  </varray>
 </structure>
 <varray name="primitive_index" >
  <v type="int" >        1 </v>
  <v type="int" >       65 </v>
  <v type="int" >       66 </v>
  <v type="int" >       70 </v>
  <v type="int" >       61 </v>
  <v type="int" >       50 </v>
  <v type="int" >       49 </v>
  <v type="int" >       29 </v>
  <v type="int" >       17 </v>
  <v type="int" >       18 </v>
  <v type="int" >       13 </v>
  <v type="int" >        4 </v>
  <v type="int" >       16 </v>
  <v type="int" >        2 </v>
  <v type="int" >        6 </v>
  <v type="int" >        5 </v>
  <v type="int" >       77 </v>
  <v type="int" >       33 </v>
  <v type="int" >       69 </v>
  <v type="int" >       71 </v>
  <v type="int" >       62 </v>
  <v type="int" >       64 </v>
  <v type="int" >       32 </v>
  <v type="int" >       54 </v>
  <v type="int" >       30 </v>
  <v type="int" >       22 </v>
  <v type="int" >       48 </v>
  <v type="int" >       80 </v>
  <v type="int" >       37 </v>
  <v type="int" >       68 </v>
  <v type="int" >       36 </v>
  <v type="int" >       38 </v>
  <v type="int" >       45 </v>
  <v type="int" >       78 </v>
  <v type="int" >       34 </v>
  <v type="int" >       75 </v>
  <v type="int" >       60 </v>
  <v type="int" >       55 </v>
  <v type="int" >       74 </v>
  <v type="int" >       67 </v>
  <v type="int" >       52 </v>
  <v type="int" >       57 </v>
  <v type="int" >       28 </v>
  <v type="int" >       53 </v>
  <v type="int" >       51 </v>
  <v type="int" >       20 </v>
  <v type="int" >       25 </v>
  <v type="int" >       21 </v>
  <v type="int" >       23 </v>
  <v type="int" >       15 </v>
  <v type="int" >        8 </v>
  <v type="int" >       14 </v>
  <v type="int" >       19 </v>
  <v type="int" >       12 </v>
  <v type="int" >       10 </v>
  <v type="int" >        7 </v>
  <v type="int" >        3 </v>
  <v type="int" >       11 </v>
  <v type="int" >        9 </v>
  <v type="int" >       44 </v>
  <v type="int" >       47 </v>
  <v type="int" >       73 </v>
  <v type="int" >       76 </v>
  <v type="int" >       72 </v>
  <v type="int" >       40 </v>
  <v type="int" >       63 </v>
  <v type="int" >       39 </v>
  <v type="int" >       42 </v>
  <v type="int" >       58 </v>
  <v type="int" >       27 </v>
  <v type="int" >       46 </v>
  <v type="int" >       59 </v>
  <v type="int" >       31 </v>
  <v type="int" >       26 </v>
  <v type="int" >       43 </v>
  <v type="int" >       35 </v>
  <v type="int" >       79 </v>
  <v type="int" >       56 </v>
  <v type="int" >       41 </v>
  <v type="int" >       24 </v>
 </varray>
 <kpoints>
  <generation param="Gamma">
   <v type="int" name="divisions">       3        3        1 </v>
   <v name="usershift">      0.00000000       0.00000000       0.00000000 </v>
   <v name="genvec1">      0.33333333      -0.00000000       0.00000000 </v>
   <v name="genvec2">      0.00000000       0.33333333       0.00000000 </v>
   <v name="genvec3">      0.00000000       0.00000000       1.00000000 </v>
   <v name="shift">      0.00000000       0.00000000       0.00000000 </v>
  </generation>
  <varray name="kpointlist" >
   <v>       0.00000000       0.00000000       0.00000000 </v>
   <v>       0.33333333      -0.00000000       0.00000000 </v>
   <v>       0.00000000       0.33333333       0.00000000 </v>
   <v>       0.33333333       0.33333333       0.00000000 </v>
   <v>      -0.33333333       0.33333333       0.00000000 </v>
  </varray>
  <varray name="weights" >
   <v>       0.11111111 </v>
   <v>       0.22222222 </v>
   <v>       0.22222222 </v>
   <v>       0.22222222 </v>
   <v>       0.22222222 </v>
  </varray>
 </kpoints>
 <parameters>
  <separator name="general" >
   <i type="string" name="SYSTEM">unknown system</i>
   <i type="logical" name="LCOMPAT"> F  </i>
  </separator>
  <separator name="electronic" >
   <i type="string" name="PREC">anorma</i>
   <i name="ENMAX">    600.00000000</i>
   <i name="ENAUG">    644.87300000</i>
   <i name="EDIFF">      0.00000100</i>
   <i type="int" name="IALGO">    38</i>
   <i type="int" name="IWAVPR">    10</i>
   <i type="int" name="NBANDS">   384</i>
   <i name="NELECT">    640.00000000</i>
   <i type="int" name="TURBO">     0</i>
   <i type="int" name="IRESTART">     0</i>
   <i type="int" name="NREBOOT">     0</i>
   <i type="int" name="NMIN">     0</i>
   <i name="EREF">      0.00000000</i>
   <separator name="electronic smearing" >
    <i type="int" name="ISMEAR">     0</i>
    <i name="SIGMA">      0.05000000</i>
    <i name="KSPACING">      0.25000000</i>
    <i type="logical" name="KGAMMA"> T  </i>
   </separator>
   <separator name="electronic projectors" >
    <i type="logical" name="LREAL"> T  </i>
    <v name="ROPT">     -0.00025000     -0.00025000     -0.00025000</v>
    <i type="int" name="LMAXPAW">  -100</i>
    <i type="int" name="LMAXMIX">     2</i>
    <i type="logical" name="NLSPLINE"> F  </i>
   </separator>
   <separator name="electronic startup" >
    <i type="int" name="ISTART">     0</i>
    <i type="int" name="ICHARG">     2</i>
    <i type="int" name="INIWAV">     1</i>
   </separator>
   <separator name="electronic spin" >
    <i type="int" name="ISPIN">     1</i>
    <i type="logical" name="LNONCOLLINEAR"> F  </i>
    <v name="MAGMOM">      1.00000000      1.00000000      1.00000000      1.00000000      1.00000000      1.00000000      1.00000000      1.00000000      1.00000000      1.00000000      1.00000000      1.00000000      1.00000000      1.00000000      1.00000000      1.00000000      1.00000000      1.00000000      1.00000000      1.00000000
      1.00000000      1.00000000      1.00000000      1.00000000      1.00000000      1.00000000      1.00000000      1.00000000      1.00000000      1.00000000      1.00000000      1.00000000      1.00000000      1.00000000      1.00000000      1.00000000      1.00000000      1.00000000      1.00000000      1.00000000
      1.00000000      1.00000000      1.00000000      1.00000000      1.00000000      1.00000000      1.00000000      1.00000000      1.00000000      1.00000000      1.00000000      1.00000000      1.00000000      1.00000000      1.00000000      1.00000000      1.00000000      1.00000000      1.00000000      1.00000000
      1.00000000      1.00000000      1.00000000      1.00000000      1.00000000      1.00000000      1.00000000      1.00000000      1.00000000      1.00000000      1.00000000      1.00000000      1.00000000      1.00000000      1.00000000      1.00000000      1.00000000      1.00000000      1.00000000      1.00000000
</v>
    <i name="NUPDOWN">     -1.00000000</i>
    <i type="logical" name="LSORBIT"> F  </i>
    <v name="SAXIS">      0.00000000      0.00000000      1.00000000</v>
    <i type="logical" name="LSPIRAL"> F  </i>
    <v name="QSPIRAL">      0.00000000      0.00000000      0.00000000</v>
    <i type="logical" name="LZEROZ"> F  </i>
   </separator>
   <separator name="electronic exchange-correlation" >
    <i type="logical" name="LASPH"> F  </i>
    <i type="logical" name="LMETAGGA"> F  </i>
   </separator>
   <separator name="electronic convergence" >
    <i type="int" name="NELM">    60</i>
    <i type="int" name="NELMDL">    -5</i>
    <i type="int" name="NELMIN">     2</i>
    <i name="ENINI">    600.00000000</i>
    <separator name="electronic convergence detail" >
     <i type="logical" name="LDIAG"> T  </i>
     <i type="logical" name="LSUBROT"> F  </i>
     <i name="WEIMIN">      0.00000000</i>
     <i name="EBREAK">      0.00000000</i>
     <i name="DEPER">      0.30000000</i>
     <i type="int" name="NRMM">     4</i>
     <i name="TIME">      0.40000000</i>
    </separator>
   </separator>
   <separator name="electronic mixer" >
    <i name="AMIX">      0.40000000</i>
    <i name="BMIX">      1.00000000</i>
    <i name="AMIN">      0.10000000</i>
    <i name="AMIX_MAG">      1.60000000</i>
    <i name="BMIX_MAG">      1.00000000</i>
    <separator name="electronic mixer details" >
     <i type="int" name="IMIX">     4</i>
     <i type="logical" name="MIXFIRST"> F  </i>
     <i type="int" name="MAXMIX">   -45</i>
     <i name="WC">    100.00000000</i>
     <i type="int" name="INIMIX">     1</i>
     <i type="int" name="MIXPRE">     1</i>
     <i type="int" name="MREMOVE">     5</i>
    </separator>
   </separator>
   <separator name="electronic dipolcorrection" >
    <i type="logical" name="LDIPOL"> F  </i>
    <i type="logical" name="LMONO"> F  </i>
    <i type="int" name="IDIPOL">     0</i>
    <i name="EPSILON">      1.00000000</i>
    <v name="DIPOL">   -100.00000000   -100.00000000   -100.00000000</v>
    <i name="EFIELD">      0.00000000</i>
   </separator>
  </separator>
  <separator name="grids" >
   <i type="int" name="NGX">   112</i>
   <i type="int" name="NGY">   112</i>
   <i type="int" name="NGZ">   224</i>
   <i type="int" name="NGXF">   224</i>
   <i type="int" name="NGYF">   224</i>
   <i type="int" name="NGZF">   448</i>
   <i type="logical" name="ADDGRID"> T  </i>
  </separator>
  <separator name="ionic" >
   <i type="int" name="NSW">     1</i>
   <i type="int" name="IBRION">    -1</i>
   <i type="int" name="MDALGO">     0</i>
   <i type="int" name="ISIF">     2</i>
   <i name="PSTRESS">      0.00000000</i>
   <i name="EDIFFG">     -0.01000000</i>
   <i type="int" name="NFREE">     0</i>
   <i name="POTIM">      1.00000000</i>
   <i name="SMASS">     -3.00000000</i>
   <i name="SCALEE">      1.00000000</i>
  </separator>
  <separator name="ionic md" >
   <i name="TEBEG">      0.00010000</i>
   <i name="TEEND">      0.00010000</i>
   <i type="int" name="NBLOCK">     1</i>
   <i type="int" name="KBLOCK">     1</i>
   <i type="int" name="NPACO">   256</i>
   <i name="APACO">     16.00000000</i>
  </separator>
  <separator name="symmetry" >
   <i type="int" name="ISYM">     2</i>
   <i name="SYMPREC">      0.00001000</i>
  </separator>
  <separator name="dos" >
   <i type="int" name="LORBIT">     0</i>
   <v name="RWIGS">     -1.00000000     -1.00000000     -1.00000000</v>
   <i type="int" name="NEDOS">   301</i>
   <i name="EMIN">     10.00000000</i>
   <i name="EMAX">    -10.00000000</i>
   <i name="EFERMI">      0.00000000</i>
  </separator>
  <separator name="writing" >
   <i type="int" name="NWRITE">     2</i>
   <i type="logical" name="LWAVE"> F  </i>
   <i type="logical" name="LDOWNSAMPLE"> F  </i>
   <i type="logical" name="LCHARG"> F  </i>
   <i type="logical" name="LPARD"> F  </i>
   <i type="logical" name="LVTOT"> F  </i>
   <i type="logical" name="LVHAR"> F  </i>
   <i type="logical" name="LELF"> F  </i>
   <i type="logical" name="LOPTICS"> F  </i>
   <v name="STM">      0.00000000      0.00000000      0.00000000      0.00000000      0.00000000      0.00000000      0.00000000</v>
  </separator>
  <separator name="performance" >
   <i type="int" name="NPAR">     4</i>
   <i type="int" name="NSIM">     4</i>
   <i type="int" name="NBLK">    -1</i>
   <i type="logical" name="LPLANE"> T  </i>
   <i type="logical" name="LSCALAPACK"> F  </i>
   <i type="logical" name="LSCAAWARE"> F  </i>
   <i type="logical" name="LSCALU"> F  </i>
   <i type="logical" name="LASYNC"> F  </i>
   <i type="logical" name="LORBITALREAL"> F  </i>
  </separator>
  <separator name="miscellaneous" >
   <i type="int" name="IDIOT">     3</i>
   <i type="int" name="ISPECIAL">     0</i>
   <i type="logical" name="LMUSIC"> F  </i>
   <v name="POMASS">     44.95600000     35.45300000     12.01100000</v>
   <v name="DARWINR">      0.00000000      0.00000000      0.00000000</v>
   <v name="DARWINV">      1.00000000      1.00000000      1.00000000</v>
   <i type="logical" name="LCORR"> T  </i>
  </separator>
  <i type="logical" name="GGA_COMPAT"> T  </i>
  <i type="logical" name="LBERRY"> F  </i>
  <i type="int" name="ICORELEVEL">     0</i>
  <i type="logical" name="LDAU"> F  </i>
  <i type="int" name="I_CONSTRAINED_M">     0</i>
  <separator name="electronic exchange-correlation" >
   <i type="string" name="GGA">--</i>
   <i type="int" name="VOSKOWN">     0</i>
   <i type="logical" name="LHFCALC"> F  </i>
   <i type="string" name="PRECFOCK"></i>
   <i type="logical" name="LSYMGRAD"> F  </i>
   <i type="logical" name="LHFONE"> F  </i>
   <i type="logical" name="LRHFCALC"> F  </i>
   <i type="logical" name="LTHOMAS"> F  </i>
   <i type="logical" name="LMODELHF"> F  </i>
   <i name="ENCUT4O">     -1.00000000</i>
   <i type="int" name="EXXOEP">     0</i>
   <i type="int" name="FOURORBIT">     0</i>
   <i name="AEXX">      0.00000000</i>
   <i name="HFALPHA">      0.00000000</i>
   <i name="MCALPHA">      0.00000000</i>
   <i name="ALDAX">      1.00000000</i>
   <i name="AGGAX">      1.00000000</i>
   <i name="ALDAC">      1.00000000</i>
   <i name="AGGAC">      1.00000000</i>
   <i type="int" name="NKREDX">     1</i>
   <i type="int" name="NKREDY">     1</i>
   <i type="int" name="NKREDZ">     1</i>
   <i type="logical" name="SHIFTRED"> F  </i>
   <i type="logical" name="ODDONLY"> F  </i>
   <i type="logical" name="EVENONLY"> F  </i>
   <i type="int" name="LMAXFOCK">     0</i>
   <i type="int" name="NMAXFOCKAE">     0</i>
   <i type="logical" name="LFOCKAEDFT"> F  </i>
   <i name="HFSCREEN">      0.00000000</i>
   <i name="HFSCREENC">      0.00000000</i>
   <i type="int" name="NBANDSGWLOW">     0</i>
  </separator>
  <separator name="vdW DFT" >
   <i type="logical" name="LUSE_VDW"> F  </i>
   <i name="Zab_VDW">     -0.84910000</i>
   <i name="PARAM1">      0.12340000</i>
   <i name="PARAM2">      1.00000000</i>
   <i name="PARAM3">      0.00000000</i>
  </separator>
  <separator name="model GW" >
   <i type="int" name="MODEL_GW">     0</i>
   <i name="MODEL_EPS0">     34.36971577</i>
   <i name="MODEL_ALPHA">      1.00000000</i>
  </separator>
  <separator name="linear response parameters" >
   <i type="logical" name="LEPSILON"> F  </i>
   <i type="logical" name="LRPA"> F  </i>
   <i type="logical" name="LNABLA"> F  </i>
   <i type="logical" name="LVEL"> F  </i>
   <i type="int" name="KINTER">     0</i>
   <i name="CSHIFT">      0.10000000</i>
   <i name="OMEGAMAX">     -1.00000000</i>
   <i name="DEG_THRESHOLD">      0.00200000</i>
   <i name="RTIME">     -0.10000000</i>
   <i name="WPLASMAI">      0.00000000</i>
   <v name="DFIELD">      0.00000000      0.00000000      0.00000000</v>
   <v name="WPLASMA">      0.00000000      0.00000000      0.00000000      0.00000000      0.00000000      0.00000000      0.00000000      0.00000000      0.00000000</v>
  </separator>
  <separator name="orbital magnetization" >
   <i type="logical" name="NUCIND"> F  </i>
   <v name="MAGPOS">      0.00000000      0.00000000      0.00000000</v>
   <i type="logical" name="LNICSALL"> T  </i>
   <i type="logical" name="ORBITALMAG"> F  </i>
   <i type="logical" name="LMAGBLOCH"> F  </i>
   <i type="logical" name="LCHIMAG"> F  </i>
   <i type="logical" name="LGAUGE"> T  </i>
   <i type="int" name="MAGATOM">     0</i>
   <v name="MAGDIPOL">      0.00000000      0.00000000      0.00000000</v>
   <v name="AVECCONST">      0.00000000      0.00000000      0.00000000</v>
  </separator>
  <separator name="response functions" >
   <i type="logical" name="LADDER"> F  </i>
   <i type="logical" name="LRPAFORCE"> F  </i>
   <i type="logical" name="LFXC"> F  </i>
   <i type="logical" name="LHARTREE"> T  </i>
   <i type="int" name="IBSE">     0</i>
   <v type="int" name="KPOINT">    -1     0     0     0</v>
   <i type="logical" name="LTCTE"> F  </i>
   <i type="logical" name="LTETE"> F  </i>
   <i type="logical" name="LTRIPLET"> F  </i>
   <i type="logical" name="LFXCEPS"> F  </i>
   <i type="logical" name="LFXHEG"> F  </i>
   <i type="int" name="NATURALO">     2</i>
   <i type="logical" name="L2ORDER"> F  </i>
   <i type="logical" name="LMP2LT"> F  </i>
   <i type="logical" name="LUSEW"> F  </i>
   <i name="ENCUTGW">     -2.00000000</i>
   <i name="ENCUTGWSOFT">     -2.00000000</i>
   <i name="ENCUTLF">     -1.00000000</i>
   <i type="int" name="LMAXMP2">    -1</i>
   <i name="SCISSOR">      0.00000000</i>
   <i type="int" name="NOMEGA">     0</i>
   <i type="int" name="NOMEGAR">     0</i>
   <i type="int" name="NBANDSGW">    -1</i>
   <i type="int" name="NBANDSO">    -1</i>
   <i type="int" name="NBANDSV">    -1</i>
   <i type="int" name="NELM">     1</i>
   <i type="int" name="NELMHF">     1</i>
   <i type="int" name="DIM">     3</i>
   <i type="int" name="ANTIRES">     0</i>
   <i name="OMEGAMAX">    -30.00000000</i>
   <i name="OMEGAMIN">    -30.00000000</i>
   <i name="OMEGATL">   -200.00000000</i>
   <i type="int" name="OMEGAGRID">   140</i>
   <i name="CSHIFT">     -0.10000000</i>
   <i type="logical" name="SELFENERGY"> F  </i>
   <i type="logical" name="LSPECTRAL"> F  </i>
   <i type="logical" name="LSPECTRALGW"> F  </i>
   <i type="logical" name="LSINGLES"> F  </i>
   <i type="logical" name="LFERMIGW"> F  </i>
   <i type="logical" name="ODDONLYGW"> F  </i>
   <i type="logical" name="EVENONLYGW"> F  </i>
   <i type="int" name="NKREDLFX">     1</i>
   <i type="int" name="NKREDLFY">     1</i>
   <i type="int" name="NKREDLFZ">     1</i>
   <i type="int" name="MAXMEM">  2800</i>
   <i type="int" name="TELESCOPE">     0</i>
   <i type="int" name="TAUPAR">     1</i>
   <i type="int" name="OMEGAPAR">    -1</i>
   <i name="LAMBDA">      1.00000000</i>
  </separator>
  <separator name="External order field" >
   <i name="OFIELD_KAPPA">      0.00000000</i>
   <v name="OFIELD_K">      0.00000000      0.00000000      0.00000000</v>
   <i name="OFIELD_Q6_NEAR">      0.00000000</i>
   <i name="OFIELD_Q6_FAR">      0.00000000</i>
   <i name="OFIELD_A">      0.00000000</i>
  </separator>
 </parameters>
 <atominfo>
  <atoms>      80 </atoms>
  <types>       3 </types>
  <array name="atoms" >
   <dimension dim="1">ion</dimension>
   <field type="string">element</field>
   <field type="int">atomtype</field>
   <set>
    <rc><c>Sc</c><c>   1</c></rc>
    <rc><c>Sc</c><c>   1</c></rc>
    <rc><c>Sc</c><c>   1</c></rc>
    <rc><c>Sc</c><c>   1</c></rc>
    <rc><c>Sc</c><c>   1</c></rc>
    <rc><c>Sc</c><c>   1</c></rc>
    <rc><c>Sc</c><c>   1</c></rc>
    <rc><c>Sc</c><c>   1</c></rc>
    <rc><c>Sc</c><c>   1</c></rc>
    <rc><c>Sc</c><c>   1</c></rc>
    <rc><c>Sc</c><c>   1</c></rc>
    <rc><c>Sc</c><c>   1</c></rc>
    <rc><c>Sc</c><c>   1</c></rc>
    <rc><c>Sc</c><c>   1</c></rc>
    <rc><c>Sc</c><c>   1</c></rc>
    <rc><c>Sc</c><c>   1</c></rc>
    <rc><c>Sc</c><c>   1</c></rc>
    <rc><c>Sc</c><c>   1</c></rc>
    <rc><c>Sc</c><c>   1</c></rc>
    <rc><c>Sc</c><c>   1</c></rc>
    <rc><c>Sc</c><c>   1</c></rc>
    <rc><c>Sc</c><c>   1</c></rc>
    <rc><c>Sc</c><c>   1</c></rc>
    <rc><c>Sc</c><c>   1</c></rc>
    <rc><c>Sc</c><c>   1</c></rc>
    <rc><c>Sc</c><c>   1</c></rc>
    <rc><c>Sc</c><c>   1</c></rc>
    <rc><c>Sc</c><c>   1</c></rc>
    <rc><c>Sc</c><c>   1</c></rc>
    <rc><c>Sc</c><c>   1</c></rc>
    <rc><c>Sc</c><c>   1</c></rc>
    <rc><c>Sc</c><c>   1</c></rc>
    <rc><c>Cl</c><c>   2</c></rc>
    <rc><c>Cl</c><c>   2</c></rc>
    <rc><c>Cl</c><c>   2</c></rc>
    <rc><c>Cl</c><c>   2</c></rc>
    <rc><c>Cl</c><c>   2</c></rc>
    <rc><c>Cl</c><c>   2</c></rc>
    <rc><c>Cl</c><c>   2</c></rc>
    <rc><c>Cl</c><c>   2</c></rc>
    <rc><c>Cl</c><c>   2</c></rc>
    <rc><c>Cl</c><c>   2</c></rc>
    <rc><c>Cl</c><c>   2</c></rc>
    <rc><c>Cl</c><c>   2</c></rc>
    <rc><c>Cl</c><c>   2</c></rc>
    <rc><c>Cl</c><c>   2</c></rc>
    <rc><c>Cl</c><c>   2</c></rc>
    <rc><c>Cl</c><c>   2</c></rc>
    <rc><c>Cl</c><c>   2</c></rc>
    <rc><c>Cl</c><c>   2</c></rc>
    <rc><c>Cl</c><c>   2</c></rc>
    <rc><c>Cl</c><c>   2</c></rc>
    <rc><c>Cl</c><c>   2</c></rc>
    <rc><c>Cl</c><c>   2</c></rc>
    <rc><c>Cl</c><c>   2</c></rc>
    <rc><c>Cl</c><c>   2</c></rc>
    <rc><c>Cl</c><c>   2</c></rc>
    <rc><c>Cl</c><c>   2</c></rc>
    <rc><c>Cl</c><c>   2</c></rc>
    <rc><c>Cl</c><c>   2</c></rc>
    <rc><c>Cl</c><c>   2</c></rc>
    <rc><c>Cl</c><c>   2</c></rc>
    <rc><c>Cl</c><c>   2</c></rc>
    <rc><c>Cl</c><c>   2</c></rc>
    <rc><c>C </c><c>   3</c></rc>
    <rc><c>C </c><c>   3</c></rc>
    <rc><c>C </c><c>   3</c></rc>
    <rc><c>C </c><c>   3</c></rc>
    <rc><c>C </c><c>   3</c></rc>
    <rc><c>C </c><c>   3</c></rc>
    <rc><c>C </c><c>   3</c></rc>
    <rc><c>C </c><c>   3</c></rc>
    <rc><c>C </c><c>   3</c></rc>
    <rc><c>C </c><c>   3</c></rc>
    <rc><c>C </c><c>   3</c></rc>
    <rc><c>C </c><c>   3</c></rc>
    <rc><c>C </c><c>   3</c></rc>
    <rc><c>C </c><c>   3</c></rc>
    <rc><c>C </c><c>   3</c></rc>
    <rc><c>C </c><c>   3</c></rc>
   </set>
  </array>
  <array name="atomtypes" >
   <dimension dim="1">type</dimension>
   <field type="int">atomspertype</field>
   <field type="string">element</field>
   <field>mass</field>
   <field>valence</field>
   <field type="string">pseudopotential</field>
   <set>
    <rc><c>  32</c><c>Sc</c><c>     44.95600000</c><c>     11.00000000</c><c>  PAW_PBE Sc_sv 07Sep2000               </c></rc>
    <rc><c>  32</c><c>Cl</c><c>     35.45300000</c><c>      7.00000000</c><c>  PAW_PBE Cl 06Sep2000                  </c></rc>
    <rc><c>  16</c><c>C </c><c>     12.01100000</c><c>      4.00000000</c><c>  PAW_PBE C 08Apr2002                   </c></rc>
   </set>
  </array>
 </atominfo>
 <structure name="initialpos" >
  <crystal>
   <varray name="basis" >
    <v>      13.79398668       0.00000000       0.00000000 </v>
    <v>      -6.89699334      11.94594288       0.00000000 </v>
    <v>       0.00000000       0.00000000      27.81022107 </v>
   </varray>
   <i name="volume">   4582.62876984 </i>
   <varray name="rec_basis" >
    <v>       0.07249536       0.04185521       0.00000000 </v>
    <v>       0.00000000       0.08371043       0.00000000 </v>
    <v>       0.00000000       0.00000000       0.03595800 </v>
   </varray>
  </crystal>
  <varray name="positions" >
   <v>       0.07623355       0.16027513       0.54308606 </v>
   <v>       0.08189133       0.41790429       0.54578636 </v>
   <v>       0.07491882       0.66871994       0.54095171 </v>
   <v>       0.08357056       0.91552812       0.54638416 </v>
   <v>       0.33362762       0.16405707       0.54730036 </v>
   <v>       0.33442120       0.41184837       0.54675810 </v>
   <v>       0.33872458       0.67826378       0.54463338 </v>
   <v>       0.33094946       0.92072885       0.54566369 </v>
   <v>       0.59024941       0.17402918       0.54195369 </v>
   <v>       0.57747946       0.41515036       0.54151069 </v>
   <v>       0.56938450       0.65216936       0.54674389 </v>
   <v>       0.57847607       0.91256565       0.54489554 </v>
   <v>       0.82982030       0.15955881       0.54266805 </v>
   <v>       0.83759111       0.41780895       0.53935942 </v>
   <v>       0.83458268       0.66689206       0.54468669 </v>
   <v>       0.82465459       0.90589586       0.54762117 </v>
   <v>       0.16318741       0.08162812       0.45570462 </v>
   <v>       0.16854642       0.34272280       0.45659573 </v>
   <v>       0.16700262       0.59008522       0.45523343 </v>
   <v>       0.15776726       0.83519045       0.45584992 </v>
   <v>       0.41328165       0.08083684       0.45477575 </v>
   <v>       0.41573905       0.33374823       0.45514453 </v>
   <v>       0.41907295       0.58269342       0.45928053 </v>
   <v>       0.42592966       0.83394044       0.45104914 </v>
   <v>       0.66519647       0.08121031       0.45074935 </v>
   <v>       0.66274129       0.32790947       0.45260482 </v>
   <v>       0.68231721       0.59301805       0.45599995 </v>
   <v>       0.67655785       0.83911892       0.45760922 </v>
   <v>       0.92469296       0.08647599       0.45605158 </v>
   <v>       0.91648458       0.33129072       0.45484017 </v>
   <v>       0.91128899       0.58106356       0.45532303 </v>
   <v>       0.91818730       0.83869958       0.45692168 </v>
   <v>       0.08444184       0.17240920       0.39817187 </v>
   <v>       0.07956604       0.42081428       0.39585581 </v>
   <v>       0.07290963       0.66708118       0.39958106 </v>
   <v>       0.07813173       0.91623910       0.39505117 </v>
   <v>       0.32547914       0.16116058       0.39745763 </v>
   <v>       0.32983628       0.41541683       0.39667965 </v>
   <v>       0.33553559       0.66509047       0.39345507 </v>
   <v>       0.33036049       0.91861760       0.39587653 </v>
   <v>       0.58181022       0.17083359       0.39339376 </v>
   <v>       0.58504355       0.42738084       0.39572363 </v>
   <v>       0.58889232       0.67359026       0.39695467 </v>
   <v>       0.59902750       0.91703538       0.39127310 </v>
   <v>       0.83306431       0.17079766       0.39400227 </v>
   <v>       0.83973748       0.42737046       0.39013737 </v>
   <v>       0.84906047       0.67306610       0.39640510 </v>
   <v>       0.83571590       0.92254364       0.39731743 </v>
   <v>       0.16451028       0.07313822       0.60895753 </v>
   <v>       0.16593629       0.32731065       0.60186987 </v>
   <v>       0.16589937       0.59156142       0.60187931 </v>
   <v>       0.16683054       0.83335080       0.60048422 </v>
   <v>       0.41635075       0.08132330       0.60854500 </v>
   <v>       0.42588089       0.34258276       0.60594334 </v>
   <v>       0.40408502       0.56804811       0.60588296 </v>
   <v>       0.42346840       0.83659681       0.60783194 </v>
   <v>       0.66603934       0.08433526       0.60763813 </v>
   <v>       0.65738101       0.32176194       0.60380624 </v>
   <v>       0.66422633       0.57002144       0.60723167 </v>
   <v>       0.66785196       0.82819553       0.60234984 </v>
   <v>       0.91486196       0.07857581       0.60476096 </v>
   <v>       0.92131153       0.32919363       0.60673767 </v>
   <v>       0.91677769       0.57739414       0.60201565 </v>
   <v>       0.91804269       0.83050226       0.60713466 </v>
   <v>       0.00642230       0.99597690       0.49969910 </v>
   <v>       0.99950309       0.24689454       0.49752336 </v>
   <v>       0.99532466       0.49976832       0.49794406 </v>
   <v>       0.00749531       0.75637898       0.49825851 </v>
   <v>       0.25137798       0.99725429       0.50164853 </v>
   <v>       0.25177157       0.25575643       0.49818714 </v>
   <v>       0.25384192       0.50142483       0.49985039 </v>
   <v>       0.25129435       0.75618227       0.50118398 </v>
   <v>       0.50729569       0.00267196       0.49784752 </v>
   <v>       0.49876076       0.25030701       0.49970460 </v>
   <v>       0.49585498       0.50021118       0.50249616 </v>
   <v>       0.50109810       0.76052123       0.49726556 </v>
   <v>       0.75908422       0.99248510       0.50148686 </v>
   <v>       0.74453344       0.24905618       0.50102931 </v>
   <v>       0.75265405       0.50207420       0.49914146 </v>
   <v>       0.75763566       0.74884829       0.49946701 </v>
  </varray>
  <varray name="velocities" >
   <v>       0.00000000       0.00000000       0.00000000 </v>
   <v>       0.00000000       0.00000000       0.00000000 </v>
   <v>       0.00000000       0.00000000       0.00000000 </v>
   <v>       0.00000000       0.00000000       0.00000000 </v>
   <v>       0.00000000       0.00000000       0.00000000 </v>
   <v>       0.00000000       0.00000000       0.00000000 </v>
   <v>       0.00000000       0.00000000       0.00000000 </v>
   <v>       0.00000000       0.00000000       0.00000000 </v>
   <v>       0.00000000       0.00000000       0.00000000 </v>
   <v>       0.00000000       0.00000000       0.00000000 </v>
   <v>       0.00000000       0.00000000       0.00000000 </v>
   <v>       0.00000000       0.00000000       0.00000000 </v>
   <v>       0.00000000       0.00000000       0.00000000 </v>
   <v>       0.00000000       0.00000000       0.00000000 </v>
   <v>       0.00000000       0.00000000       0.00000000 </v>
   <v>       0.00000000       0.00000000       0.00000000 </v>
   <v>       0.00000000       0.00000000       0.00000000 </v>
   <v>       0.00000000       0.00000000       0.00000000 </v>
   <v>       0.00000000       0.00000000       0.00000000 </v>
   <v>       0.00000000       0.00000000       0.00000000 </v>
   <v>       0.00000000       0.00000000       0.00000000 </v>
   <v>       0.00000000       0.00000000       0.00000000 </v>
   <v>       0.00000000       0.00000000       0.00000000 </v>
   <v>       0.00000000       0.00000000       0.00000000 </v>
   <v>       0.00000000       0.00000000       0.00000000 </v>
   <v>       0.00000000       0.00000000       0.00000000 </v>
   <v>       0.00000000       0.00000000       0.00000000 </v>
   <v>       0.00000000       0.00000000       0.00000000 </v>
   <v>       0.00000000       0.00000000       0.00000000 </v>
   <v>       0.00000000       0.00000000       0.00000000 </v>
   <v>       0.00000000       0.00000000       0.00000000 </v>
   <v>       0.00000000       0.00000000       0.00000000 </v>
   <v>       0.00000000       0.00000000       0.00000000 </v>
   <v>       0.00000000       0.00000000       0.00000000 </v>
   <v>       0.00000000       0.00000000       0.00000000 </v>
   <v>       0.00000000       0.00000000       0.00000000 </v>
   <v>       0.00000000       0.00000000       0.00000000 </v>
   <v>       0.00000000       0.00000000       0.00000000 </v>
   <v>       0.00000000       0.00000000       0.00000000 </v>
   <v>       0.00000000       0.00000000       0.00000000 </v>
   <v>       0.00000000       0.00000000       0.00000000 </v>
   <v>       0.00000000       0.00000000       0.00000000 </v>
   <v>       0.00000000       0.00000000       0.00000000 </v>
   <v>       0.00000000       0.00000000       0.00000000 </v>
   <v>       0.00000000       0.00000000       0.00000000 </v>
   <v>       0.00000000       0.00000000       0.00000000 </v>
   <v>       0.00000000       0.00000000       0.00000000 </v>
   <v>       0.00000000       0.00000000       0.00000000 </v>
   <v>       0.00000000       0.00000000       0.00000000 </v>
   <v>       0.00000000       0.00000000       0.00000000 </v>
   <v>       0.00000000       0.00000000       0.00000000 </v>
   <v>       0.00000000       0.00000000       0.00000000 </v>
   <v>       0.00000000       0.00000000       0.00000000 </v>
   <v>       0.00000000       0.00000000       0.00000000 </v>
   <v>       0.00000000       0.00000000       0.00000000 </v>
   <v>       0.00000000       0.00000000       0.00000000 </v>
   <v>       0.00000000       0.00000000       0.00000000 </v>
   <v>       0.00000000       0.00000000       0.00000000 </v>
   <v>       0.00000000       0.00000000       0.00000000 </v>
   <v>       0.00000000       0.00000000       0.00000000 </v>
   <v>       0.00000000       0.00000000       0.00000000 </v>
   <v>       0.00000000       0.00000000       0.00000000 </v>
   <v>       0.00000000       0.00000000       0.00000000 </v>
   <v>       0.00000000       0.00000000       0.00000000 </v>
   <v>       0.00000000       0.00000000       0.00000000 </v>
   <v>       0.00000000       0.00000000       0.00000000 </v>
   <v>       0.00000000       0.00000000       0.00000000 </v>
   <v>       0.00000000       0.00000000       0.00000000 </v>
   <v>       0.00000000       0.00000000       0.00000000 </v>
   <v>       0.00000000       0.00000000       0.00000000 </v>
   <v>       0.00000000       0.00000000       0.00000000 </v>
   <v>       0.00000000       0.00000000       0.00000000 </v>
   <v>       0.00000000       0.00000000       0.00000000 </v>
   <v>       0.00000000       0.00000000       0.00000000 </v>
   <v>       0.00000000       0.00000000       0.00000000 </v>
   <v>       0.00000000       0.00000000       0.00000000 </v>
   <v>       0.00000000       0.00000000       0.00000000 </v>
   <v>       0.00000000       0.00000000       0.00000000 </v>
   <v>       0.00000000       0.00000000       0.00000000 </v>
   <v>       0.00000000       0.00000000       0.00000000 </v>
  </varray>
 </structure>
 <calculation>
  <scstep>
   <time name="dav">  148.83  148.84</time>
   <time name="total">  151.20  151.22</time>
   <energy>
    <i name="alphaZ">    784.57699423 </i>
    <i name="ewald"> 253025.61235297 </i>
    <i name="hartreedc">-300677.23729832 </i>
    <i name="XCdc">   2503.26176030 </i>
    <i name="pawpsdc">  43679.68029659 </i>
    <i name="pawaedc"> -43417.33247688 </i>
    <i name="eentropy">     -0.07111116 </i>
    <i name="bandstr">     80.68613912 </i>
    <i name="atom">  56210.72393729 </i>
    <i name="e_fr_energy">  12189.90059413 </i>
    <i name="e_wo_entrp">  12189.97170529 </i>
    <i name="e_0_energy">  12189.93614971 </i>
   </energy>
  </scstep>
  <scstep>
   <time name="dav">  167.18  167.20</time>
   <time name="total">  167.18  167.20</time>
   <energy>
    <i name="e_fr_energy">   1717.28295139 </i>
    <i name="e_wo_entrp">   1717.33071128 </i>
    <i name="e_0_energy">   1717.30683133 </i>
   </energy>
  </scstep>
  <scstep>
   <time name="dav">  207.53  207.54</time>
   <time name="total">  207.54  207.55</time>
   <energy>
    <i name="e_fr_energy">   -414.68411820 </i>
    <i name="e_wo_entrp">   -414.68411514 </i>
    <i name="e_0_energy">   -414.68411667 </i>
   </energy>
  </scstep>
  <scstep>
   <time name="dav">  188.96  188.97</time>
   <time name="total">  188.96  188.97</time>
   <energy>
    <i name="e_fr_energy">   -645.76241800 </i>
    <i name="e_wo_entrp">   -645.76241800 </i>
    <i name="e_0_energy">   -645.76241800 </i>
   </energy>
  </scstep>
  <scstep>
   <time name="dav">  188.73  188.74</time>
   <time name="total">  202.08  202.09</time>
   <energy>
    <i name="e_fr_energy">   -655.88885386 </i>
    <i name="e_wo_entrp">   -655.88885386 </i>
    <i name="e_0_energy">   -655.88885386 </i>
   </energy>
  </scstep>
  <scstep>
   <time name="dav">  179.80  179.80</time>
   <time name="total">  195.79  195.80</time>
   <energy>
    <i name="e_fr_energy">   -525.22101848 </i>
    <i name="e_wo_entrp">   -525.22101848 </i>
    <i name="e_0_energy">   -525.22101848 </i>
   </energy>
  </scstep>
  <scstep>
   <time name="dav">  180.99  181.00</time>
   <time name="total">  196.99  197.01</time>
   <energy>
    <i name="e_fr_energy">   -530.08907045 </i>
    <i name="e_wo_entrp">   -530.08907045 </i>
    <i name="e_0_energy">   -530.08907045 </i>
   </energy>
  </scstep>
  <scstep>
   <time name="dav">  184.93  184.94</time>
   <time name="total">  200.91  200.94</time>
   <energy>
    <i name="e_fr_energy">   -527.85898420 </i>
    <i name="e_wo_entrp">   -527.85898420 </i>
    <i name="e_0_energy">   -527.85898420 </i>
   </energy>
  </scstep>
  <scstep>
   <time name="dav">  168.96  168.96</time>
   <time name="total">  184.96  184.97</time>
   <energy>
    <i name="e_fr_energy">   -527.33569886 </i>
    <i name="e_wo_entrp">   -527.33569886 </i>
    <i name="e_0_energy">   -527.33569886 </i>
   </energy>
  </scstep>
  <scstep>
   <time name="dav">  175.00  175.00</time>
   <time name="total">  190.98  190.98</time>
   <energy>
    <i name="e_fr_energy">   -527.20791951 </i>
    <i name="e_wo_entrp">   -527.20791951 </i>
    <i name="e_0_energy">   -527.20791951 </i>
   </energy>
  </scstep>
  <scstep>
   <time name="dav">  174.77  174.78</time>
   <time name="total">  190.78  190.80</time>
   <energy>
    <i name="e_fr_energy">   -527.18770069 </i>
    <i name="e_wo_entrp">   -527.18770069 </i>
    <i name="e_0_energy">   -527.18770069 </i>
   </energy>
  </scstep>
  <scstep>
   <time name="dav">  183.30  183.30</time>
   <time name="total">  199.37  199.39</time>
   <energy>
    <i name="e_fr_energy">   -527.17352680 </i>
    <i name="e_wo_entrp">   -527.17352680 </i>
    <i name="e_0_energy">   -527.17352680 </i>
   </energy>
  </scstep>
  <scstep>
   <time name="dav">  167.35  167.36</time>
   <time name="total">  183.35  183.37</time>
   <energy>
    <i name="e_fr_energy">   -527.17030399 </i>
    <i name="e_wo_entrp">   -527.17030399 </i>
    <i name="e_0_energy">   -527.17030399 </i>
   </energy>
  </scstep>
  <scstep>
   <time name="dav">  162.59  162.60</time>
   <time name="total">  178.39  178.41</time>
   <energy>
    <i name="e_fr_energy">   -527.16856692 </i>
    <i name="e_wo_entrp">   -527.16856692 </i>
    <i name="e_0_energy">   -527.16856692 </i>
   </energy>
  </scstep>
  <scstep>
   <time name="dav">  171.58  171.58</time>
   <time name="total">  187.40  187.41</time>
   <energy>
    <i name="e_fr_energy">   -527.17013685 </i>
    <i name="e_wo_entrp">   -527.17013685 </i>
    <i name="e_0_energy">   -527.17013685 </i>
   </energy>
  </scstep>
  <scstep>
   <time name="dav">  174.21  174.21</time>
   <time name="total">  189.83  189.84</time>
   <energy>
    <i name="e_fr_energy">   -527.17247768 </i>
    <i name="e_wo_entrp">   -527.17247768 </i>
    <i name="e_0_energy">   -527.17247768 </i>
   </energy>
  </scstep>
  <scstep>
   <time name="dav">  152.63  152.64</time>
   <time name="total">  168.27  168.28</time>
   <energy>
    <i name="e_fr_energy">   -527.17638106 </i>
    <i name="e_wo_entrp">   -527.17638106 </i>
    <i name="e_0_energy">   -527.17638106 </i>
   </energy>
  </scstep>
  <scstep>
   <time name="dav">  157.69  157.69</time>
   <time name="total">  173.32  173.34</time>
   <energy>
    <i name="e_fr_energy">   -527.17813152 </i>
    <i name="e_wo_entrp">   -527.17813152 </i>
    <i name="e_0_energy">   -527.17813152 </i>
   </energy>
  </scstep>
  <scstep>
   <time name="dav">  154.58  154.59</time>
   <time name="total">  170.26  170.28</time>
   <energy>
    <i name="e_fr_energy">   -527.17927508 </i>
    <i name="e_wo_entrp">   -527.17927508 </i>
    <i name="e_0_energy">   -527.17927508 </i>
   </energy>
  </scstep>
  <scstep>
   <time name="dav">  138.01  138.02</time>
   <time name="total">  153.72  153.73</time>
   <energy>
    <i name="e_fr_energy">   -527.18044037 </i>
    <i name="e_wo_entrp">   -527.18044037 </i>
    <i name="e_0_energy">   -527.18044037 </i>
   </energy>
  </scstep>
  <scstep>
   <time name="dav">  132.93  132.93</time>
   <time name="total">  148.75  148.76</time>
   <energy>
    <i name="e_fr_energy">   -527.18087146 </i>
    <i name="e_wo_entrp">   -527.18087146 </i>
    <i name="e_0_energy">   -527.18087146 </i>
   </energy>
  </scstep>
  <scstep>
   <time name="dav">  125.46  125.46</time>
   <time name="total">  141.26  141.27</time>
   <energy>
    <i name="e_fr_energy">   -527.18122964 </i>
    <i name="e_wo_entrp">   -527.18122964 </i>
    <i name="e_0_energy">   -527.18122964 </i>
   </energy>
  </scstep>
  <scstep>
   <time name="dav">  121.03  121.03</time>
   <time name="total">  136.74  136.75</time>
   <energy>
    <i name="e_fr_energy">   -527.18185687 </i>
    <i name="e_wo_entrp">   -527.18185687 </i>
    <i name="e_0_energy">   -527.18185687 </i>
   </energy>
  </scstep>
  <scstep>
   <time name="dav">  125.47  125.47</time>
   <time name="total">  141.46  141.47</time>
   <energy>
    <i name="e_fr_energy">   -527.18202786 </i>
    <i name="e_wo_entrp">   -527.18202786 </i>
    <i name="e_0_energy">   -527.18202786 </i>
   </energy>
  </scstep>
  <scstep>
   <time name="dav">  103.72  103.72</time>
   <time name="total">  119.61  119.63</time>
   <energy>
    <i name="e_fr_energy">   -527.18210295 </i>
    <i name="e_wo_entrp">   -527.18210295 </i>
    <i name="e_0_energy">   -527.18210295 </i>
   </energy>
  </scstep>
  <scstep>
   <time name="dav">  112.47  112.47</time>
   <time name="total">  127.83  127.85</time>
   <energy>
    <i name="e_fr_energy">   -527.18219653 </i>
    <i name="e_wo_entrp">   -527.18219653 </i>
    <i name="e_0_energy">   -527.18219653 </i>
   </energy>
  </scstep>
  <scstep>
   <time name="dav">   97.57   97.57</time>
   <time name="total">  113.31  113.33</time>
   <energy>
    <i name="e_fr_energy">   -527.18221698 </i>
    <i name="e_wo_entrp">   -527.18221698 </i>
    <i name="e_0_energy">   -527.18221698 </i>
   </energy>
  </scstep>
  <scstep>
   <time name="dav">   97.77   97.77</time>
   <time name="total">  113.47  113.49</time>
   <energy>
    <i name="e_fr_energy">   -527.18222970 </i>
    <i name="e_wo_entrp">   -527.18222970 </i>
    <i name="e_0_energy">   -527.18222970 </i>
   </energy>
  </scstep>
  <scstep>
   <time name="dav">   96.43   96.43</time>
   <time name="total">  111.97  111.98</time>
   <energy>
    <i name="e_fr_energy">   -527.18223963 </i>
    <i name="e_wo_entrp">   -527.18223963 </i>
    <i name="e_0_energy">   -527.18223963 </i>
   </energy>
  </scstep>
  <scstep>
   <time name="dav">   96.78   96.78</time>
   <time name="total">  112.50  112.51</time>
   <energy>
    <i name="e_fr_energy">   -527.18224912 </i>
    <i name="e_wo_entrp">   -527.18224912 </i>
    <i name="e_0_energy">   -527.18224912 </i>
   </energy>
  </scstep>
  <scstep>
   <time name="dav">   92.97   92.97</time>
   <time name="total">  108.07  108.08</time>
   <energy>
    <i name="e_fr_energy">   -527.18225193 </i>
    <i name="e_wo_entrp">   -527.18225193 </i>
    <i name="e_0_energy">   -527.18225193 </i>
   </energy>
  </scstep>
  <scstep>
   <time name="dav">   94.21   94.21</time>
   <time name="total">  109.28  109.29</time>
   <energy>
    <i name="e_fr_energy">   -527.18225428 </i>
    <i name="e_wo_entrp">   -527.18225428 </i>
    <i name="e_0_energy">   -527.18225428 </i>
   </energy>
  </scstep>
  <scstep>
   <time name="dav">   91.60   91.60</time>
   <time name="total">   93.92   93.93</time>
   <energy>
    <i name="alphaZ">    784.57699423 </i>
    <i name="ewald"> 253025.61235297 </i>
    <i name="hartreedc">-301012.31359888 </i>
    <i name="XCdc">   2490.45024930 </i>
    <i name="pawpsdc">  59530.81605850 </i>
    <i name="pawaedc"> -59363.12247238 </i>
    <i name="eentropy">     -0.00000000 </i>
    <i name="bandstr"> -12193.92577625 </i>
    <i name="atom">  56210.72393729 </i>
    <i name="e_fr_energy">   -527.18225522 </i>
    <i name="e_wo_entrp">   -527.18225522 </i>
    <i name="e_0_energy">   -527.18225522 </i>
   </energy>
  </scstep>
  <structure>
   <crystal>
    <varray name="basis" >
     <v>      13.79398668       0.00000000       0.00000000 </v>
     <v>      -6.89699334      11.94594288       0.00000000 </v>
     <v>       0.00000000       0.00000000      27.81022107 </v>
    </varray>
    <i name="volume">   4582.62876984 </i>
    <varray name="rec_basis" >
     <v>       0.07249536       0.04185521       0.00000000 </v>
     <v>       0.00000000       0.08371043       0.00000000 </v>
     <v>       0.00000000       0.00000000       0.03595800 </v>
    </varray>
   </crystal>
   <varray name="positions" >
    <v>       0.07623355       0.16027513       0.54308606 </v>
    <v>       0.08189133       0.41790429       0.54578636 </v>
    <v>       0.07491882       0.66871994       0.54095171 </v>
    <v>       0.08357056       0.91552812       0.54638416 </v>
    <v>       0.33362762       0.16405707       0.54730036 </v>
    <v>       0.33442120       0.41184837       0.54675810 </v>
    <v>       0.33872458       0.67826378       0.54463338 </v>
    <v>       0.33094946       0.92072885       0.54566369 </v>
    <v>       0.59024941       0.17402918       0.54195369 </v>
    <v>       0.57747946       0.41515036       0.54151069 </v>
    <v>       0.56938450       0.65216936       0.54674389 </v>
    <v>       0.57847607       0.91256565       0.54489554 </v>
    <v>       0.82982030       0.15955881       0.54266805 </v>
    <v>       0.83759111       0.41780895       0.53935942 </v>
    <v>       0.83458268       0.66689206       0.54468669 </v>
    <v>       0.82465459       0.90589586       0.54762117 </v>
    <v>       0.16318741       0.08162812       0.45570462 </v>
    <v>       0.16854642       0.34272280       0.45659573 </v>
    <v>       0.16700262       0.59008522       0.45523343 </v>
    <v>       0.15776726       0.83519045       0.45584992 </v>
    <v>       0.41328165       0.08083684       0.45477575 </v>
    <v>       0.41573905       0.33374823       0.45514453 </v>
    <v>       0.41907295       0.58269342       0.45928053 </v>
    <v>       0.42592966       0.83394044       0.45104914 </v>
    <v>       0.66519647       0.08121031       0.45074935 </v>
    <v>       0.66274129       0.32790947       0.45260482 </v>
    <v>       0.68231721       0.59301805       0.45599995 </v>
    <v>       0.67655785       0.83911892       0.45760922 </v>
    <v>       0.92469296       0.08647599       0.45605158 </v>
    <v>       0.91648458       0.33129072       0.45484017 </v>
    <v>       0.91128899       0.58106356       0.45532303 </v>
    <v>       0.91818730       0.83869958       0.45692168 </v>
    <v>       0.08444184       0.17240920       0.39817187 </v>
    <v>       0.07956604       0.42081428       0.39585581 </v>
    <v>       0.07290963       0.66708118       0.39958106 </v>
    <v>       0.07813173       0.91623910       0.39505117 </v>
    <v>       0.32547914       0.16116058       0.39745763 </v>
    <v>       0.32983628       0.41541683       0.39667965 </v>
    <v>       0.33553559       0.66509047       0.39345507 </v>
    <v>       0.33036049       0.91861760       0.39587653 </v>
    <v>       0.58181022       0.17083359       0.39339376 </v>
    <v>       0.58504355       0.42738084       0.39572363 </v>
    <v>       0.58889232       0.67359026       0.39695467 </v>
    <v>       0.59902750       0.91703538       0.39127310 </v>
    <v>       0.83306431       0.17079766       0.39400227 </v>
    <v>       0.83973748       0.42737046       0.39013737 </v>
    <v>       0.84906047       0.67306610       0.39640510 </v>
    <v>       0.83571590       0.92254364       0.39731743 </v>
    <v>       0.16451028       0.07313822       0.60895753 </v>
    <v>       0.16593629       0.32731065       0.60186987 </v>
    <v>       0.16589937       0.59156142       0.60187931 </v>
    <v>       0.16683054       0.83335080       0.60048422 </v>
    <v>       0.41635075       0.08132330       0.60854500 </v>
    <v>       0.42588089       0.34258276       0.60594334 </v>
    <v>       0.40408502       0.56804811       0.60588296 </v>
    <v>       0.42346840       0.83659681       0.60783194 </v>
    <v>       0.66603934       0.08433526       0.60763813 </v>
    <v>       0.65738101       0.32176194       0.60380624 </v>
    <v>       0.66422633       0.57002144       0.60723167 </v>
    <v>       0.66785196       0.82819553       0.60234984 </v>
    <v>       0.91486196       0.07857581       0.60476096 </v>
    <v>       0.92131153       0.32919363       0.60673767 </v>
    <v>       0.91677769       0.57739414       0.60201565 </v>
    <v>       0.91804269       0.83050226       0.60713466 </v>
    <v>       0.00642230       0.99597690       0.49969910 </v>
    <v>       0.99950309       0.24689454       0.49752336 </v>
    <v>       0.99532466       0.49976832       0.49794406 </v>
    <v>       0.00749531       0.75637898       0.49825851 </v>
    <v>       0.25137798       0.99725429       0.50164853 </v>
    <v>       0.25177157       0.25575643       0.49818714 </v>
    <v>       0.25384192       0.50142483       0.49985039 </v>
    <v>       0.25129435       0.75618227       0.50118398 </v>
    <v>       0.50729569       0.00267196       0.49784752 </v>
    <v>       0.49876076       0.25030701       0.49970460 </v>
    <v>       0.49585498       0.50021118       0.50249616 </v>
    <v>       0.50109810       0.76052123       0.49726556 </v>
    <v>       0.75908422       0.99248510       0.50148686 </v>
    <v>       0.74453344       0.24905618       0.50102931 </v>
    <v>       0.75265405       0.50207420       0.49914146 </v>
    <v>       0.75763566       0.74884829       0.49946701 </v>
   </varray>
  </structure>
  <varray name="forces" >
   <v>       0.74729652       0.44573343       0.35733846 </v>
   <v>       0.21110055       0.24937424      -0.27367390 </v>
   <v>       1.25533634       0.06676862       0.43163394 </v>
   <v>      -0.27357467       0.30387586      -0.50181207 </v>
   <v>      -0.15637076       0.11056799      -0.43063482 </v>
   <v>      -0.75904895      -0.23969282      -0.91677121 </v>
   <v>      -0.80379529      -0.61560049      -0.38685812 </v>
   <v>       0.71789265      -0.29046411      -0.64867841 </v>
   <v>      -0.34113613      -1.13402397       0.59220281 </v>
   <v>       1.00540262      -0.05233492       0.59729551 </v>
   <v>       0.82971638       0.66384544       0.11473641 </v>
   <v>       0.13646266       0.93615436      -0.37588052 </v>
   <v>      -0.09498524       0.21494123       0.54146754 </v>
   <v>      -0.64857328      -0.48028138       1.34765561 </v>
   <v>      -0.12315221      -0.26028901       0.29191204 </v>
   <v>       0.78546160       0.83141905      -0.56468738 </v>
   <v>       0.26122950       0.35973851       0.43878244 </v>
   <v>       0.45717161      -0.41108275       0.06967776 </v>
   <v>       0.46619132       0.00254547       0.27075235 </v>
   <v>       1.32056929       0.21261194      -0.12574848 </v>
   <v>       0.14183751      -0.11109765       0.53993153 </v>
   <v>      -0.35475808      -0.35058629       0.06576989 </v>
   <v>      -0.58995395       0.12502377      -1.07139241 </v>
   <v>      -0.96149954       0.31052713       0.52674661 </v>
   <v>      -0.24272563      -0.03275407       0.92689756 </v>
   <v>      -0.07153271       0.86055284       0.23138249 </v>
   <v>      -0.91101797      -0.49146947      -0.39748238 </v>
   <v>      -0.38180556      -0.72552916      -0.28666632 </v>
   <v>      -0.66492330      -0.47135888      -0.01142642 </v>
   <v>      -0.08047645       0.25631654      -0.21081607 </v>
   <v>       0.40293774      -0.10244290      -0.14078561 </v>
   <v>       0.37062207      -0.25002397      -0.07132487 </v>
   <v>       0.17255874      -0.09269602      -0.52898398 </v>
   <v>       0.23358160       0.03876908      -0.05590180 </v>
   <v>       0.90370628       0.23471744      -0.76127236 </v>
   <v>       0.12933961       0.25226801      -0.16992102 </v>
   <v>       0.27066929       0.33568470      -0.38758074 </v>
   <v>       0.18665317       0.29028826      -0.14289225 </v>
   <v>      -0.14765180       0.04965214       0.22284870 </v>
   <v>       0.18590134      -0.14248883      -0.20910563 </v>
   <v>       0.11271741      -0.26990011      -0.17309180 </v>
   <v>       0.14386459      -0.31971455       0.03769256 </v>
   <v>       0.13381428      -0.30496535       0.19869359 </v>
   <v>      -0.58838144       0.10788690       0.23929704 </v>
   <v>       0.19943032      -0.07851616       0.02984478 </v>
   <v>      -0.20190794      -0.60490516       0.57063645 </v>
   <v>      -0.98581238       0.03999536      -0.36543680 </v>
   <v>       0.30207434      -0.10044935      -0.35571274 </v>
   <v>      -0.14560839       0.54269272      -0.45047296 </v>
   <v>      -0.25337015      -0.04597287       0.34633840 </v>
   <v>       0.22617430      -0.29135927       0.08476671 </v>
   <v>       0.05572463      -0.34205296       0.91496181 </v>
   <v>      -0.07941171       0.08208872      -0.49890951 </v>
   <v>      -0.15754900      -0.75487319       0.01713253 </v>
   <v>       0.06701059       0.98732532       0.20264912 </v>
   <v>      -0.14217348      -0.15098510      -0.24365926 </v>
   <v>       0.23092276      -0.11998630      -0.70131156 </v>
   <v>       0.21828560       0.75132472      -0.12986518 </v>
   <v>      -0.12939188       0.60699349      -0.51128018 </v>
   <v>      -0.54124798      -0.41146876       0.70521145 </v>
   <v>       0.01191718       0.07374302      -0.09109213 </v>
   <v>      -0.24059843       0.06439422      -0.57271917 </v>
   <v>      -0.18951066       0.07547250       0.17795415 </v>
   <v>      -0.04410106      -0.19463234      -0.11832946 </v>
   <v>      -0.60278001       0.67056729       0.28397335 </v>
   <v>      -0.48413442       0.25541208       0.68082460 </v>
   <v>       0.54889934      -0.19177468       0.17516541 </v>
   <v>      -1.13882636      -0.60703754       0.77878626 </v>
   <v>      -0.25555789       0.73580496      -0.06650780 </v>
   <v>       0.22651244      -0.74627608       0.69191671 </v>
   <v>      -0.58235877       0.30930299       0.29646386 </v>
   <v>       0.24817533      -0.61300363      -0.42465418 </v>
   <v>      -0.06683503      -0.05131663      -0.22295532 </v>
   <v>      -0.00891086       0.09119368      -0.32578444 </v>
   <v>       0.50101915       0.15677162      -0.14891094 </v>
   <v>       0.66397215      -1.08318393       0.96120246 </v>
   <v>      -0.88351955       0.76722546      -0.04870719 </v>
   <v>       0.96307323       0.05943426      -1.21546781 </v>
   <v>      -0.23104119      -0.03224503      -0.11542272 </v>
   <v>      -0.48521594       0.03983031       0.49004499 </v>
  </varray>
  <varray name="stress" >
   <v>       2.65987924       0.86469748      -0.65266349 </v>
   <v>       0.86469750       1.98420652       2.33684808 </v>
   <v>      -0.65266352       2.33684811      -0.08414939 </v>
  </varray>
  <energy>
   <i name="e_fr_energy">   -527.18225522 </i>
   <i name="e_wo_entrp">   -527.18225522 </i>
   <i name="e_0_energy">     -0.00000000 </i>
  </energy>
  <time name="totalsc"> 5462.85 5463.33</time>
  <eigenvalues>
   <array>
    <dimension dim="1">band</dimension>
    <dimension dim="2">kpoint</dimension>
    <dimension dim="3">spin</dimension>
    <field>eigene</field>
    <field>occ</field>
    <set>
     <set comment="spin 1">
      <set comment="kpoint 1">
       <r>  -51.8323    1.0000 </r>
       <r>  -51.7565    1.0000 </r>
       <r>  -51.7216    1.0000 </r>
       <r>  -51.6716    1.0000 </r>
       <r>  -51.6710    1.0000 </r>
       <r>  -51.5573    1.0000 </r>
       <r>  -51.5161    1.0000 </r>
       <r>  -51.4970    1.0000 </r>
       <r>  -51.4950    1.0000 </r>
       <r>  -51.4869    1.0000 </r>
       <r>  -51.4467    1.0000 </r>
       <r>  -51.4433    1.0000 </r>
       <r>  -51.4307    1.0000 </r>
       <r>  -51.4134    1.0000 </r>
       <r>  -51.4020    1.0000 </r>
       <r>  -51.4019    1.0000 </r>
       <r>  -51.3885    1.0000 </r>
       <r>  -51.3378    1.0000 </r>
       <r>  -51.3155    1.0000 </r>
       <r>  -51.3080    1.0000 </r>
       <r>  -51.2683    1.0000 </r>
       <r>  -51.2668    1.0000 </r>
       <r>  -51.2579    1.0000 </r>
       <r>  -51.2519    1.0000 </r>
       <r>  -51.2245    1.0000 </r>
       <r>  -51.1908    1.0000 </r>
       <r>  -51.1449    1.0000 </r>
       <r>  -51.1349    1.0000 </r>
       <r>  -51.1333    1.0000 </r>
       <r>  -51.1303    1.0000 </r>
       <r>  -51.0795    1.0000 </r>
       <r>  -51.0684    1.0000 </r>
       <r>  -30.5378    1.0000 </r>
       <r>  -30.5051    1.0000 </r>
       <r>  -30.4700    1.0000 </r>
       <r>  -30.4562    1.0000 </r>
       <r>  -30.4416    1.0000 </r>
       <r>  -30.3994    1.0000 </r>
       <r>  -30.3886    1.0000 </r>
       <r>  -30.3643    1.0000 </r>
       <r>  -30.3578    1.0000 </r>
       <r>  -30.3511    1.0000 </r>
       <r>  -30.3425    1.0000 </r>
       <r>  -30.3294    1.0000 </r>
       <r>  -30.3278    1.0000 </r>
       <r>  -30.3206    1.0000 </r>
       <r>  -30.3115    1.0000 </r>
       <r>  -30.2725    1.0000 </r>
       <r>  -30.2599    1.0000 </r>
       <r>  -30.2396    1.0000 </r>
       <r>  -30.2256    1.0000 </r>
       <r>  -30.2118    1.0000 </r>
       <r>  -30.2009    1.0000 </r>
       <r>  -30.1949    1.0000 </r>
       <r>  -30.1910    1.0000 </r>
       <r>  -30.1876    1.0000 </r>
       <r>  -30.1794    1.0000 </r>
       <r>  -30.1746    1.0000 </r>
       <r>  -30.1718    1.0000 </r>
       <r>  -30.1661    1.0000 </r>
       <r>  -30.1619    1.0000 </r>
       <r>  -30.1523    1.0000 </r>
       <r>  -30.1468    1.0000 </r>
       <r>  -30.1406    1.0000 </r>
       <r>  -30.1346    1.0000 </r>
       <r>  -30.1293    1.0000 </r>
       <r>  -30.1262    1.0000 </r>
       <r>  -30.1169    1.0000 </r>
       <r>  -30.1123    1.0000 </r>
       <r>  -30.1054    1.0000 </r>
       <r>  -30.0996    1.0000 </r>
       <r>  -30.0965    1.0000 </r>
       <r>  -30.0842    1.0000 </r>
       <r>  -30.0704    1.0000 </r>
       <r>  -30.0678    1.0000 </r>
       <r>  -30.0605    1.0000 </r>
       <r>  -30.0545    1.0000 </r>
       <r>  -30.0432    1.0000 </r>
       <r>  -30.0364    1.0000 </r>
       <r>  -30.0314    1.0000 </r>
       <r>  -30.0202    1.0000 </r>
       <r>  -30.0147    1.0000 </r>
       <r>  -30.0128    1.0000 </r>
       <r>  -30.0093    1.0000 </r>
       <r>  -30.0043    1.0000 </r>
       <r>  -29.9920    1.0000 </r>
       <r>  -29.9877    1.0000 </r>
       <r>  -29.9772    1.0000 </r>
       <r>  -29.9748    1.0000 </r>
       <r>  -29.9720    1.0000 </r>
       <r>  -29.9703    1.0000 </r>
       <r>  -29.9646    1.0000 </r>
       <r>  -29.9590    1.0000 </r>
       <r>  -29.9431    1.0000 </r>
       <r>  -29.9377    1.0000 </r>
       <r>  -29.9323    1.0000 </r>
       <r>  -29.9276    1.0000 </r>
       <r>  -29.9225    1.0000 </r>
       <r>  -29.9205    1.0000 </r>
       <r>  -29.9179    1.0000 </r>
       <r>  -29.9069    1.0000 </r>
       <r>  -29.8980    1.0000 </r>
       <r>  -29.8941    1.0000 </r>
       <r>  -29.8894    1.0000 </r>
       <r>  -29.8805    1.0000 </r>
       <r>  -29.8753    1.0000 </r>
       <r>  -29.8700    1.0000 </r>
       <r>  -29.8518    1.0000 </r>
       <r>  -29.8511    1.0000 </r>
       <r>  -29.8498    1.0000 </r>
       <r>  -29.8316    1.0000 </r>
       <r>  -29.8153    1.0000 </r>
       <r>  -29.8091    1.0000 </r>
       <r>  -29.8033    1.0000 </r>
       <r>  -29.7912    1.0000 </r>
       <r>  -29.7886    1.0000 </r>
       <r>  -29.7776    1.0000 </r>
       <r>  -29.7739    1.0000 </r>
       <r>  -29.7593    1.0000 </r>
       <r>  -29.7552    1.0000 </r>
       <r>  -29.7474    1.0000 </r>
       <r>  -29.7451    1.0000 </r>
       <r>  -29.7424    1.0000 </r>
       <r>  -29.7305    1.0000 </r>
       <r>  -29.7273    1.0000 </r>
       <r>  -29.7035    1.0000 </r>
       <r>  -29.6914    1.0000 </r>
       <r>  -29.6672    1.0000 </r>
       <r>  -18.5305    1.0000 </r>
       <r>  -18.5048    1.0000 </r>
       <r>  -18.3824    1.0000 </r>
       <r>  -18.3774    1.0000 </r>
       <r>  -18.3345    1.0000 </r>
       <r>  -18.3188    1.0000 </r>
       <r>  -18.2704    1.0000 </r>
       <r>  -18.2149    1.0000 </r>
       <r>  -18.1920    1.0000 </r>
       <r>  -18.1561    1.0000 </r>
       <r>  -18.1353    1.0000 </r>
       <r>  -18.1223    1.0000 </r>
       <r>  -18.1173    1.0000 </r>
       <r>  -18.0659    1.0000 </r>
       <r>  -18.0407    1.0000 </r>
       <r>  -18.0386    1.0000 </r>
       <r>  -17.9940    1.0000 </r>
       <r>  -17.9806    1.0000 </r>
       <r>  -17.9664    1.0000 </r>
       <r>  -17.9510    1.0000 </r>
       <r>  -17.9110    1.0000 </r>
       <r>  -17.8954    1.0000 </r>
       <r>  -17.8727    1.0000 </r>
       <r>  -17.8219    1.0000 </r>
       <r>  -17.8084    1.0000 </r>
       <r>  -17.7977    1.0000 </r>
       <r>  -17.7666    1.0000 </r>
       <r>  -17.7245    1.0000 </r>
       <r>  -17.6782    1.0000 </r>
       <r>  -17.6587    1.0000 </r>
       <r>  -17.5686    1.0000 </r>
       <r>  -17.5157    1.0000 </r>
       <r>  -11.7700    1.0000 </r>
       <r>  -11.4175    1.0000 </r>
       <r>  -11.4113    1.0000 </r>
       <r>  -11.3758    1.0000 </r>
       <r>  -11.3301    1.0000 </r>
       <r>  -11.3108    1.0000 </r>
       <r>  -11.2776    1.0000 </r>
       <r>  -10.9632    1.0000 </r>
       <r>  -10.9341    1.0000 </r>
       <r>  -10.9234    1.0000 </r>
       <r>  -10.9086    1.0000 </r>
       <r>  -10.8794    1.0000 </r>
       <r>  -10.8256    1.0000 </r>
       <r>  -10.7824    1.0000 </r>
       <r>  -10.7393    1.0000 </r>
       <r>  -10.6488    1.0000 </r>
       <r>   -8.0139    1.0000 </r>
       <r>   -7.9576    1.0000 </r>
       <r>   -7.9376    1.0000 </r>
       <r>   -7.8318    1.0000 </r>
       <r>   -7.7626    1.0000 </r>
       <r>   -7.7323    1.0000 </r>
       <r>   -7.6031    1.0000 </r>
       <r>   -7.5400    1.0000 </r>
       <r>   -7.5143    1.0000 </r>
       <r>   -7.4806    1.0000 </r>
       <r>   -7.4677    1.0000 </r>
       <r>   -7.4357    1.0000 </r>
       <r>   -7.4219    1.0000 </r>
       <r>   -7.4131    1.0000 </r>
       <r>   -7.3887    1.0000 </r>
       <r>   -7.3752    1.0000 </r>
       <r>   -7.3551    1.0000 </r>
       <r>   -7.2920    1.0000 </r>
       <r>   -7.2453    1.0000 </r>
       <r>   -7.1037    1.0000 </r>
       <r>   -7.0773    1.0000 </r>
       <r>   -7.0650    1.0000 </r>
       <r>   -7.0260    1.0000 </r>
       <r>   -6.9959    1.0000 </r>
       <r>   -6.9849    1.0000 </r>
       <r>   -6.9545    1.0000 </r>
       <r>   -6.9308    1.0000 </r>
       <r>   -6.8999    1.0000 </r>
       <r>   -6.8928    1.0000 </r>
       <r>   -6.8795    1.0000 </r>
       <r>   -6.8562    1.0000 </r>
       <r>   -6.8290    1.0000 </r>
       <r>   -6.8097    1.0000 </r>
       <r>   -6.7874    1.0000 </r>
       <r>   -6.7650    1.0000 </r>
       <r>   -6.7344    1.0000 </r>
       <r>   -6.7316    1.0000 </r>
       <r>   -6.7123    1.0000 </r>
       <r>   -6.6981    1.0000 </r>
       <r>   -6.6808    1.0000 </r>
       <r>   -6.6771    1.0000 </r>
       <r>   -6.6530    1.0000 </r>
       <r>   -6.6362    1.0000 </r>
       <r>   -6.6199    1.0000 </r>
       <r>   -6.6037    1.0000 </r>
       <r>   -6.5954    1.0000 </r>
       <r>   -6.5900    1.0000 </r>
       <r>   -6.5761    1.0000 </r>
       <r>   -6.5672    1.0000 </r>
       <r>   -6.5528    1.0000 </r>
       <r>   -6.5463    1.0000 </r>
       <r>   -6.5290    1.0000 </r>
       <r>   -6.5154    1.0000 </r>
       <r>   -6.5046    1.0000 </r>
       <r>   -6.4840    1.0000 </r>
       <r>   -6.4804    1.0000 </r>
       <r>   -6.4636    1.0000 </r>
       <r>   -6.4383    1.0000 </r>
       <r>   -6.4308    1.0000 </r>
       <r>   -6.4235    1.0000 </r>
       <r>   -6.4210    1.0000 </r>
       <r>   -6.4025    1.0000 </r>
       <r>   -6.3956    1.0000 </r>
       <r>   -6.3795    1.0000 </r>
       <r>   -6.3755    1.0000 </r>
       <r>   -6.3505    1.0000 </r>
       <r>   -6.3239    1.0000 </r>
       <r>   -6.3082    1.0000 </r>
       <r>   -6.2812    1.0000 </r>
       <r>   -6.2747    1.0000 </r>
       <r>   -6.2503    1.0000 </r>
       <r>   -6.2322    1.0000 </r>
       <r>   -6.2210    1.0000 </r>
       <r>   -6.1539    1.0000 </r>
       <r>   -5.9041    1.0000 </r>
       <r>   -5.8888    1.0000 </r>
       <r>   -5.8579    1.0000 </r>
       <r>   -5.8315    1.0000 </r>
       <r>   -5.8224    1.0000 </r>
       <r>   -5.7092    1.0000 </r>
       <r>   -5.6900    1.0000 </r>
       <r>   -5.6375    1.0000 </r>
       <r>   -5.6062    1.0000 </r>
       <r>   -5.5993    1.0000 </r>
       <r>   -5.5624    1.0000 </r>
       <r>   -5.5255    1.0000 </r>
       <r>   -5.4923    1.0000 </r>
       <r>   -5.4699    1.0000 </r>
       <r>   -5.4527    1.0000 </r>
       <r>   -5.4246    1.0000 </r>
       <r>   -5.3938    1.0000 </r>
       <r>   -5.3511    1.0000 </r>
       <r>   -5.3214    1.0000 </r>
       <r>   -5.2917    1.0000 </r>
       <r>   -5.1261    1.0000 </r>
       <r>   -5.0869    1.0000 </r>
       <r>   -4.8314    1.0000 </r>
       <r>   -4.8065    1.0000 </r>
       <r>   -4.7917    1.0000 </r>
       <r>   -4.6025    1.0000 </r>
       <r>   -4.6001    1.0000 </r>
       <r>   -4.5620    1.0000 </r>
       <r>   -4.5419    1.0000 </r>
       <r>   -4.5275    1.0000 </r>
       <r>   -4.4563    1.0000 </r>
       <r>   -4.1915    1.0000 </r>
       <r>   -4.1822    1.0000 </r>
       <r>   -4.1551    1.0000 </r>
       <r>   -4.1172    1.0000 </r>
       <r>   -4.0790    1.0000 </r>
       <r>   -4.0697    1.0000 </r>
       <r>   -4.0479    1.0000 </r>
       <r>   -4.0114    1.0000 </r>
       <r>   -3.9832    1.0000 </r>
       <r>   -3.9755    1.0000 </r>
       <r>   -3.9527    1.0000 </r>
       <r>   -3.9322    1.0000 </r>
       <r>   -3.8993    1.0000 </r>
       <r>   -3.8692    1.0000 </r>
       <r>   -3.8324    1.0000 </r>
       <r>   -3.7958    1.0000 </r>
       <r>   -3.7744    1.0000 </r>
       <r>   -3.7573    1.0000 </r>
       <r>   -3.7546    1.0000 </r>
       <r>   -3.6897    1.0000 </r>
       <r>   -3.6803    1.0000 </r>
       <r>   -3.6640    1.0000 </r>
       <r>   -3.6388    1.0000 </r>
       <r>   -3.5945    1.0000 </r>
       <r>   -3.5909    1.0000 </r>
       <r>   -3.5116    1.0000 </r>
       <r>   -3.4682    1.0000 </r>
       <r>   -3.3955    1.0000 </r>
       <r>   -3.3575    1.0000 </r>
       <r>   -3.3343    1.0000 </r>
       <r>   -3.2845    1.0000 </r>
       <r>   -3.2529    1.0000 </r>
       <r>   -3.2396    1.0000 </r>
       <r>   -3.2287    1.0000 </r>
       <r>   -3.2055    1.0000 </r>
       <r>   -3.1429    1.0000 </r>
       <r>   -3.1110    1.0000 </r>
       <r>   -2.9260    1.0000 </r>
       <r>   -2.8724    1.0000 </r>
       <r>   -2.0860    0.0000 </r>
       <r>   -2.0709    0.0000 </r>
       <r>   -2.0297    0.0000 </r>
       <r>   -1.4789    0.0000 </r>
       <r>   -1.4646    0.0000 </r>
       <r>   -1.4266    0.0000 </r>
       <r>   -1.4018    0.0000 </r>
       <r>   -1.3734    0.0000 </r>
       <r>   -1.3404    0.0000 </r>
       <r>   -0.6622    0.0000 </r>
       <r>   -0.6389    0.0000 </r>
       <r>   -0.6109    0.0000 </r>
       <r>   -0.5617    0.0000 </r>
       <r>   -0.5473    0.0000 </r>
       <r>   -0.5221    0.0000 </r>
       <r>   -0.4644    0.0000 </r>
       <r>   -0.4633    0.0000 </r>
       <r>   -0.4307    0.0000 </r>
       <r>   -0.4189    0.0000 </r>
       <r>   -0.3998    0.0000 </r>
       <r>   -0.3775    0.0000 </r>
       <r>   -0.3665    0.0000 </r>
       <r>   -0.2827    0.0000 </r>
       <r>   -0.2193    0.0000 </r>
       <r>    0.0832    0.0000 </r>
       <r>    0.1238    0.0000 </r>
       <r>    0.1756    0.0000 </r>
       <r>    0.1804    0.0000 </r>
       <r>    0.2051    0.0000 </r>
       <r>    0.2249    0.0000 </r>
       <r>    0.2421    0.0000 </r>
       <r>    0.2514    0.0000 </r>
       <r>    0.2766    0.0000 </r>
       <r>    0.3004    0.0000 </r>
       <r>    0.3385    0.0000 </r>
       <r>    0.3547    0.0000 </r>
       <r>    0.5262    0.0000 </r>
       <r>    0.5913    0.0000 </r>
       <r>    0.6618    0.0000 </r>
       <r>    0.6877    0.0000 </r>
       <r>    0.6909    0.0000 </r>
       <r>    0.7316    0.0000 </r>
       <r>    0.7473    0.0000 </r>
       <r>    0.7594    0.0000 </r>
       <r>    0.7720    0.0000 </r>
       <r>    0.7991    0.0000 </r>
       <r>    0.8160    0.0000 </r>
       <r>    0.8303    0.0000 </r>
       <r>    0.8366    0.0000 </r>
       <r>    0.8455    0.0000 </r>
       <r>    0.8776    0.0000 </r>
       <r>    0.8817    0.0000 </r>
       <r>    0.9015    0.0000 </r>
       <r>    0.9055    0.0000 </r>
       <r>    0.9233    0.0000 </r>
       <r>    0.9375    0.0000 </r>
       <r>    0.9613    0.0000 </r>
       <r>    0.9711    0.0000 </r>
       <r>    0.9793    0.0000 </r>
       <r>    1.0070    0.0000 </r>
       <r>    1.0246    0.0000 </r>
       <r>    1.0306    0.0000 </r>
       <r>    1.0432    0.0000 </r>
       <r>    1.0792    0.0000 </r>
      </set>
      <set comment="kpoint 2">
       <r>  -51.8323    1.0000 </r>
       <r>  -51.7565    1.0000 </r>
       <r>  -51.7216    1.0000 </r>
       <r>  -51.6716    1.0000 </r>
       <r>  -51.6710    1.0000 </r>
       <r>  -51.5573    1.0000 </r>
       <r>  -51.5161    1.0000 </r>
       <r>  -51.4970    1.0000 </r>
       <r>  -51.4950    1.0000 </r>
       <r>  -51.4869    1.0000 </r>
       <r>  -51.4467    1.0000 </r>
       <r>  -51.4433    1.0000 </r>
       <r>  -51.4307    1.0000 </r>
       <r>  -51.4134    1.0000 </r>
       <r>  -51.4020    1.0000 </r>
       <r>  -51.4019    1.0000 </r>
       <r>  -51.3885    1.0000 </r>
       <r>  -51.3378    1.0000 </r>
       <r>  -51.3155    1.0000 </r>
       <r>  -51.3080    1.0000 </r>
       <r>  -51.2683    1.0000 </r>
       <r>  -51.2668    1.0000 </r>
       <r>  -51.2579    1.0000 </r>
       <r>  -51.2519    1.0000 </r>
       <r>  -51.2245    1.0000 </r>
       <r>  -51.1908    1.0000 </r>
       <r>  -51.1449    1.0000 </r>
       <r>  -51.1349    1.0000 </r>
       <r>  -51.1333    1.0000 </r>
       <r>  -51.1303    1.0000 </r>
       <r>  -51.0795    1.0000 </r>
       <r>  -51.0684    1.0000 </r>
       <r>  -30.5377    1.0000 </r>
       <r>  -30.5051    1.0000 </r>
       <r>  -30.4699    1.0000 </r>
       <r>  -30.4560    1.0000 </r>
       <r>  -30.4414    1.0000 </r>
       <r>  -30.3993    1.0000 </r>
       <r>  -30.3882    1.0000 </r>
       <r>  -30.3643    1.0000 </r>
       <r>  -30.3573    1.0000 </r>
       <r>  -30.3512    1.0000 </r>
       <r>  -30.3421    1.0000 </r>
       <r>  -30.3293    1.0000 </r>
       <r>  -30.3279    1.0000 </r>
       <r>  -30.3205    1.0000 </r>
       <r>  -30.3115    1.0000 </r>
       <r>  -30.2734    1.0000 </r>
       <r>  -30.2614    1.0000 </r>
       <r>  -30.2394    1.0000 </r>
       <r>  -30.2273    1.0000 </r>
       <r>  -30.2151    1.0000 </r>
       <r>  -30.2019    1.0000 </r>
       <r>  -30.1950    1.0000 </r>
       <r>  -30.1910    1.0000 </r>
       <r>  -30.1864    1.0000 </r>
       <r>  -30.1780    1.0000 </r>
       <r>  -30.1738    1.0000 </r>
       <r>  -30.1708    1.0000 </r>
       <r>  -30.1680    1.0000 </r>
       <r>  -30.1623    1.0000 </r>
       <r>  -30.1498    1.0000 </r>
       <r>  -30.1435    1.0000 </r>
       <r>  -30.1415    1.0000 </r>
       <r>  -30.1355    1.0000 </r>
       <r>  -30.1276    1.0000 </r>
       <r>  -30.1229    1.0000 </r>
       <r>  -30.1184    1.0000 </r>
       <r>  -30.1127    1.0000 </r>
       <r>  -30.1061    1.0000 </r>
       <r>  -30.1033    1.0000 </r>
       <r>  -30.0964    1.0000 </r>
       <r>  -30.0825    1.0000 </r>
       <r>  -30.0699    1.0000 </r>
       <r>  -30.0672    1.0000 </r>
       <r>  -30.0602    1.0000 </r>
       <r>  -30.0561    1.0000 </r>
       <r>  -30.0446    1.0000 </r>
       <r>  -30.0364    1.0000 </r>
       <r>  -30.0317    1.0000 </r>
       <r>  -30.0243    1.0000 </r>
       <r>  -30.0174    1.0000 </r>
       <r>  -30.0138    1.0000 </r>
       <r>  -30.0054    1.0000 </r>
       <r>  -29.9998    1.0000 </r>
       <r>  -29.9894    1.0000 </r>
       <r>  -29.9865    1.0000 </r>
       <r>  -29.9766    1.0000 </r>
       <r>  -29.9748    1.0000 </r>
       <r>  -29.9718    1.0000 </r>
       <r>  -29.9698    1.0000 </r>
       <r>  -29.9658    1.0000 </r>
       <r>  -29.9596    1.0000 </r>
       <r>  -29.9457    1.0000 </r>
       <r>  -29.9386    1.0000 </r>
       <r>  -29.9335    1.0000 </r>
       <r>  -29.9272    1.0000 </r>
       <r>  -29.9226    1.0000 </r>
       <r>  -29.9206    1.0000 </r>
       <r>  -29.9146    1.0000 </r>
       <r>  -29.9061    1.0000 </r>
       <r>  -29.8981    1.0000 </r>
       <r>  -29.8958    1.0000 </r>
       <r>  -29.8883    1.0000 </r>
       <r>  -29.8820    1.0000 </r>
       <r>  -29.8746    1.0000 </r>
       <r>  -29.8687    1.0000 </r>
       <r>  -29.8550    1.0000 </r>
       <r>  -29.8524    1.0000 </r>
       <r>  -29.8486    1.0000 </r>
       <r>  -29.8303    1.0000 </r>
       <r>  -29.8135    1.0000 </r>
       <r>  -29.8098    1.0000 </r>
       <r>  -29.8026    1.0000 </r>
       <r>  -29.7907    1.0000 </r>
       <r>  -29.7884    1.0000 </r>
       <r>  -29.7771    1.0000 </r>
       <r>  -29.7744    1.0000 </r>
       <r>  -29.7599    1.0000 </r>
       <r>  -29.7542    1.0000 </r>
       <r>  -29.7477    1.0000 </r>
       <r>  -29.7463    1.0000 </r>
       <r>  -29.7429    1.0000 </r>
       <r>  -29.7293    1.0000 </r>
       <r>  -29.7269    1.0000 </r>
       <r>  -29.7041    1.0000 </r>
       <r>  -29.6918    1.0000 </r>
       <r>  -29.6680    1.0000 </r>
       <r>  -18.5062    1.0000 </r>
       <r>  -18.4877    1.0000 </r>
       <r>  -18.4200    1.0000 </r>
       <r>  -18.4066    1.0000 </r>
       <r>  -18.3437    1.0000 </r>
       <r>  -18.3348    1.0000 </r>
       <r>  -18.2732    1.0000 </r>
       <r>  -18.1959    1.0000 </r>
       <r>  -18.1898    1.0000 </r>
       <r>  -18.1452    1.0000 </r>
       <r>  -18.1094    1.0000 </r>
       <r>  -18.0988    1.0000 </r>
       <r>  -18.0858    1.0000 </r>
       <r>  -18.0585    1.0000 </r>
       <r>  -18.0450    1.0000 </r>
       <r>  -18.0431    1.0000 </r>
       <r>  -18.0196    1.0000 </r>
       <r>  -17.9863    1.0000 </r>
       <r>  -17.9809    1.0000 </r>
       <r>  -17.9716    1.0000 </r>
       <r>  -17.9225    1.0000 </r>
       <r>  -17.8763    1.0000 </r>
       <r>  -17.8752    1.0000 </r>
       <r>  -17.8195    1.0000 </r>
       <r>  -17.8082    1.0000 </r>
       <r>  -17.7940    1.0000 </r>
       <r>  -17.7590    1.0000 </r>
       <r>  -17.7287    1.0000 </r>
       <r>  -17.6929    1.0000 </r>
[...]
       <r>   -32.3579     0.0000    64.0000 </r>
       <r>   -32.1639     0.0000    64.0000 </r>
       <r>   -31.9699     0.0000    64.0000 </r>
       <r>   -31.7758     0.0000    64.0000 </r>
       <r>   -31.5818     0.0000    64.0000 </r>
       <r>   -31.3878     0.0000    64.0000 </r>
       <r>   -31.1937     0.0000    64.0000 </r>
       <r>   -30.9997     0.0000    64.0000 </r>
       <r>   -30.8056     0.0000    64.0000 </r>
       <r>   -30.6116     0.2029    64.0394 </r>
       <r>   -30.4176    53.5498    74.4301 </r>
       <r>   -30.2235   148.0455   103.1566 </r>
       <r>   -30.0295   293.1450   160.0379 </r>
       <r>   -29.8354   307.8180   219.7664 </r>
       <r>   -29.6414   182.9769   255.2710 </r>
       <r>   -29.4474     3.7572   256.0000 </r>
       <r>   -29.2533     0.0000   256.0000 </r>
       <r>   -29.0593     0.0000   256.0000 </r>
       <r>   -28.8653     0.0000   256.0000 </r>
       <r>   -28.6712     0.0000   256.0000 </r>
       <r>   -28.4772     0.0000   256.0000 </r>
       <r>   -28.2831     0.0000   256.0000 </r>
       <r>   -28.0891     0.0000   256.0000 </r>
       <r>   -27.8951     0.0000   256.0000 </r>
       <r>   -27.7010     0.0000   256.0000 </r>
       <r>   -27.5070     0.0000   256.0000 </r>
       <r>   -27.3130     0.0000   256.0000 </r>
       <r>   -27.1189     0.0000   256.0000 </r>
       <r>   -26.9249     0.0000   256.0000 </r>
       <r>   -26.7308     0.0000   256.0000 </r>
       <r>   -26.5368     0.0000   256.0000 </r>
       <r>   -26.3428     0.0000   256.0000 </r>
       <r>   -26.1487     0.0000   256.0000 </r>
       <r>   -25.9547     0.0000   256.0000 </r>
       <r>   -25.7606     0.0000   256.0000 </r>
       <r>   -25.5666     0.0000   256.0000 </r>
       <r>   -25.3726     0.0000   256.0000 </r>
       <r>   -25.1785     0.0000   256.0000 </r>
       <r>   -24.9845     0.0000   256.0000 </r>
       <r>   -24.7905     0.0000   256.0000 </r>
       <r>   -24.5964     0.0000   256.0000 </r>
       <r>   -24.4024     0.0000   256.0000 </r>
       <r>   -24.2083     0.0000   256.0000 </r>
       <r>   -24.0143     0.0000   256.0000 </r>
       <r>   -23.8203     0.0000   256.0000 </r>
       <r>   -23.6262     0.0000   256.0000 </r>
       <r>   -23.4322     0.0000   256.0000 </r>
       <r>   -23.2381     0.0000   256.0000 </r>
       <r>   -23.0441     0.0000   256.0000 </r>
       <r>   -22.8501     0.0000   256.0000 </r>
       <r>   -22.6560     0.0000   256.0000 </r>
       <r>   -22.4620     0.0000   256.0000 </r>
       <r>   -22.2680     0.0000   256.0000 </r>
       <r>   -22.0739     0.0000   256.0000 </r>
       <r>   -21.8799     0.0000   256.0000 </r>
       <r>   -21.6858     0.0000   256.0000 </r>
       <r>   -21.4918     0.0000   256.0000 </r>
       <r>   -21.2978     0.0000   256.0000 </r>
       <r>   -21.1037     0.0000   256.0000 </r>
       <r>   -20.9097     0.0000   256.0000 </r>
       <r>   -20.7156     0.0000   256.0000 </r>
       <r>   -20.5216     0.0000   256.0000 </r>
       <r>   -20.3276     0.0000   256.0000 </r>
       <r>   -20.1335     0.0000   256.0000 </r>
       <r>   -19.9395     0.0000   256.0000 </r>
       <r>   -19.7455     0.0000   256.0000 </r>
       <r>   -19.5514     0.0000   256.0000 </r>
       <r>   -19.3574     0.0000   256.0000 </r>
       <r>   -19.1633     0.0000   256.0000 </r>
       <r>   -18.9693     0.0000   256.0000 </r>
       <r>   -18.7753     0.0000   256.0000 </r>
       <r>   -18.5812     0.2725   256.0529 </r>
       <r>   -18.3872    37.7074   263.3696 </r>
       <r>   -18.1931    44.4445   271.9935 </r>
       <r>   -17.9991    94.2508   290.2818 </r>
       <r>   -17.8051    78.3930   305.4930 </r>
       <r>   -17.6110    53.9392   315.9593 </r>
       <r>   -17.4170    20.7957   319.9944 </r>
       <r>   -17.2230     0.0286   320.0000 </r>
       <r>   -17.0289     0.0000   320.0000 </r>
       <r>   -16.8349     0.0000   320.0000 </r>
       <r>   -16.6408     0.0000   320.0000 </r>
       <r>   -16.4468     0.0000   320.0000 </r>
       <r>   -16.2528     0.0000   320.0000 </r>
       <r>   -16.0587     0.0000   320.0000 </r>
       <r>   -15.8647     0.0000   320.0000 </r>
       <r>   -15.6707     0.0000   320.0000 </r>
       <r>   -15.4766     0.0000   320.0000 </r>
       <r>   -15.2826     0.0000   320.0000 </r>
       <r>   -15.0885     0.0000   320.0000 </r>
       <r>   -14.8945     0.0000   320.0000 </r>
       <r>   -14.7005     0.0000   320.0000 </r>
       <r>   -14.5064     0.0000   320.0000 </r>
       <r>   -14.3124     0.0000   320.0000 </r>
       <r>   -14.1183     0.0000   320.0000 </r>
       <r>   -13.9243     0.0000   320.0000 </r>
       <r>   -13.7303     0.0000   320.0000 </r>
       <r>   -13.5362     0.0000   320.0000 </r>
       <r>   -13.3422     0.0000   320.0000 </r>
       <r>   -13.1482     0.0000   320.0000 </r>
       <r>   -12.9541     0.0000   320.0000 </r>
       <r>   -12.7601     0.0000   320.0000 </r>
       <r>   -12.5660     0.0000   320.0000 </r>
       <r>   -12.3720     0.0000   320.0000 </r>
       <r>   -12.1780     0.0000   320.0000 </r>
       <r>   -11.9839     0.0000   320.0000 </r>
       <r>   -11.7899     0.5106   320.0991 </r>
       <r>   -11.5958    13.3748   322.6943 </r>
       <r>   -11.4018    20.0696   326.5886 </r>
       <r>   -11.2078    23.0262   331.0565 </r>
       <r>   -11.0137    28.6591   336.6175 </r>
       <r>   -10.8197    46.0776   345.5583 </r>
       <r>   -10.6257    29.2017   351.2246 </r>
       <r>   -10.4316     3.9963   352.0000 </r>
       <r>   -10.2376     0.0000   352.0000 </r>
       <r>   -10.0435     0.0000   352.0000 </r>
       <r>    -9.8495     0.0000   352.0000 </r>
       <r>    -9.6555     0.0000   352.0000 </r>
       <r>    -9.4614     0.0000   352.0000 </r>
       <r>    -9.2674     0.0000   352.0000 </r>
       <r>    -9.0733     0.0000   352.0000 </r>
       <r>    -8.8793     0.0000   352.0000 </r>
       <r>    -8.6853     0.0000   352.0000 </r>
       <r>    -8.4912     0.0000   352.0000 </r>
       <r>    -8.2972     0.0000   352.0000 </r>
       <r>    -8.1032     0.0066   352.0013 </r>
       <r>    -7.9091     7.7311   353.5014 </r>
       <r>    -7.7151    37.3619   360.7511 </r>
       <r>    -7.5210    57.1220   371.8349 </r>
       <r>    -7.3270    69.9753   385.4128 </r>
       <r>    -7.1330    55.8516   396.2502 </r>
       <r>    -6.9389    63.6862   408.6077 </r>
       <r>    -6.7449    99.9698   428.0057 </r>
       <r>    -6.5509   119.6879   451.2297 </r>
       <r>    -6.3568   108.4487   472.2729 </r>
       <r>    -6.1628    80.4714   487.8875 </r>
       <r>    -5.9687    54.9790   498.5555 </r>
       <r>    -5.7747    67.8670   511.7243 </r>
       <r>    -5.5807    61.2904   523.6170 </r>
       <r>    -5.3866    59.6954   535.2002 </r>
       <r>    -5.1926    32.8489   541.5741 </r>
       <r>    -4.9985    12.4895   543.9976 </r>
       <r>    -4.8045     4.8752   544.9435 </r>
       <r>    -4.6105    44.3386   553.5469 </r>
       <r>    -4.4164    44.1120   562.1063 </r>
       <r>    -4.2224    27.3518   567.4136 </r>
       <r>    -4.0284    27.1663   572.6849 </r>
       <r>    -3.8343    69.9693   586.2617 </r>
       <r>    -3.6403    94.1688   604.5340 </r>
       <r>    -3.4462    72.9145   618.6822 </r>
       <r>    -3.2522    61.9496   630.7028 </r>
       <r>    -3.0582    33.0682   637.1193 </r>
       <r>    -2.8641    13.9744   639.8309 </r>
       <r>    -2.6701     0.8717   640.0000 </r>
       <r>    -2.4760     0.0000   640.0000 </r>
       <r>    -2.2820     0.0000   640.0000 </r>
       <r>    -2.0880     0.9971   640.1935 </r>
       <r>    -1.8939     9.2854   641.9952 </r>
       <r>    -1.6999    22.0007   646.2642 </r>
       <r>    -1.5059    12.8276   648.7532 </r>
       <r>    -1.3118    19.7561   652.5867 </r>
       <r>    -1.1178    20.8734   656.6369 </r>
       <r>    -0.9237    35.5835   663.5415 </r>
       <r>    -0.7297    10.9372   665.6637 </r>
       <r>    -0.5357    28.0774   671.1118 </r>
       <r>    -0.3416    38.7461   678.6300 </r>
       <r>    -0.1476    29.2322   684.3022 </r>
       <r>     0.0465    32.6139   690.6306 </r>
       <r>     0.2405    32.9073   697.0158 </r>
       <r>     0.4345    37.9798   704.3854 </r>
       <r>     0.6286    48.4899   713.7943 </r>
       <r>     0.8226   115.4282   736.1918 </r>
       <r>     1.0166   130.2887   761.4728 </r>
       <r>     1.2107    33.6380   767.9998 </r>
       <r>     1.4047     0.0009   768.0000 </r>
       <r>     1.5988     0.0000   768.0000 </r>
       <r>     1.7928     0.0000   768.0000 </r>
       <r>     1.9868     0.0000   768.0000 </r>
       <r>     2.1809     0.0000   768.0000 </r>
       <r>     2.3749     0.0000   768.0000 </r>
       <r>     2.5689     0.0000   768.0000 </r>
       <r>     2.7630     0.0000   768.0000 </r>
       <r>     2.9570     0.0000   768.0000 </r>
       <r>     3.1511     0.0000   768.0000 </r>
       <r>     3.3451     0.0000   768.0000 </r>
       <r>     3.5391     0.0000   768.0000 </r>
       <r>     3.7332     0.0000   768.0000 </r>
      </set>
     </set>
    </array>
   </total>
  </dos>
 </calculation>
 <structure name="finalpos" >
  <crystal>
   <varray name="basis" >
    <v>      13.79398668       0.00000000       0.00000000 </v>
    <v>      -6.89699334      11.94594288       0.00000000 </v>
    <v>       0.00000000       0.00000000      27.81022107 </v>
   </varray>
   <i name="volume">   4582.62876984 </i>
   <varray name="rec_basis" >
    <v>       0.07249536       0.04185521       0.00000000 </v>
    <v>       0.00000000       0.08371043       0.00000000 </v>
    <v>       0.00000000       0.00000000       0.03595800 </v>
   </varray>
  </crystal>
  <varray name="positions" >
   <v>       0.07623355       0.16027513       0.54308606 </v>
   <v>       0.08189133       0.41790429       0.54578636 </v>
   <v>       0.07491882       0.66871994       0.54095171 </v>
   <v>       0.08357056       0.91552812       0.54638416 </v>
   <v>       0.33362762       0.16405707       0.54730036 </v>
   <v>       0.33442120       0.41184837       0.54675810 </v>
   <v>       0.33872458       0.67826378       0.54463338 </v>
   <v>       0.33094946       0.92072885       0.54566369 </v>
   <v>       0.59024941       0.17402918       0.54195369 </v>
   <v>       0.57747946       0.41515036       0.54151069 </v>
   <v>       0.56938450       0.65216936       0.54674389 </v>
   <v>       0.57847607       0.91256565       0.54489554 </v>
   <v>       0.82982030       0.15955881       0.54266805 </v>
   <v>       0.83759111       0.41780895       0.53935942 </v>
   <v>       0.83458268       0.66689206       0.54468669 </v>
   <v>       0.82465459       0.90589586       0.54762117 </v>
   <v>       0.16318741       0.08162812       0.45570462 </v>
   <v>       0.16854642       0.34272280       0.45659573 </v>
   <v>       0.16700262       0.59008522       0.45523343 </v>
   <v>       0.15776726       0.83519045       0.45584992 </v>
   <v>       0.41328165       0.08083684       0.45477575 </v>
   <v>       0.41573905       0.33374823       0.45514453 </v>
   <v>       0.41907295       0.58269342       0.45928053 </v>
   <v>       0.42592966       0.83394044       0.45104914 </v>
   <v>       0.66519647       0.08121031       0.45074935 </v>
   <v>       0.66274129       0.32790947       0.45260482 </v>
   <v>       0.68231721       0.59301805       0.45599995 </v>
   <v>       0.67655785       0.83911892       0.45760922 </v>
   <v>       0.92469296       0.08647599       0.45605158 </v>
   <v>       0.91648458       0.33129072       0.45484017 </v>
   <v>       0.91128899       0.58106356       0.45532303 </v>
   <v>       0.91818730       0.83869958       0.45692168 </v>
   <v>       0.08444184       0.17240920       0.39817187 </v>
   <v>       0.07956604       0.42081428       0.39585581 </v>
   <v>       0.07290963       0.66708118       0.39958106 </v>
   <v>       0.07813173       0.91623910       0.39505117 </v>
   <v>       0.32547914       0.16116058       0.39745763 </v>
   <v>       0.32983628       0.41541683       0.39667965 </v>
   <v>       0.33553559       0.66509047       0.39345507 </v>
   <v>       0.33036049       0.91861760       0.39587653 </v>
   <v>       0.58181022       0.17083359       0.39339376 </v>
   <v>       0.58504355       0.42738084       0.39572363 </v>
   <v>       0.58889232       0.67359026       0.39695467 </v>
   <v>       0.59902750       0.91703538       0.39127310 </v>
   <v>       0.83306431       0.17079766       0.39400227 </v>
   <v>       0.83973748       0.42737046       0.39013737 </v>
   <v>       0.84906047       0.67306610       0.39640510 </v>
   <v>       0.83571590       0.92254364       0.39731743 </v>
   <v>       0.16451028       0.07313822       0.60895753 </v>
   <v>       0.16593629       0.32731065       0.60186987 </v>
   <v>       0.16589937       0.59156142       0.60187931 </v>
   <v>       0.16683054       0.83335080       0.60048422 </v>
   <v>       0.41635075       0.08132330       0.60854500 </v>
   <v>       0.42588089       0.34258276       0.60594334 </v>
   <v>       0.40408502       0.56804811       0.60588296 </v>
   <v>       0.42346840       0.83659681       0.60783194 </v>
   <v>       0.66603934       0.08433526       0.60763813 </v>
   <v>       0.65738101       0.32176194       0.60380624 </v>
   <v>       0.66422633       0.57002144       0.60723167 </v>
   <v>       0.66785196       0.82819553       0.60234984 </v>
   <v>       0.91486196       0.07857581       0.60476096 </v>
   <v>       0.92131153       0.32919363       0.60673767 </v>
   <v>       0.91677769       0.57739414       0.60201565 </v>
   <v>       0.91804269       0.83050226       0.60713466 </v>
   <v>       0.00642230       0.99597690       0.49969910 </v>
   <v>       0.99950309       0.24689454       0.49752336 </v>
   <v>       0.99532466       0.49976832       0.49794406 </v>
   <v>       0.00749531       0.75637898       0.49825851 </v>
   <v>       0.25137798       0.99725429       0.50164853 </v>
   <v>       0.25177157       0.25575643       0.49818714 </v>
   <v>       0.25384192       0.50142483       0.49985039 </v>
   <v>       0.25129435       0.75618227       0.50118398 </v>
   <v>       0.50729569       0.00267196       0.49784752 </v>
   <v>       0.49876076       0.25030701       0.49970460 </v>
   <v>       0.49585498       0.50021118       0.50249616 </v>
   <v>       0.50109810       0.76052123       0.49726556 </v>
   <v>       0.75908422       0.99248510       0.50148686 </v>
   <v>       0.74453344       0.24905618       0.50102931 </v>
   <v>       0.75265405       0.50207420       0.49914146 </v>
   <v>       0.75763566       0.74884829       0.49946701 </v>
  </varray>
  <varray name="velocities" >
   <v>       0.00000000       0.00000000       0.00000000 </v>
   <v>       0.00000000       0.00000000       0.00000000 </v>
   <v>       0.00000000       0.00000000       0.00000000 </v>
   <v>       0.00000000       0.00000000       0.00000000 </v>
   <v>       0.00000000       0.00000000       0.00000000 </v>
   <v>       0.00000000       0.00000000       0.00000000 </v>
   <v>       0.00000000       0.00000000       0.00000000 </v>
   <v>       0.00000000       0.00000000       0.00000000 </v>
   <v>       0.00000000       0.00000000       0.00000000 </v>
   <v>       0.00000000       0.00000000       0.00000000 </v>
   <v>       0.00000000       0.00000000       0.00000000 </v>
   <v>       0.00000000       0.00000000       0.00000000 </v>
   <v>       0.00000000       0.00000000       0.00000000 </v>
   <v>       0.00000000       0.00000000       0.00000000 </v>
   <v>       0.00000000       0.00000000       0.00000000 </v>
   <v>       0.00000000       0.00000000       0.00000000 </v>
   <v>       0.00000000       0.00000000       0.00000000 </v>
   <v>       0.00000000       0.00000000       0.00000000 </v>
   <v>       0.00000000       0.00000000       0.00000000 </v>
   <v>       0.00000000       0.00000000       0.00000000 </v>
   <v>       0.00000000       0.00000000       0.00000000 </v>
   <v>       0.00000000       0.00000000       0.00000000 </v>
   <v>       0.00000000       0.00000000       0.00000000 </v>
   <v>       0.00000000       0.00000000       0.00000000 </v>
   <v>       0.00000000       0.00000000       0.00000000 </v>
   <v>       0.00000000       0.00000000       0.00000000 </v>
   <v>       0.00000000       0.00000000       0.00000000 </v>
   <v>       0.00000000       0.00000000       0.00000000 </v>
   <v>       0.00000000       0.00000000       0.00000000 </v>
   <v>       0.00000000       0.00000000       0.00000000 </v>
   <v>       0.00000000       0.00000000       0.00000000 </v>
   <v>       0.00000000       0.00000000       0.00000000 </v>
   <v>       0.00000000       0.00000000       0.00000000 </v>
   <v>       0.00000000       0.00000000       0.00000000 </v>
   <v>       0.00000000       0.00000000       0.00000000 </v>
   <v>       0.00000000       0.00000000       0.00000000 </v>
   <v>       0.00000000       0.00000000       0.00000000 </v>
   <v>       0.00000000       0.00000000       0.00000000 </v>
   <v>       0.00000000       0.00000000       0.00000000 </v>
   <v>       0.00000000       0.00000000       0.00000000 </v>
   <v>       0.00000000       0.00000000       0.00000000 </v>
   <v>       0.00000000       0.00000000       0.00000000 </v>
   <v>       0.00000000       0.00000000       0.00000000 </v>
   <v>       0.00000000       0.00000000       0.00000000 </v>
   <v>       0.00000000       0.00000000       0.00000000 </v>
   <v>       0.00000000       0.00000000       0.00000000 </v>
   <v>       0.00000000       0.00000000       0.00000000 </v>
   <v>       0.00000000       0.00000000       0.00000000 </v>
   <v>       0.00000000       0.00000000       0.00000000 </v>
   <v>       0.00000000       0.00000000       0.00000000 </v>
   <v>       0.00000000       0.00000000       0.00000000 </v>
   <v>       0.00000000       0.00000000       0.00000000 </v>
   <v>       0.00000000       0.00000000       0.00000000 </v>
   <v>       0.00000000       0.00000000       0.00000000 </v>
   <v>       0.00000000       0.00000000       0.00000000 </v>
   <v>       0.00000000       0.00000000       0.00000000 </v>
   <v>       0.00000000       0.00000000       0.00000000 </v>
   <v>       0.00000000       0.00000000       0.00000000 </v>
   <v>       0.00000000       0.00000000       0.00000000 </v>
   <v>       0.00000000       0.00000000       0.00000000 </v>
   <v>       0.00000000       0.00000000       0.00000000 </v>
   <v>       0.00000000       0.00000000       0.00000000 </v>
   <v>       0.00000000       0.00000000       0.00000000 </v>
   <v>       0.00000000       0.00000000       0.00000000 </v>
   <v>       0.00000000       0.00000000       0.00000000 </v>
   <v>       0.00000000       0.00000000       0.00000000 </v>
   <v>       0.00000000       0.00000000       0.00000000 </v>
   <v>       0.00000000       0.00000000       0.00000000 </v>
   <v>       0.00000000       0.00000000       0.00000000 </v>
   <v>       0.00000000       0.00000000       0.00000000 </v>
   <v>       0.00000000       0.00000000       0.00000000 </v>
   <v>       0.00000000       0.00000000       0.00000000 </v>
   <v>       0.00000000       0.00000000       0.00000000 </v>
   <v>       0.00000000       0.00000000       0.00000000 </v>
   <v>       0.00000000       0.00000000       0.00000000 </v>
   <v>       0.00000000       0.00000000       0.00000000 </v>
   <v>       0.00000000       0.00000000       0.00000000 </v>
   <v>       0.00000000       0.00000000       0.00000000 </v>
   <v>       0.00000000       0.00000000       0.00000000 </v>
   <v>       0.00000000       0.00000000       0.00000000 </v>
  </varray>
 </structure>
</modeling>
