 running on   52 total cores
 distrk:  each k-point on   52 cores,    1 groups
 distr:  one band on   13 cores,    4 groups
 using from now: INCAR     
 vasp.5.4.4.18Apr17-6-g9f103f2a35 (build Oct 31 2019 15:01:46) complex          
  
 POSCAR found type information on POSCAR  Sc F  C 
 POSCAR found :  3 types and      80 ions
 scaLAPACK is switched off
 LDA part: xc-table for Pade appr. of Perdew
 generate k-points for:    3    3    1
 POSCAR, INCAR and KPOINTS ok, starting setup
 FFT: planning ...
 WAVECAR not read
 entering main loop
       N       E                     dE             d eps       ncg     rms          rms(c)
DAV:   1     0.136616266917E+05    0.13662E+05   -0.27886E+05  4248   0.156E+03
DAV:   2     0.250276567867E+04   -0.11159E+05   -0.10856E+05  4632   0.532E+02
DAV:   3    -0.381667559122E+03   -0.28844E+04   -0.27687E+04  6792   0.295E+02
DAV:   4    -0.740500056458E+03   -0.35883E+03   -0.35457E+03  6064   0.139E+02
DAV:   5    -0.754899531246E+03   -0.14399E+02   -0.14341E+02  6080   0.352E+01    0.767E+01
DAV:   6    -0.599188296783E+03    0.15571E+03   -0.83663E+02  5704   0.643E+01    0.250E+01
DAV:   7    -0.599253624860E+03   -0.65328E-01   -0.52984E+01  5952   0.211E+01    0.163E+01
DAV:   8    -0.597658691030E+03    0.15949E+01   -0.10416E+01  5528   0.768E+00    0.444E+00
DAV:   9    -0.597135856318E+03    0.52283E+00   -0.29527E+00  5512   0.501E+00    0.212E+00
DAV:  10    -0.597099029091E+03    0.36827E-01   -0.23764E-01  5952   0.160E+00    0.111E+00
DAV:  11    -0.596966835013E+03    0.13219E+00   -0.17619E-01  5528   0.105E+00    0.772E-01
DAV:  12    -0.596943083843E+03    0.23751E-01   -0.49320E-02  6056   0.597E-01    0.334E-01
DAV:  13    -0.596934816175E+03    0.82677E-02   -0.36577E-02  5688   0.435E-01    0.321E-01
DAV:  14    -0.596931966465E+03    0.28497E-02   -0.14001E-02  5608   0.278E-01    0.148E-01
DAV:  15    -0.596937875448E+03   -0.59090E-02   -0.82589E-03  5760   0.194E-01    0.103E-01
DAV:  16    -0.596941526530E+03   -0.36511E-02   -0.19095E-03  5392   0.130E-01    0.766E-02
DAV:  17    -0.596946899498E+03   -0.53730E-02   -0.20124E-03  5712   0.964E-02    0.872E-02
DAV:  18    -0.596950169304E+03   -0.32698E-02   -0.91040E-04  5344   0.807E-02    0.457E-02
DAV:  19    -0.596951880918E+03   -0.17116E-02   -0.38550E-04  5648   0.469E-02    0.218E-02
DAV:  20    -0.596955011366E+03   -0.31304E-02   -0.14463E-04  5216   0.227E-02    0.226E-02
DAV:  21    -0.596957294979E+03   -0.22836E-02   -0.13109E-04  4760   0.190E-02    0.981E-03
DAV:  22    -0.596958258531E+03   -0.96355E-03   -0.85957E-05  4792   0.145E-02    0.102E-02
DAV:  23    -0.596958671346E+03   -0.41281E-03   -0.18077E-05  4736   0.114E-02    0.382E-03
DAV:  24    -0.596958968788E+03   -0.29744E-03   -0.10744E-05  4456   0.540E-03    0.290E-03
DAV:  25    -0.596959147358E+03   -0.17857E-03   -0.53346E-06  4096   0.386E-03    0.152E-03
DAV:  26    -0.596959214479E+03   -0.67122E-04   -0.12545E-06  2960   0.242E-03    0.163E-03
DAV:  27    -0.596959243200E+03   -0.28720E-04   -0.44431E-07  2624   0.221E-03    0.105E-03
DAV:  28    -0.596959262751E+03   -0.19551E-04   -0.52157E-07  2792   0.178E-03    0.758E-04
DAV:  29    -0.596959273261E+03   -0.10510E-04   -0.37842E-07  2616   0.188E-03    0.895E-04
DAV:  30    -0.596959280353E+03   -0.70921E-05   -0.31142E-07  2672   0.141E-03    0.812E-04
DAV:  31    -0.596959281609E+03   -0.12557E-05   -0.16424E-07  2520   0.130E-03    0.666E-04
DAV:  32    -0.596959282463E+03   -0.85466E-06   -0.11570E-07  2544   0.844E-04
   1 F= -.59695928E+03 E0= -.59695928E+03  d E =-.367517E-17
