 vasp.5.4.4.18Apr17-6-g9f103f2a35 (build Mar 16 2023 09:39:13) complex          
  
 executed on             LinuxIFC date 2024.04.29  19:48:32
 running on   48 total cores
 distrk:  each k-point on   48 cores,    1 groups
 distr:  one band on NCORES_PER_BAND=  12 cores,    4 groups


--------------------------------------------------------------------------------------------------------


 INCAR:
 POTCAR:    PAW_PBE Ca_sv 06Sep2000               
 POTCAR:    PAW_PBE Si 05Jan2001                  
 POTCAR:    PAW_PBE O 08Apr2002                   
 POTCAR:    PAW_PBE Ca_sv 06Sep2000               
   SHA256 =  a47365830e737f14e0e6c5cf1ed81b94e081eecf0a33df105380881bc9da05d5 Ca
   COPYR  = (c) Copyright 06Sep2000 Georg Kresse                                
   COPYR  = This file is part of the software VASP. Any use, copying, and all ot
   COPYR  = If you do not have a valid VASP license, you may not use, copy or di
   VRHFIN =Ca: 3s3p4s                                                           
   LEXCH  = PE                                                                  
   EATOM  =  1006.0909 eV,   73.9456 Ry                                         
                                                                                
   TITEL  = PAW_PBE Ca_sv 06Sep2000                                             
   LULTRA =        F    use ultrasoft PP ?                                      
   IUNSCR =        1    unscreen: 0-lin 1-nonlin 2-no                           
   RPACOR =    2.000    partial core radius                                     
   POMASS =   40.078; ZVAL   =   10.000    mass and valenz                      
   RCORE  =    2.300    outmost cutoff radius                                   
   RWIGS  =    2.500; RWIGS  =    1.323    wigner-seitz radius (au A)           
   ENMAX  =  266.622; ENMIN  =  199.967 eV                                      
   RCLOC  =    1.808    cutoff for local pot                                    
   LCOR   =        T    correct aug charges                                     
   LPAW   =        T    paw PP                                                  
   EAUG   =  420.852                                                            
   RMAX   =    2.359    core radius for proj-oper                               
   RAUG   =    1.300    factor for augmentation sphere                          
   RDEP   =    2.392    radius for radial grids                                 
   RDEPT  =    1.987    core radius for aug-charge                              
                                                                                
   Atomic configuration                                                         
    7 entries                                                                   
     n  l   j            E        occ.                                          
     1  0  0.50     -3949.1705   2.0000                                         
     2  0  0.50      -414.3434   2.0000                                         
     2  1  1.50      -334.7047   6.0000                                         
     3  0  0.50       -47.0896   2.0000                                         
     4  0  0.50        -3.7663   2.0000                                         
     3  1  1.50       -28.0061   6.0000                                         
     3  2  1.50        -4.0817   0.0000                                         
   Description                                                                  
     l       E           TYP  RCUT    TYP  RCUT                                 
     0    -47.0896403     23  2.300                                             
     0     -3.7663320     23  2.300                                             
     1    -28.0060855     23  2.300                                             
     1      6.8029130     23  2.300                                             
     2     -4.0817478     23  2.300                                             
     2      0.4464412     23  2.300                                             
  local pseudopotential read in
  partial core-charges read in
  partial kinetic energy density read in
  atomic valenz-charges read in
  non local Contribution for L=           0  read in
    real space projection operators read in
  non local Contribution for L=           0  read in
    real space projection operators read in
  non local Contribution for L=           1  read in
    real space projection operators read in
  non local Contribution for L=           1  read in
    real space projection operators read in
  non local Contribution for L=           2  read in
    real space projection operators read in
  non local Contribution for L=           2  read in
    real space projection operators read in
    PAW grid and wavefunctions read in
 
   number of l-projection  operators is LMAX  =           6
   number of lm-projection operators is LMMAX =          18
 
 POTCAR:    PAW_PBE Si 05Jan2001                  
   SHA256 =  79d9987ad8750f624c4d6acb2a16d13abf6a777132adc04dc6c8399be72b42bb Si
   COPYR  = (c) Copyright 05Jan2001 Georg Kresse                                
   COPYR  = This file is part of the software VASP. Any use, copying, and all ot
   COPYR  = If you do not have a valid VASP license, you may not use, copy or di
   VRHFIN =Si: s2p2                                                             
   LEXCH  = PE                                                                  
   EATOM  =   103.0669 eV,    7.5752 Ry                                         
                                                                                
   TITEL  = PAW_PBE Si 05Jan2001                                                
   LULTRA =        F    use ultrasoft PP ?                                      
   IUNSCR =        1    unscreen: 0-lin 1-nonlin 2-no                           
   RPACOR =    1.500    partial core radius                                     
   POMASS =   28.085; ZVAL   =    4.000    mass and valenz                      
   RCORE  =    1.900    outmost cutoff radius                                   
   RWIGS  =    2.480; RWIGS  =    1.312    wigner-seitz radius (au A)           
   ENMAX  =  245.345; ENMIN  =  184.009 eV                                      
   ICORE  =        2    local potential                                         
   LCOR   =        T    correct aug charges                                     
   LPAW   =        T    paw PP                                                  
   EAUG   =  322.069                                                            
   DEXC   =    0.000                                                            
   RMAX   =    1.950    core radius for proj-oper                               
   RAUG   =    1.300    factor for augmentation sphere                          
   RDEP   =    1.993    radius for radial grids                                 
   RDEPT  =    1.837    core radius for aug-charge                              
                                                                                
   Atomic configuration                                                         
    6 entries                                                                   
     n  l   j            E        occ.                                          
     1  0  0.50     -1785.8828   2.0000                                         
     2  0  0.50      -139.4969   2.0000                                         
     2  1  1.50       -95.5546   6.0000                                         
     3  0  0.50       -10.8127   2.0000                                         
     3  1  0.50        -4.0811   2.0000                                         
     3  2  1.50        -4.0817   0.0000                                         
   Description                                                                  
     l       E           TYP  RCUT    TYP  RCUT                                 
     0    -10.8127223     23  1.900                                             
     0     -7.6451159     23  1.900                                             
     1     -4.0811372     23  1.900                                             
     1      2.4879257     23  1.900                                             
     2     -4.0817478      7  1.900                                             
  local pseudopotential read in
  partial core-charges read in
  partial kinetic energy density read in
  atomic valenz-charges read in
  non local Contribution for L=           0  read in
    real space projection operators read in
  non local Contribution for L=           0  read in
    real space projection operators read in
  non local Contribution for L=           1  read in
    real space projection operators read in
  non local Contribution for L=           1  read in
    real space projection operators read in
    PAW grid and wavefunctions read in
 
   number of l-projection  operators is LMAX  =           4
   number of lm-projection operators is LMMAX =           8
 
 POTCAR:    PAW_PBE O 08Apr2002                   
   SHA256 =  818f92134a0a090dccd8ba1447fa70422a3b330e708bb4f08108d8ae51209ddf O/
   COPYR  = (c) Copyright 08Apr2002 Georg Kresse                                
   COPYR  = This file is part of the software VASP. Any use, copying, and all ot
   COPYR  = If you do not have a valid VASP license, you may not use, copy or di
   VRHFIN =O: s2p4                                                              
   LEXCH  = PE                                                                  
   EATOM  =   432.3788 eV,   31.7789 Ry                                         
                                                                                
   TITEL  = PAW_PBE O 08Apr2002                                                 
   LULTRA =        F    use ultrasoft PP ?                                      
   IUNSCR =        1    unscreen: 0-lin 1-nonlin 2-no                           
   RPACOR =    1.200    partial core radius                                     
   POMASS =   16.000; ZVAL   =    6.000    mass and valenz                      
   RCORE  =    1.520    outmost cutoff radius                                   
   RWIGS  =    1.550; RWIGS  =    0.820    wigner-seitz radius (au A)           
   ENMAX  =  400.000; ENMIN  =  300.000 eV                                      
   ICORE  =        2    local potential                                         
   LCOR   =        T    correct aug charges                                     
   LPAW   =        T    paw PP                                                  
   EAUG   =  605.392                                                            
   DEXC   =    0.000                                                            
   RMAX   =    1.553    core radius for proj-oper                               
   RAUG   =    1.300    factor for augmentation sphere                          
   RDEP   =    1.550    radius for radial grids                                 
   RDEPT  =    1.329    core radius for aug-charge                              
                                                                                
   Atomic configuration                                                         
    4 entries                                                                   
     n  l   j            E        occ.                                          
     1  0  0.50      -514.6923   2.0000                                         
     2  0  0.50       -23.9615   2.0000                                         
     2  1  0.50        -9.0305   4.0000                                         
     3  2  1.50        -9.5241   0.0000                                         
   Description                                                                  
     l       E           TYP  RCUT    TYP  RCUT                                 
     0    -23.9615318     23  1.200                                             
     0     -9.5240782     23  1.200                                             
     1     -9.0304911     23  1.520                                             
     1      8.1634956     23  1.520                                             
     2     -9.5240782      7  1.500                                             
  local pseudopotential read in
  partial core-charges read in
  partial kinetic energy density read in
  kinetic energy density of atom read in
  atomic valenz-charges read in
  non local Contribution for L=           0  read in
    real space projection operators read in
  non local Contribution for L=           0  read in
    real space projection operators read in
  non local Contribution for L=           1  read in
    real space projection operators read in
  non local Contribution for L=           1  read in
    real space projection operators read in
    PAW grid and wavefunctions read in
 
   number of l-projection  operators is LMAX  =           4
   number of lm-projection operators is LMMAX =           8
 
 Optimization of the real space projectors (new method)

 maximal supplied QI-value         = 16.25
 optimisation between [QCUT,QGAM] = [ 12.51, 25.03] = [ 43.85,175.40] Ry 
 Optimized for a Real-space Cutoff    1.47 Angstroem

   l    n(q)    QCUT    max X(q) W(low)/X(q) W(high)/X(q)  e(spline) 
   0     11    12.514    11.817    0.25E-04    0.32E-05    0.87E-07
   0     11    12.514     8.461    0.39E-04    0.59E-05    0.18E-06
   1     11    12.514     3.957    0.97E-05    0.57E-05    0.28E-07
   1     11    12.514     4.314    0.42E-04    0.14E-04    0.23E-06
   2     10    12.514    14.565    0.79E-04    0.50E-03    0.16E-05
   2     10    12.514    14.552    0.75E-04    0.48E-03    0.15E-05
 Optimization of the real space projectors (new method)

 maximal supplied QI-value         = 19.84
 optimisation between [QCUT,QGAM] = [ 12.50, 25.00] = [ 43.76,175.03] Ry 
 Optimized for a Real-space Cutoff    1.16 Angstroem

   l    n(q)    QCUT    max X(q) W(low)/X(q) W(high)/X(q)  e(spline) 
   0      9    12.501   159.560    0.10E-03    0.83E-04    0.71E-07
   0      9    12.501   115.863    0.99E-04    0.81E-04    0.70E-07
   1      8    12.501    88.339    0.20E-03    0.25E-03    0.76E-07
   1      8    12.501    48.592    0.20E-03    0.24E-03    0.75E-07
 Optimization of the real space projectors (new method)

 maximal supplied QI-value         = 24.76
 optimisation between [QCUT,QGAM] = [ 12.38, 25.00] = [ 42.90,175.06] Ry 
 Optimized for a Real-space Cutoff    1.16 Angstroem

   l    n(q)    QCUT    max X(q) W(low)/X(q) W(high)/X(q)  e(spline) 
   0      9    12.378    20.381    0.16E-03    0.67E-05    0.31E-06
   0      9    12.378    15.268    0.17E-03    0.81E-05    0.33E-06
   1      8    12.378     5.964    0.20E-03    0.16E-03    0.30E-06
   1      8    12.378     5.382    0.18E-03    0.14E-03    0.26E-06
  PAW_PBE Ca_sv 06Sep2000               :
 energy of atom  1       EATOM=-1006.0909
 kinetic energy error for atom=    0.0012 (will be added to EATOM!!)
  PAW_PBE Si 05Jan2001                  :
 energy of atom  2       EATOM= -103.0669
 kinetic energy error for atom=    0.0003 (will be added to EATOM!!)
  PAW_PBE O 08Apr2002                   :
 energy of atom  3       EATOM= -432.3788
 kinetic energy error for atom=    0.0168 (will be added to EATOM!!)
 
 
 POSCAR: Ca Si  O                                
  positions in direct lattice
  No initial velocities read in
 exchange correlation table for  LEXCH =        8
   RHO(1)=    0.500       N(1)  =     2000
   RHO(2)=  100.500       N(2)  =     4000
 


--------------------------------------------------------------------------------------------------------


 ion  position               nearest neighbor table
   1  0.471  0.807  0.501-  63 2.15 101 2.17  61 2.22 105 2.39  58 2.51  43 2.74  32 3.06
   2  0.991  0.658  0.254-  66 2.21  59 2.29  68 2.31  94 2.36  97 2.38
   3  0.191  0.127  0.575-  83 2.17 110 2.27  60 2.28  25 3.07   4 3.11   7 3.15
   4  0.078  0.335  0.451- 121 2.00 106 2.41 110 2.48  88 2.52  38 2.61   3 3.11  45 3.13
   5  0.910  0.382  0.089-  69 2.04  68 2.19  89 2.29  80 2.56  42 2.77  51 2.79  38 2.80  17 2.99

   6  0.916  0.473  0.744-  79 2.12  87 2.15 132 2.32  89 2.38  45 2.82  51 2.91  50 2.99  48 3.10

   7  0.180  0.318  0.766-  65 2.20 121 2.31 112 2.34 104 2.53  42 2.83  45 2.92  52 3.03   3 3.15

   8  0.585  0.277  0.428-  85 2.03  64 2.14  77 2.23  62 2.39  70 2.48 108 2.52  53 2.83  30 3.04
                            52 3.14  16 3.15
   9  0.217  0.642  0.761- 115 2.06 104 2.26  78 2.34 132 2.37  44 2.94  22 3.08  34 3.13
  10  0.424  0.929  0.006- 128 2.13  73 2.31 124 2.33  91 2.42  28 2.94  33 2.94  40 3.01  32 3.07

  11  0.751  0.835  0.033- 133 2.19  97 2.32 122 2.50  46 2.78  39 2.91
  12  0.287  0.282  0.059- 116 2.14  82 2.45  96 2.50  86 2.53 119 2.54  37 2.97  35 2.97  38 3.13

  13  0.077  0.781  0.015- 124 2.22  59 2.31 100 2.34 134 2.39 115 2.47 114 2.56  40 2.90  19 2.96
                            41 3.05  51 3.12
  14  0.646  0.612  0.846-  79 2.14  76 2.18 120 2.33 129 2.33  28 2.99  34 3.07  26 3.17
  15  0.900  0.762  0.745- 100 2.05  98 2.12  57 2.18  90 2.21  46 2.62  50 3.04  47 3.08  44 3.16
                            23 3.17
  16  0.527  0.541  0.415-  92 2.14 127 2.20 109 2.24  61 2.36  63 2.37  77 2.39  64 2.42  53 2.85
                            48 2.95  34 3.07  35 3.14   8 3.15
  17  0.827  0.202  0.253-  62 2.05  72 2.42  69 2.42  88 2.48   5 2.99  54 2.99  39 3.02  49 3.10

  18  0.711  0.309  0.833-  87 2.18 118 2.26 131 2.30  37 3.09
  19  0.082  0.032  0.975- 130 2.12 116 2.21 124 2.39  95 2.53  42 2.65  13 2.96
  20  0.723  0.754  0.343-  56 2.00 127 2.16  61 2.28 133 2.29  29 2.99  39 3.03  23 3.08
  21  0.402  0.047  0.746-  91 2.16 117 2.26 103 2.30  96 2.32 131 2.52  93 2.54  30 2.62  37 2.81

  22  0.226  0.586  0.502- 109 2.27 101 2.31 126 2.35  63 2.44  50 3.06   9 3.08  27 3.09
  23  0.908  0.869  0.493-  57 2.00  99 2.15  90 2.41  50 3.04  20 3.08  15 3.17
  24  0.579  0.358  0.126- 102 2.18  62 2.28 118 2.39 119 2.43  92 2.46  76 2.49  85 2.55  31 2.85

  25  0.340  0.137  0.358-  55 2.23  85 2.41  83 2.42 110 2.49  35 3.03  36 3.07   3 3.07
  26  0.424  0.542  0.987-  76 2.13 119 2.23 102 2.30 111 2.53  31 2.95  14 3.17
  27  0.278  0.633  0.246- 109 2.31 134 2.32  75 2.34  59 2.34 101 2.50 106 2.56  35 3.00  40 3.01
                            32 3.08  22 3.09
  28  0.461  0.785  0.802- 128 1.55  58 1.59  78 1.65  91 1.78  10 2.94  47 2.97  14 2.99  34 3.04

  29  0.665  0.995  0.412- 135 1.57 108 1.80  56 1.82  70 1.82  84 1.95 105 2.25  33 2.89  49 2.94
                            20 2.99  39 3.14
  30  0.586  0.128  0.643- 117 1.62  71 1.70 103 1.74  70 1.76 131 1.99  21 2.62   8 3.04  47 3.12

  31  0.620  0.599  0.137- 133 1.51  92 1.60  76 1.61 111 1.66  24 2.85  26 2.95
  32  0.472  0.813  0.238-  75 1.58  61 1.64  73 1.80 105 1.90 111 2.05  33 2.83  40 2.91   1 3.06
                            10 3.07  27 3.08
  33  0.549  0.039  0.196- 108 1.72 107 1.75  55 1.83  73 1.87 105 2.19  32 2.83  29 2.89  10 2.94
                            54 3.13
  34  0.457  0.561  0.669- 120 1.54  63 1.61  78 1.68  67 1.92  77 2.46  52 3.02  28 3.04  16 3.07
                            14 3.07   9 3.13
  35  0.348  0.387  0.284-  86 1.58 109 1.66 119 1.77  85 1.78  38 2.90  12 2.97  27 3.00  25 3.03
                            16 3.14
  36  0.104  0.033  0.303- 110 1.61  74 1.64 123 1.87  95 1.89  99 2.21  40 2.77  25 3.07
  37  0.456  0.246  0.872- 131 1.62 102 1.69  96 1.74  65 1.75  21 2.81  12 2.97  18 3.09
  38  0.104  0.378  0.232-  69 1.46 106 1.64  82 1.74  86 1.76   4 2.61   5 2.80  35 2.90  12 3.13

  39  0.859  0.945  0.230-  56 1.56  97 1.64  99 1.69  72 1.70  95 1.95  11 2.91  17 3.02  20 3.03
                            29 3.14
  40  0.238  0.879  0.179-  75 1.46  74 1.65  59 1.68 124 1.79  36 2.77  13 2.90  32 2.91  27 3.01
                            10 3.01
  41  0.150  0.529  0.004- 134 1.53  82 1.58 104 1.61 114 1.67  51 3.05  13 3.05
  42  0.011  0.243  0.924-  89 1.56  80 1.62 116 1.63 112 1.77  19 2.65   5 2.77   7 2.83  45 2.96

  43  0.245  0.864  0.470-  60 1.58 123 1.61 101 1.65 126 1.91   1 2.74  44 2.85
  44  0.142  0.874  0.692- 115 1.69  93 1.74  57 1.76 126 1.85  43 2.85   9 2.94  15 3.16
  45  0.958  0.244  0.675- 121 1.65  87 1.66 112 1.75  81 1.90  49 2.59   6 2.82   7 2.92  42 2.96
                             4 3.13
  46  0.818  0.952  0.835- 113 1.57 130 1.58 122 1.62  98 1.90  15 2.62  47 2.62  11 2.78  54 3.02

  47  0.669  0.877  0.684- 103 1.64  58 1.70  84 1.80  98 1.83 113 1.85  46 2.62  28 2.97  15 3.08
                            30 3.12
  48  0.733  0.542  0.563- 127 1.75  79 1.75  64 1.77  90 2.21 125 2.31  53 2.80  50 2.87  16 2.95
                             6 3.10
  49  0.825  0.162  0.516- 135 1.52  88 1.57  81 1.63  71 1.68  45 2.59  29 2.94  17 3.10
  50  0.967  0.618  0.538-  66 1.52  90 1.58 125 1.60 132 1.75  48 2.87   6 2.99  15 3.04  23 3.04
                            22 3.06
  51  0.897  0.588  0.965- 129 1.57  68 1.62 100 1.67 114 1.71   5 2.79   6 2.91  41 3.05  13 3.12

  52  0.389  0.317  0.611-  77 1.59  83 1.74 117 1.75  65 1.77  67 1.88  34 3.02   7 3.03   8 3.14

  53  0.740  0.444  0.343-  62 1.61  94 1.69  64 1.80  92 2.04  48 2.80   8 2.83  16 2.85
  54  0.746  0.111  0.026- 118 1.60  72 1.63 122 1.70 107 1.74  80 2.11  17 2.99  46 3.02  33 3.13

  55  0.402  0.091  0.183-  33 1.83  25 2.23
  56  0.750  0.920  0.305-  39 1.56  29 1.82  20 2.00
  57  0.000  0.880  0.638-  44 1.76  23 2.00  15 2.18
  58  0.553  0.790  0.700-  28 1.59  47 1.70   1 2.51
  59  0.141  0.775  0.203-  40 1.68   2 2.29  13 2.31  27 2.34
  60  0.296  0.965  0.544-  43 1.58   3 2.28
  61  0.528  0.729  0.336-  32 1.64   1 2.22  20 2.28  16 2.36
  62  0.706  0.329  0.271-  53 1.61  17 2.05  24 2.28   8 2.39
  63  0.421  0.638  0.560-  34 1.61   1 2.15  16 2.37  22 2.44
  64  0.682  0.422  0.485-  48 1.77  53 1.80   8 2.14  16 2.42
  65  0.367  0.289  0.759-  37 1.75  52 1.77   7 2.20
  66  0.031  0.676  0.440-  50 1.52   2 2.21
  67  0.328  0.459  0.654-  52 1.88  34 1.92
  68  0.898  0.570  0.103-  51 1.62   5 2.19   2 2.31
  69  0.006  0.302  0.212-  38 1.46   5 2.04  17 2.42
  70  0.567  0.077  0.502-  30 1.76  29 1.82   8 2.48
  71  0.707  0.193  0.594-  49 1.68  30 1.70
  72  0.801  0.036  0.130-  54 1.63  39 1.70  17 2.42
  73  0.564  0.889  0.141-  32 1.80  33 1.87  10 2.31
  74  0.213  0.014  0.215-  36 1.64  40 1.65
  75  0.345  0.814  0.191-  40 1.46  32 1.58  27 2.34
  76  0.605  0.538  0.014-  31 1.61  26 2.13  14 2.18  24 2.49
  77  0.486  0.390  0.547-  52 1.59   8 2.23  16 2.39  34 2.46
  78  0.418  0.654  0.772-  28 1.65  34 1.68   9 2.34
  79  0.748  0.537  0.713-  48 1.75   6 2.12  14 2.14
  80  0.910  0.181  0.999-  42 1.62  54 2.11   5 2.56
  81  0.947  0.120  0.569-  49 1.63  45 1.90
  82  0.143  0.432  0.098-  41 1.58  38 1.74  12 2.45
  83  0.290  0.271  0.509-  52 1.74   3 2.17  25 2.42
  84  0.684  0.877  0.529-  47 1.80  29 1.95
  85  0.466  0.291  0.302-  35 1.78   8 2.03  25 2.41  24 2.55
  86  0.236  0.312  0.269-  35 1.58  38 1.76  12 2.53
  87  0.835  0.315  0.692-  45 1.66   6 2.15  18 2.18
  88  0.871  0.270  0.450-  49 1.57  17 2.48   4 2.52
  89  0.989  0.374  0.908-  42 1.56   5 2.29   6 2.38
  90  0.856  0.686  0.576-  50 1.58  48 2.21  15 2.21  23 2.41
  91  0.346  0.886  0.818-  28 1.78  21 2.16  10 2.42
  92  0.612  0.524  0.253-  31 1.60  53 2.04  16 2.14  24 2.46
  93  0.190  1.000  0.758-  44 1.74  21 2.54
  94  0.840  0.525  0.276-  53 1.69   2 2.36
  95  0.012  0.989  0.177-  36 1.89  39 1.95  19 2.53
  96  0.365  0.138  0.920-  37 1.74  21 2.32  12 2.50
  97  0.881  0.814  0.183-  39 1.64  11 2.32   2 2.38
  98  0.737  0.812  0.810-  47 1.83  46 1.90  15 2.12
  99  0.927  0.985  0.351-  39 1.69  23 2.15  36 2.21
 100  0.912  0.722  0.916-  51 1.67  15 2.05  13 2.34
 101  0.312  0.747  0.424-  43 1.65   1 2.17  22 2.31  27 2.50
 102  0.488  0.356  0.962-  37 1.69  24 2.18  26 2.30
 103  0.585  0.989  0.698-  47 1.64  30 1.74  21 2.30
 104  0.218  0.495  0.888-  41 1.61   9 2.26   7 2.53
 105  0.494  0.936  0.343-  32 1.90  33 2.19  29 2.25   1 2.39
 106  0.132  0.485  0.320-  38 1.64   4 2.41  27 2.56
 107  0.607  0.067  0.060-  54 1.74  33 1.75
 108  0.625  0.101  0.307-  33 1.72  29 1.80   8 2.52
 109  0.343  0.497  0.375-  35 1.66  16 2.24  22 2.27  27 2.31
 110  0.128  0.137  0.391-  36 1.61   3 2.27   4 2.48  25 2.49
 111  0.493  0.658  0.158-  31 1.66  32 2.05  26 2.53
 112  0.035  0.180  0.787-  45 1.75  42 1.77   7 2.34
 113  0.781  0.987  0.710-  46 1.57  47 1.85
 114  0.040  0.582  0.928-  41 1.67  51 1.71  13 2.56
 115  0.130  0.788  0.809-  44 1.69   9 2.06  13 2.47
 116  0.125  0.216  1.000-  42 1.63  12 2.14  19 2.21
 117  0.460  0.184  0.620-  30 1.62  52 1.75  21 2.26
 118  0.708  0.242  0.015-  54 1.60  18 2.26  24 2.39
 119  0.392  0.449  0.152-  35 1.77  26 2.23  24 2.43  12 2.54
 120  0.528  0.483  0.750-  34 1.54  14 2.33
 121  0.047  0.340  0.620-  45 1.65   4 2.00   7 2.31
 122  0.726  0.015  0.918-  46 1.62  54 1.70  11 2.50
 123  0.131  0.915  0.410-  43 1.61  36 1.87
 124  0.228  0.897  0.026-  40 1.79  13 2.22  10 2.33  19 2.39
 125  0.915  0.497  0.498-  50 1.60  48 2.31
 126  0.173  0.765  0.580-  44 1.85  43 1.91  22 2.35
 127  0.663  0.651  0.486-  48 1.75  20 2.16  16 2.20
 128  0.497  0.779  0.930-  28 1.55  10 2.13
 129  0.793  0.507  0.933-  51 1.57  14 2.33
 130  0.948  0.962  0.872-  46 1.58  19 2.12
 131  0.560  0.185  0.802-  37 1.62  30 1.99  18 2.30  21 2.52
 132  0.057  0.580  0.652-  50 1.75   6 2.32   9 2.37
 133  0.694  0.704  0.154-  31 1.51  11 2.19  20 2.29
 134  0.212  0.632  0.057-  41 1.53  27 2.32  13 2.39
 135  0.778  0.057  0.454-  49 1.52  29 1.57
 

IMPORTANT INFORMATION: All symmetrisations will be switched off!
NOSYMM: (Re-)initialisation of all symmetry stuff for point group C_1.

 
 

Automatic generation of k-mesh.
 generate k-points for:    2    2    2
Space group operators:
 irot       det(A)        alpha          n_x          n_y          n_z        tau_x        tau_y        tau_z
    1     1.000000     0.000001     1.000000     0.000000     0.000000     0.000000     0.000000     0.000000
 
 Subroutine IBZKPT returns following result:
 ===========================================
 
 Found      8 irreducible k-points:
 
 Following reciprocal coordinates:
            Coordinates               Weight
  0.000000  0.000000  0.000000      1.000000
  0.500000  0.000000  0.000000      1.000000
  0.000000  0.500000  0.000000      1.000000
  0.500000  0.500000  0.000000      1.000000
  0.000000  0.000000  0.500000      1.000000
  0.500000  0.000000  0.500000      1.000000
  0.000000  0.500000  0.500000      1.000000
  0.500000  0.500000  0.500000      1.000000
 
 Following cartesian coordinates:
            Coordinates               Weight
  0.000000  0.000000  0.000000      1.000000
  0.042999  0.000000  0.000000      1.000000
  0.000000  0.042999  0.000000      1.000000
  0.042999  0.042999  0.000000      1.000000
  0.000000  0.000000  0.042999      1.000000
  0.042999  0.000000  0.042999      1.000000
  0.000000  0.042999  0.042999      1.000000
  0.042999  0.042999  0.042999      1.000000
 


--------------------------------------------------------------------------------------------------------




 Dimension of arrays:
   k-points           NKPTS =      8   k-points in BZ     NKDIM =      8   number of bands    NBANDS=    520
   number of dos      NEDOS =    301   number of ions     NIONS =    135
   non local maximal  LDIM  =      6   non local SUM 2l+1 LMDIM =     18
   total plane-waves  NPLWV = 884736
   max r-space proj   IRMAX =   7548   max aug-charges    IRDMAX= 214954
   dimension x,y,z NGX =    96 NGY =   96 NGZ =   96
   dimension x,y,z NGXF=   192 NGYF=  192 NGZF=  192
   support grid    NGXF=   384 NGYF=  384 NGZF=  384
   ions per type =              27  27  81
   NGX,Y,Z   is equivalent  to a cutoff of  13.72, 13.72, 13.72 a.u.
   NGXF,Y,Z  is equivalent  to a cutoff of  27.45, 27.45, 27.45 a.u.

 SYSTEM =  unknown system                          
 POSCAR =  Ca Si  O                                

 Startparameter for this run:
   NWRITE =      2    write-flag & timer
   PREC   = a         normal or accurate (medium, high low for compatibility)
   ISTART =      0    job   : 0-new  1-cont  2-samecut
   ICHARG =      2    charge: 1-file 2-atom 10-const
   ISPIN  =      1    spin polarized calculation?
   LNONCOLLINEAR =      F non collinear calculations
   LSORBIT =      F    spin-orbit coupling
   INIWAV =      1    electr: 0-lowe 1-rand  2-diag
   LASPH  =      F    aspherical Exc in radial PAW
   METAGGA=      F    non-selfconsistent MetaGGA calc.

 Electronic Relaxation 1
   ENCUT  =  600.0 eV  44.10 Ry    6.64 a.u.  23.22 23.22 23.22*2*pi/ulx,y,z
   ENINI  =  600.0     initial cutoff
   ENAUG  =  605.4 eV  augmentation charge cutoff
   NELM   =     60;   NELMIN=  2; NELMDL= -5     # of ELM steps 
   EDIFF  = 0.1E-05   stopping-criterion for ELM
   LREAL  =      T    real-space projection
   NLSPLINE    = F    spline interpolate recip. space projectors
   LCOMPAT=      F    compatible to vasp.4.4
   GGA_COMPAT  = T    GGA compatible to vasp.4.4-vasp.4.6
   LMAXPAW     = -100 max onsite density
   LMAXMIX     =    2 max onsite mixed and CHGCAR
   VOSKOWN=      0    Vosko Wilk Nusair interpolation
   ROPT   =   -0.00025  -0.00025  -0.00025
 Ionic relaxation
   EDIFFG = -.1E-01   stopping-criterion for IOM
   NSW    =      1    number of steps for IOM
   NBLOCK =      1;   KBLOCK =      1    inner block; outer block 
   IBRION =     -1    ionic relax: 0-MD 1-quasi-New 2-CG
   NFREE  =      0    steps in history (QN), initial steepest desc. (CG)
   ISIF   =      2    stress and relaxation
   IWAVPR =     10    prediction:  0-non 1-charg 2-wave 3-comb
   ISYM   =      0    0-nonsym 1-usesym 2-fastsym
   LCORR  =      T    Harris-Foulkes like correction to forces

   POTIM  = 1.0000    time-step for ionic-motion
   TEIN   =    0.0    initial temperature
   TEBEG  =    0.0;   TEEND  =   0.0 temperature during run
   SMASS  =  -3.00    Nose mass-parameter (am)
   estimated Nose-frequenzy (Omega)   =  0.10E-29 period in steps =****** mass=  -0.309E-26a.u.
   SCALEE = 1.0000    scale energy and forces
   NPACO  =    256;   APACO  = 16.0  distance and # of slots for P.C.
   PSTRESS=    0.0 pullay stress

  Mass of Ions in am
   POMASS =  40.08 28.09 16.00
  Ionic Valenz
   ZVAL   =  10.00  4.00  6.00
  Atomic Wigner-Seitz radii
   RWIGS  =  -1.00 -1.00 -1.00
  virtual crystal weights 
   VCA    =   1.00  1.00  1.00
   NELECT =     864.0000    total number of electrons
   NUPDOWN=      -1.0000    fix difference up-down

 DOS related values:
   EMIN   =  10.00;   EMAX   =-10.00  energy-range for DOS
   EFERMI =   0.00
   ISMEAR =     0;   SIGMA  =   0.05  broadening in eV -4-tet -1-fermi 0-gaus

 Electronic relaxation 2 (details)
   IALGO  =     38    algorithm
   LDIAG  =      T    sub-space diagonalisation (order eigenvalues)
   LSUBROT=      F    optimize rotation matrix (better conditioning)
   TURBO    =      0    0=normal 1=particle mesh
   IRESTART =      0    0=no restart 2=restart with 2 vectors
   NREBOOT  =      0    no. of reboots
   NMIN     =      0    reboot dimension
   EREF     =   0.00    reference energy to select bands
   IMIX   =      4    mixing-type and parameters
     AMIX     =   0.40;   BMIX     =  1.00
     AMIX_MAG =   1.60;   BMIX_MAG =  1.00
     AMIN     =   0.10
     WC   =   100.;   INIMIX=   1;  MIXPRE=   1;  MAXMIX= -45

 Intra band minimization:
   WEIMIN = 0.0000     energy-eigenvalue tresh-hold
   EBREAK =  0.48E-09  absolut break condition
   DEPER  =   0.30     relativ break condition  

   TIME   =   0.40     timestep for ELM

  volume/ion in A,a.u.               =      11.65        78.60
  Fermi-wavevector in a.u.,A,eV,Ry     =   1.340915  2.533962 24.463997  1.798053
  Thomas-Fermi vector in A             =   2.469190
 
 Write flags
   LWAVE        =      F    write WAVECAR
   LDOWNSAMPLE  =      F    k-point downsampling of WAVECAR
   LCHARG       =      F    write CHGCAR
   LVTOT        =      F    write LOCPOT, total local potential
   LVHAR        =      F    write LOCPOT, Hartree potential only
   LELF         =      F    write electronic localiz. function (ELF)
   LORBIT       =      0    0 simple, 1 ext, 2 COOP (PROOUT), +10 PAW based schemes


 Dipole corrections
   LMONO  =      F    monopole corrections only (constant potential shift)
   LDIPOL =      F    correct potential (dipole corrections)
   IDIPOL =      0    1-x, 2-y, 3-z, 4-all directions 
   EPSILON=  1.0000000 bulk dielectric constant

 Exchange correlation treatment:
   GGA     =    --    GGA type
   LEXCH   =     8    internal setting for exchange type
   VOSKOWN=      0    Vosko Wilk Nusair interpolation
   LHFCALC =     F    Hartree Fock is set to
   LHFONE  =     F    Hartree Fock one center treatment
   AEXX    =    0.0000 exact exchange contribution

 Linear response parameters
   LEPSILON=     F    determine dielectric tensor
   LRPA    =     F    only Hartree local field effects (RPA)
   LNABLA  =     F    use nabla operator in PAW spheres
   LVEL    =     F    velocity operator in full k-point grid
   LINTERFAST=   F  fast interpolation
   KINTER  =     0    interpolate to denser k-point grid
   CSHIFT  =0.1000    complex shift for real part using Kramers Kronig
   OMEGAMAX=  -1.0    maximum frequency
   DEG_THRESHOLD= 0.2000000E-02 threshold for treating states as degnerate
   RTIME   =   -0.100 relaxation time in fs
  (WPLASMAI=    0.000 imaginary part of plasma frequency in eV, 0.658/RTIME)
   DFIELD  = 0.0000000 0.0000000 0.0000000 field for delta impulse in time
 
 Orbital magnetization related:
   ORBITALMAG=     F  switch on orbital magnetization
   LCHIMAG   =     F  perturbation theory with respect to B field
   DQ        =  0.001000  dq finite difference perturbation B field
   LLRAUG    =     F  two centre corrections for induced B field



--------------------------------------------------------------------------------------------------------


 Static calculation
 charge density and potential will be updated during run
 non-spin polarized calculation
 Variant of blocked Davidson
 Davidson routine will perform the subspace rotation
 perform sub-space diagonalisation
    after iterative eigenvector-optimisation
 modified Broyden-mixing scheme, WC =      100.0
 initial mixing is a Kerker type mixing with AMIX =  0.4000 and BMIX =      1.0000
 Hartree-type preconditioning will be used
 using additional bands           88
 real space projection scheme for non local part
 use partial core corrections
 calculate Harris-corrections to forces 
   (improved forces if not selfconsistent)
 use gradient corrections 
 use of overlap-Matrix (Vanderbilt PP)
 Gauss-broadening in eV      SIGMA  =   0.05


--------------------------------------------------------------------------------------------------------


  energy-cutoff  :      600.00
  volume of cell :     1572.30
      direct lattice vectors                 reciprocal lattice vectors
    11.628173330  0.000000000  0.000000000     0.085998030  0.000000000  0.000000000
     0.000000000 11.628173330  0.000000000     0.000000000  0.085998030  0.000000000
     0.000000000  0.000000000 11.628173330     0.000000000  0.000000000  0.085998030

  length of vectors
    11.628173330 11.628173330 11.628173330     0.085998030  0.085998030  0.085998030


 
 k-points in units of 2pi/SCALE and weight: read from INCAR                         
   0.00000000  0.00000000  0.00000000       0.125
   0.04299902  0.00000000  0.00000000       0.125
   0.00000000  0.04299902  0.00000000       0.125
   0.04299902  0.04299902  0.00000000       0.125
   0.00000000  0.00000000  0.04299902       0.125
   0.04299902  0.00000000  0.04299902       0.125
   0.00000000  0.04299902  0.04299902       0.125
   0.04299902  0.04299902  0.04299902       0.125
 
 k-points in reciprocal lattice and weights: read from INCAR                         
   0.00000000  0.00000000  0.00000000       0.125
   0.50000000  0.00000000  0.00000000       0.125
   0.00000000  0.50000000  0.00000000       0.125
   0.50000000  0.50000000  0.00000000       0.125
   0.00000000  0.00000000  0.50000000       0.125
   0.50000000  0.00000000  0.50000000       0.125
   0.00000000  0.50000000  0.50000000       0.125
   0.50000000  0.50000000  0.50000000       0.125
 
 position of ions in fractional coordinates (direct lattice) 
   0.47092505  0.80657097  0.50134389
   0.99122774  0.65760523  0.25439766
   0.19057402  0.12698571  0.57520908
   0.07770600  0.33515218  0.45133411
   0.91045709  0.38245131  0.08864840
   0.91609461  0.47266914  0.74357757
   0.17982930  0.31822956  0.76632777
   0.58492939  0.27665281  0.42829837
   0.21737367  0.64220340  0.76115345
   0.42442345  0.92881202  0.00605914
   0.75119112  0.83532221  0.03250277
   0.28664717  0.28193820  0.05934442
   0.07715407  0.78099367  0.01488421
   0.64623485  0.61243957  0.84615035
   0.89989867  0.76237186  0.74451346
   0.52690494  0.54116463  0.41488214
   0.82737721  0.20241572  0.25268453
   0.71103833  0.30926132  0.83274210
   0.08154506  0.03195541  0.97498892
   0.72272172  0.75385805  0.34294321
   0.40232536  0.04735295  0.74617318
   0.22623638  0.58630081  0.50232976
   0.90819664  0.86861827  0.49321220
   0.57873984  0.35779618  0.12575066
   0.34040667  0.13710618  0.35814115
   0.42365829  0.54195035  0.98714142
   0.27782978  0.63276723  0.24579432
   0.46131848  0.78537241  0.80161136
   0.66518704  0.99517838  0.41196892
   0.58558598  0.12797031  0.64295149
   0.62047396  0.59882555  0.13747786
   0.47157930  0.81290410  0.23830682
   0.54929392  0.03949164  0.19615818
   0.45711898  0.56051044  0.66890713
   0.34801268  0.38698241  0.28371567
   0.10447775  0.03290143  0.30298496
   0.45603638  0.24630819  0.87192400
   0.10403029  0.37768255  0.23208823
   0.85863647  0.94528527  0.22991209
   0.23757789  0.87916216  0.17881802
   0.14988111  0.52906678  0.00363484
   0.01060658  0.24270978  0.92418569
   0.24462733  0.86396638  0.46968775
   0.14207543  0.87398511  0.69224745
   0.95780801  0.24405257  0.67493925
   0.81835609  0.95214054  0.83465757
   0.66894448  0.87653433  0.68354956
   0.73344441  0.54218997  0.56250143
   0.82461568  0.16191793  0.51646533
   0.96725163  0.61769053  0.53776829
   0.89744925  0.58768684  0.96467792
   0.38935878  0.31685993  0.61070700
   0.73967597  0.44372286  0.34283078
   0.74574949  0.11090255  0.02641350
   0.40152425  0.09080169  0.18264094
   0.75014070  0.91953528  0.30455353
   0.00046034  0.87957549  0.63832727
   0.55275497  0.78980816  0.70013108
   0.14127592  0.77457606  0.20282509
   0.29573192  0.96472764  0.54449987
   0.52808434  0.72875582  0.33644125
   0.70643523  0.32939498  0.27142672
   0.42135071  0.63832945  0.56004117
   0.68211547  0.42216713  0.48501927
   0.36678367  0.28900239  0.75896070
   0.03082818  0.67573919  0.43976577
   0.32776074  0.45941992  0.65441922
   0.89838943  0.56987135  0.10265997
   0.00606063  0.30166676  0.21169739
   0.56661469  0.07745931  0.50159616
   0.70653093  0.19335790  0.59390087
   0.80116048  0.03581659  0.13048854
   0.56445793  0.88894602  0.14080127
   0.21295878  0.01443821  0.21451850
   0.34472808  0.81446450  0.19051344
   0.60489800  0.53844621  0.01381288
   0.48605997  0.38980045  0.54739898
   0.41823046  0.65366029  0.77210171
   0.74818630  0.53738227  0.71253646
   0.91023041  0.18147930  0.99864227
   0.94733386  0.11968484  0.56943528
   0.14307740  0.43173954  0.09791821
   0.28953352  0.27071296  0.50889343
   0.68363037  0.87734161  0.52936524
   0.46614630  0.29133217  0.30155381
   0.23573726  0.31183088  0.26884329
   0.83490351  0.31460589  0.69225386
   0.87092796  0.26976211  0.44990037
   0.98882400  0.37433517  0.90786617
   0.85631410  0.68616971  0.57607006
   0.34639079  0.88562261  0.81830641
   0.61172950  0.52397866  0.25284115
   0.18952341  0.99968375  0.75819887
   0.83983579  0.52465933  0.27570525
   0.01179216  0.98897471  0.17683757
   0.36461554  0.13832914  0.92015992
   0.88116595  0.81435547  0.18266816
   0.73696148  0.81229817  0.80963429
   0.92713149  0.98544115  0.35143394
   0.91172032  0.72194154  0.91604028
   0.31180005  0.74721252  0.42412590
   0.48774674  0.35620343  0.96228066
   0.58517769  0.98870666  0.69794788
   0.21820888  0.49460609  0.88775775
   0.49381305  0.93609031  0.34333182
   0.13231359  0.48500312  0.31958460
   0.60683765  0.06734806  0.05969548
   0.62540946  0.10143493  0.30677793
   0.34343497  0.49685936  0.37492430
   0.12841414  0.13695436  0.39081797
   0.49259633  0.65795171  0.15769157
   0.03465914  0.18021076  0.78704456
   0.78124047  0.98671854  0.70958958
   0.04005075  0.58194974  0.92762105
   0.13022460  0.78832978  0.80902462
   0.12515192  0.21559403  0.99990639
   0.46045361  0.18427108  0.62045312
   0.70757764  0.24221556  0.01538555
   0.39216270  0.44907445  0.15201034
   0.52793038  0.48264220  0.74980613
   0.04734278  0.33982335  0.62046605
   0.72580789  0.01528905  0.91777801
   0.13124295  0.91537118  0.40962697
   0.22790340  0.89705635  0.02628162
   0.91547137  0.49664547  0.49826175
   0.17345445  0.76546351  0.57992584
   0.66334242  0.65125278  0.48601239
   0.49694667  0.77884855  0.92962240
   0.79322899  0.50741430  0.93334033
   0.94835206  0.96228399  0.87166837
   0.55970159  0.18546638  0.80202534
   0.05723696  0.57955333  0.65217320
   0.69439141  0.70379614  0.15431776
   0.21187436  0.63191736  0.05729114
   0.77781567  0.05715412  0.45430732
 
 position of ions in cartesian coordinates  (Angst):
   5.47599813  9.37894705  5.82971369
  11.52616792  7.64674754  2.95818010
   2.21602769  1.47661190  6.68863085
   0.90357880  3.89720766  5.24819130
  10.58695288  4.44721009  1.03081896
  10.65250689  5.49627865  8.64644886
   2.09108627  3.70042854  8.91099218
   6.80166039  3.21696682  4.98032774
   2.52765877  7.46765240  8.85082419
   4.93526950 10.80038719  0.07045678
   8.73498054  9.71327140  0.37794787
   3.33318298  3.27842630  0.69006718
   0.89716091  9.08152978  0.17307612
   7.51453079  7.12155347  9.83918293
  10.46417766  8.86499213  8.65733161
   6.12694195  6.29275610  4.82432141
   9.62088562  2.35372507  2.93825955
   8.26807693  3.59614423  9.68326945
   0.94822005  0.37158303 11.33734018
   8.40393346  8.76599205  3.98780314
   4.67830897  0.55062829  8.67663106
   2.63071587  6.81760744  5.84117755
  10.56066791 10.10044375  5.73515691
   6.72968715  4.16051601  1.46225050
   3.95830771  1.59429445  4.16452737
   4.92637206  6.30189263 11.47865151
   3.23065284  7.35792701  2.85813892
   5.36429129  9.13244646  9.32127588
   7.73491016 11.57210670  4.79044597
   6.80929525  1.48806097  7.47635138
   7.21497878  6.96324729  1.59861642
   5.48360585  9.45258976  2.77107299
   6.38728494  0.45921561  2.28096131
   5.31545877  6.51771260  7.77816804
   4.04675177  4.49989857  3.29909502
   1.21488535  0.38258350  3.52316162
   5.30287002  2.86411429 10.13888343
   1.20968221  4.39175819  2.69876216
   9.98437370 10.99194091  2.67345767
   2.76259687 10.22304995  2.07932688
   1.74284353  6.15208027  0.04226650
   0.12333518  2.82227136 10.74659138
   2.84456896 10.04635078  5.46161051
   1.65207767 10.16285033  8.04957336
  11.13755754  2.83788560  7.84831061
   9.51598643 11.07165529  9.70554288
   7.77860236 10.19249317  7.94843278
   8.52861874  6.30467894  6.54086418
   9.58877404  1.88280973  6.00554833
  11.24736964  7.18261257  6.25326289
  10.43569543  6.83372448 11.21744204
   4.52753137  3.68450217  7.10140689
   8.60108039  5.15968635  3.98649576
   8.67170436  1.28959412  0.30714074
   4.66899359  1.05585774  2.12378046
   8.72276612 10.69251567  3.54140124
   0.00535288 10.22785621  7.42258010
   6.42753057  9.18402622  8.14124554
   1.64278090  9.00690472  2.35848527
   3.43882202 11.21802020  6.33153889
   6.14065621  8.47409895  3.91219721
   8.21455130  3.83026194  3.15619689
   4.89953906  7.42260551  6.51225578
   7.93175696  4.90903253  5.63988813
   4.26502409  3.36056986  8.82532658
   0.35847547  7.85761241  5.11367258
   3.81125874  5.34221442  7.60970008
  10.44662797  6.62656288  1.19374797
   0.07047407  3.50783334  2.46165394
   6.58869388  0.90071028  5.83264706
   8.21566410  2.24839916  6.90598220
   9.31603292  0.41648149  1.51734341
   6.56361466 10.33681835  1.63726161
   2.47632159  0.16788998  2.49445830
   4.00855788  9.47073443  2.21532327
   7.03385877  6.26114590  0.16061858
   5.65198960  4.53266720  6.36525022
   4.86325633  7.60087513  8.97813250
   8.70003994  6.24877415  8.28549747
  10.58431696  2.11027272 11.61238545
  11.01576232  1.39171602  6.62149216
   1.66372884  5.02034219  1.13860992
   3.36674601  3.14789726  5.91750106
   7.94937242 10.20188033  6.15555080
   5.42042992  3.38766093  3.50651992
   2.74119374  3.62602358  3.12615637
   9.70840274  3.65829181  8.04964793
  10.12730129  3.13684062  5.23151949
  11.49821690  4.35283429 10.55682521
   9.95736879  7.97890036  6.69864251
   4.02789209 10.29817321  9.51540874
   7.11329670  6.09291473  2.94008069
   2.20381105 11.62449588  8.81646783
   9.76575618  6.10082964  3.20594838
   0.13712131 11.49996931  2.05629795
   4.23981269  1.60851527 10.69977902
  10.24635037  9.46946652  2.12409702
   8.56951584  9.44554397  9.41456788
  10.78084561 11.45888052  4.08653481
  10.60164189  8.39486131 10.65187516
   3.62566501  8.68871666  4.93180945
   5.67160361  4.14199518 11.18956631
   6.80454758 11.49685247  8.11585892
   2.53737069  5.75136531 10.32300099
   5.74214378 10.88502042  3.99232195
   1.53856539  5.63970033  3.71618513
   7.05641338  0.78313491  0.69414938
   7.27236963  1.17950298  3.56726693
   3.99352139  5.77756679  4.35968474
   1.49322191  1.59252906  4.54449909
   5.72799545  7.65077649  1.83366496
   0.40302245  2.09552200  9.15189062
   9.08439955 11.47373423  8.25123064
   0.46571707  6.76701249 10.78653835
   1.51427427  9.16683536  9.40747848
   1.45528819  2.50696472 11.62708482
   5.35423442  2.14273607  7.21473639
   8.22783546  2.81652450  0.17890588
   4.56013588  5.22191552  1.76760263
   6.13886591  5.61224717  8.71887563
   0.55051009  3.95152479  7.21488677
   8.43981995  0.17778368 10.67208183
   1.52611573 10.64409480  4.76321342
   2.65010023 10.43112671  0.30560722
  10.64525980  5.77507959  5.79387403
   2.01695841  8.90094240  6.74347821
   7.71346061  7.57288015  5.65143627
   5.77858205  9.05658595 10.80981045
   9.22380420  5.90030142 10.85304308
  11.02760212 11.18960500 10.13591085
   6.50830712  2.15663521  9.32608966
   0.66556134  6.73914657  7.58358306
   8.07450369  8.18386356  1.79443363
   2.46371174  7.34804460  0.66619135
   9.04457538  0.66459797  5.28276427
 


--------------------------------------------------------------------------------------------------------


 k-point  1 :   0.0000 0.0000 0.0000  plane waves:   52515
 k-point  2 :   0.5000 0.0000 0.0000  plane waves:   52518
 k-point  3 :   0.0000 0.5000 0.0000  plane waves:   52518
 k-point  4 :   0.5000 0.5000 0.0000  plane waves:   52456
 k-point  5 :   0.0000 0.0000 0.5000  plane waves:   52518
 k-point  6 :   0.5000 0.0000 0.5000  plane waves:   52456
 k-point  7 :   0.0000 0.5000 0.5000  plane waves:   52456
 k-point  8 :   0.5000 0.5000 0.5000  plane waves:   52568

 maximum and minimum number of plane-waves per node :      4420     4326

 maximum number of plane-waves:     52568
 maximum index in each direction: 
   IXMAX=   23   IYMAX=   23   IZMAX=   23
   IXMIN=  -23   IYMIN=  -23   IZMIN=  -23


 real space projection operators:
  total allocation   :      51798.48 KBytes
  max/ min on nodes  :       4390.53       4237.78


 parallel 3D FFT for wavefunctions:
    minimum data exchange during FFTs selected (reduces bandwidth)
 parallel 3D FFT for charge:
    minimum data exchange during FFTs selected (reduces bandwidth)


 total amount of memory used by VASP MPI-rank0   164840. kBytes
=======================================================================

   base      :      30000. kBytes
   nonlr-proj:      22729. kBytes
   fftplans  :      23775. kBytes
   grid      :      12472. kBytes
   one-center:        186. kBytes
   wavefun   :      75678. kBytes
 
     INWAV:  cpu time    0.0001: real time    0.0001
 Broyden mixing: mesh for mixing (old mesh)
   NGX = 47   NGY = 47   NGZ = 47
  (NGX  =192   NGY  =192   NGZ  =192)
  gives a total of 103823 points

 initial charge density was supplied:
 charge density of overlapping atoms calculated
 number of electron     864.0000000 magnetization 
 keeping initial charge density in first step


--------------------------------------------------------------------------------------------------------


 Maximum index for non-local projection operator          686
 Maximum index for augmentation-charges         4865 (set IRDMAX)


--------------------------------------------------------------------------------------------------------


 First call to EWALD:  gamma=   0.152
 Maximum number of real-space cells 3x 3x 3
 Maximum number of reciprocal cells 3x 3x 3

    FEWALD:  cpu time    0.0051: real time    0.0051


--------------------------------------- Iteration      1(   1)  ---------------------------------------


    POTLOK:  cpu time    0.1049: real time    0.1140
    SETDIJ:  cpu time    0.3044: real time    0.3054
     EDDAV:  cpu time   33.8691: real time   34.0303
       DOS:  cpu time    0.0024: real time    0.0024
    --------------------------------------------
      LOOP:  cpu time   34.2808: real time   34.4522

 eigenvalue-minimisations  :  8320
 total energy-change (2. order) : 0.9697436E+04  (-0.4836310E+05)
 number of electron     864.0000000 magnetization 
 augmentation part      864.0000000 magnetization 

 Free energy of the ion-electron system (eV)
  ---------------------------------------------------
  alpha Z        PSCENC =      3039.22321400
  Ewald energy   TEWEN  =    -49236.93383878
  -Hartree energ DENC   =    -15525.69474087
  -exchange      EXHF   =         0.00000000
  -V(xc)+E(xc)   XCENC  =      3190.90100433
  PAW double counting   =     50594.51003143   -49994.65612350
  entropy T*S    EENTRO =        -0.03983527
  eigenvalues    EBANDS =      2661.58637363
  atomic energy  EATOM  =     64968.54023382
  Solvation  Ediel_sol  =         0.00000000
  ---------------------------------------------------
  free energy    TOTEN  =      9697.43631879 eV

  energy without entropy =     9697.47615407  energy(sigma->0) =     9697.45623643


--------------------------------------------------------------------------------------------------------




--------------------------------------- Iteration      1(   2)  ---------------------------------------


     EDDAV:  cpu time   37.9892: real time   38.1963
       DOS:  cpu time    0.0010: real time    0.0010
    --------------------------------------------
      LOOP:  cpu time   37.9902: real time   38.1973

 eigenvalue-minimisations  :  9736
 total energy-change (2. order) :-0.9661013E+04  (-0.9338460E+04)
 number of electron     864.0000000 magnetization 
 augmentation part      864.0000000 magnetization 

 Free energy of the ion-electron system (eV)
  ---------------------------------------------------
  alpha Z        PSCENC =      3039.22321400
  Ewald energy   TEWEN  =    -49236.93383878
  -Hartree energ DENC   =    -15525.69474087
  -exchange      EXHF   =         0.00000000
  -V(xc)+E(xc)   XCENC  =      3190.90100433
  PAW double counting   =     50594.51003143   -49994.65612350
  entropy T*S    EENTRO =        -0.00000000
  eigenvalues    EBANDS =     -6999.46681018
  atomic energy  EATOM  =     64968.54023382
  Solvation  Ediel_sol  =         0.00000000
  ---------------------------------------------------
  free energy    TOTEN  =        36.42297026 eV

  energy without entropy =       36.42297026  energy(sigma->0) =       36.42297026


--------------------------------------------------------------------------------------------------------




--------------------------------------- Iteration      1(   3)  ---------------------------------------


     EDDAV:  cpu time   40.2137: real time   40.4076
       DOS:  cpu time    0.0009: real time    0.0009
    --------------------------------------------
      LOOP:  cpu time   40.2146: real time   40.4085

 eigenvalue-minimisations  : 10288
 total energy-change (2. order) :-0.1048583E+04  (-0.1041516E+04)
 number of electron     864.0000000 magnetization 
 augmentation part      864.0000000 magnetization 

 Free energy of the ion-electron system (eV)
  ---------------------------------------------------
  alpha Z        PSCENC =      3039.22321400
  Ewald energy   TEWEN  =    -49236.93383878
  -Hartree energ DENC   =    -15525.69474087
  -exchange      EXHF   =         0.00000000
  -V(xc)+E(xc)   XCENC  =      3190.90100433
  PAW double counting   =     50594.51003143   -49994.65612350
  entropy T*S    EENTRO =        -0.00000000
  eigenvalues    EBANDS =     -8048.04963167
  atomic energy  EATOM  =     64968.54023382
  Solvation  Ediel_sol  =         0.00000000
  ---------------------------------------------------
  free energy    TOTEN  =     -1012.15985123 eV

  energy without entropy =    -1012.15985123  energy(sigma->0) =    -1012.15985123


--------------------------------------------------------------------------------------------------------




--------------------------------------- Iteration      1(   4)  ---------------------------------------


     EDDAV:  cpu time   43.0737: real time   43.2640
       DOS:  cpu time    0.0010: real time    0.0010
    --------------------------------------------
      LOOP:  cpu time   43.0748: real time   43.2650

 eigenvalue-minimisations  : 11288
 total energy-change (2. order) :-0.4946095E+02  (-0.4928037E+02)
 number of electron     864.0000000 magnetization 
 augmentation part      864.0000000 magnetization 

 Free energy of the ion-electron system (eV)
  ---------------------------------------------------
  alpha Z        PSCENC =      3039.22321400
  Ewald energy   TEWEN  =    -49236.93383878
  -Hartree energ DENC   =    -15525.69474087
  -exchange      EXHF   =         0.00000000
  -V(xc)+E(xc)   XCENC  =      3190.90100433
  PAW double counting   =     50594.51003143   -49994.65612350
  entropy T*S    EENTRO =        -0.00000000
  eigenvalues    EBANDS =     -8097.51057680
  atomic energy  EATOM  =     64968.54023382
  Solvation  Ediel_sol  =         0.00000000
  ---------------------------------------------------
  free energy    TOTEN  =     -1061.62079636 eV

  energy without entropy =    -1061.62079636  energy(sigma->0) =    -1061.62079636


--------------------------------------------------------------------------------------------------------




--------------------------------------- Iteration      1(   5)  ---------------------------------------


     EDDAV:  cpu time   53.2129: real time   53.4832
       DOS:  cpu time    0.0010: real time    0.0010
    CHARGE:  cpu time    1.2486: real time    1.2517
    MIXING:  cpu time    0.0050: real time    0.0051
    --------------------------------------------
      LOOP:  cpu time   54.4675: real time   54.7411

 eigenvalue-minimisations  : 14704
 total energy-change (2. order) :-0.4895014E+01  (-0.4892442E+01)
 number of electron     864.0000006 magnetization 
 augmentation part      133.3256523 magnetization 

 Broyden mixing:
  rms(total) = 0.84302E+01    rms(broyden)= 0.84296E+01
  rms(prec ) = 0.10001E+02
  weight for this iteration     100.00

 Free energy of the ion-electron system (eV)
  ---------------------------------------------------
  alpha Z        PSCENC =      3039.22321400
  Ewald energy   TEWEN  =    -49236.93383878
  -Hartree energ DENC   =    -15525.69474087
  -exchange      EXHF   =         0.00000000
  -V(xc)+E(xc)   XCENC  =      3190.90100433
  PAW double counting   =     50594.51003143   -49994.65612350
  entropy T*S    EENTRO =        -0.00000000
  eigenvalues    EBANDS =     -8102.40559127
  atomic energy  EATOM  =     64968.54023382
  Solvation  Ediel_sol  =         0.00000000
  ---------------------------------------------------
  free energy    TOTEN  =     -1066.51581083 eV

  energy without entropy =    -1066.51581083  energy(sigma->0) =    -1066.51581083


--------------------------------------------------------------------------------------------------------




--------------------------------------- Iteration      1(   6)  ---------------------------------------


    POTLOK:  cpu time    0.1050: real time    0.1122
    SETDIJ:  cpu time    0.3005: real time    0.3015
     EDDAV:  cpu time   38.7238: real time   38.8235
       DOS:  cpu time    0.0010: real time    0.0010
    CHARGE:  cpu time    1.2722: real time    1.2772
    MIXING:  cpu time    0.0055: real time    0.0056
    --------------------------------------------
      LOOP:  cpu time   40.4080: real time   40.5209

 eigenvalue-minimisations  :  9912
 total energy-change (2. order) : 0.1371756E+03  (-0.6349899E+02)
 number of electron     864.0000006 magnetization 
 augmentation part      120.5331346 magnetization 

 Broyden mixing:
  rms(total) = 0.35927E+01    rms(broyden)= 0.35917E+01
  rms(prec ) = 0.37875E+01
  weight for this iteration     100.00

 eigenvalues of (default mixing * dielectric matrix)
  average eigenvalue GAMMA=   1.0426
  1.0426

 Free energy of the ion-electron system (eV)
  ---------------------------------------------------
  alpha Z        PSCENC =      3039.22321400
  Ewald energy   TEWEN  =    -49236.93383878
  -Hartree energ DENC   =    -16796.28526730
  -exchange      EXHF   =         0.00000000
  -V(xc)+E(xc)   XCENC  =      3278.31932767
  PAW double counting   =     65875.24929439   -65416.14013988
  entropy T*S    EENTRO =        -0.00000000
  eigenvalues    EBANDS =     -6641.31301382
  atomic energy  EATOM  =     64968.54023382
  Solvation  Ediel_sol  =         0.00000000
  ---------------------------------------------------
  free energy    TOTEN  =      -929.34018989 eV

  energy without entropy =     -929.34018989  energy(sigma->0) =     -929.34018989


--------------------------------------------------------------------------------------------------------




--------------------------------------- Iteration      1(   7)  ---------------------------------------


    POTLOK:  cpu time    0.1046: real time    0.1114
    SETDIJ:  cpu time    0.3009: real time    0.3026
     EDDAV:  cpu time   42.5730: real time   42.7017
       DOS:  cpu time    0.0010: real time    0.0010
    CHARGE:  cpu time    1.2441: real time    1.2473
    MIXING:  cpu time    0.0045: real time    0.0045
    --------------------------------------------
      LOOP:  cpu time   44.2282: real time   44.3685

 eigenvalue-minimisations  : 11200
 total energy-change (2. order) :-0.2502422E+01  (-0.6524331E+01)
 number of electron     864.0000006 magnetization 
 augmentation part      119.3489429 magnetization 

 Broyden mixing:
  rms(total) = 0.17600E+01    rms(broyden)= 0.17599E+01
  rms(prec ) = 0.19111E+01
  weight for this iteration     100.00

 eigenvalues of (default mixing * dielectric matrix)
  average eigenvalue GAMMA=   1.2413
  1.2413  1.2413

 Free energy of the ion-electron system (eV)
  ---------------------------------------------------
  alpha Z        PSCENC =      3039.22321400
  Ewald energy   TEWEN  =    -49236.93383878
  -Hartree energ DENC   =    -16853.20084131
  -exchange      EXHF   =         0.00000000
  -V(xc)+E(xc)   XCENC  =      3281.81066685
  PAW double counting   =     79419.52366523   -79018.53954307
  entropy T*S    EENTRO =        -0.00000000
  eigenvalues    EBANDS =     -6532.26616850
  atomic energy  EATOM  =     64968.54023382
  Solvation  Ediel_sol  =         0.00000000
  ---------------------------------------------------
  free energy    TOTEN  =      -931.84261176 eV

  energy without entropy =     -931.84261176  energy(sigma->0) =     -931.84261176


--------------------------------------------------------------------------------------------------------




--------------------------------------- Iteration      1(   8)  ---------------------------------------


    POTLOK:  cpu time    0.1059: real time    0.1143
    SETDIJ:  cpu time    0.3001: real time    0.3011
     EDDAV:  cpu time   41.5222: real time   41.7082
       DOS:  cpu time    0.0010: real time    0.0010
    CHARGE:  cpu time    1.2440: real time    1.2471
    MIXING:  cpu time    0.0066: real time    0.0066
    --------------------------------------------
      LOOP:  cpu time   43.1798: real time   43.3783

 eigenvalue-minimisations  : 10808
 total energy-change (2. order) : 0.8380930E+00  (-0.1019938E+01)
 number of electron     864.0000006 magnetization 
 augmentation part      119.6822281 magnetization 

 Broyden mixing:
  rms(total) = 0.72035E+00    rms(broyden)= 0.72026E+00
  rms(prec ) = 0.82943E+00
  weight for this iteration     100.00

 eigenvalues of (default mixing * dielectric matrix)
  average eigenvalue GAMMA=   1.3659
  2.1621  0.9679  0.9679

 Free energy of the ion-electron system (eV)
  ---------------------------------------------------
  alpha Z        PSCENC =      3039.22321400
  Ewald energy   TEWEN  =    -49236.93383878
  -Hartree energ DENC   =    -16831.30106827
  -exchange      EXHF   =         0.00000000
  -V(xc)+E(xc)   XCENC  =      3280.08821585
  PAW double counting   =     87741.56277385   -87379.48080788
  entropy T*S    EENTRO =        -0.00000000
  eigenvalues    EBANDS =     -6512.70324140
  atomic energy  EATOM  =     64968.54023382
  Solvation  Ediel_sol  =         0.00000000
  ---------------------------------------------------
  free energy    TOTEN  =      -931.00451880 eV

  energy without entropy =     -931.00451880  energy(sigma->0) =     -931.00451880


--------------------------------------------------------------------------------------------------------




--------------------------------------- Iteration      1(   9)  ---------------------------------------


    POTLOK:  cpu time    0.1152: real time    0.1157
    SETDIJ:  cpu time    0.3000: real time    0.3011
     EDDAV:  cpu time   40.4264: real time   40.5432
       DOS:  cpu time    0.0011: real time    0.0011
    CHARGE:  cpu time    1.2449: real time    1.2480
    MIXING:  cpu time    0.0048: real time    0.0048
    --------------------------------------------
      LOOP:  cpu time   42.0924: real time   42.2140

 eigenvalue-minimisations  : 10472
 total energy-change (2. order) : 0.2309181E+00  (-0.2087448E+00)
 number of electron     864.0000006 magnetization 
 augmentation part      119.0589425 magnetization 

 Broyden mixing:
  rms(total) = 0.20260E+00    rms(broyden)= 0.20258E+00
  rms(prec ) = 0.24231E+00
  weight for this iteration     100.00

 eigenvalues of (default mixing * dielectric matrix)
  average eigenvalue GAMMA=   1.3747
  2.3387  1.2721  0.9441  0.9441

 Free energy of the ion-electron system (eV)
  ---------------------------------------------------
  alpha Z        PSCENC =      3039.22321400
  Ewald energy   TEWEN  =    -49236.93383878
  -Hartree energ DENC   =    -16902.39861973
  -exchange      EXHF   =         0.00000000
  -V(xc)+E(xc)   XCENC  =      3285.09643293
  PAW double counting   =     94011.92216901   -93673.88158511
  entropy T*S    EENTRO =        -0.00000000
  eigenvalues    EBANDS =     -6422.34160683
  atomic energy  EATOM  =     64968.54023382
  Solvation  Ediel_sol  =         0.00000000
  ---------------------------------------------------
  free energy    TOTEN  =      -930.77360070 eV

  energy without entropy =     -930.77360070  energy(sigma->0) =     -930.77360070


--------------------------------------------------------------------------------------------------------




--------------------------------------- Iteration      1(  10)  ---------------------------------------


    POTLOK:  cpu time    0.1049: real time    0.1122
    SETDIJ:  cpu time    0.2997: real time    0.3004
     EDDAV:  cpu time   44.2891: real time   44.4434
       DOS:  cpu time    0.0010: real time    0.0010
    CHARGE:  cpu time    1.2439: real time    1.2470
    MIXING:  cpu time    0.0048: real time    0.0048
    --------------------------------------------
      LOOP:  cpu time   45.9434: real time   46.1089

 eigenvalue-minimisations  : 11832
 total energy-change (2. order) :-0.8521154E-01  (-0.1003131E+00)
 number of electron     864.0000006 magnetization 
 augmentation part      118.9317509 magnetization 

 Broyden mixing:
  rms(total) = 0.13475E+00    rms(broyden)= 0.13472E+00
  rms(prec ) = 0.15763E+00
  weight for this iteration     100.00

 eigenvalues of (default mixing * dielectric matrix)
  average eigenvalue GAMMA=   1.3037
  2.4479  1.1798  1.1798  0.8555  0.8555

 Free energy of the ion-electron system (eV)
  ---------------------------------------------------
  alpha Z        PSCENC =      3039.22321400
  Ewald energy   TEWEN  =    -49236.93383878
  -Hartree energ DENC   =    -16912.83175672
  -exchange      EXHF   =         0.00000000
  -V(xc)+E(xc)   XCENC  =      3285.77133351
  PAW double counting   =     94968.91339851   -94632.96486354
  entropy T*S    EENTRO =        -0.00000000
  eigenvalues    EBANDS =     -6410.57653303
  atomic energy  EATOM  =     64968.54023382
  Solvation  Ediel_sol  =         0.00000000
  ---------------------------------------------------
  free energy    TOTEN  =      -930.85881223 eV

  energy without entropy =     -930.85881223  energy(sigma->0) =     -930.85881223


--------------------------------------------------------------------------------------------------------




--------------------------------------- Iteration      1(  11)  ---------------------------------------


    POTLOK:  cpu time    0.1008: real time    0.1118
    SETDIJ:  cpu time    0.2958: real time    0.3009
     EDDAV:  cpu time   43.6450: real time   44.7457
       DOS:  cpu time    0.0010: real time    0.0010
    CHARGE:  cpu time    1.2176: real time    1.2470
    MIXING:  cpu time    0.0051: real time    0.0052
    --------------------------------------------
      LOOP:  cpu time   45.2653: real time   46.4116

 eigenvalue-minimisations  : 11792
 total energy-change (2. order) :-0.4887227E-03  (-0.1562533E-01)
 number of electron     864.0000006 magnetization 
 augmentation part      118.8858036 magnetization 

 Broyden mixing:
  rms(total) = 0.70091E-01    rms(broyden)= 0.70084E-01
  rms(prec ) = 0.81265E-01
  weight for this iteration     100.00

 eigenvalues of (default mixing * dielectric matrix)
  average eigenvalue GAMMA=   1.3617
  2.4426  1.9087  0.9872  0.9872  0.9221  0.9221

 Free energy of the ion-electron system (eV)
  ---------------------------------------------------
  alpha Z        PSCENC =      3039.22321400
  Ewald energy   TEWEN  =    -49236.93383878
  -Hartree energ DENC   =    -16921.34033167
  -exchange      EXHF   =         0.00000000
  -V(xc)+E(xc)   XCENC  =      3286.30466577
  PAW double counting   =     95033.37614497   -94696.86021117
  entropy T*S    EENTRO =        -0.00000000
  eigenvalues    EBANDS =     -6403.16917790
  atomic energy  EATOM  =     64968.54023382
  Solvation  Ediel_sol  =         0.00000000
  ---------------------------------------------------
  free energy    TOTEN  =      -930.85930095 eV

  energy without entropy =     -930.85930095  energy(sigma->0) =     -930.85930095


--------------------------------------------------------------------------------------------------------




--------------------------------------- Iteration      1(  12)  ---------------------------------------


    POTLOK:  cpu time    0.1018: real time    0.1132
    SETDIJ:  cpu time    0.2953: real time    0.3003
     EDDAV:  cpu time   39.1200: real time   40.0988
       DOS:  cpu time    0.0009: real time    0.0009
    CHARGE:  cpu time    1.2159: real time    1.2452
    MIXING:  cpu time    0.0049: real time    0.0050
    --------------------------------------------
      LOOP:  cpu time   40.7388: real time   41.7634

 eigenvalue-minimisations  : 10296
 total energy-change (2. order) :-0.4768274E-02  (-0.3951227E-02)
 number of electron     864.0000006 magnetization 
 augmentation part      118.9018729 magnetization 

 Broyden mixing:
  rms(total) = 0.23375E-01    rms(broyden)= 0.23367E-01
  rms(prec ) = 0.30680E-01
  weight for this iteration     100.00

 eigenvalues of (default mixing * dielectric matrix)
  average eigenvalue GAMMA=   1.3905
  2.5255  2.5255  1.0100  1.0100  0.8918  0.8853  0.8853

 Free energy of the ion-electron system (eV)
  ---------------------------------------------------
  alpha Z        PSCENC =      3039.22321400
  Ewald energy   TEWEN  =    -49236.93383878
  -Hartree energ DENC   =    -16922.55678720
  -exchange      EXHF   =         0.00000000
  -V(xc)+E(xc)   XCENC  =      3286.29821929
  PAW double counting   =     94815.48853804   -94476.93585475
  entropy T*S    EENTRO =        -0.00000000
  eigenvalues    EBANDS =     -6403.98779366
  atomic energy  EATOM  =     64968.54023382
  Solvation  Ediel_sol  =         0.00000000
  ---------------------------------------------------
  free energy    TOTEN  =      -930.86406923 eV

  energy without entropy =     -930.86406923  energy(sigma->0) =     -930.86406923


--------------------------------------------------------------------------------------------------------




--------------------------------------- Iteration      1(  13)  ---------------------------------------


    POTLOK:  cpu time    0.1052: real time    0.1123
    SETDIJ:  cpu time    0.2991: real time    0.2998
     EDDAV:  cpu time   45.1109: real time   45.2657
       DOS:  cpu time    0.0010: real time    0.0010
    CHARGE:  cpu time    1.2425: real time    1.2459
    MIXING:  cpu time    0.0058: real time    0.0058
    --------------------------------------------
      LOOP:  cpu time   46.7644: real time   46.9304

 eigenvalue-minimisations  : 12024
 total energy-change (2. order) :-0.1458857E-02  (-0.7839410E-03)
 number of electron     864.0000006 magnetization 
 augmentation part      118.9080112 magnetization 

 Broyden mixing:
  rms(total) = 0.13478E-01    rms(broyden)= 0.13477E-01
  rms(prec ) = 0.17108E-01
  weight for this iteration     100.00

 eigenvalues of (default mixing * dielectric matrix)
  average eigenvalue GAMMA=   1.3598
  2.6695  2.4946  1.0781  1.0781  0.9091  0.9091  0.8701  0.8701

 Free energy of the ion-electron system (eV)
  ---------------------------------------------------
  alpha Z        PSCENC =      3039.22321400
  Ewald energy   TEWEN  =    -49236.93383878
  -Hartree energ DENC   =    -16924.83203633
  -exchange      EXHF   =         0.00000000
  -V(xc)+E(xc)   XCENC  =      3286.39235680
  PAW double counting   =     94696.75664851   -94357.05326499
  entropy T*S    EENTRO =        -0.00000000
  eigenvalues    EBANDS =     -6402.95884111
  atomic energy  EATOM  =     64968.54023382
  Solvation  Ediel_sol  =         0.00000000
  ---------------------------------------------------
  free energy    TOTEN  =      -930.86552809 eV

  energy without entropy =     -930.86552809  energy(sigma->0) =     -930.86552809


--------------------------------------------------------------------------------------------------------




--------------------------------------- Iteration      1(  14)  ---------------------------------------


    POTLOK:  cpu time    0.1032: real time    0.1121
    SETDIJ:  cpu time    0.2998: real time    0.3005
     EDDAV:  cpu time   41.0642: real time   41.1696
       DOS:  cpu time    0.0009: real time    0.0009
    CHARGE:  cpu time    1.2455: real time    1.2486
    MIXING:  cpu time    0.0056: real time    0.0056
    --------------------------------------------
      LOOP:  cpu time   42.7192: real time   42.8374

 eigenvalue-minimisations  : 10688
 total energy-change (2. order) :-0.1680114E-03  (-0.4217848E-03)
 number of electron     864.0000006 magnetization 
 augmentation part      118.9024978 magnetization 

 Broyden mixing:
  rms(total) = 0.91317E-02    rms(broyden)= 0.91305E-02
  rms(prec ) = 0.10791E-01
  weight for this iteration     100.00

 eigenvalues of (default mixing * dielectric matrix)
  average eigenvalue GAMMA=   1.3181
  2.8091  2.4717  1.1442  0.9997  0.9997  0.8948  0.8948  0.8243  0.8243

 Free energy of the ion-electron system (eV)
  ---------------------------------------------------
  alpha Z        PSCENC =      3039.22321400
  Ewald energy   TEWEN  =    -49236.93383878
  -Hartree energ DENC   =    -16926.00868297
  -exchange      EXHF   =         0.00000000
  -V(xc)+E(xc)   XCENC  =      3286.45593400
  PAW double counting   =     94697.57345677   -94357.74446560
  entropy T*S    EENTRO =        -0.00000000
  eigenvalues    EBANDS =     -6401.97154734
  atomic energy  EATOM  =     64968.54023382
  Solvation  Ediel_sol  =         0.00000000
  ---------------------------------------------------
  free energy    TOTEN  =      -930.86569610 eV

  energy without entropy =     -930.86569610  energy(sigma->0) =     -930.86569610


--------------------------------------------------------------------------------------------------------




--------------------------------------- Iteration      1(  15)  ---------------------------------------


    POTLOK:  cpu time    0.1027: real time    0.1112
    SETDIJ:  cpu time    0.2949: real time    0.3003
     EDDAV:  cpu time   40.2293: real time   40.5775
       DOS:  cpu time    0.0010: real time    0.0010
    CHARGE:  cpu time    1.2433: real time    1.2465
    MIXING:  cpu time    0.0059: real time    0.0059
    --------------------------------------------
      LOOP:  cpu time   41.8771: real time   42.2424

 eigenvalue-minimisations  : 10480
 total energy-change (2. order) :-0.1480861E-05  (-0.6442294E-04)
 number of electron     864.0000006 magnetization 
 augmentation part      118.9059666 magnetization 

 Broyden mixing:
  rms(total) = 0.52244E-02    rms(broyden)= 0.52238E-02
  rms(prec ) = 0.63370E-02
  weight for this iteration     100.00

 eigenvalues of (default mixing * dielectric matrix)
  average eigenvalue GAMMA=   1.4041
  3.0178  2.3079  2.3079  0.9225  0.9915  0.9915  0.8672  0.8672  0.8839  0.8839

 Free energy of the ion-electron system (eV)
  ---------------------------------------------------
  alpha Z        PSCENC =      3039.22321400
  Ewald energy   TEWEN  =    -49236.93383878
  -Hartree energ DENC   =    -16926.21998860
  -exchange      EXHF   =         0.00000000
  -V(xc)+E(xc)   XCENC  =      3286.46142479
  PAW double counting   =     94699.67439530   -94359.80714978
  entropy T*S    EENTRO =        -0.00000000
  eigenvalues    EBANDS =     -6401.80398833
  atomic energy  EATOM  =     64968.54023382
  Solvation  Ediel_sol  =         0.00000000
  ---------------------------------------------------
  free energy    TOTEN  =      -930.86569758 eV

  energy without entropy =     -930.86569758  energy(sigma->0) =     -930.86569758


--------------------------------------------------------------------------------------------------------




--------------------------------------- Iteration      1(  16)  ---------------------------------------


    POTLOK:  cpu time    0.1043: real time    0.1116
    SETDIJ:  cpu time    0.3001: real time    0.3008
     EDDAV:  cpu time   51.1135: real time   51.7650
       DOS:  cpu time    0.0009: real time    0.0009
    CHARGE:  cpu time    1.2570: real time    1.2601
    MIXING:  cpu time    0.0073: real time    0.0074
    --------------------------------------------
      LOOP:  cpu time   52.7831: real time   53.4458

 eigenvalue-minimisations  : 10464
 total energy-change (2. order) : 0.1694926E-04  (-0.2347397E-04)
 number of electron     864.0000006 magnetization 
 augmentation part      118.9024239 magnetization 

 Broyden mixing:
  rms(total) = 0.16605E-02    rms(broyden)= 0.16593E-02
  rms(prec ) = 0.22729E-02
  weight for this iteration     100.00

 eigenvalues of (default mixing * dielectric matrix)
  average eigenvalue GAMMA=   1.3956
  3.1287  2.4013  2.4013  1.0056  1.0056  0.9385  0.9385  0.9024  0.9024  0.8638
  0.8638

 Free energy of the ion-electron system (eV)
  ---------------------------------------------------
  alpha Z        PSCENC =      3039.22321400
  Ewald energy   TEWEN  =    -49236.93383878
  -Hartree energ DENC   =    -16926.87418912
  -exchange      EXHF   =         0.00000000
  -V(xc)+E(xc)   XCENC  =      3286.49656318
  PAW double counting   =     94722.14986760   -94382.36219770
  entropy T*S    EENTRO =        -0.00000000
  eigenvalues    EBANDS =     -6401.10533363
  atomic energy  EATOM  =     64968.54023382
  Solvation  Ediel_sol  =         0.00000000
  ---------------------------------------------------
  free energy    TOTEN  =      -930.86568063 eV

  energy without entropy =     -930.86568063  energy(sigma->0) =     -930.86568063


--------------------------------------------------------------------------------------------------------




--------------------------------------- Iteration      1(  17)  ---------------------------------------


    POTLOK:  cpu time    0.1050: real time    0.1126
    SETDIJ:  cpu time    0.3001: real time    0.3015
     EDDAV:  cpu time   45.7297: real time   45.8651
       DOS:  cpu time    0.0010: real time    0.0010
    CHARGE:  cpu time    1.2438: real time    1.2469
    MIXING:  cpu time    0.0063: real time    0.0063
    --------------------------------------------
      LOOP:  cpu time   47.3860: real time   47.5335

 eigenvalue-minimisations  : 12208
 total energy-change (2. order) :-0.3768146E-05  (-0.1349304E-04)
 number of electron     864.0000006 magnetization 
 augmentation part      118.9038467 magnetization 

 Broyden mixing:
  rms(total) = 0.12684E-02    rms(broyden)= 0.12674E-02
  rms(prec ) = 0.14925E-02
  weight for this iteration     100.00

 eigenvalues of (default mixing * dielectric matrix)
  average eigenvalue GAMMA=   1.3393
  3.2414  2.3946  2.3946  1.0792  0.9788  0.9612  0.9612  0.9189  0.9189  0.8465
  0.8465  0.5303

 Free energy of the ion-electron system (eV)
  ---------------------------------------------------
  alpha Z        PSCENC =      3039.22321400
  Ewald energy   TEWEN  =    -49236.93383878
  -Hartree energ DENC   =    -16926.76642813
  -exchange      EXHF   =         0.00000000
  -V(xc)+E(xc)   XCENC  =      3286.48768588
  PAW double counting   =     94722.24107242   -94382.46405798
  entropy T*S    EENTRO =        -0.00000000
  eigenvalues    EBANDS =     -6401.19356563
  atomic energy  EATOM  =     64968.54023382
  Solvation  Ediel_sol  =         0.00000000
  ---------------------------------------------------
  free energy    TOTEN  =      -930.86568440 eV

  energy without entropy =     -930.86568440  energy(sigma->0) =     -930.86568440


--------------------------------------------------------------------------------------------------------




--------------------------------------- Iteration      1(  18)  ---------------------------------------


    POTLOK:  cpu time    0.1036: real time    0.1121
    SETDIJ:  cpu time    0.3008: real time    0.3016
     EDDAV:  cpu time   37.9196: real time   38.0271
       DOS:  cpu time    0.0010: real time    0.0010
    CHARGE:  cpu time    1.2440: real time    1.2474
    MIXING:  cpu time    0.0058: real time    0.0058
    --------------------------------------------
      LOOP:  cpu time   39.5747: real time   39.6949

 eigenvalue-minimisations  :  9664
 total energy-change (2. order) : 0.4536996E-06  (-0.2175615E-05)
 number of electron     864.0000006 magnetization 
 augmentation part      118.9042527 magnetization 

 Broyden mixing:
[...]
   -.577E+02 -.811E+02 0.377E+02   0.683E+02 0.108E+03 -.479E+02   -.109E+02 -.254E+02 0.746E+01   -.253E-03 0.486E-03 -.177E-03
   -.138E+02 0.937E+01 0.387E+02   0.112E+02 0.219E+02 -.424E+02   0.239E+01 -.307E+02 0.248E+01   -.745E-04 0.673E-03 -.293E-03
   0.749E+02 -.349E+01 0.855E+01   -.985E+02 0.177E+02 -.403E+01   0.216E+02 -.130E+02 -.379E+01   -.842E-03 -.229E-03 0.178E-03
   0.735E+02 0.147E+02 -.629E+01   -.970E+02 -.628E+01 0.103E+02   0.280E+02 -.114E+02 -.553E+01   -.329E-03 0.153E-03 -.139E-03
   -.632E+02 0.563E+02 0.233E+02   0.526E+02 -.612E+02 -.862E+01   0.130E+02 0.115E+01 -.125E+02   0.389E-03 -.292E-03 0.287E-03
   0.381E+02 -.754E+02 -.492E+02   -.325E+02 0.883E+02 0.649E+02   -.680E+01 -.128E+02 -.190E+02   -.517E-03 0.247E-03 0.459E-04
   -.515E+02 0.279E+02 -.362E+02   0.655E+02 -.146E+02 0.215E+02   -.163E+02 -.156E+02 0.181E+02   -.671E-03 -.351E-03 0.481E-03
   -.481E+02 -.691E+02 0.717E+02   0.486E+02 0.649E+02 -.829E+02   0.516E+00 0.593E+01 0.111E+02   -.235E-03 0.166E-03 -.243E-03
   0.643E+02 0.478E+02 -.890E+02   -.798E+02 -.647E+02 0.975E+02   0.173E+02 0.192E+02 -.845E+01   -.173E-03 0.687E-04 0.678E-04
   -.985E+02 0.427E+02 0.497E+02   0.104E+03 -.659E+02 -.573E+02   -.553E+01 0.233E+02 0.729E+01   -.199E-03 -.111E-03 -.413E-03
   0.843E+02 0.147E+02 -.590E+02   -.892E+02 -.311E+02 0.712E+02   0.377E+01 0.181E+02 -.125E+02   0.527E-04 -.333E-04 -.952E-04
   -.139E+03 -.875E+02 -.161E+02   0.144E+03 0.947E+02 0.345E+02   -.290E+01 -.574E+01 -.192E+02   -.157E-03 0.367E-03 0.582E-04
   0.281E+02 -.589E+02 -.474E+02   -.222E+02 0.783E+02 0.426E+02   -.920E+01 -.196E+02 0.716E+01   0.680E-06 0.347E-03 0.205E-04
   0.677E+02 -.586E+02 0.475E+02   -.569E+02 0.380E+02 -.546E+02   -.120E+02 0.228E+02 0.497E+01   -.107E-03 0.123E-04 -.181E-03
   0.143E+02 0.747E+02 0.744E+02   -.801E+01 -.569E+02 -.645E+02   -.780E+01 -.211E+02 -.124E+02   0.526E-04 -.454E-04 -.136E-03
   0.309E+02 -.982E+01 -.951E+02   -.428E+02 0.866E+01 0.104E+03   0.950E+01 0.415E+01 -.840E+01   0.354E-03 0.950E-04 -.597E-04
   -.782E+02 0.844E+02 0.496E+02   0.900E+02 -.898E+02 -.711E+02   -.986E+01 0.268E+01 0.214E+02   -.660E-04 -.379E-03 -.345E-03
   0.999E+02 -.889E+02 -.207E+02   -.105E+03 0.983E+02 0.314E+02   0.459E+01 -.962E+01 -.125E+02   0.520E-03 0.179E-03 -.241E-03
   0.759E+02 -.341E+02 -.322E+02   -.691E+02 0.544E+02 0.473E+02   -.914E+01 -.207E+02 -.157E+02   -.272E-04 0.840E-04 0.674E-05
   0.108E+03 -.686E+02 0.867E+02   -.119E+03 0.655E+02 -.104E+03   0.101E+02 0.434E+01 0.197E+02   0.163E-03 -.579E-04 -.420E-04
   0.274E+02 -.665E+02 0.879E+02   -.233E+02 0.863E+02 -.811E+02   -.359E+01 -.205E+02 -.912E+01   0.289E-03 -.417E-03 -.670E-04
   0.440E+02 0.602E+02 -.340E+02   -.442E+02 -.459E+02 0.512E+02   0.125E-01 -.159E+02 -.186E+02   0.215E-03 -.254E-04 0.729E-04
   0.695E+02 -.170E+02 0.420E+02   -.691E+02 0.352E+02 -.273E+02   -.854E-01 -.170E+02 -.152E+02   -.269E-03 -.118E-03 0.642E-04
   0.928E+02 -.409E+02 0.957E+02   -.110E+03 0.435E+02 -.936E+02   0.137E+02 -.120E+01 -.389E+01   -.327E-04 0.187E-03 0.843E-04
   0.110E+02 0.134E+03 0.128E+02   0.124E+01 -.159E+03 -.149E+02   -.137E+02 0.269E+02 0.217E+01   0.249E-03 -.528E-03 -.294E-03
   -.863E+02 -.143E+03 0.170E+02   0.879E+02 0.165E+03 -.446E+02   -.103E+01 -.230E+02 0.250E+02   0.133E-04 0.818E-05 -.321E-03
   -.257E+02 0.121E+02 0.629E+02   0.298E+02 -.240E+01 -.831E+02   -.483E+01 -.111E+02 0.210E+02   -.198E-03 -.768E-04 -.386E-03
   -.181E+02 -.777E+02 -.604E+02   0.150E+02 0.710E+02 0.799E+02   0.214E+01 0.769E+01 -.201E+02   -.480E-03 0.274E-03 0.137E-03
   -.703E+02 0.582E+02 -.366E+02   0.879E+02 -.619E+02 0.528E+02   -.177E+02 0.392E+01 -.177E+02   0.392E-03 -.153E-03 -.157E-03
   0.568E+02 0.924E+01 0.130E+02   -.714E+02 -.128E+02 -.207E+02   0.134E+02 0.445E+01 0.670E+01   0.741E-04 0.136E-03 0.218E-03
   0.125E+02 -.347E+02 0.254E+02   -.229E+02 0.579E+02 -.264E+02   0.113E+02 -.209E+02 0.151E+01   0.197E-04 0.241E-03 -.245E-04
   0.480E+02 0.314E+02 0.356E+02   -.410E+02 -.206E+02 -.477E+02   -.919E+01 -.131E+02 0.142E+02   0.132E-03 -.898E-04 -.103E-03
   -.490E+02 0.122E+03 -.460E+02   0.618E+02 -.146E+03 0.636E+02   -.950E+01 0.231E+02 -.160E+02   0.245E-03 -.340E-03 0.229E-04
   -.371E+02 -.239E+02 -.229E+02   0.477E+02 0.456E+02 0.153E+02   -.103E+02 -.234E+02 0.108E+02   0.471E-04 0.147E-03 0.324E-03
   0.555E+02 -.638E+02 0.656E+02   -.839E+02 0.634E+02 -.687E+02   0.300E+02 0.740E+00 0.326E+01   -.118E-04 0.408E-04 0.211E-03
   0.394E+02 -.122E+02 0.822E+01   -.640E+02 0.949E+01 -.862E+01   0.243E+02 0.401E+01 -.195E+01   -.731E-04 -.356E-04 -.210E-04
   -.347E+02 -.760E+02 0.980E+02   0.374E+02 0.770E+02 -.119E+03   -.270E+01 -.482E+00 0.240E+02   -.859E-04 0.251E-03 -.271E-03
   0.197E+02 0.952E+02 0.667E+02   -.247E+02 -.122E+03 -.795E+02   0.213E+01 0.249E+02 0.137E+02   -.110E-02 -.325E-03 0.209E-03
   -.104E+01 -.518E+02 -.368E+02   -.847E+01 0.352E+02 0.326E+02   0.120E+02 0.205E+02 0.589E+01   -.208E-03 0.333E-03 0.334E-03
   -.618E+02 -.478E+01 -.124E+03   0.538E+02 0.238E+02 0.119E+03   0.933E+01 -.230E+02 0.846E+01   0.636E-03 -.630E-03 0.598E-03
   -.311E+02 0.109E+02 -.527E+02   0.389E+02 -.155E+02 0.845E+02   -.461E+01 0.298E+01 -.300E+02   0.435E-03 -.101E-03 0.270E-03
   0.568E+02 0.839E+02 -.775E+01   -.815E+02 -.101E+03 0.776E+01   0.249E+02 0.159E+02 -.274E+01   -.218E-03 -.310E-03 -.190E-03
   -.469E+02 -.624E+02 0.212E+02   0.754E+02 0.650E+02 -.192E+02   -.299E+02 -.411E+01 -.176E+01   0.412E-03 -.512E-04 -.468E-04
   -.858E+02 0.237E+02 -.785E+02   0.103E+03 -.359E+02 0.770E+02   -.144E+02 0.120E+02 0.645E+00   0.228E-03 0.557E-04 -.462E-04
   -.486E+02 0.419E+02 -.355E+02   0.605E+02 -.465E+02 0.488E+02   -.130E+02 0.521E+01 -.144E+02   -.106E-04 -.642E-04 0.490E-03
   -.762E+02 0.433E+00 0.723E+02   0.940E+02 0.245E+02 -.665E+02   -.142E+02 -.224E+02 -.637E+01   0.340E-03 0.451E-03 -.840E-04
   -.783E+02 -.564E+02 0.438E+02   0.949E+02 0.832E+02 -.329E+02   -.149E+02 -.246E+02 -.949E+01   0.484E-04 0.206E-03 -.600E-04
   -.772E+02 -.208E+02 -.391E+02   0.913E+02 0.563E+01 0.322E+02   -.136E+02 0.142E+02 0.611E+01   -.190E-03 -.366E-03 -.167E-03
 -----------------------------------------------------------------------------------------------
   -.705E+02 0.569E+02 -.136E+02   -.568E-12 -.281E-12 -.313E-12   0.705E+02 -.569E+02 0.136E+02   0.145E-02 0.994E-03 -.134E-03
 
 
 POSITION                                       TOTAL-FORCE (eV/Angst)
 -----------------------------------------------------------------------------------
      5.47600      9.37895      5.82971         2.061484      0.996711      0.487178
     11.52617      7.64675      2.95818        -0.583535      0.055002     -0.081626
      2.21603      1.47661      6.68863        -1.511546     -2.558233      0.622179
      0.90358      3.89721      5.24819        -1.093639     -0.234531     -1.247612
     10.58695      4.44721      1.03082        -2.871246      1.727645     -1.683217
     10.65251      5.49628      8.64645         2.064679      0.912782      0.118857
      2.09109      3.70043      8.91099         1.501333      2.791088      1.133029
      6.80166      3.21697      4.98033         0.415017     -3.039656      1.536756
      2.52766      7.46765      8.85082        -0.452133     -1.024397     -0.142651
      4.93527     10.80039      0.07046        -1.307599      1.622861     -0.698740
      8.73498      9.71327      0.37795        -0.809500     -1.112266      1.271392
      3.33318      3.27843      0.69007         1.341837     -1.077401     -0.099679
      0.89716      9.08153      0.17308         0.102895     -0.652136     -1.005961
      7.51453      7.12155      9.83918        -0.218693      0.296651      0.222666
     10.46418      8.86499      8.65733         3.698114     -0.921088     -1.444252
      6.12694      6.29276      4.82432        -2.505153      0.952715      0.406041
      9.62089      2.35373      2.93826         1.500834     -2.173206      1.496543
      8.26808      3.59614      9.68327        -0.899252      1.003345      0.266162
      0.94822      0.37158     11.33734         1.796947     -1.130014      0.768574
      8.40393      8.76599      3.98780        -0.692283     -3.632489     -0.996604
      4.67831      0.55063      8.67663        -3.022336     -1.461911      0.937360
      2.63072      6.81761      5.84118         0.131321      0.072843      0.676821
     10.56067     10.10044      5.73516         0.313279      0.711486     -0.622667
      6.72969      4.16052      1.46225        -0.473642     -0.735893      0.493004
      3.95831      1.59429      4.16453         1.001057     -0.915211     -0.625528
      4.92637      6.30189     11.47865        -1.867478      1.328288     -0.404891
      3.23065      7.35793      2.85814         0.795544     -0.105872     -1.065935
      5.36429      9.13245      9.32128        -5.728181      2.200611      0.973377
      7.73491     11.57211      4.79045        -4.186508      0.817907      0.510122
      6.80930      1.48806      7.47635         2.290051     -1.802247     -2.635284
      7.21498      6.96325      1.59862        -3.918166      1.715348     -0.058941
      5.48361      9.45259      2.77107         7.441982     -1.470119      0.973212
      6.38728      0.45922      2.28096        -2.363647      0.080441     -1.155423
      5.31546      6.51771      7.77817        -5.093118     -2.584814     -0.916473
      4.04675      4.49990      3.29910         6.463917      2.911089     -0.384856
      1.21489      0.38258      3.52316        -5.582976     -4.579069      0.117419
      5.30287      2.86411     10.13888        -2.774833      0.081957      0.593505
      1.20968      4.39176      2.69876         8.486916      6.176643     -0.941216
      9.98437     10.99194      2.67346         7.892162      0.678901     -0.841428
      2.76260     10.22305      2.07933       -10.327544      3.126838     -5.480729
      1.74284      6.15208      0.04227        -0.740373      0.268037     -4.491398
      0.12334      2.82227     10.74659        -0.068534     -1.721733      0.247618
      2.84457     10.04635      5.46161        -3.881221     -4.314946      1.407671
      1.65208     10.16285      8.04957        -2.742516     -0.375807      2.272859
     11.13756      2.83789      7.84831        -0.898756     -2.173436     -1.619625
      9.51599     11.07166      9.70554         0.033238      1.666229     -0.170370
      7.77860     10.19249      7.94843         0.421799      2.717235     -1.608566
      8.52862      6.30468      6.54086         1.900839      2.757749      0.244917
      9.58877      1.88281      6.00555         0.018321      1.631436      2.174044
     11.24737      7.18261      6.25326         1.880644     -2.762600      2.968559
     10.43570      6.83372     11.21744         2.411933      3.255909      2.078725
      4.52753      3.68450      7.10141        -0.641744      2.016082      0.461442
      8.60108      5.15969      3.98650         2.496040      3.171337     -2.673218
      8.67170      1.28959      0.30714        -2.236647     -1.626191     -0.959611
      4.66899      1.05586      2.12378         4.283794     -1.043718     -0.363163
      8.72277     10.69252      3.54140        -6.110580      0.997891      2.972805
      0.00535     10.22786      7.42258         2.856458      0.925372      1.799186
      6.42753      9.18403      8.14125         2.371486     -0.314274     -1.923934
      1.64278      9.00690      2.35849         0.546141      1.314175      1.017852
      3.43882     11.21802      6.33154         2.221966      1.173494      0.133903
      6.14066      8.47410      3.91220        -0.169720      0.648546      1.163661
      8.21455      3.83026      3.15620         0.062391      0.114731      0.508392
      4.89954      7.42261      6.51226         1.278850     -1.223349      0.185109
      7.93176      4.90903      5.63989         2.705721      3.002768     -1.321703
      4.26502      3.36057      8.82533        -0.275548     -0.494305      0.954468
      0.35848      7.85761      5.11367         1.773212      2.131747     -3.213948
      3.81126      5.34221      7.60970        -1.173764      1.103506     -0.363668
     10.44663      6.62656      1.19375         2.095637      0.450776     -1.162378
      0.07047      3.50783      2.46165        -4.132176     -4.468904      1.683451
      6.58869      0.90071      5.83265         0.573968     -1.930170     -1.034555
      8.21566      2.24840      6.90598        -1.106626      0.503349      2.100100
      9.31603      0.41648      1.51734         0.879701      0.031491      0.882818
      6.56361     10.33682      1.63726        -2.228335      0.460720      2.675916
      2.47632      0.16789      2.49446         1.371755     -0.152441      1.693380
      4.00856      9.47073      2.21532         6.027843     -2.436769      1.043057
      7.03386      6.26115      0.16062         0.742031     -1.196243      1.008944
      5.65199      4.53267      6.36525         1.478451      0.183966     -1.047885
      4.86326      7.60088      8.97813        -1.468264      0.112274      1.129023
      8.70004      6.24877      8.28550        -0.650459     -0.069642     -4.531463
     10.58432      2.11027     11.61239        -0.905025     -0.872992     -0.439127
     11.01576      1.39172      6.62149         1.321321      2.282954      4.431563
      1.66373      5.02034      1.13861        -1.467189     -2.821524      2.678944
      3.36675      3.14790      5.91750         0.017007      0.389480      1.997862
      7.94937     10.20188      6.15555        -0.025256     -0.475616      0.305430
      5.42043      3.38766      3.50652        -4.265659      2.196014     -1.206862
      2.74119      3.62602      3.12616        -2.790024     -2.219949     -1.399989
      9.70840      3.65829      8.04965         2.882701     -1.892684      1.157731
     10.12730      3.13684      5.23152        -0.322859      1.388834     -2.788305
     11.49822      4.35283     10.55683        -0.176378      0.559303     -1.176607
      9.95737      7.97890      6.69864        -2.070793      1.154726      0.731058
      4.02789     10.29817      9.51541         4.507537     -2.951967     -1.541907
      7.11330      6.09291      2.94008         2.362417     -3.751276      2.170267
      2.20381     11.62450      8.81647        -1.181777      0.093779     -3.289620
      9.76576      6.10083      3.20595        -2.269695     -2.423781      3.419257
      0.13712     11.49997      2.05630         1.000098      1.725902     -0.065403
      4.23981      1.60852     10.69978         1.859671      2.354746      0.034944
     10.24635      9.46947      2.12410         0.055273      0.115310     -0.386390
      8.56952      9.44554      9.41457        -1.098954      1.691375     -0.370054
     10.78085     11.45888      4.08653         2.449159      1.504891     -0.872941
     10.60164      8.39486     10.65188        -3.231055     -0.214451      2.339902
      3.62567      8.68872      4.93181        -1.150379      2.203600     -2.095271
      5.67160      4.14200     11.18957        -1.510538     -3.292214     -2.531324
      6.80455     11.49685      8.11586        -2.396581      2.996170      0.587217
      2.53737      5.75137     10.32300         1.927935     -2.708855     -0.074327
      5.74214     10.88502      3.99232        -0.103030     -0.193534     -1.773900
      1.53857      5.63970      3.71619        -2.337918     -0.400684     -0.554147
      7.05641      0.78313      0.69415        -1.442517      1.203260      2.694473
      7.27237      1.17950      3.56727         0.514276     -0.610455     -2.350201
      3.99352      5.77757      4.35968        -0.145876     -1.609686     -1.387650
      1.49322      1.59253      4.54450         0.306281      1.178697     -0.452734
      5.72800      7.65078      1.83366        -3.389984      1.363694     -1.745458
      0.40302      2.09552      9.15189        -1.497181      1.736271      0.130832
      9.08440     11.47373      8.25123         0.570563     -1.203395     -2.546127
      0.46572      6.76701     10.78654        -0.696547     -1.426133      0.852624
      1.51427      9.16684      9.40748        -0.907569      1.033736     -0.605737
      1.45529      2.50696     11.62708        -0.037814      0.284505     -1.480943
      5.35423      2.14274      7.21474        -1.141942      0.854438     -1.063950
      8.22784      2.81652      0.17891         0.930340      2.219779      0.480630
      4.56014      5.22192      1.76760        -2.229648     -2.240535      2.101926
      6.13887      5.61225      8.71888         3.243943     -0.940196      1.566465
      0.55051      3.95152      7.21489         0.347785     -1.700705      3.201766
      8.43982      0.17778     10.67208         1.655435      0.389268      0.208311
      1.52612     10.64409      4.76321        -0.214930      1.267126     -2.353675
      2.65010     10.43113      0.30561        -0.021224      0.507880      2.869441
     10.64526      5.77508      5.79387        -2.853268     -1.651604      0.885431
      2.01696      8.90094      6.74348         2.477988      3.932642      1.669240
      7.71346      7.57288      5.65144         1.385157     -4.066228      3.103192
      5.77858      9.05659     10.80981         3.186388     -1.587035      1.779266
      9.22380      5.90030     10.85304         0.217669     -1.443336     -2.728180
     11.02760     11.18961     10.13591        -1.441322     -1.524203      0.297674
      6.50831      2.15664      9.32609         2.342311     -0.207291     -0.826922
      0.66556      6.73915      7.58358        -1.075997      0.575570     -1.086310
      8.07450      8.18386      1.79443         3.696019      2.619938     -0.538116
      2.46371      7.34804      0.66619         1.742562      2.207698      1.467874
      9.04458      0.66460      5.28276         0.475772     -0.986151     -0.824045
 -----------------------------------------------------------------------------------
    total drift:                                0.006944     -0.017974     -0.003949


--------------------------------------------------------------------------------------------------------



  FREE ENERGIE OF THE ION-ELECTRON SYSTEM (eV)
  ---------------------------------------------------
  free  energy   TOTEN  =      -930.86568255 eV

  energy  without entropy=     -930.86568255  energy(sigma->0) =     -930.86568255
 


--------------------------------------------------------------------------------------------------------


    POTLOK:  cpu time    0.4047: real time    0.4057


--------------------------------------------------------------------------------------------------------


     LOOP+:  cpu time  886.3419: real time  892.1803
    4ORBIT:  cpu time    0.0000: real time    0.0000

 total amount of memory used by VASP MPI-rank0   164840. kBytes
=======================================================================

   base      :      30000. kBytes
   nonlr-proj:      22729. kBytes
   fftplans  :      23775. kBytes
   grid      :      12472. kBytes
   one-center:        186. kBytes
   wavefun   :      75678. kBytes
 
  
  
 General timing and accounting informations for this job:
 ========================================================
  
                  Total CPU time used (sec):      905.067
                            User time (sec):      901.235
                          System time (sec):        3.832
                         Elapsed time (sec):      911.067
  
                   Maximum memory used (kb):      299292.
                   Average memory used (kb):           0.
  
                          Minor page faults:        93361
                          Major page faults:            0
                 Voluntary context switches:          392
