<?xml version="1.0" encoding="ISO-8859-1"?>
<modeling>
 <generator>
  <i name="program" type="string">vasp </i>
  <i name="version" type="string">5.4.4.18Apr17-6-g9f103f2a35  </i>
  <i name="subversion" type="string">(build Oct 31 2019 15:01:46) complex            parallel </i>
  <i name="platform" type="string">LinuxIFC </i>
  <i name="date" type="string">2024 04 19 </i>
  <i name="time" type="string">20:43:21 </i>
 </generator>
 <incar>
  <i type="int" name="ISTART">     0</i>
  <i type="string" name="PREC">anormal</i>
  <i type="logical" name="ADDGRID"> T  </i>
  <i type="int" name="IBRION">    -1</i>
  <i name="EDIFF">      0.00000100</i>
  <i name="EDIFFG">     -0.01000000</i>
  <i type="int" name="NSW">     1</i>
  <i type="int" name="ISIF">     2</i>
  <i type="int" name="ISYM">     2</i>
  <i name="ENCUT">    600.00000000</i>
  <i name="POTIM">      1.00000000</i>
  <i type="string" name="LREAL"> Auto.</i>
  <i type="int" name="ISMEAR">     0</i>
  <i name="SIGMA">      0.05000000</i>
  <i name="KSPACING">      0.25000000</i>
  <i type="logical" name="LWAVE"> F  </i>
  <i type="logical" name="LCHARG"> F  </i>
  <i type="logical" name="LSCALAPACK"> F  </i>
  <v type="int" name="KPOINT_BSE">    -1     0     0     0</v>
 </incar>
 <structure name="primitive_cell" >
  <crystal>
   <varray name="basis" >
    <v>      13.12862340       0.00000000       0.00000000 </v>
    <v>      -6.56431170      11.36972138       0.00000000 </v>
    <v>       0.00000000       0.00000000      26.82809424 </v>
   </varray>
   <i name="volume">   4004.59716953 </i>
   <varray name="rec_basis" >
    <v>       0.07616945       0.04397645       0.00000000 </v>
    <v>       0.00000000       0.08795290       0.00000000 </v>
    <v>       0.00000000       0.00000000       0.03727436 </v>
   </varray>
  </crystal>
  <varray name="positions" >
   <v>       0.08165821       0.15874760       0.44922742 </v>
   <v>      -0.06681966       0.08389735       0.41091936 </v>
   <v>       0.15818961       0.31034857       0.40989034 </v>
   <v>       0.17711840       0.09118568       0.40908640 </v>
   <v>      -0.00031140       0.00305489      -0.49965640 </v>
   <v>      -0.00102359       0.24718704      -0.49816962 </v>
   <v>       0.25532569       0.24967366      -0.49887162 </v>
   <v>      -0.16751213      -0.07850122       0.44977055 </v>
   <v>       0.17660016       0.08286029      -0.45580548 </v>
   <v>       0.09146115      -0.08121439       0.45000905 </v>
   <v>       0.15957394       0.33368094      -0.45636154 </v>
   <v>       0.32558644       0.40812502       0.45120658 </v>
   <v>      -0.07599323       0.08311211      -0.44988616 </v>
   <v>      -0.16472714       0.16924911       0.46033485 </v>
   <v>       0.33895734       0.16610908       0.45491610 </v>
   <v>       0.08651782       0.41869833       0.45338481 </v>
   <v>       0.09126973       0.15806523      -0.41650173 </v>
   <v>      -0.07322109       0.32415270       0.41274905 </v>
   <v>      -0.10379579      -0.16509213       0.41141622 </v>
   <v>       0.25236913       0.00260302       0.49775485 </v>
   <v>      -0.24890135       0.01688286      -0.49503862 </v>
   <v>       0.25011471       0.49695488       0.49884345 </v>
   <v>       0.42394152       0.34514473       0.40238128 </v>
   <v>      -0.08055019      -0.15344129      -0.45532157 </v>
   <v>       0.39835449       0.32504054      -0.45154982 </v>
   <v>      -0.08331575       0.32786139      -0.44609486 </v>
   <v>       0.08223459      -0.08012733      -0.41518730 </v>
   <v>       0.32161202       0.15073251      -0.40891391 </v>
   <v>       0.16398747      -0.16027903       0.40272006 </v>
   <v>      -0.32591750      -0.17256835       0.40782767 </v>
   <v>      -0.16177069      -0.08607958      -0.40399050 </v>
   <v>      -0.00056175      -0.24726193      -0.49836998 </v>
   <v>       0.41869396       0.08574833       0.40889346 </v>
   <v>      -0.33144737       0.08311948       0.41204607 </v>
   <v>      -0.16003682       0.16593328      -0.40264106 </v>
   <v>      -0.25484942      -0.24335605      -0.49622677 </v>
   <v>      -0.23887778       0.25780380       0.49824355 </v>
   <v>       0.41631245      -0.41995720       0.40812414 </v>
   <v>       0.32716251       0.42732869      -0.40471631 </v>
   <v>       0.07209338       0.40680438      -0.40213631 </v>
   <v>      -0.49967837       0.25424690      -0.49666100 </v>
   <v>       0.00182527       0.49687283      -0.49760275 </v>
   <v>       0.14290125      -0.42213864       0.40492080 </v>
   <v>      -0.49506205      -0.49539470      -0.49816466 </v>
   <v>       0.40669581       0.07972337      -0.45421813 </v>
   <v>      -0.15336541       0.41233079       0.45332006 </v>
   <v>       0.16921998      -0.16739234      -0.45683043 </v>
   <v>      -0.16181998      -0.33138548       0.45676557 </v>
   <v>      -0.33396310      -0.16753535      -0.45288578 </v>
   <v>       0.34066427      -0.07916725       0.44719097 </v>
   <v>      -0.41748269      -0.08228956       0.45237017 </v>
   <v>       0.33007900      -0.34139321       0.45094224 </v>
   <v>       0.15165686      -0.42545959      -0.45408827 </v>
   <v>      -0.41781384       0.42175041       0.45661344 </v>
   <v>       0.41690052      -0.41565956      -0.45422373 </v>
   <v>      -0.33560686       0.08982145      -0.44572153 </v>
   <v>       0.08266713      -0.33475076       0.45465600 </v>
   <v>      -0.42232312      -0.34047160       0.44868396 </v>
   <v>      -0.41357032       0.17075266       0.45442784 </v>
   <v>      -0.16025146      -0.33339622      -0.41434682 </v>
   <v>       0.32239976      -0.08537202      -0.40951414 </v>
   <v>      -0.33091098      -0.40119592       0.40761911 </v>
   <v>       0.33465026      -0.35234320      -0.40817677 </v>
   <v>      -0.41990922       0.40496673      -0.41004828 </v>
   <v>      -0.42208605      -0.09077807      -0.41101956 </v>
   <v>      -0.09302116      -0.42445636       0.41564193 </v>
   <v>       0.49956321       0.00326320       0.49968287 </v>
   <v>      -0.17606125       0.41347794      -0.41259260 </v>
   <v>       0.25080980      -0.25466233      -0.49969684 </v>
   <v>       0.49501144      -0.25109723       0.49515010 </v>
   <v>      -0.32377672       0.34694000       0.41296429 </v>
   <v>      -0.32303605      -0.40350427      -0.45398732 </v>
   <v>      -0.08381957      -0.41442625      -0.45326763 </v>
   <v>      -0.33608767       0.34979469      -0.45055378 </v>
   <v>      -0.40475065      -0.33433836      -0.41420013 </v>
   <v>       0.42367456      -0.14526366       0.40737195 </v>
   <v>       0.08769585      -0.32844546      -0.40875015 </v>
   <v>      -0.24727351      -0.49020229      -0.49542244 </v>
   <v>      -0.42456450       0.14905926      -0.40093018 </v>
   <v>       0.41554337      -0.17029548      -0.45762683 </v>
  </varray>
 </structure>
 <varray name="primitive_index" >
  <v type="int" >        1 </v>
  <v type="int" >       61 </v>
  <v type="int" >       50 </v>
  <v type="int" >       49 </v>
  <v type="int" >       65 </v>
  <v type="int" >       66 </v>
  <v type="int" >       70 </v>
  <v type="int" >       16 </v>
  <v type="int" >       17 </v>
  <v type="int" >        4 </v>
  <v type="int" >       18 </v>
  <v type="int" >        6 </v>
  <v type="int" >       29 </v>
  <v type="int" >       13 </v>
  <v type="int" >        5 </v>
  <v type="int" >        2 </v>
  <v type="int" >       33 </v>
  <v type="int" >       62 </v>
  <v type="int" >       64 </v>
  <v type="int" >       69 </v>
  <v type="int" >       77 </v>
  <v type="int" >       71 </v>
  <v type="int" >       54 </v>
  <v type="int" >       32 </v>
  <v type="int" >       22 </v>
  <v type="int" >       30 </v>
  <v type="int" >       36 </v>
  <v type="int" >       37 </v>
  <v type="int" >       52 </v>
  <v type="int" >       60 </v>
  <v type="int" >       48 </v>
  <v type="int" >       68 </v>
  <v type="int" >       53 </v>
  <v type="int" >       57 </v>
  <v type="int" >       45 </v>
  <v type="int" >       80 </v>
  <v type="int" >       78 </v>
  <v type="int" >       55 </v>
  <v type="int" >       38 </v>
  <v type="int" >       34 </v>
  <v type="int" >       74 </v>
  <v type="int" >       67 </v>
  <v type="int" >       51 </v>
  <v type="int" >       75 </v>
  <v type="int" >       21 </v>
  <v type="int" >       14 </v>
  <v type="int" >       20 </v>
  <v type="int" >       15 </v>
  <v type="int" >       28 </v>
  <v type="int" >        8 </v>
  <v type="int" >       12 </v>
  <v type="int" >        7 </v>
  <v type="int" >       19 </v>
  <v type="int" >       10 </v>
  <v type="int" >       23 </v>
  <v type="int" >       25 </v>
  <v type="int" >        3 </v>
  <v type="int" >       11 </v>
  <v type="int" >        9 </v>
  <v type="int" >       47 </v>
  <v type="int" >       40 </v>
  <v type="int" >       59 </v>
  <v type="int" >       39 </v>
  <v type="int" >       42 </v>
  <v type="int" >       44 </v>
  <v type="int" >       63 </v>
  <v type="int" >       73 </v>
  <v type="int" >       46 </v>
  <v type="int" >       72 </v>
  <v type="int" >       76 </v>
  <v type="int" >       58 </v>
  <v type="int" >       27 </v>
  <v type="int" >       31 </v>
  <v type="int" >       26 </v>
  <v type="int" >       43 </v>
  <v type="int" >       56 </v>
  <v type="int" >       35 </v>
  <v type="int" >       79 </v>
  <v type="int" >       41 </v>
  <v type="int" >       24 </v>
 </varray>
 <kpoints>
  <generation param="Gamma">
   <v type="int" name="divisions">       3        3        1 </v>
   <v name="usershift">      0.00000000       0.00000000       0.00000000 </v>
   <v name="genvec1">      0.33333333       0.00000000       0.00000000 </v>
   <v name="genvec2">      0.00000000       0.33333333       0.00000000 </v>
   <v name="genvec3">      0.00000000       0.00000000       1.00000000 </v>
   <v name="shift">      0.00000000       0.00000000       0.00000000 </v>
  </generation>
  <varray name="kpointlist" >
   <v>       0.00000000       0.00000000       0.00000000 </v>
   <v>       0.33333333      -0.00000000       0.00000000 </v>
   <v>       0.00000000       0.33333333       0.00000000 </v>
   <v>       0.33333333       0.33333333       0.00000000 </v>
   <v>      -0.33333333       0.33333333       0.00000000 </v>
  </varray>
  <varray name="weights" >
   <v>       0.11111111 </v>
   <v>       0.22222222 </v>
   <v>       0.22222222 </v>
   <v>       0.22222222 </v>
   <v>       0.22222222 </v>
  </varray>
 </kpoints>
 <parameters>
  <separator name="general" >
   <i type="string" name="SYSTEM">unknown system</i>
   <i type="logical" name="LCOMPAT"> F  </i>
  </separator>
  <separator name="electronic" >
   <i type="string" name="PREC">anorma</i>
   <i name="ENMAX">    600.00000000</i>
   <i name="ENAUG">    644.87300000</i>
   <i name="EDIFF">      0.00000100</i>
   <i type="int" name="IALGO">    38</i>
   <i type="int" name="IWAVPR">    10</i>
   <i type="int" name="NBANDS">   384</i>
   <i name="NELECT">    640.00000000</i>
   <i type="int" name="TURBO">     0</i>
   <i type="int" name="IRESTART">     0</i>
   <i type="int" name="NREBOOT">     0</i>
   <i type="int" name="NMIN">     0</i>
   <i name="EREF">      0.00000000</i>
   <separator name="electronic smearing" >
    <i type="int" name="ISMEAR">     0</i>
    <i name="SIGMA">      0.05000000</i>
    <i name="KSPACING">      0.25000000</i>
    <i type="logical" name="KGAMMA"> T  </i>
   </separator>
   <separator name="electronic projectors" >
    <i type="logical" name="LREAL"> T  </i>
    <v name="ROPT">     -0.00025000     -0.00025000     -0.00025000</v>
    <i type="int" name="LMAXPAW">  -100</i>
    <i type="int" name="LMAXMIX">     2</i>
    <i type="logical" name="NLSPLINE"> F  </i>
   </separator>
   <separator name="electronic startup" >
    <i type="int" name="ISTART">     0</i>
    <i type="int" name="ICHARG">     2</i>
    <i type="int" name="INIWAV">     1</i>
   </separator>
   <separator name="electronic spin" >
    <i type="int" name="ISPIN">     1</i>
    <i type="logical" name="LNONCOLLINEAR"> F  </i>
    <v name="MAGMOM">      1.00000000      1.00000000      1.00000000      1.00000000      1.00000000      1.00000000      1.00000000      1.00000000      1.00000000      1.00000000      1.00000000      1.00000000      1.00000000      1.00000000      1.00000000      1.00000000      1.00000000      1.00000000      1.00000000      1.00000000
      1.00000000      1.00000000      1.00000000      1.00000000      1.00000000      1.00000000      1.00000000      1.00000000      1.00000000      1.00000000      1.00000000      1.00000000      1.00000000      1.00000000      1.00000000      1.00000000      1.00000000      1.00000000      1.00000000      1.00000000
      1.00000000      1.00000000      1.00000000      1.00000000      1.00000000      1.00000000      1.00000000      1.00000000      1.00000000      1.00000000      1.00000000      1.00000000      1.00000000      1.00000000      1.00000000      1.00000000      1.00000000      1.00000000      1.00000000      1.00000000
      1.00000000      1.00000000      1.00000000      1.00000000      1.00000000      1.00000000      1.00000000      1.00000000      1.00000000      1.00000000      1.00000000      1.00000000      1.00000000      1.00000000      1.00000000      1.00000000      1.00000000      1.00000000      1.00000000      1.00000000
</v>
    <i name="NUPDOWN">     -1.00000000</i>
    <i type="logical" name="LSORBIT"> F  </i>
    <v name="SAXIS">      0.00000000      0.00000000      1.00000000</v>
    <i type="logical" name="LSPIRAL"> F  </i>
    <v name="QSPIRAL">      0.00000000      0.00000000      0.00000000</v>
    <i type="logical" name="LZEROZ"> F  </i>
   </separator>
   <separator name="electronic exchange-correlation" >
    <i type="logical" name="LASPH"> F  </i>
    <i type="logical" name="LMETAGGA"> F  </i>
   </separator>
   <separator name="electronic convergence" >
    <i type="int" name="NELM">    60</i>
    <i type="int" name="NELMDL">    -5</i>
    <i type="int" name="NELMIN">     2</i>
    <i name="ENINI">    600.00000000</i>
    <separator name="electronic convergence detail" >
     <i type="logical" name="LDIAG"> T  </i>
     <i type="logical" name="LSUBROT"> F  </i>
     <i name="WEIMIN">      0.00000000</i>
     <i name="EBREAK">      0.00000000</i>
     <i name="DEPER">      0.30000000</i>
     <i type="int" name="NRMM">     4</i>
     <i name="TIME">      0.40000000</i>
    </separator>
   </separator>
   <separator name="electronic mixer" >
    <i name="AMIX">      0.40000000</i>
    <i name="BMIX">      1.00000000</i>
    <i name="AMIN">      0.10000000</i>
    <i name="AMIX_MAG">      1.60000000</i>
    <i name="BMIX_MAG">      1.00000000</i>
    <separator name="electronic mixer details" >
     <i type="int" name="IMIX">     4</i>
     <i type="logical" name="MIXFIRST"> F  </i>
     <i type="int" name="MAXMIX">   -45</i>
     <i name="WC">    100.00000000</i>
     <i type="int" name="INIMIX">     1</i>
     <i type="int" name="MIXPRE">     1</i>
     <i type="int" name="MREMOVE">     5</i>
    </separator>
   </separator>
   <separator name="electronic dipolcorrection" >
    <i type="logical" name="LDIPOL"> F  </i>
    <i type="logical" name="LMONO"> F  </i>
    <i type="int" name="IDIPOL">     0</i>
    <i name="EPSILON">      1.00000000</i>
    <v name="DIPOL">   -100.00000000   -100.00000000   -100.00000000</v>
    <i name="EFIELD">      0.00000000</i>
   </separator>
  </separator>
  <separator name="grids" >
   <i type="int" name="NGX">   108</i>
   <i type="int" name="NGY">   108</i>
   <i type="int" name="NGZ">   216</i>
   <i type="int" name="NGXF">   216</i>
   <i type="int" name="NGYF">   216</i>
   <i type="int" name="NGZF">   432</i>
   <i type="logical" name="ADDGRID"> T  </i>
  </separator>
  <separator name="ionic" >
   <i type="int" name="NSW">     1</i>
   <i type="int" name="IBRION">    -1</i>
   <i type="int" name="MDALGO">     0</i>
   <i type="int" name="ISIF">     2</i>
   <i name="PSTRESS">      0.00000000</i>
   <i name="EDIFFG">     -0.01000000</i>
   <i type="int" name="NFREE">     0</i>
   <i name="POTIM">      1.00000000</i>
   <i name="SMASS">     -3.00000000</i>
   <i name="SCALEE">      1.00000000</i>
  </separator>
  <separator name="ionic md" >
   <i name="TEBEG">      0.00010000</i>
   <i name="TEEND">      0.00010000</i>
   <i type="int" name="NBLOCK">     1</i>
   <i type="int" name="KBLOCK">     1</i>
   <i type="int" name="NPACO">   256</i>
   <i name="APACO">     16.00000000</i>
  </separator>
  <separator name="symmetry" >
   <i type="int" name="ISYM">     2</i>
   <i name="SYMPREC">      0.00001000</i>
  </separator>
  <separator name="dos" >
   <i type="int" name="LORBIT">     0</i>
   <v name="RWIGS">     -1.00000000     -1.00000000     -1.00000000</v>
   <i type="int" name="NEDOS">   301</i>
   <i name="EMIN">     10.00000000</i>
   <i name="EMAX">    -10.00000000</i>
   <i name="EFERMI">      0.00000000</i>
  </separator>
  <separator name="writing" >
   <i type="int" name="NWRITE">     2</i>
   <i type="logical" name="LWAVE"> F  </i>
   <i type="logical" name="LDOWNSAMPLE"> F  </i>
   <i type="logical" name="LCHARG"> F  </i>
   <i type="logical" name="LPARD"> F  </i>
   <i type="logical" name="LVTOT"> F  </i>
   <i type="logical" name="LVHAR"> F  </i>
   <i type="logical" name="LELF"> F  </i>
   <i type="logical" name="LOPTICS"> F  </i>
   <v name="STM">      0.00000000      0.00000000      0.00000000      0.00000000      0.00000000      0.00000000      0.00000000</v>
  </separator>
  <separator name="performance" >
   <i type="int" name="NPAR">     4</i>
   <i type="int" name="NSIM">     4</i>
   <i type="int" name="NBLK">    -1</i>
   <i type="logical" name="LPLANE"> T  </i>
   <i type="logical" name="LSCALAPACK"> F  </i>
   <i type="logical" name="LSCAAWARE"> F  </i>
   <i type="logical" name="LSCALU"> F  </i>
   <i type="logical" name="LASYNC"> F  </i>
   <i type="logical" name="LORBITALREAL"> F  </i>
  </separator>
  <separator name="miscellaneous" >
   <i type="int" name="IDIOT">     3</i>
   <i type="int" name="ISPECIAL">     0</i>
   <i type="logical" name="LMUSIC"> F  </i>
   <v name="POMASS">     44.95600000     18.99800000     12.01100000</v>
   <v name="DARWINR">      0.00000000      0.00000000      0.00000000</v>
   <v name="DARWINV">      1.00000000      1.00000000      1.00000000</v>
   <i type="logical" name="LCORR"> T  </i>
  </separator>
  <i type="logical" name="GGA_COMPAT"> T  </i>
  <i type="logical" name="LBERRY"> F  </i>
  <i type="int" name="ICORELEVEL">     0</i>
  <i type="logical" name="LDAU"> F  </i>
  <i type="int" name="I_CONSTRAINED_M">     0</i>
  <separator name="electronic exchange-correlation" >
   <i type="string" name="GGA">--</i>
   <i type="int" name="VOSKOWN">     0</i>
   <i type="logical" name="LHFCALC"> F  </i>
   <i type="string" name="PRECFOCK"></i>
   <i type="logical" name="LSYMGRAD"> F  </i>
   <i type="logical" name="LHFONE"> F  </i>
   <i type="logical" name="LRHFCALC"> F  </i>
   <i type="logical" name="LTHOMAS"> F  </i>
   <i type="logical" name="LMODELHF"> F  </i>
   <i name="ENCUT4O">     -1.00000000</i>
   <i type="int" name="EXXOEP">     0</i>
   <i type="int" name="FOURORBIT">     0</i>
   <i name="AEXX">      0.00000000</i>
   <i name="HFALPHA">      0.00000000</i>
   <i name="MCALPHA">      0.00000000</i>
   <i name="ALDAX">      1.00000000</i>
   <i name="AGGAX">      1.00000000</i>
   <i name="ALDAC">      1.00000000</i>
   <i name="AGGAC">      1.00000000</i>
   <i type="int" name="NKREDX">     1</i>
   <i type="int" name="NKREDY">     1</i>
   <i type="int" name="NKREDZ">     1</i>
   <i type="logical" name="SHIFTRED"> F  </i>
   <i type="logical" name="ODDONLY"> F  </i>
   <i type="logical" name="EVENONLY"> F  </i>
   <i type="int" name="LMAXFOCK">     0</i>
   <i type="int" name="NMAXFOCKAE">     0</i>
   <i type="logical" name="LFOCKAEDFT"> F  </i>
   <i name="HFSCREEN">      0.00000000</i>
   <i name="HFSCREENC">      0.00000000</i>
   <i type="int" name="NBANDSGWLOW">     0</i>
  </separator>
  <separator name="vdW DFT" >
   <i type="logical" name="LUSE_VDW"> F  </i>
   <i name="Zab_VDW">     -0.84910000</i>
   <i name="PARAM1">      0.12340000</i>
   <i name="PARAM2">      1.00000000</i>
   <i name="PARAM3">      0.00000000</i>
  </separator>
  <separator name="model GW" >
   <i type="int" name="MODEL_GW">     0</i>
   <i name="MODEL_EPS0">     30.03447877</i>
   <i name="MODEL_ALPHA">      1.00000000</i>
  </separator>
  <separator name="linear response parameters" >
   <i type="logical" name="LEPSILON"> F  </i>
   <i type="logical" name="LRPA"> F  </i>
   <i type="logical" name="LNABLA"> F  </i>
   <i type="logical" name="LVEL"> F  </i>
   <i type="int" name="KINTER">     0</i>
   <i name="CSHIFT">      0.10000000</i>
   <i name="OMEGAMAX">     -1.00000000</i>
   <i name="DEG_THRESHOLD">      0.00200000</i>
   <i name="RTIME">     -0.10000000</i>
   <i name="WPLASMAI">      0.00000000</i>
   <v name="DFIELD">      0.00000000      0.00000000      0.00000000</v>
   <v name="WPLASMA">      0.00000000      0.00000000      0.00000000      0.00000000      0.00000000      0.00000000      0.00000000      0.00000000      0.00000000</v>
  </separator>
  <separator name="orbital magnetization" >
   <i type="logical" name="NUCIND"> F  </i>
   <v name="MAGPOS">      0.00000000      0.00000000      0.00000000</v>
   <i type="logical" name="LNICSALL"> T  </i>
   <i type="logical" name="ORBITALMAG"> F  </i>
   <i type="logical" name="LMAGBLOCH"> F  </i>
   <i type="logical" name="LCHIMAG"> F  </i>
   <i type="logical" name="LGAUGE"> T  </i>
   <i type="int" name="MAGATOM">     0</i>
   <v name="MAGDIPOL">      0.00000000      0.00000000      0.00000000</v>
   <v name="AVECCONST">      0.00000000      0.00000000      0.00000000</v>
  </separator>
  <separator name="response functions" >
   <i type="logical" name="LADDER"> F  </i>
   <i type="logical" name="LRPAFORCE"> F  </i>
   <i type="logical" name="LFXC"> F  </i>
   <i type="logical" name="LHARTREE"> T  </i>
   <i type="int" name="IBSE">     0</i>
   <v type="int" name="KPOINT">    -1     0     0     0</v>
   <i type="logical" name="LTCTE"> F  </i>
   <i type="logical" name="LTETE"> F  </i>
   <i type="logical" name="LTRIPLET"> F  </i>
   <i type="logical" name="LFXCEPS"> F  </i>
   <i type="logical" name="LFXHEG"> F  </i>
   <i type="int" name="NATURALO">     2</i>
   <i type="logical" name="L2ORDER"> F  </i>
   <i type="logical" name="LMP2LT"> F  </i>
   <i type="logical" name="LUSEW"> F  </i>
   <i name="ENCUTGW">     -2.00000000</i>
   <i name="ENCUTGWSOFT">     -2.00000000</i>
   <i name="ENCUTLF">     -1.00000000</i>
   <i type="int" name="LMAXMP2">    -1</i>
   <i name="SCISSOR">      0.00000000</i>
   <i type="int" name="NOMEGA">     0</i>
   <i type="int" name="NOMEGAR">     0</i>
   <i type="int" name="NBANDSGW">    -1</i>
   <i type="int" name="NBANDSO">    -1</i>
   <i type="int" name="NBANDSV">    -1</i>
   <i type="int" name="NELM">     1</i>
   <i type="int" name="NELMHF">     1</i>
   <i type="int" name="DIM">     3</i>
   <i type="int" name="ANTIRES">     0</i>
   <i name="OMEGAMAX">    -30.00000000</i>
   <i name="OMEGAMIN">    -30.00000000</i>
   <i name="OMEGATL">   -200.00000000</i>
   <i type="int" name="OMEGAGRID">   140</i>
   <i name="CSHIFT">     -0.10000000</i>
   <i type="logical" name="SELFENERGY"> F  </i>
   <i type="logical" name="LSPECTRAL"> F  </i>
   <i type="logical" name="LSPECTRALGW"> F  </i>
   <i type="logical" name="LSINGLES"> F  </i>
   <i type="logical" name="LFERMIGW"> F  </i>
   <i type="logical" name="ODDONLYGW"> F  </i>
   <i type="logical" name="EVENONLYGW"> F  </i>
   <i type="int" name="NKREDLFX">     1</i>
   <i type="int" name="NKREDLFY">     1</i>
   <i type="int" name="NKREDLFZ">     1</i>
   <i type="int" name="MAXMEM">  2800</i>
   <i type="int" name="TELESCOPE">     0</i>
   <i type="int" name="TAUPAR">     1</i>
   <i type="int" name="OMEGAPAR">    -1</i>
   <i name="LAMBDA">      1.00000000</i>
  </separator>
  <separator name="External order field" >
   <i name="OFIELD_KAPPA">      0.00000000</i>
   <v name="OFIELD_K">      0.00000000      0.00000000      0.00000000</v>
   <i name="OFIELD_Q6_NEAR">      0.00000000</i>
   <i name="OFIELD_Q6_FAR">      0.00000000</i>
   <i name="OFIELD_A">      0.00000000</i>
  </separator>
 </parameters>
 <atominfo>
  <atoms>      80 </atoms>
  <types>       3 </types>
  <array name="atoms" >
   <dimension dim="1">ion</dimension>
   <field type="string">element</field>
   <field type="int">atomtype</field>
   <set>
    <rc><c>Sc</c><c>   1</c></rc>
    <rc><c>Sc</c><c>   1</c></rc>
    <rc><c>Sc</c><c>   1</c></rc>
    <rc><c>Sc</c><c>   1</c></rc>
    <rc><c>Sc</c><c>   1</c></rc>
    <rc><c>Sc</c><c>   1</c></rc>
    <rc><c>Sc</c><c>   1</c></rc>
    <rc><c>Sc</c><c>   1</c></rc>
    <rc><c>Sc</c><c>   1</c></rc>
    <rc><c>Sc</c><c>   1</c></rc>
    <rc><c>Sc</c><c>   1</c></rc>
    <rc><c>Sc</c><c>   1</c></rc>
    <rc><c>Sc</c><c>   1</c></rc>
    <rc><c>Sc</c><c>   1</c></rc>
    <rc><c>Sc</c><c>   1</c></rc>
    <rc><c>Sc</c><c>   1</c></rc>
    <rc><c>Sc</c><c>   1</c></rc>
    <rc><c>Sc</c><c>   1</c></rc>
    <rc><c>Sc</c><c>   1</c></rc>
    <rc><c>Sc</c><c>   1</c></rc>
    <rc><c>Sc</c><c>   1</c></rc>
    <rc><c>Sc</c><c>   1</c></rc>
    <rc><c>Sc</c><c>   1</c></rc>
    <rc><c>Sc</c><c>   1</c></rc>
    <rc><c>Sc</c><c>   1</c></rc>
    <rc><c>Sc</c><c>   1</c></rc>
    <rc><c>Sc</c><c>   1</c></rc>
    <rc><c>Sc</c><c>   1</c></rc>
    <rc><c>Sc</c><c>   1</c></rc>
    <rc><c>Sc</c><c>   1</c></rc>
    <rc><c>Sc</c><c>   1</c></rc>
    <rc><c>Sc</c><c>   1</c></rc>
    <rc><c>F </c><c>   2</c></rc>
    <rc><c>F </c><c>   2</c></rc>
    <rc><c>F </c><c>   2</c></rc>
    <rc><c>F </c><c>   2</c></rc>
    <rc><c>F </c><c>   2</c></rc>
    <rc><c>F </c><c>   2</c></rc>
    <rc><c>F </c><c>   2</c></rc>
    <rc><c>F </c><c>   2</c></rc>
    <rc><c>F </c><c>   2</c></rc>
    <rc><c>F </c><c>   2</c></rc>
    <rc><c>F </c><c>   2</c></rc>
    <rc><c>F </c><c>   2</c></rc>
    <rc><c>F </c><c>   2</c></rc>
    <rc><c>F </c><c>   2</c></rc>
    <rc><c>F </c><c>   2</c></rc>
    <rc><c>F </c><c>   2</c></rc>
    <rc><c>F </c><c>   2</c></rc>
    <rc><c>F </c><c>   2</c></rc>
    <rc><c>F </c><c>   2</c></rc>
    <rc><c>F </c><c>   2</c></rc>
    <rc><c>F </c><c>   2</c></rc>
    <rc><c>F </c><c>   2</c></rc>
    <rc><c>F </c><c>   2</c></rc>
    <rc><c>F </c><c>   2</c></rc>
    <rc><c>F </c><c>   2</c></rc>
    <rc><c>F </c><c>   2</c></rc>
    <rc><c>F </c><c>   2</c></rc>
    <rc><c>F </c><c>   2</c></rc>
    <rc><c>F </c><c>   2</c></rc>
    <rc><c>F </c><c>   2</c></rc>
    <rc><c>F </c><c>   2</c></rc>
    <rc><c>F </c><c>   2</c></rc>
    <rc><c>C </c><c>   3</c></rc>
    <rc><c>C </c><c>   3</c></rc>
    <rc><c>C </c><c>   3</c></rc>
    <rc><c>C </c><c>   3</c></rc>
    <rc><c>C </c><c>   3</c></rc>
    <rc><c>C </c><c>   3</c></rc>
    <rc><c>C </c><c>   3</c></rc>
    <rc><c>C </c><c>   3</c></rc>
    <rc><c>C </c><c>   3</c></rc>
    <rc><c>C </c><c>   3</c></rc>
    <rc><c>C </c><c>   3</c></rc>
    <rc><c>C </c><c>   3</c></rc>
    <rc><c>C </c><c>   3</c></rc>
    <rc><c>C </c><c>   3</c></rc>
    <rc><c>C </c><c>   3</c></rc>
    <rc><c>C </c><c>   3</c></rc>
   </set>
  </array>
  <array name="atomtypes" >
   <dimension dim="1">type</dimension>
   <field type="int">atomspertype</field>
   <field type="string">element</field>
   <field>mass</field>
   <field>valence</field>
   <field type="string">pseudopotential</field>
   <set>
    <rc><c>  32</c><c>Sc</c><c>     44.95600000</c><c>     11.00000000</c><c>  PAW_PBE Sc_sv 07Sep2000               </c></rc>
    <rc><c>  32</c><c>F </c><c>     18.99800000</c><c>      7.00000000</c><c>  PAW_PBE F 08Apr2002                   </c></rc>
    <rc><c>  16</c><c>C </c><c>     12.01100000</c><c>      4.00000000</c><c>  PAW_PBE C 08Apr2002                   </c></rc>
   </set>
  </array>
 </atominfo>
 <structure name="initialpos" >
  <crystal>
   <varray name="basis" >
    <v>      13.12862340       0.00000000       0.00000000 </v>
    <v>      -6.56431170      11.36972138       0.00000000 </v>
    <v>       0.00000000       0.00000000      26.82809424 </v>
   </varray>
   <i name="volume">   4004.59716953 </i>
   <varray name="rec_basis" >
    <v>       0.07616945       0.04397645       0.00000000 </v>
    <v>       0.00000000       0.08795290       0.00000000 </v>
    <v>       0.00000000       0.00000000       0.03727436 </v>
   </varray>
  </crystal>
  <varray name="positions" >
   <v>       0.08165821       0.15874760       0.44922742 </v>
   <v>       0.08651782       0.41869833       0.45338481 </v>
   <v>       0.08266713       0.66524924       0.45465600 </v>
   <v>       0.09146115       0.91878561       0.45000905 </v>
   <v>       0.33895734       0.16610908       0.45491610 </v>
   <v>       0.32558644       0.40812502       0.45120658 </v>
   <v>       0.33007900       0.65860679       0.45094224 </v>
   <v>       0.34066427       0.92083275       0.44719097 </v>
   <v>       0.58642968       0.17075266       0.45442784 </v>
   <v>       0.58218616       0.42175041       0.45661344 </v>
   <v>       0.57767688       0.65952840       0.44868396 </v>
   <v>       0.58251731       0.91771044       0.45237017 </v>
   <v>       0.83527286       0.16924911       0.46033485 </v>
   <v>       0.84663459       0.41233079       0.45332006 </v>
   <v>       0.83818002       0.66861452       0.45676557 </v>
   <v>       0.83248787       0.92149878       0.44977055 </v>
   <v>       0.17660016       0.08286029       0.54419452 </v>
   <v>       0.15957394       0.33368094       0.54363846 </v>
   <v>       0.15165686       0.57454041       0.54591173 </v>
   <v>       0.16921998       0.83260766       0.54316957 </v>
   <v>       0.40669581       0.07972337       0.54578187 </v>
   <v>       0.39835449       0.32504054       0.54845018 </v>
   <v>       0.41690052       0.58434044       0.54577627 </v>
   <v>       0.41554337       0.82970452       0.54237317 </v>
   <v>       0.66439314       0.08982145       0.55427847 </v>
   <v>       0.66391233       0.34979469       0.54944622 </v>
   <v>       0.67696395       0.59649573       0.54601268 </v>
   <v>       0.66603690       0.83246465       0.54711422 </v>
   <v>       0.92400677       0.08311211       0.55011384 </v>
   <v>       0.91668425       0.32786139       0.55390514 </v>
   <v>       0.91618043       0.58557375       0.54673237 </v>
   <v>       0.91944981       0.84655871       0.54467843 </v>
   <v>       0.09126973       0.15806523       0.58349827 </v>
   <v>       0.07209338       0.40680438       0.59786369 </v>
   <v>       0.08769585       0.67155454       0.59124985 </v>
   <v>       0.08223459       0.91987267       0.58481270 </v>
   <v>       0.32161202       0.15073251       0.59108609 </v>
   <v>       0.32716251       0.42732869       0.59528369 </v>
   <v>       0.33465026       0.64765680       0.59182323 </v>
   <v>       0.32239976       0.91462798       0.59048586 </v>
   <v>       0.57543550       0.14905926       0.59906982 </v>
   <v>       0.58009078       0.40496673       0.58995172 </v>
   <v>       0.59524935       0.66566164       0.58579987 </v>
   <v>       0.57791395       0.90922193       0.58898044 </v>
   <v>       0.83996318       0.16593328       0.59735894 </v>
   <v>       0.82393875       0.41347794       0.58740740 </v>
   <v>       0.83974854       0.66660378       0.58565318 </v>
   <v>       0.83822931       0.91392042       0.59600950 </v>
   <v>       0.17711840       0.09118568       0.40908640 </v>
   <v>       0.15818961       0.31034857       0.40989034 </v>
   <v>       0.14290125       0.57786136       0.40492080 </v>
   <v>       0.16398747       0.83972097       0.40272006 </v>
   <v>       0.41869396       0.08574833       0.40889346 </v>
   <v>       0.42394152       0.34514473       0.40238128 </v>
   <v>       0.41631245       0.58004280       0.40812414 </v>
   <v>       0.42367456       0.85473634       0.40737195 </v>
   <v>       0.66855263       0.08311948       0.41204607 </v>
   <v>       0.67622328       0.34694000       0.41296429 </v>
   <v>       0.66908902       0.59880408       0.40761911 </v>
   <v>       0.67408250       0.82743165       0.40782767 </v>
   <v>       0.93318034       0.08389735       0.41091936 </v>
   <v>       0.92677891       0.32415270       0.41274905 </v>
   <v>       0.90697884       0.57554364       0.41564193 </v>
   <v>       0.89620421       0.83490787       0.41141622 </v>
   <v>       0.99968860       0.00305489       0.50034360 </v>
   <v>       0.99897641       0.24718704       0.50183038 </v>
   <v>       0.00182527       0.49687283       0.50239725 </v>
   <v>       0.99943825       0.75273807       0.50163002 </v>
   <v>       0.25236913       0.00260302       0.49775485 </v>
   <v>       0.25532569       0.24967366       0.50112838 </v>
   <v>       0.25011471       0.49695488       0.49884345 </v>
   <v>       0.25080980       0.74533767       0.50030316 </v>
   <v>       0.49956321       0.00326320       0.49968287 </v>
   <v>       0.50032163       0.25424690       0.50333900 </v>
   <v>       0.50493795       0.50460530       0.50183534 </v>
   <v>       0.49501144       0.74890277       0.49515010 </v>
   <v>       0.75109865       0.01688286       0.50496138 </v>
   <v>       0.76112222       0.25780380       0.49824355 </v>
   <v>       0.75272649       0.50979771       0.50457756 </v>
   <v>       0.74515058       0.75664395       0.50377323 </v>
  </varray>
  <varray name="velocities" >
   <v>       0.00000000       0.00000000       0.00000000 </v>
   <v>       0.00000000       0.00000000       0.00000000 </v>
   <v>       0.00000000       0.00000000       0.00000000 </v>
   <v>       0.00000000       0.00000000       0.00000000 </v>
   <v>       0.00000000       0.00000000       0.00000000 </v>
   <v>       0.00000000       0.00000000       0.00000000 </v>
   <v>       0.00000000       0.00000000       0.00000000 </v>
   <v>       0.00000000       0.00000000       0.00000000 </v>
   <v>       0.00000000       0.00000000       0.00000000 </v>
   <v>       0.00000000       0.00000000       0.00000000 </v>
   <v>       0.00000000       0.00000000       0.00000000 </v>
   <v>       0.00000000       0.00000000       0.00000000 </v>
   <v>       0.00000000       0.00000000       0.00000000 </v>
   <v>       0.00000000       0.00000000       0.00000000 </v>
   <v>       0.00000000       0.00000000       0.00000000 </v>
   <v>       0.00000000       0.00000000       0.00000000 </v>
   <v>       0.00000000       0.00000000       0.00000000 </v>
   <v>       0.00000000       0.00000000       0.00000000 </v>
   <v>       0.00000000       0.00000000       0.00000000 </v>
   <v>       0.00000000       0.00000000       0.00000000 </v>
   <v>       0.00000000       0.00000000       0.00000000 </v>
   <v>       0.00000000       0.00000000       0.00000000 </v>
   <v>       0.00000000       0.00000000       0.00000000 </v>
   <v>       0.00000000       0.00000000       0.00000000 </v>
   <v>       0.00000000       0.00000000       0.00000000 </v>
   <v>       0.00000000       0.00000000       0.00000000 </v>
   <v>       0.00000000       0.00000000       0.00000000 </v>
   <v>       0.00000000       0.00000000       0.00000000 </v>
   <v>       0.00000000       0.00000000       0.00000000 </v>
   <v>       0.00000000       0.00000000       0.00000000 </v>
   <v>       0.00000000       0.00000000       0.00000000 </v>
   <v>       0.00000000       0.00000000       0.00000000 </v>
   <v>       0.00000000       0.00000000       0.00000000 </v>
   <v>       0.00000000       0.00000000       0.00000000 </v>
   <v>       0.00000000       0.00000000       0.00000000 </v>
   <v>       0.00000000       0.00000000       0.00000000 </v>
   <v>       0.00000000       0.00000000       0.00000000 </v>
   <v>       0.00000000       0.00000000       0.00000000 </v>
   <v>       0.00000000       0.00000000       0.00000000 </v>
   <v>       0.00000000       0.00000000       0.00000000 </v>
   <v>       0.00000000       0.00000000       0.00000000 </v>
   <v>       0.00000000       0.00000000       0.00000000 </v>
   <v>       0.00000000       0.00000000       0.00000000 </v>
   <v>       0.00000000       0.00000000       0.00000000 </v>
   <v>       0.00000000       0.00000000       0.00000000 </v>
   <v>       0.00000000       0.00000000       0.00000000 </v>
   <v>       0.00000000       0.00000000       0.00000000 </v>
   <v>       0.00000000       0.00000000       0.00000000 </v>
   <v>       0.00000000       0.00000000       0.00000000 </v>
   <v>       0.00000000       0.00000000       0.00000000 </v>
   <v>       0.00000000       0.00000000       0.00000000 </v>
   <v>       0.00000000       0.00000000       0.00000000 </v>
   <v>       0.00000000       0.00000000       0.00000000 </v>
   <v>       0.00000000       0.00000000       0.00000000 </v>
   <v>       0.00000000       0.00000000       0.00000000 </v>
   <v>       0.00000000       0.00000000       0.00000000 </v>
   <v>       0.00000000       0.00000000       0.00000000 </v>
   <v>       0.00000000       0.00000000       0.00000000 </v>
   <v>       0.00000000       0.00000000       0.00000000 </v>
   <v>       0.00000000       0.00000000       0.00000000 </v>
   <v>       0.00000000       0.00000000       0.00000000 </v>
   <v>       0.00000000       0.00000000       0.00000000 </v>
   <v>       0.00000000       0.00000000       0.00000000 </v>
   <v>       0.00000000       0.00000000       0.00000000 </v>
   <v>       0.00000000       0.00000000       0.00000000 </v>
   <v>       0.00000000       0.00000000       0.00000000 </v>
   <v>       0.00000000       0.00000000       0.00000000 </v>
   <v>       0.00000000       0.00000000       0.00000000 </v>
   <v>       0.00000000       0.00000000       0.00000000 </v>
   <v>       0.00000000       0.00000000       0.00000000 </v>
   <v>       0.00000000       0.00000000       0.00000000 </v>
   <v>       0.00000000       0.00000000       0.00000000 </v>
   <v>       0.00000000       0.00000000       0.00000000 </v>
   <v>       0.00000000       0.00000000       0.00000000 </v>
   <v>       0.00000000       0.00000000       0.00000000 </v>
   <v>       0.00000000       0.00000000       0.00000000 </v>
   <v>       0.00000000       0.00000000       0.00000000 </v>
   <v>       0.00000000       0.00000000       0.00000000 </v>
   <v>       0.00000000       0.00000000       0.00000000 </v>
   <v>       0.00000000       0.00000000       0.00000000 </v>
  </varray>
 </structure>
 <calculation>
  <scstep>
   <time name="dav">   45.99   46.00</time>
   <time name="total">   46.83   46.85</time>
   <energy>
    <i name="alphaZ">    871.83850952 </i>
    <i name="ewald"> 286891.28002852 </i>
    <i name="hartreedc">-341226.60604473 </i>
    <i name="XCdc">   3043.84898188 </i>
    <i name="pawpsdc">  50525.51240023 </i>
    <i name="pawaedc"> -50422.77561733 </i>
    <i name="eentropy">     -0.07674046 </i>
    <i name="bandstr">   -248.09162423 </i>
    <i name="atom">  64207.43592568 </i>
    <i name="e_fr_energy">  13642.36581908 </i>
    <i name="e_wo_entrp">  13642.44255954 </i>
    <i name="e_0_energy">  13642.40418931 </i>
   </energy>
  </scstep>
  <scstep>
   <time name="dav">   49.10   49.12</time>
   <time name="total">   49.10   49.12</time>
   <energy>
    <i name="e_fr_energy">   2490.29015074 </i>
    <i name="e_wo_entrp">   2490.33065878 </i>
    <i name="e_0_energy">   2490.31040476 </i>
   </energy>
  </scstep>
  <scstep>
   <time name="dav">   67.21   67.21</time>
   <time name="total">   67.21   67.21</time>
   <energy>
    <i name="e_fr_energy">   -375.50489792 </i>
    <i name="e_wo_entrp">   -375.50489792 </i>
    <i name="e_0_energy">   -375.50489792 </i>
   </energy>
  </scstep>
  <scstep>
   <time name="dav">   61.11   61.12</time>
   <time name="total">   61.11   61.12</time>
   <energy>
    <i name="e_fr_energy">   -737.70164441 </i>
    <i name="e_wo_entrp">   -737.70164441 </i>
    <i name="e_0_energy">   -737.70164441 </i>
   </energy>
  </scstep>
  <scstep>
   <time name="dav">   61.32   61.33</time>
   <time name="total">   64.90   64.91</time>
   <energy>
    <i name="e_fr_energy">   -752.36451480 </i>
    <i name="e_wo_entrp">   -752.36451480 </i>
    <i name="e_0_energy">   -752.36451480 </i>
   </energy>
  </scstep>
  <scstep>
   <time name="dav">   58.58   58.58</time>
   <time name="total">   62.93   62.94</time>
   <energy>
    <i name="e_fr_energy">   -596.59136206 </i>
    <i name="e_wo_entrp">   -596.59136206 </i>
    <i name="e_0_energy">   -596.59136206 </i>
   </energy>
  </scstep>
  <scstep>
   <time name="dav">   59.93   59.93</time>
   <time name="total">   64.26   64.28</time>
   <energy>
    <i name="e_fr_energy">   -596.81785384 </i>
    <i name="e_wo_entrp">   -596.81785384 </i>
    <i name="e_0_energy">   -596.81785384 </i>
   </energy>
  </scstep>
  <scstep>
   <time name="dav">   57.34   57.34</time>
   <time name="total">   61.69   61.70</time>
   <energy>
    <i name="e_fr_energy">   -595.34372259 </i>
    <i name="e_wo_entrp">   -595.34372259 </i>
    <i name="e_0_energy">   -595.34372259 </i>
   </energy>
  </scstep>
  <scstep>
   <time name="dav">   56.72   56.72</time>
   <time name="total">   61.10   61.11</time>
   <energy>
    <i name="e_fr_energy">   -594.84202125 </i>
    <i name="e_wo_entrp">   -594.84202125 </i>
    <i name="e_0_energy">   -594.84202125 </i>
   </energy>
  </scstep>
  <scstep>
   <time name="dav">   59.68   59.69</time>
   <time name="total">   64.03   64.05</time>
   <energy>
    <i name="e_fr_energy">   -594.80954955 </i>
    <i name="e_wo_entrp">   -594.80954955 </i>
    <i name="e_0_energy">   -594.80954955 </i>
   </energy>
  </scstep>
  <scstep>
   <time name="dav">   57.32   57.33</time>
   <time name="total">   61.67   61.68</time>
   <energy>
    <i name="e_fr_energy">   -594.69715422 </i>
    <i name="e_wo_entrp">   -594.69715422 </i>
    <i name="e_0_energy">   -594.69715422 </i>
   </energy>
  </scstep>
  <scstep>
   <time name="dav">   60.84   60.84</time>
   <time name="total">   65.24   65.25</time>
   <energy>
    <i name="e_fr_energy">   -594.66930672 </i>
    <i name="e_wo_entrp">   -594.66930672 </i>
    <i name="e_0_energy">   -594.66930672 </i>
   </energy>
  </scstep>
  <scstep>
   <time name="dav">   58.05   58.05</time>
   <time name="total">   62.49   62.50</time>
   <energy>
    <i name="e_fr_energy">   -594.66231090 </i>
    <i name="e_wo_entrp">   -594.66231090 </i>
    <i name="e_0_energy">   -594.66231090 </i>
   </energy>
  </scstep>
  <scstep>
   <time name="dav">   57.25   57.25</time>
   <time name="total">   61.61   61.63</time>
   <energy>
    <i name="e_fr_energy">   -594.65866388 </i>
    <i name="e_wo_entrp">   -594.65866388 </i>
    <i name="e_0_energy">   -594.65866388 </i>
   </energy>
  </scstep>
  <scstep>
   <time name="dav">   57.99   58.00</time>
   <time name="total">   62.44   62.46</time>
   <energy>
    <i name="e_fr_energy">   -594.66433000 </i>
    <i name="e_wo_entrp">   -594.66433000 </i>
    <i name="e_0_energy">   -594.66433000 </i>
   </energy>
  </scstep>
  <scstep>
   <time name="dav">   61.28   61.29</time>
   <time name="total">   65.70   65.72</time>
   <energy>
    <i name="e_fr_energy">   -594.66753607 </i>
    <i name="e_wo_entrp">   -594.66753607 </i>
    <i name="e_0_energy">   -594.66753607 </i>
   </energy>
  </scstep>
  <scstep>
   <time name="dav">   59.50   59.51</time>
   <time name="total">   63.93   63.94</time>
   <energy>
    <i name="e_fr_energy">   -594.67311040 </i>
    <i name="e_wo_entrp">   -594.67311040 </i>
    <i name="e_0_energy">   -594.67311040 </i>
   </energy>
  </scstep>
  <scstep>
   <time name="dav">   55.53   55.54</time>
   <time name="total">   59.90   59.92</time>
   <energy>
    <i name="e_fr_energy">   -594.67598163 </i>
    <i name="e_wo_entrp">   -594.67598163 </i>
    <i name="e_0_energy">   -594.67598163 </i>
   </energy>
  </scstep>
  <scstep>
   <time name="dav">   58.21   58.22</time>
   <time name="total">   62.57   62.58</time>
   <energy>
    <i name="e_fr_energy">   -594.67784205 </i>
    <i name="e_wo_entrp">   -594.67784205 </i>
    <i name="e_0_energy">   -594.67784205 </i>
   </energy>
  </scstep>
  <scstep>
   <time name="dav">   51.55   51.56</time>
   <time name="total">   55.93   55.94</time>
   <energy>
    <i name="e_fr_energy">   -594.68084108 </i>
    <i name="e_wo_entrp">   -594.68084108 </i>
    <i name="e_0_energy">   -594.68084108 </i>
   </energy>
  </scstep>
  <scstep>
   <time name="dav">   47.13   47.14</time>
   <time name="total">   51.49   51.50</time>
   <energy>
    <i name="e_fr_energy">   -594.68279425 </i>
    <i name="e_wo_entrp">   -594.68279425 </i>
    <i name="e_0_energy">   -594.68279425 </i>
   </energy>
  </scstep>
  <scstep>
   <time name="dav">   51.09   51.09</time>
   <time name="total">   55.43   55.44</time>
   <energy>
    <i name="e_fr_energy">   -594.68388465 </i>
    <i name="e_wo_entrp">   -594.68388465 </i>
    <i name="e_0_energy">   -594.68388465 </i>
   </energy>
  </scstep>
  <scstep>
   <time name="dav">   48.69   48.69</time>
   <time name="total">   53.02   53.03</time>
   <energy>
    <i name="e_fr_energy">   -594.68434239 </i>
    <i name="e_wo_entrp">   -594.68434239 </i>
    <i name="e_0_energy">   -594.68434239 </i>
   </energy>
  </scstep>
  <scstep>
   <time name="dav">   46.77   46.77</time>
   <time name="total">   51.18   51.19</time>
   <energy>
    <i name="e_fr_energy">   -594.68465253 </i>
    <i name="e_wo_entrp">   -594.68465253 </i>
    <i name="e_0_energy">   -594.68465253 </i>
   </energy>
  </scstep>
  <scstep>
   <time name="dav">   44.85   44.85</time>
   <time name="total">   49.18   49.18</time>
   <energy>
    <i name="e_fr_energy">   -594.68482258 </i>
    <i name="e_wo_entrp">   -594.68482258 </i>
    <i name="e_0_energy">   -594.68482258 </i>
   </energy>
  </scstep>
  <scstep>
   <time name="dav">   34.34   34.34</time>
   <time name="total">   38.74   38.76</time>
   <energy>
    <i name="e_fr_energy">   -594.68487516 </i>
    <i name="e_wo_entrp">   -594.68487516 </i>
    <i name="e_0_energy">   -594.68487516 </i>
   </energy>
  </scstep>
  <scstep>
   <time name="dav">   32.65   32.65</time>
   <time name="total">   36.99   37.00</time>
   <energy>
    <i name="e_fr_energy">   -594.68490353 </i>
    <i name="e_wo_entrp">   -594.68490353 </i>
    <i name="e_0_energy">   -594.68490353 </i>
   </energy>
  </scstep>
  <scstep>
   <time name="dav">   34.66   34.66</time>
   <time name="total">   39.01   39.02</time>
   <energy>
    <i name="e_fr_energy">   -594.68492576 </i>
    <i name="e_wo_entrp">   -594.68492576 </i>
    <i name="e_0_energy">   -594.68492576 </i>
   </energy>
  </scstep>
  <scstep>
   <time name="dav">   32.56   32.56</time>
   <time name="total">   36.87   36.88</time>
   <energy>
    <i name="e_fr_energy">   -594.68493249 </i>
    <i name="e_wo_entrp">   -594.68493249 </i>
    <i name="e_0_energy">   -594.68493249 </i>
   </energy>
  </scstep>
  <scstep>
   <time name="dav">   31.80   31.80</time>
   <time name="total">   36.14   36.15</time>
   <energy>
    <i name="e_fr_energy">   -594.68493558 </i>
    <i name="e_wo_entrp">   -594.68493558 </i>
    <i name="e_0_energy">   -594.68493558 </i>
   </energy>
  </scstep>
  <scstep>
   <time name="dav">   31.78   31.79</time>
   <time name="total">   32.61   32.62</time>
   <energy>
    <i name="alphaZ">    871.83850952 </i>
    <i name="ewald"> 286891.28002852 </i>
    <i name="hartreedc">-342408.99468596 </i>
    <i name="XCdc">   3055.41047204 </i>
    <i name="pawpsdc">  66893.02425285 </i>
    <i name="pawaedc"> -66887.00940876 </i>
    <i name="eentropy">     -0.00000000 </i>
    <i name="bandstr"> -13217.67003029 </i>
    <i name="atom">  64207.43592568 </i>
    <i name="e_fr_energy">   -594.68493639 </i>
    <i name="e_wo_entrp">   -594.68493639 </i>
    <i name="e_0_energy">   -594.68493639 </i>
   </energy>
  </scstep>
  <structure>
   <crystal>
    <varray name="basis" >
     <v>      13.12862340       0.00000000       0.00000000 </v>
     <v>      -6.56431170      11.36972138       0.00000000 </v>
     <v>       0.00000000       0.00000000      26.82809424 </v>
    </varray>
    <i name="volume">   4004.59716953 </i>
    <varray name="rec_basis" >
     <v>       0.07616945       0.04397645       0.00000000 </v>
     <v>       0.00000000       0.08795290       0.00000000 </v>
     <v>       0.00000000       0.00000000       0.03727436 </v>
    </varray>
   </crystal>
   <varray name="positions" >
    <v>       0.08165821       0.15874760       0.44922742 </v>
    <v>       0.08651782       0.41869833       0.45338481 </v>
    <v>       0.08266713       0.66524924       0.45465600 </v>
    <v>       0.09146115       0.91878561       0.45000905 </v>
    <v>       0.33895734       0.16610908       0.45491610 </v>
    <v>       0.32558644       0.40812502       0.45120658 </v>
    <v>       0.33007900       0.65860679       0.45094224 </v>
    <v>       0.34066427       0.92083275       0.44719097 </v>
    <v>       0.58642968       0.17075266       0.45442784 </v>
    <v>       0.58218616       0.42175041       0.45661344 </v>
    <v>       0.57767688       0.65952840       0.44868396 </v>
    <v>       0.58251731       0.91771044       0.45237017 </v>
    <v>       0.83527286       0.16924911       0.46033485 </v>
    <v>       0.84663459       0.41233079       0.45332006 </v>
    <v>       0.83818002       0.66861452       0.45676557 </v>
    <v>       0.83248787       0.92149878       0.44977055 </v>
    <v>       0.17660016       0.08286029       0.54419452 </v>
    <v>       0.15957394       0.33368094       0.54363846 </v>
    <v>       0.15165686       0.57454041       0.54591173 </v>
    <v>       0.16921998       0.83260766       0.54316957 </v>
    <v>       0.40669581       0.07972337       0.54578187 </v>
    <v>       0.39835449       0.32504054       0.54845018 </v>
    <v>       0.41690052       0.58434044       0.54577627 </v>
    <v>       0.41554337       0.82970452       0.54237317 </v>
    <v>       0.66439314       0.08982145       0.55427847 </v>
    <v>       0.66391233       0.34979469       0.54944622 </v>
    <v>       0.67696395       0.59649573       0.54601268 </v>
    <v>       0.66603690       0.83246465       0.54711422 </v>
    <v>       0.92400677       0.08311211       0.55011384 </v>
    <v>       0.91668425       0.32786139       0.55390514 </v>
    <v>       0.91618043       0.58557375       0.54673237 </v>
    <v>       0.91944981       0.84655871       0.54467843 </v>
    <v>       0.09126973       0.15806523       0.58349827 </v>
    <v>       0.07209338       0.40680438       0.59786369 </v>
    <v>       0.08769585       0.67155454       0.59124985 </v>
    <v>       0.08223459       0.91987267       0.58481270 </v>
    <v>       0.32161202       0.15073251       0.59108609 </v>
    <v>       0.32716251       0.42732869       0.59528369 </v>
    <v>       0.33465026       0.64765680       0.59182323 </v>
    <v>       0.32239976       0.91462798       0.59048586 </v>
    <v>       0.57543550       0.14905926       0.59906982 </v>
    <v>       0.58009078       0.40496673       0.58995172 </v>
    <v>       0.59524935       0.66566164       0.58579987 </v>
    <v>       0.57791395       0.90922193       0.58898044 </v>
    <v>       0.83996318       0.16593328       0.59735894 </v>
    <v>       0.82393875       0.41347794       0.58740740 </v>
    <v>       0.83974854       0.66660378       0.58565318 </v>
    <v>       0.83822931       0.91392042       0.59600950 </v>
    <v>       0.17711840       0.09118568       0.40908640 </v>
    <v>       0.15818961       0.31034857       0.40989034 </v>
    <v>       0.14290125       0.57786136       0.40492080 </v>
    <v>       0.16398747       0.83972097       0.40272006 </v>
    <v>       0.41869396       0.08574833       0.40889346 </v>
    <v>       0.42394152       0.34514473       0.40238128 </v>
    <v>       0.41631245       0.58004280       0.40812414 </v>
    <v>       0.42367456       0.85473634       0.40737195 </v>
    <v>       0.66855263       0.08311948       0.41204607 </v>
    <v>       0.67622328       0.34694000       0.41296429 </v>
    <v>       0.66908902       0.59880408       0.40761911 </v>
    <v>       0.67408250       0.82743165       0.40782767 </v>
    <v>       0.93318034       0.08389735       0.41091936 </v>
    <v>       0.92677891       0.32415270       0.41274905 </v>
    <v>       0.90697884       0.57554364       0.41564193 </v>
    <v>       0.89620421       0.83490787       0.41141622 </v>
    <v>       0.99968860       0.00305489       0.50034360 </v>
    <v>       0.99897641       0.24718704       0.50183038 </v>
    <v>       0.00182527       0.49687283       0.50239725 </v>
    <v>       0.99943825       0.75273807       0.50163002 </v>
    <v>       0.25236913       0.00260302       0.49775485 </v>
    <v>       0.25532569       0.24967366       0.50112838 </v>
    <v>       0.25011471       0.49695488       0.49884345 </v>
    <v>       0.25080980       0.74533767       0.50030316 </v>
    <v>       0.49956321       0.00326320       0.49968287 </v>
    <v>       0.50032163       0.25424690       0.50333900 </v>
    <v>       0.50493795       0.50460530       0.50183534 </v>
    <v>       0.49501144       0.74890277       0.49515010 </v>
    <v>       0.75109865       0.01688286       0.50496138 </v>
    <v>       0.76112222       0.25780380       0.49824355 </v>
    <v>       0.75272649       0.50979771       0.50457756 </v>
    <v>       0.74515058       0.75664395       0.50377323 </v>
   </varray>
  </structure>
  <varray name="forces" >
   <v>       0.42363366       0.21272286       1.51179448 </v>
   <v>      -0.25620667      -0.85553093      -0.17377294 </v>
   <v>      -0.17390603       0.04268141      -0.68526927 </v>
   <v>      -0.86806441      -0.13403455       0.16399543 </v>
   <v>      -0.24255482       0.91298670      -1.27843874 </v>
   <v>       1.09296531       0.34211484      -0.00972070 </v>
   <v>      -0.05922974       0.60444045       0.12417927 </v>
   <v>      -0.51202516       0.06795189       0.93588100 </v>
   <v>       0.46631684       0.56477481       0.15899414 </v>
   <v>       0.26419652      -0.12889211      -0.97687705 </v>
   <v>       0.28538335       0.77420620       0.79388993 </v>
   <v>       0.42183865       0.80999070       0.24461196 </v>
   <v>      -0.22295137      -0.41358578      -1.44539864 </v>
   <v>      -1.75226686      -0.21239777      -0.15322039 </v>
   <v>      -1.01247560       0.12706190      -1.15267969 </v>
   <v>      -0.37952858      -0.20908825       1.44231218 </v>
   <v>      -2.00828767      -0.66350797       0.46416138 </v>
   <v>       1.07179420      -0.36617776       1.56712133 </v>
   <v>       1.84617373       1.26902848       1.72714110 </v>
   <v>      -0.13690703      -0.07924535       1.33829314 </v>
   <v>       2.00902535       0.07358938       1.07119180 </v>
   <v>       1.63948357       1.74135461       0.88706189 </v>
   <v>       0.27666643      -0.56350647       0.61852948 </v>
   <v>       0.00680261       0.22474904       1.27070389 </v>
   <v>       0.41189732      -0.74012346      -0.71476274 </v>
   <v>       1.49700781      -1.36233482      -0.58171997 </v>
   <v>      -0.50453295      -0.68753480       0.52280579 </v>
   <v>      -0.15888843       0.74841715       0.15747402 </v>
   <v>      -0.89634792      -0.12295347      -0.14616406 </v>
   <v>      -0.47422434      -0.01676722      -0.68088582 </v>
   <v>       0.09147572      -0.07923528       0.85586559 </v>
   <v>       0.24953502      -0.97491895       0.91264259 </v>
   <v>      -0.32260172       0.66882731       0.93995832 </v>
   <v>       0.25374756       0.28464726      -0.97097848 </v>
   <v>      -0.05440641      -0.23050633      -0.49432833 </v>
   <v>       0.40297054      -0.08182872       0.37456796 </v>
   <v>       0.18785752       0.58940193       0.10820169 </v>
   <v>       0.36881837      -0.49978079      -1.06227620 </v>
   <v>      -0.57564996       0.75047460      -0.45025286 </v>
   <v>       0.24624753       0.04824289      -0.58334907 </v>
   <v>      -0.29699762       0.36217520      -0.69899950 </v>
   <v>      -1.18729848       0.72674815       1.05455793 </v>
   <v>      -1.36000301       0.40075828       1.03769338 </v>
   <v>      -0.25944373       0.13083021       0.05589955 </v>
   <v>      -0.31411645       0.18813142      -0.40487283 </v>
   <v>       0.55515251       0.23269071       0.57949688 </v>
   <v>      -0.24105062       0.46589603       0.94788773 </v>
   <v>      -0.19297144       0.25004103      -0.77554523 </v>
   <v>      -0.06387039      -0.41717383       0.06416852 </v>
   <v>      -0.01118639       1.42423764      -0.42560332 </v>
   <v>       0.65090627      -0.03613328       0.56659142 </v>
   <v>       0.23239209      -0.16390533       0.79610170 </v>
   <v>       0.09629935       0.15701940       0.06845063 </v>
   <v>      -0.06134043      -0.19068061       1.28275271 </v>
   <v>      -0.36427761      -0.17597831      -0.08388369 </v>
   <v>       0.58841688      -0.79040484      -0.51486574 </v>
   <v>      -0.10588138       0.08734130      -0.05945026 </v>
   <v>      -0.03060218      -0.36951237       0.15785896 </v>
   <v>       0.55262127      -0.58043100       0.41323513 </v>
   <v>      -0.64222376       0.39281136       0.18341962 </v>
   <v>      -1.22407985      -0.38995192      -0.78930409 </v>
   <v>      -0.43869088       0.49706401      -0.33849655 </v>
   <v>       0.36422570       0.52247955      -0.46837098 </v>
   <v>       1.34133412      -0.40698761      -0.43958861 </v>
   <v>       0.51432803      -0.19185490      -1.05184568 </v>
   <v>       0.49879830       0.69048987       0.42394807 </v>
   <v>      -0.18471428       0.10721168      -0.60422569 </v>
   <v>       0.69240353       0.14495525      -1.39304955 </v>
   <v>       0.13194739      -0.69102271      -0.69867995 </v>
   <v>      -0.75792275       0.05698379      -1.02274207 </v>
   <v>      -0.47567699      -0.03127527      -0.81558618 </v>
   <v>      -0.71041940      -0.06912959      -1.14054084 </v>
   <v>      -0.21938454      -0.28695706      -0.10754488 </v>
   <v>      -0.15512103      -0.54354525      -0.73814871 </v>
   <v>      -0.77177529      -0.74326586      -0.80332177 </v>
   <v>      -0.00072565      -0.04028078       0.31386344 </v>
   <v>       0.67195967      -2.17756491      -0.23832551 </v>
   <v>      -1.14013610      -0.48538968       1.65429104 </v>
   <v>       0.35201450      -0.66956105      -1.14339736 </v>
   <v>       1.06432870       0.17742764      -1.47511109 </v>
  </varray>
  <varray name="stress" >
   <v>       6.83041210      -0.72322069       0.26007196 </v>
   <v>      -0.72322068       4.84014204       2.35142882 </v>
   <v>       0.26007196       2.35142881       1.51902482 </v>
  </varray>
  <energy>
   <i name="e_fr_energy">   -594.68493639 </i>
   <i name="e_wo_entrp">   -594.68493639 </i>
   <i name="e_0_energy">     -0.00000000 </i>
  </energy>
  <time name="totalsc"> 1769.20 1769.63</time>
  <eigenvalues>
   <array>
    <dimension dim="1">band</dimension>
    <dimension dim="2">kpoint</dimension>
    <dimension dim="3">spin</dimension>
    <field>eigene</field>
    <field>occ</field>
    <set>
     <set comment="spin 1">
      <set comment="kpoint 1">
       <r>  -52.0234    1.0000 </r>
       <r>  -51.9688    1.0000 </r>
       <r>  -51.8712    1.0000 </r>
       <r>  -51.8152    1.0000 </r>
       <r>  -51.7903    1.0000 </r>
       <r>  -51.7792    1.0000 </r>
       <r>  -51.7697    1.0000 </r>
       <r>  -51.7453    1.0000 </r>
       <r>  -51.7209    1.0000 </r>
       <r>  -51.6993    1.0000 </r>
       <r>  -51.6813    1.0000 </r>
       <r>  -51.6642    1.0000 </r>
       <r>  -51.6100    1.0000 </r>
       <r>  -51.5137    1.0000 </r>
       <r>  -51.5101    1.0000 </r>
       <r>  -51.5023    1.0000 </r>
       <r>  -51.4937    1.0000 </r>
       <r>  -51.4705    1.0000 </r>
       <r>  -51.4595    1.0000 </r>
       <r>  -51.4579    1.0000 </r>
       <r>  -51.4500    1.0000 </r>
       <r>  -51.4401    1.0000 </r>
       <r>  -51.4327    1.0000 </r>
       <r>  -51.4267    1.0000 </r>
       <r>  -51.4091    1.0000 </r>
       <r>  -51.3977    1.0000 </r>
       <r>  -51.3945    1.0000 </r>
       <r>  -51.3866    1.0000 </r>
       <r>  -51.3281    1.0000 </r>
       <r>  -51.1721    1.0000 </r>
       <r>  -50.9433    1.0000 </r>
       <r>  -50.6153    1.0000 </r>
       <r>  -31.0402    1.0000 </r>
       <r>  -30.9533    1.0000 </r>
       <r>  -30.8920    1.0000 </r>
       <r>  -30.8581    1.0000 </r>
       <r>  -30.7989    1.0000 </r>
       <r>  -30.7720    1.0000 </r>
       <r>  -30.7667    1.0000 </r>
       <r>  -30.7459    1.0000 </r>
       <r>  -30.7416    1.0000 </r>
       <r>  -30.7234    1.0000 </r>
       <r>  -30.6971    1.0000 </r>
       <r>  -30.6620    1.0000 </r>
       <r>  -30.6553    1.0000 </r>
       <r>  -30.6343    1.0000 </r>
       <r>  -30.6258    1.0000 </r>
       <r>  -30.6231    1.0000 </r>
       <r>  -30.6056    1.0000 </r>
       <r>  -30.5938    1.0000 </r>
       <r>  -30.5908    1.0000 </r>
       <r>  -30.5728    1.0000 </r>
       <r>  -30.5554    1.0000 </r>
       <r>  -30.5476    1.0000 </r>
       <r>  -30.5378    1.0000 </r>
       <r>  -30.5196    1.0000 </r>
       <r>  -30.5100    1.0000 </r>
       <r>  -30.5068    1.0000 </r>
       <r>  -30.4982    1.0000 </r>
       <r>  -30.4878    1.0000 </r>
       <r>  -30.4804    1.0000 </r>
       <r>  -30.4546    1.0000 </r>
       <r>  -30.4492    1.0000 </r>
       <r>  -30.4435    1.0000 </r>
       <r>  -30.4346    1.0000 </r>
       <r>  -30.4212    1.0000 </r>
       <r>  -30.4118    1.0000 </r>
       <r>  -30.4020    1.0000 </r>
       <r>  -30.3911    1.0000 </r>
       <r>  -30.3871    1.0000 </r>
       <r>  -30.3825    1.0000 </r>
       <r>  -30.3736    1.0000 </r>
       <r>  -30.3647    1.0000 </r>
       <r>  -30.3484    1.0000 </r>
       <r>  -30.3399    1.0000 </r>
       <r>  -30.3346    1.0000 </r>
       <r>  -30.3179    1.0000 </r>
       <r>  -30.3109    1.0000 </r>
       <r>  -30.3007    1.0000 </r>
       <r>  -30.2971    1.0000 </r>
       <r>  -30.2900    1.0000 </r>
       <r>  -30.2787    1.0000 </r>
       <r>  -30.2753    1.0000 </r>
       <r>  -30.2667    1.0000 </r>
       <r>  -30.2471    1.0000 </r>
       <r>  -30.2416    1.0000 </r>
       <r>  -30.2240    1.0000 </r>
       <r>  -30.2113    1.0000 </r>
       <r>  -30.2073    1.0000 </r>
       <r>  -30.1964    1.0000 </r>
       <r>  -30.1864    1.0000 </r>
       <r>  -30.1836    1.0000 </r>
       <r>  -30.1767    1.0000 </r>
       <r>  -30.1671    1.0000 </r>
       <r>  -30.1584    1.0000 </r>
       <r>  -30.1473    1.0000 </r>
       <r>  -30.1349    1.0000 </r>
       <r>  -30.1310    1.0000 </r>
       <r>  -30.1190    1.0000 </r>
       <r>  -30.1142    1.0000 </r>
       <r>  -30.1076    1.0000 </r>
       <r>  -30.1062    1.0000 </r>
       <r>  -30.0935    1.0000 </r>
       <r>  -30.0811    1.0000 </r>
       <r>  -30.0739    1.0000 </r>
       <r>  -30.0682    1.0000 </r>
       <r>  -30.0601    1.0000 </r>
       <r>  -30.0569    1.0000 </r>
       <r>  -30.0431    1.0000 </r>
       <r>  -30.0333    1.0000 </r>
       <r>  -30.0277    1.0000 </r>
       <r>  -30.0215    1.0000 </r>
       <r>  -30.0124    1.0000 </r>
       <r>  -30.0040    1.0000 </r>
       <r>  -30.0015    1.0000 </r>
       <r>  -29.9858    1.0000 </r>
       <r>  -29.9804    1.0000 </r>
       <r>  -29.9667    1.0000 </r>
       <r>  -29.9514    1.0000 </r>
       <r>  -29.8980    1.0000 </r>
       <r>  -29.8523    1.0000 </r>
       <r>  -29.8489    1.0000 </r>
       <r>  -29.7855    1.0000 </r>
       <r>  -29.6877    1.0000 </r>
       <r>  -29.6108    1.0000 </r>
       <r>  -29.4439    1.0000 </r>
       <r>  -29.3945    1.0000 </r>
       <r>  -29.3536    1.0000 </r>
       <r>  -27.0300    1.0000 </r>
       <r>  -26.9867    1.0000 </r>
       <r>  -26.9769    1.0000 </r>
       <r>  -26.9305    1.0000 </r>
       <r>  -26.9169    1.0000 </r>
       <r>  -26.9071    1.0000 </r>
       <r>  -26.9038    1.0000 </r>
       <r>  -26.8876    1.0000 </r>
       <r>  -26.8639    1.0000 </r>
       <r>  -26.8346    1.0000 </r>
       <r>  -26.7349    1.0000 </r>
       <r>  -26.7020    1.0000 </r>
       <r>  -26.6683    1.0000 </r>
       <r>  -26.6629    1.0000 </r>
       <r>  -26.6380    1.0000 </r>
       <r>  -26.5963    1.0000 </r>
       <r>  -26.5540    1.0000 </r>
       <r>  -26.5288    1.0000 </r>
       <r>  -26.5196    1.0000 </r>
       <r>  -26.4981    1.0000 </r>
       <r>  -26.4821    1.0000 </r>
       <r>  -26.4672    1.0000 </r>
       <r>  -26.4637    1.0000 </r>
       <r>  -26.3369    1.0000 </r>
       <r>  -26.3323    1.0000 </r>
       <r>  -26.3095    1.0000 </r>
       <r>  -26.3052    1.0000 </r>
       <r>  -26.2498    1.0000 </r>
       <r>  -26.0037    1.0000 </r>
       <r>  -25.9926    1.0000 </r>
       <r>  -25.9427    1.0000 </r>
       <r>  -25.9407    1.0000 </r>
       <r>  -12.2226    1.0000 </r>
       <r>  -11.9155    1.0000 </r>
       <r>  -11.7973    1.0000 </r>
       <r>  -11.7596    1.0000 </r>
       <r>  -11.7013    1.0000 </r>
       <r>  -11.6628    1.0000 </r>
       <r>  -11.6288    1.0000 </r>
       <r>  -11.3288    1.0000 </r>
       <r>  -11.2949    1.0000 </r>
       <r>  -11.1987    1.0000 </r>
       <r>  -11.1550    1.0000 </r>
       <r>  -11.1211    1.0000 </r>
       <r>  -11.0510    1.0000 </r>
       <r>  -11.0306    1.0000 </r>
       <r>  -10.9632    1.0000 </r>
       <r>  -10.8620    1.0000 </r>
       <r>   -9.4904    1.0000 </r>
       <r>   -9.3885    1.0000 </r>
       <r>   -9.3713    1.0000 </r>
       <r>   -9.2964    1.0000 </r>
       <r>   -9.2585    1.0000 </r>
       <r>   -9.2517    1.0000 </r>
       <r>   -9.2310    1.0000 </r>
       <r>   -9.1984    1.0000 </r>
       <r>   -9.1696    1.0000 </r>
       <r>   -9.1539    1.0000 </r>
       <r>   -9.1249    1.0000 </r>
       <r>   -9.1133    1.0000 </r>
       <r>   -9.0967    1.0000 </r>
       <r>   -9.0690    1.0000 </r>
       <r>   -9.0637    1.0000 </r>
       <r>   -9.0529    1.0000 </r>
       <r>   -9.0473    1.0000 </r>
       <r>   -9.0315    1.0000 </r>
       <r>   -9.0164    1.0000 </r>
       <r>   -9.0040    1.0000 </r>
       <r>   -8.9768    1.0000 </r>
       <r>   -8.9640    1.0000 </r>
       <r>   -8.9385    1.0000 </r>
       <r>   -8.9041    1.0000 </r>
       <r>   -8.8929    1.0000 </r>
       <r>   -8.8611    1.0000 </r>
       <r>   -8.8467    1.0000 </r>
       <r>   -8.8291    1.0000 </r>
       <r>   -8.8132    1.0000 </r>
       <r>   -8.8047    1.0000 </r>
       <r>   -8.7836    1.0000 </r>
       <r>   -8.7724    1.0000 </r>
       <r>   -8.7546    1.0000 </r>
       <r>   -8.7351    1.0000 </r>
       <r>   -8.7301    1.0000 </r>
       <r>   -8.7178    1.0000 </r>
       <r>   -8.6968    1.0000 </r>
       <r>   -8.6826    1.0000 </r>
       <r>   -8.6740    1.0000 </r>
       <r>   -8.6663    1.0000 </r>
       <r>   -8.6485    1.0000 </r>
       <r>   -8.6328    1.0000 </r>
       <r>   -8.5929    1.0000 </r>
       <r>   -8.5839    1.0000 </r>
       <r>   -8.5688    1.0000 </r>
       <r>   -8.5627    1.0000 </r>
       <r>   -8.5379    1.0000 </r>
       <r>   -8.5329    1.0000 </r>
       <r>   -8.5237    1.0000 </r>
       <r>   -8.5046    1.0000 </r>
       <r>   -8.5035    1.0000 </r>
       <r>   -8.4807    1.0000 </r>
       <r>   -8.4599    1.0000 </r>
       <r>   -8.4441    1.0000 </r>
       <r>   -8.4394    1.0000 </r>
       <r>   -8.4278    1.0000 </r>
       <r>   -8.4067    1.0000 </r>
       <r>   -8.4001    1.0000 </r>
       <r>   -8.3953    1.0000 </r>
       <r>   -8.3822    1.0000 </r>
       <r>   -8.3692    1.0000 </r>
       <r>   -8.3603    1.0000 </r>
       <r>   -8.3399    1.0000 </r>
       <r>   -8.3341    1.0000 </r>
       <r>   -8.3159    1.0000 </r>
       <r>   -8.3074    1.0000 </r>
       <r>   -8.2913    1.0000 </r>
       <r>   -8.2642    1.0000 </r>
       <r>   -8.2584    1.0000 </r>
       <r>   -8.2424    1.0000 </r>
       <r>   -8.2254    1.0000 </r>
       <r>   -8.2194    1.0000 </r>
       <r>   -8.2040    1.0000 </r>
       <r>   -8.1766    1.0000 </r>
       <r>   -8.1550    1.0000 </r>
       <r>   -8.1213    1.0000 </r>
       <r>   -8.1196    1.0000 </r>
       <r>   -8.1112    1.0000 </r>
       <r>   -8.0895    1.0000 </r>
       <r>   -8.0827    1.0000 </r>
       <r>   -8.0486    1.0000 </r>
       <r>   -8.0373    1.0000 </r>
       <r>   -8.0279    1.0000 </r>
       <r>   -8.0012    1.0000 </r>
       <r>   -7.9763    1.0000 </r>
       <r>   -7.8906    1.0000 </r>
       <r>   -7.8794    1.0000 </r>
       <r>   -7.8317    1.0000 </r>
       <r>   -7.8007    1.0000 </r>
       <r>   -7.7940    1.0000 </r>
       <r>   -7.7382    1.0000 </r>
       <r>   -7.7187    1.0000 </r>
       <r>   -7.7070    1.0000 </r>
       <r>   -7.6766    1.0000 </r>
       <r>   -7.6415    1.0000 </r>
       <r>   -7.4852    1.0000 </r>
       <r>   -5.3641    1.0000 </r>
       <r>   -5.3389    1.0000 </r>
       <r>   -5.2420    1.0000 </r>
       <r>   -5.0707    1.0000 </r>
       <r>   -4.9831    1.0000 </r>
       <r>   -4.9537    1.0000 </r>
       <r>   -4.9341    1.0000 </r>
       <r>   -4.9005    1.0000 </r>
       <r>   -4.8348    1.0000 </r>
       <r>   -4.7141    1.0000 </r>
       <r>   -4.5784    1.0000 </r>
       <r>   -4.5387    1.0000 </r>
       <r>   -4.5039    1.0000 </r>
       <r>   -4.4761    1.0000 </r>
       <r>   -4.4518    1.0000 </r>
       <r>   -4.4285    1.0000 </r>
       <r>   -4.4115    1.0000 </r>
       <r>   -4.3764    1.0000 </r>
       <r>   -4.3389    1.0000 </r>
       <r>   -4.3199    1.0000 </r>
       <r>   -4.3163    1.0000 </r>
       <r>   -4.2733    1.0000 </r>
       <r>   -4.2310    1.0000 </r>
       <r>   -4.2165    1.0000 </r>
       <r>   -4.1955    1.0000 </r>
       <r>   -4.1673    1.0000 </r>
       <r>   -4.1315    1.0000 </r>
       <r>   -4.1010    1.0000 </r>
       <r>   -4.0763    1.0000 </r>
       <r>   -4.0624    1.0000 </r>
       <r>   -4.0119    1.0000 </r>
       <r>   -3.9325    1.0000 </r>
       <r>   -3.9123    1.0000 </r>
       <r>   -3.8250    1.0000 </r>
       <r>   -3.8112    1.0000 </r>
       <r>   -3.7502    1.0000 </r>
       <r>   -3.7100    1.0000 </r>
       <r>   -3.5904    1.0000 </r>
       <r>   -3.5165    1.0000 </r>
       <r>   -3.4159    1.0000 </r>
       <r>   -3.3817    1.0000 </r>
       <r>   -3.3730    1.0000 </r>
       <r>   -3.2945    1.0000 </r>
       <r>   -3.2406    1.0000 </r>
       <r>   -3.1633    1.0000 </r>
       <r>   -3.1309    1.0000 </r>
       <r>   -3.0101    1.0000 </r>
       <r>   -2.9077    1.0000 </r>
       <r>   -2.0513    0.0000 </r>
       <r>   -2.0107    0.0000 </r>
       <r>   -1.8967    0.0000 </r>
       <r>   -1.4402    0.0000 </r>
       <r>   -1.3581    0.0000 </r>
       <r>   -1.3519    0.0000 </r>
       <r>   -1.2896    0.0000 </r>
       <r>   -1.2351    0.0000 </r>
       <r>   -1.1302    0.0000 </r>
       <r>   -0.6886    0.0000 </r>
       <r>   -0.6368    0.0000 </r>
       <r>   -0.5520    0.0000 </r>
       <r>   -0.5196    0.0000 </r>
       <r>   -0.5060    0.0000 </r>
       <r>   -0.4740    0.0000 </r>
       <r>   -0.4323    0.0000 </r>
       <r>   -0.4084    0.0000 </r>
       <r>   -0.3649    0.0000 </r>
       <r>   -0.3083    0.0000 </r>
       <r>   -0.2734    0.0000 </r>
       <r>   -0.2393    0.0000 </r>
       <r>   -0.1943    0.0000 </r>
       <r>   -0.1522    0.0000 </r>
       <r>   -0.1352    0.0000 </r>
       <r>    0.0593    0.0000 </r>
       <r>    0.1308    0.0000 </r>
       <r>    0.2182    0.0000 </r>
       <r>    0.2674    0.0000 </r>
       <r>    0.2847    0.0000 </r>
       <r>    0.3119    0.0000 </r>
       <r>    0.3386    0.0000 </r>
       <r>    0.3842    0.0000 </r>
       <r>    0.4007    0.0000 </r>
       <r>    0.4460    0.0000 </r>
       <r>    0.4694    0.0000 </r>
       <r>    0.4796    0.0000 </r>
       <r>    0.5041    0.0000 </r>
       <r>    0.5287    0.0000 </r>
       <r>    0.5798    0.0000 </r>
       <r>    0.6173    0.0000 </r>
       <r>    0.6510    0.0000 </r>
       <r>    0.6688    0.0000 </r>
       <r>    0.7014    0.0000 </r>
       <r>    0.7095    0.0000 </r>
       <r>    0.7452    0.0000 </r>
       <r>    0.7779    0.0000 </r>
       <r>    0.7967    0.0000 </r>
       <r>    0.8179    0.0000 </r>
       <r>    0.8272    0.0000 </r>
       <r>    0.8553    0.0000 </r>
       <r>    0.8753    0.0000 </r>
       <r>    0.8862    0.0000 </r>
       <r>    0.8984    0.0000 </r>
       <r>    0.9302    0.0000 </r>
       <r>    0.9449    0.0000 </r>
       <r>    0.9542    0.0000 </r>
       <r>    0.9662    0.0000 </r>
       <r>    0.9752    0.0000 </r>
       <r>    0.9898    0.0000 </r>
       <r>    1.0194    0.0000 </r>
       <r>    1.0436    0.0000 </r>
       <r>    1.0727    0.0000 </r>
       <r>    1.0943    0.0000 </r>
       <r>    1.1423    0.0000 </r>
      </set>
      <set comment="kpoint 2">
       <r>  -52.0234    1.0000 </r>
       <r>  -51.9688    1.0000 </r>
       <r>  -51.8712    1.0000 </r>
       <r>  -51.8152    1.0000 </r>
       <r>  -51.7903    1.0000 </r>
       <r>  -51.7792    1.0000 </r>
       <r>  -51.7697    1.0000 </r>
       <r>  -51.7453    1.0000 </r>
       <r>  -51.7209    1.0000 </r>
       <r>  -51.6993    1.0000 </r>
       <r>  -51.6813    1.0000 </r>
       <r>  -51.6642    1.0000 </r>
       <r>  -51.6100    1.0000 </r>
       <r>  -51.5136    1.0000 </r>
       <r>  -51.5102    1.0000 </r>
       <r>  -51.5023    1.0000 </r>
       <r>  -51.4937    1.0000 </r>
       <r>  -51.4706    1.0000 </r>
       <r>  -51.4594    1.0000 </r>
       <r>  -51.4579    1.0000 </r>
       <r>  -51.4500    1.0000 </r>
       <r>  -51.4402    1.0000 </r>
       <r>  -51.4327    1.0000 </r>
       <r>  -51.4267    1.0000 </r>
       <r>  -51.4090    1.0000 </r>
       <r>  -51.3978    1.0000 </r>
       <r>  -51.3945    1.0000 </r>
       <r>  -51.3866    1.0000 </r>
       <r>  -51.3281    1.0000 </r>
       <r>  -51.1721    1.0000 </r>
       <r>  -50.9433    1.0000 </r>
       <r>  -50.6153    1.0000 </r>
       <r>  -31.0387    1.0000 </r>
       <r>  -30.9478    1.0000 </r>
       <r>  -30.8917    1.0000 </r>
       <r>  -30.8583    1.0000 </r>
       <r>  -30.8031    1.0000 </r>
       <r>  -30.7765    1.0000 </r>
       <r>  -30.7638    1.0000 </r>
       <r>  -30.7517    1.0000 </r>
       <r>  -30.7368    1.0000 </r>
       <r>  -30.7245    1.0000 </r>
       <r>  -30.6963    1.0000 </r>
       <r>  -30.6674    1.0000 </r>
       <r>  -30.6554    1.0000 </r>
       <r>  -30.6451    1.0000 </r>
       <r>  -30.6258    1.0000 </r>
       <r>  -30.6133    1.0000 </r>
       <r>  -30.5988    1.0000 </r>
       <r>  -30.5960    1.0000 </r>
       <r>  -30.5886    1.0000 </r>
       <r>  -30.5700    1.0000 </r>
       <r>  -30.5585    1.0000 </r>
       <r>  -30.5560    1.0000 </r>
       <r>  -30.5375    1.0000 </r>
       <r>  -30.5304    1.0000 </r>
       <r>  -30.5104    1.0000 </r>
       <r>  -30.5062    1.0000 </r>
       <r>  -30.4948    1.0000 </r>
       <r>  -30.4873    1.0000 </r>
       <r>  -30.4741    1.0000 </r>
       <r>  -30.4612    1.0000 </r>
       <r>  -30.4494    1.0000 </r>
       <r>  -30.4368    1.0000 </r>
       <r>  -30.4285    1.0000 </r>
       <r>  -30.4156    1.0000 </r>
       <r>  -30.4078    1.0000 </r>
       <r>  -30.4017    1.0000 </r>
       <r>  -30.3930    1.0000 </r>
       <r>  -30.3882    1.0000 </r>
       <r>  -30.3777    1.0000 </r>
       <r>  -30.3722    1.0000 </r>
       <r>  -30.3663    1.0000 </r>
       <r>  -30.3541    1.0000 </r>
       <r>  -30.3452    1.0000 </r>
       <r>  -30.3297    1.0000 </r>
       <r>  -30.3232    1.0000 </r>
       <r>  -30.3122    1.0000 </r>
       <r>  -30.3080    1.0000 </r>
       <r>  -30.2973    1.0000 </r>
       <r>  -30.2908    1.0000 </r>
       <r>  -30.2884    1.0000 </r>
       <r>  -30.2727    1.0000 </r>
       <r>  -30.2611    1.0000 </r>
       <r>  -30.2479    1.0000 </r>
       <r>  -30.2403    1.0000 </r>
       <r>  -30.2307    1.0000 </r>
       <r>  -30.2125    1.0000 </r>
       <r>  -30.2080    1.0000 </r>
       <r>  -30.1964    1.0000 </r>
       <r>  -30.1876    1.0000 </r>
       <r>  -30.1791    1.0000 </r>
       <r>  -30.1733    1.0000 </r>
       <r>  -30.1642    1.0000 </r>
       <r>  -30.1569    1.0000 </r>
       <r>  -30.1498    1.0000 </r>
       <r>  -30.1311    1.0000 </r>
       <r>  -30.1280    1.0000 </r>
       <r>  -30.1181    1.0000 </r>
       <r>  -30.1114    1.0000 </r>
       <r>  -30.1057    1.0000 </r>
       <r>  -30.0980    1.0000 </r>
       <r>  -30.0840    1.0000 </r>
       <r>  -30.0782    1.0000 </r>
       <r>  -30.0718    1.0000 </r>
       <r>  -30.0667    1.0000 </r>
       <r>  -30.0611    1.0000 </r>
       <r>  -30.0530    1.0000 </r>
       <r>  -30.0440    1.0000 </r>
       <r>  -30.0331    1.0000 </r>
       <r>  -30.0271    1.0000 </r>
       <r>  -30.0190    1.0000 </r>
       <r>  -30.0117    1.0000 </r>
       <r>  -30.0078    1.0000 </r>
       <r>  -30.0015    1.0000 </r>
       <r>  -29.9946    1.0000 </r>
       <r>  -29.9876    1.0000 </r>
       <r>  -29.9656    1.0000 </r>
       <r>  -29.9569    1.0000 </r>
       <r>  -29.8989    1.0000 </r>
       <r>  -29.8550    1.0000 </r>
       <r>  -29.8475    1.0000 </r>
       <r>  -29.7864    1.0000 </r>
       <r>  -29.6887    1.0000 </r>
       <r>  -29.6117    1.0000 </r>
       <r>  -29.4439    1.0000 </r>
       <r>  -29.3947    1.0000 </r>
       <r>  -29.3539    1.0000 </r>
       <r>  -27.0253    1.0000 </r>
       <r>  -26.9915    1.0000 </r>
       <r>  -26.9772    1.0000 </r>
       <r>  -26.9303    1.0000 </r>
       <r>  -26.9164    1.0000 </r>
       <r>  -26.9068    1.0000 </r>
       <r>  -26.9038    1.0000 </r>
       <r>  -26.8875    1.0000 </r>
       <r>  -26.8640    1.0000 </r>
       <r>  -26.8347    1.0000 </r>
       <r>  -26.7348    1.0000 </r>
       <r>  -26.7020    1.0000 </r>
       <r>  -26.6687    1.0000 </r>
       <r>  -26.6626    1.0000 </r>
       <r>  -26.6379    1.0000 </r>
       <r>  -26.5962    1.0000 </r>
       <r>  -26.5538    1.0000 </r>
       <r>  -26.5300    1.0000 </r>
       <r>  -26.5195    1.0000 </r>
       <r>  -26.4956    1.0000 </r>
       <r>  -26.4842    1.0000 </r>
       <r>  -26.4672    1.0000 </r>
       <r>  -26.4636    1.0000 </r>
       <r>  -26.3369    1.0000 </r>
       <r>  -26.3323    1.0000 </r>
       <r>  -26.3095    1.0000 </r>
       <r>  -26.3052    1.0000 </r>
       <r>  -26.2497    1.0000 </r>
       <r>  -26.0036    1.0000 </r>
       <r>  -25.9926    1.0000 </r>
       <r>  -25.9427    1.0000 </r>
       <r>  -25.9407    1.0000 </r>
       <r>  -12.1897    1.0000 </r>
       <r>  -11.9633    1.0000 </r>
       <r>  -11.8999    1.0000 </r>
       <r>  -11.8202    1.0000 </r>
       <r>  -11.5953    1.0000 </r>
       <r>  -11.5429    1.0000 </r>
       <r>  -11.4855    1.0000 </r>
       <r>  -11.3929    1.0000 </r>
       <r>  -11.3406    1.0000 </r>
       <r>  -11.2995    1.0000 </r>
       <r>  -11.1912    1.0000 </r>
       <r>  -11.1542    1.0000 </r>
       <r>  -11.0539    1.0000 </r>
[...]
       <r>   -32.4584     0.0000    64.0000 </r>
       <r>   -32.2635     0.0000    64.0000 </r>
       <r>   -32.0685     0.0000    64.0000 </r>
       <r>   -31.8736     0.0000    64.0000 </r>
       <r>   -31.6786     0.0000    64.0000 </r>
       <r>   -31.4837     0.0000    64.0000 </r>
       <r>   -31.2888     0.0000    64.0000 </r>
       <r>   -31.0938     0.6177    64.1204 </r>
       <r>   -30.8989    24.4598    68.8886 </r>
       <r>   -30.7039    79.3144    84.3503 </r>
       <r>   -30.5090   153.6794   114.3087 </r>
       <r>   -30.3141   211.1631   155.4730 </r>
       <r>   -30.1191   215.4558   197.4742 </r>
       <r>   -29.9242   206.6046   237.7499 </r>
       <r>   -29.7292    43.0444   246.1410 </r>
       <r>   -29.5343    19.7028   249.9819 </r>
       <r>   -29.3394    26.7603   255.1985 </r>
       <r>   -29.1444     4.1113   256.0000 </r>
       <r>   -28.9495     0.0000   256.0000 </r>
       <r>   -28.7545     0.0000   256.0000 </r>
       <r>   -28.5596     0.0000   256.0000 </r>
       <r>   -28.3647     0.0000   256.0000 </r>
       <r>   -28.1697     0.0000   256.0000 </r>
       <r>   -27.9748     0.0000   256.0000 </r>
       <r>   -27.7798     0.0000   256.0000 </r>
       <r>   -27.5849     0.0000   256.0000 </r>
       <r>   -27.3899     0.0000   256.0000 </r>
       <r>   -27.1950     0.0000   256.0000 </r>
       <r>   -27.0001    15.0167   258.9274 </r>
       <r>   -26.8051    85.1328   275.5232 </r>
       <r>   -26.6102    54.5606   286.1593 </r>
       <r>   -26.4152    79.5052   301.6582 </r>
       <r>   -26.2203    50.8175   311.5646 </r>
       <r>   -26.0254     7.0052   312.9302 </r>
       <r>   -25.8304    36.2495   319.9967 </r>
       <r>   -25.6355     0.0170   320.0000 </r>
       <r>   -25.4405     0.0000   320.0000 </r>
       <r>   -25.2456     0.0000   320.0000 </r>
       <r>   -25.0507     0.0000   320.0000 </r>
       <r>   -24.8557     0.0000   320.0000 </r>
       <r>   -24.6608     0.0000   320.0000 </r>
       <r>   -24.4658     0.0000   320.0000 </r>
       <r>   -24.2709     0.0000   320.0000 </r>
       <r>   -24.0760     0.0000   320.0000 </r>
       <r>   -23.8810     0.0000   320.0000 </r>
       <r>   -23.6861     0.0000   320.0000 </r>
       <r>   -23.4911     0.0000   320.0000 </r>
       <r>   -23.2962     0.0000   320.0000 </r>
       <r>   -23.1012     0.0000   320.0000 </r>
       <r>   -22.9063     0.0000   320.0000 </r>
       <r>   -22.7114     0.0000   320.0000 </r>
       <r>   -22.5164     0.0000   320.0000 </r>
       <r>   -22.3215     0.0000   320.0000 </r>
       <r>   -22.1265     0.0000   320.0000 </r>
       <r>   -21.9316     0.0000   320.0000 </r>
       <r>   -21.7367     0.0000   320.0000 </r>
       <r>   -21.5417     0.0000   320.0000 </r>
       <r>   -21.3468     0.0000   320.0000 </r>
       <r>   -21.1518     0.0000   320.0000 </r>
       <r>   -20.9569     0.0000   320.0000 </r>
       <r>   -20.7620     0.0000   320.0000 </r>
       <r>   -20.5670     0.0000   320.0000 </r>
       <r>   -20.3721     0.0000   320.0000 </r>
       <r>   -20.1771     0.0000   320.0000 </r>
       <r>   -19.9822     0.0000   320.0000 </r>
       <r>   -19.7873     0.0000   320.0000 </r>
       <r>   -19.5923     0.0000   320.0000 </r>
       <r>   -19.3974     0.0000   320.0000 </r>
       <r>   -19.2024     0.0000   320.0000 </r>
       <r>   -19.0075     0.0000   320.0000 </r>
       <r>   -18.8125     0.0000   320.0000 </r>
       <r>   -18.6176     0.0000   320.0000 </r>
       <r>   -18.4227     0.0000   320.0000 </r>
       <r>   -18.2277     0.0000   320.0000 </r>
       <r>   -18.0328     0.0000   320.0000 </r>
       <r>   -17.8378     0.0000   320.0000 </r>
       <r>   -17.6429     0.0000   320.0000 </r>
       <r>   -17.4480     0.0000   320.0000 </r>
       <r>   -17.2530     0.0000   320.0000 </r>
       <r>   -17.0581     0.0000   320.0000 </r>
       <r>   -16.8631     0.0000   320.0000 </r>
       <r>   -16.6682     0.0000   320.0000 </r>
       <r>   -16.4733     0.0000   320.0000 </r>
       <r>   -16.2783     0.0000   320.0000 </r>
       <r>   -16.0834     0.0000   320.0000 </r>
       <r>   -15.8884     0.0000   320.0000 </r>
       <r>   -15.6935     0.0000   320.0000 </r>
       <r>   -15.4986     0.0000   320.0000 </r>
       <r>   -15.3036     0.0000   320.0000 </r>
       <r>   -15.1087     0.0000   320.0000 </r>
       <r>   -14.9137     0.0000   320.0000 </r>
       <r>   -14.7188     0.0000   320.0000 </r>
       <r>   -14.5238     0.0000   320.0000 </r>
       <r>   -14.3289     0.0000   320.0000 </r>
       <r>   -14.1340     0.0000   320.0000 </r>
       <r>   -13.9390     0.0000   320.0000 </r>
       <r>   -13.7441     0.0000   320.0000 </r>
       <r>   -13.5491     0.0000   320.0000 </r>
       <r>   -13.3542     0.0000   320.0000 </r>
       <r>   -13.1593     0.0000   320.0000 </r>
       <r>   -12.9643     0.0000   320.0000 </r>
       <r>   -12.7694     0.0000   320.0000 </r>
       <r>   -12.5744     0.0000   320.0000 </r>
       <r>   -12.3795     0.0000   320.0000 </r>
       <r>   -12.1846     4.2479   320.8281 </r>
       <r>   -11.9896    13.1052   323.3828 </r>
       <r>   -11.7947    15.4553   326.3957 </r>
       <r>   -11.5997    19.9901   330.2926 </r>
       <r>   -11.4048    23.7067   334.9140 </r>
       <r>   -11.2099    28.2245   340.4161 </r>
       <r>   -11.0149    31.8881   346.6324 </r>
       <r>   -10.8200    24.5240   351.4131 </r>
       <r>   -10.6250     3.0104   352.0000 </r>
       <r>   -10.4301     0.0000   352.0000 </r>
       <r>   -10.2351     0.0000   352.0000 </r>
       <r>   -10.0402     0.0000   352.0000 </r>
       <r>    -9.8453     0.0000   352.0000 </r>
       <r>    -9.6503     0.0000   352.0000 </r>
       <r>    -9.4554     7.7254   353.5060 </r>
       <r>    -9.2604    41.8808   361.6703 </r>
       <r>    -9.0655   102.1041   381.5746 </r>
       <r>    -8.8706   111.5423   403.3187 </r>
       <r>    -8.6756   130.1887   428.6978 </r>
       <r>    -8.4807   135.4939   455.1111 </r>
       <r>    -8.2857   154.0941   485.1504 </r>
       <r>    -8.0908   121.9286   508.9193 </r>
       <r>    -7.8959    74.9392   523.5280 </r>
       <r>    -7.7009    66.9950   536.5881 </r>
       <r>    -7.5060    30.4875   542.5313 </r>
       <r>    -7.3110     7.5340   544.0000 </r>
       <r>    -7.1161     0.0000   544.0000 </r>
       <r>    -6.9211     0.0000   544.0000 </r>
       <r>    -6.7262     0.0000   544.0000 </r>
       <r>    -6.5313     0.0000   544.0000 </r>
       <r>    -6.3363     0.0000   544.0000 </r>
       <r>    -6.1414     0.0000   544.0000 </r>
       <r>    -5.9464     0.0000   544.0000 </r>
       <r>    -5.7515     0.0000   544.0000 </r>
       <r>    -5.5566     0.0000   544.0000 </r>
       <r>    -5.3616     2.6894   544.5243 </r>
       <r>    -5.1667    25.7262   549.5394 </r>
       <r>    -4.9717    32.8929   555.9515 </r>
       <r>    -4.7768    34.6856   562.7132 </r>
       <r>    -4.5819    34.6199   569.4620 </r>
       <r>    -4.3869    40.7281   577.4016 </r>
       <r>    -4.1920    51.0065   587.3448 </r>
       <r>    -3.9970    69.3682   600.8675 </r>
       <r>    -3.8021    53.8973   611.3743 </r>
       <r>    -3.6072    49.8898   621.0999 </r>
       <r>    -3.4122    37.2108   628.3538 </r>
       <r>    -3.2173    29.0745   634.0216 </r>
       <r>    -3.0223    22.4361   638.3953 </r>
       <r>    -2.8274     8.2141   639.9966 </r>
       <r>    -2.6324     0.0175   640.0000 </r>
       <r>    -2.4375     0.0000   640.0000 </r>
       <r>    -2.2426     0.0000   640.0000 </r>
       <r>    -2.0476     0.8682   640.1692 </r>
       <r>    -1.8527     8.2505   641.7776 </r>
       <r>    -1.6577    17.5200   645.1930 </r>
       <r>    -1.4628    14.6396   648.0468 </r>
       <r>    -1.2679    17.5374   651.4656 </r>
       <r>    -1.0729    21.3886   655.6351 </r>
       <r>    -0.8780    23.6414   660.2438 </r>
       <r>    -0.6830    24.1992   664.9612 </r>
       <r>    -0.4881    32.4937   671.2956 </r>
       <r>    -0.2932    34.0818   677.9395 </r>
       <r>    -0.0982    31.4112   684.0628 </r>
       <r>     0.0967    30.4030   689.9896 </r>
       <r>     0.2917    33.9675   696.6113 </r>
       <r>     0.4866    45.5536   705.4915 </r>
       <r>     0.6815    77.4161   720.5831 </r>
       <r>     0.8765   110.5297   742.1298 </r>
       <r>     1.0714   103.5553   762.3170 </r>
       <r>     1.2664    29.1514   767.9998 </r>
       <r>     1.4613     0.0009   768.0000 </r>
       <r>     1.6563     0.0000   768.0000 </r>
       <r>     1.8512     0.0000   768.0000 </r>
       <r>     2.0461     0.0000   768.0000 </r>
       <r>     2.2411     0.0000   768.0000 </r>
       <r>     2.4360     0.0000   768.0000 </r>
       <r>     2.6310     0.0000   768.0000 </r>
       <r>     2.8259     0.0000   768.0000 </r>
       <r>     3.0208     0.0000   768.0000 </r>
       <r>     3.2158     0.0000   768.0000 </r>
       <r>     3.4107     0.0000   768.0000 </r>
       <r>     3.6057     0.0000   768.0000 </r>
       <r>     3.8006     0.0000   768.0000 </r>
      </set>
     </set>
    </array>
   </total>
  </dos>
 </calculation>
 <structure name="finalpos" >
  <crystal>
   <varray name="basis" >
    <v>      13.12862340       0.00000000       0.00000000 </v>
    <v>      -6.56431170      11.36972138       0.00000000 </v>
    <v>       0.00000000       0.00000000      26.82809424 </v>
   </varray>
   <i name="volume">   4004.59716953 </i>
   <varray name="rec_basis" >
    <v>       0.07616945       0.04397645       0.00000000 </v>
    <v>       0.00000000       0.08795290       0.00000000 </v>
    <v>       0.00000000       0.00000000       0.03727436 </v>
   </varray>
  </crystal>
  <varray name="positions" >
   <v>       0.08165821       0.15874760       0.44922742 </v>
   <v>       0.08651782       0.41869833       0.45338481 </v>
   <v>       0.08266713       0.66524924       0.45465600 </v>
   <v>       0.09146115       0.91878561       0.45000905 </v>
   <v>       0.33895734       0.16610908       0.45491610 </v>
   <v>       0.32558644       0.40812502       0.45120658 </v>
   <v>       0.33007900       0.65860679       0.45094224 </v>
   <v>       0.34066427       0.92083275       0.44719097 </v>
   <v>       0.58642968       0.17075266       0.45442784 </v>
   <v>       0.58218616       0.42175041       0.45661344 </v>
   <v>       0.57767688       0.65952840       0.44868396 </v>
   <v>       0.58251731       0.91771044       0.45237017 </v>
   <v>       0.83527286       0.16924911       0.46033485 </v>
   <v>       0.84663459       0.41233079       0.45332006 </v>
   <v>       0.83818002       0.66861452       0.45676557 </v>
   <v>       0.83248787       0.92149878       0.44977055 </v>
   <v>       0.17660016       0.08286029       0.54419452 </v>
   <v>       0.15957394       0.33368094       0.54363846 </v>
   <v>       0.15165686       0.57454041       0.54591173 </v>
   <v>       0.16921998       0.83260766       0.54316957 </v>
   <v>       0.40669581       0.07972337       0.54578187 </v>
   <v>       0.39835449       0.32504054       0.54845018 </v>
   <v>       0.41690052       0.58434044       0.54577627 </v>
   <v>       0.41554337       0.82970452       0.54237317 </v>
   <v>       0.66439314       0.08982145       0.55427847 </v>
   <v>       0.66391233       0.34979469       0.54944622 </v>
   <v>       0.67696395       0.59649573       0.54601268 </v>
   <v>       0.66603690       0.83246465       0.54711422 </v>
   <v>       0.92400677       0.08311211       0.55011384 </v>
   <v>       0.91668425       0.32786139       0.55390514 </v>
   <v>       0.91618043       0.58557375       0.54673237 </v>
   <v>       0.91944981       0.84655871       0.54467843 </v>
   <v>       0.09126973       0.15806523       0.58349827 </v>
   <v>       0.07209338       0.40680438       0.59786369 </v>
   <v>       0.08769585       0.67155454       0.59124985 </v>
   <v>       0.08223459       0.91987267       0.58481270 </v>
   <v>       0.32161202       0.15073251       0.59108609 </v>
   <v>       0.32716251       0.42732869       0.59528369 </v>
   <v>       0.33465026       0.64765680       0.59182323 </v>
   <v>       0.32239976       0.91462798       0.59048586 </v>
   <v>       0.57543550       0.14905926       0.59906982 </v>
   <v>       0.58009078       0.40496673       0.58995172 </v>
   <v>       0.59524935       0.66566164       0.58579987 </v>
   <v>       0.57791395       0.90922193       0.58898044 </v>
   <v>       0.83996318       0.16593328       0.59735894 </v>
   <v>       0.82393875       0.41347794       0.58740740 </v>
   <v>       0.83974854       0.66660378       0.58565318 </v>
   <v>       0.83822931       0.91392042       0.59600950 </v>
   <v>       0.17711840       0.09118568       0.40908640 </v>
   <v>       0.15818961       0.31034857       0.40989034 </v>
   <v>       0.14290125       0.57786136       0.40492080 </v>
   <v>       0.16398747       0.83972097       0.40272006 </v>
   <v>       0.41869396       0.08574833       0.40889346 </v>
   <v>       0.42394152       0.34514473       0.40238128 </v>
   <v>       0.41631245       0.58004280       0.40812414 </v>
   <v>       0.42367456       0.85473634       0.40737195 </v>
   <v>       0.66855263       0.08311948       0.41204607 </v>
   <v>       0.67622328       0.34694000       0.41296429 </v>
   <v>       0.66908902       0.59880408       0.40761911 </v>
   <v>       0.67408250       0.82743165       0.40782767 </v>
   <v>       0.93318034       0.08389735       0.41091936 </v>
   <v>       0.92677891       0.32415270       0.41274905 </v>
   <v>       0.90697884       0.57554364       0.41564193 </v>
   <v>       0.89620421       0.83490787       0.41141622 </v>
   <v>       0.99968860       0.00305489       0.50034360 </v>
   <v>       0.99897641       0.24718704       0.50183038 </v>
   <v>       0.00182527       0.49687283       0.50239725 </v>
   <v>       0.99943825       0.75273807       0.50163002 </v>
   <v>       0.25236913       0.00260302       0.49775485 </v>
   <v>       0.25532569       0.24967366       0.50112838 </v>
   <v>       0.25011471       0.49695488       0.49884345 </v>
   <v>       0.25080980       0.74533767       0.50030316 </v>
   <v>       0.49956321       0.00326320       0.49968287 </v>
   <v>       0.50032163       0.25424690       0.50333900 </v>
   <v>       0.50493795       0.50460530       0.50183534 </v>
   <v>       0.49501144       0.74890277       0.49515010 </v>
   <v>       0.75109865       0.01688286       0.50496138 </v>
   <v>       0.76112222       0.25780380       0.49824355 </v>
   <v>       0.75272649       0.50979771       0.50457756 </v>
   <v>       0.74515058       0.75664395       0.50377323 </v>
  </varray>
  <varray name="velocities" >
   <v>       0.00000000       0.00000000       0.00000000 </v>
   <v>       0.00000000       0.00000000       0.00000000 </v>
   <v>       0.00000000       0.00000000       0.00000000 </v>
   <v>       0.00000000       0.00000000       0.00000000 </v>
   <v>       0.00000000       0.00000000       0.00000000 </v>
   <v>       0.00000000       0.00000000       0.00000000 </v>
   <v>       0.00000000       0.00000000       0.00000000 </v>
   <v>       0.00000000       0.00000000       0.00000000 </v>
   <v>       0.00000000       0.00000000       0.00000000 </v>
   <v>       0.00000000       0.00000000       0.00000000 </v>
   <v>       0.00000000       0.00000000       0.00000000 </v>
   <v>       0.00000000       0.00000000       0.00000000 </v>
   <v>       0.00000000       0.00000000       0.00000000 </v>
   <v>       0.00000000       0.00000000       0.00000000 </v>
   <v>       0.00000000       0.00000000       0.00000000 </v>
   <v>       0.00000000       0.00000000       0.00000000 </v>
   <v>       0.00000000       0.00000000       0.00000000 </v>
   <v>       0.00000000       0.00000000       0.00000000 </v>
   <v>       0.00000000       0.00000000       0.00000000 </v>
   <v>       0.00000000       0.00000000       0.00000000 </v>
   <v>       0.00000000       0.00000000       0.00000000 </v>
   <v>       0.00000000       0.00000000       0.00000000 </v>
   <v>       0.00000000       0.00000000       0.00000000 </v>
   <v>       0.00000000       0.00000000       0.00000000 </v>
   <v>       0.00000000       0.00000000       0.00000000 </v>
   <v>       0.00000000       0.00000000       0.00000000 </v>
   <v>       0.00000000       0.00000000       0.00000000 </v>
   <v>       0.00000000       0.00000000       0.00000000 </v>
   <v>       0.00000000       0.00000000       0.00000000 </v>
   <v>       0.00000000       0.00000000       0.00000000 </v>
   <v>       0.00000000       0.00000000       0.00000000 </v>
   <v>       0.00000000       0.00000000       0.00000000 </v>
   <v>       0.00000000       0.00000000       0.00000000 </v>
   <v>       0.00000000       0.00000000       0.00000000 </v>
   <v>       0.00000000       0.00000000       0.00000000 </v>
   <v>       0.00000000       0.00000000       0.00000000 </v>
   <v>       0.00000000       0.00000000       0.00000000 </v>
   <v>       0.00000000       0.00000000       0.00000000 </v>
   <v>       0.00000000       0.00000000       0.00000000 </v>
   <v>       0.00000000       0.00000000       0.00000000 </v>
   <v>       0.00000000       0.00000000       0.00000000 </v>
   <v>       0.00000000       0.00000000       0.00000000 </v>
   <v>       0.00000000       0.00000000       0.00000000 </v>
   <v>       0.00000000       0.00000000       0.00000000 </v>
   <v>       0.00000000       0.00000000       0.00000000 </v>
   <v>       0.00000000       0.00000000       0.00000000 </v>
   <v>       0.00000000       0.00000000       0.00000000 </v>
   <v>       0.00000000       0.00000000       0.00000000 </v>
   <v>       0.00000000       0.00000000       0.00000000 </v>
   <v>       0.00000000       0.00000000       0.00000000 </v>
   <v>       0.00000000       0.00000000       0.00000000 </v>
   <v>       0.00000000       0.00000000       0.00000000 </v>
   <v>       0.00000000       0.00000000       0.00000000 </v>
   <v>       0.00000000       0.00000000       0.00000000 </v>
   <v>       0.00000000       0.00000000       0.00000000 </v>
   <v>       0.00000000       0.00000000       0.00000000 </v>
   <v>       0.00000000       0.00000000       0.00000000 </v>
   <v>       0.00000000       0.00000000       0.00000000 </v>
   <v>       0.00000000       0.00000000       0.00000000 </v>
   <v>       0.00000000       0.00000000       0.00000000 </v>
   <v>       0.00000000       0.00000000       0.00000000 </v>
   <v>       0.00000000       0.00000000       0.00000000 </v>
   <v>       0.00000000       0.00000000       0.00000000 </v>
   <v>       0.00000000       0.00000000       0.00000000 </v>
   <v>       0.00000000       0.00000000       0.00000000 </v>
   <v>       0.00000000       0.00000000       0.00000000 </v>
   <v>       0.00000000       0.00000000       0.00000000 </v>
   <v>       0.00000000       0.00000000       0.00000000 </v>
   <v>       0.00000000       0.00000000       0.00000000 </v>
   <v>       0.00000000       0.00000000       0.00000000 </v>
   <v>       0.00000000       0.00000000       0.00000000 </v>
   <v>       0.00000000       0.00000000       0.00000000 </v>
   <v>       0.00000000       0.00000000       0.00000000 </v>
   <v>       0.00000000       0.00000000       0.00000000 </v>
   <v>       0.00000000       0.00000000       0.00000000 </v>
   <v>       0.00000000       0.00000000       0.00000000 </v>
   <v>       0.00000000       0.00000000       0.00000000 </v>
   <v>       0.00000000       0.00000000       0.00000000 </v>
   <v>       0.00000000       0.00000000       0.00000000 </v>
   <v>       0.00000000       0.00000000       0.00000000 </v>
  </varray>
 </structure>
</modeling>
