 vasp.5.4.4.18Apr17-6-g9f103f2a35 (build Oct 31 2019 15:01:46) complex          
  
 executed on             LinuxIFC date 2024.04.30  11:23:30
 running on   52 total cores
 distrk:  each k-point on   52 cores,    1 groups
 distr:  one band on NCORES_PER_BAND=  13 cores,    4 groups


--------------------------------------------------------------------------------------------------------


 INCAR:
 POTCAR:    PAW_PBE Sc_sv 07Sep2000               
 POTCAR:    PAW_PBE Cl 06Sep2000                  
 POTCAR:    PAW_PBE C 08Apr2002                   
 POTCAR:    PAW_PBE Sc_sv 07Sep2000               
   VRHFIN =Sc: 3p4s3d                                                           
   LEXCH  = PE                                                                  
   EATOM  =  1273.2868 eV,   93.5839 Ry                                         
                                                                                
   TITEL  = PAW_PBE Sc_sv 07Sep2000                                             
   LULTRA =        F    use ultrasoft PP ?                                      
   IUNSCR =        1    unscreen: 0-lin 1-nonlin 2-no                           
   RPACOR =    2.200    partial core radius                                     
   POMASS =   44.956; ZVAL   =   11.000    mass and valenz                      
   RCORE  =    2.500    outmost cutoff radius                                   
   RWIGS  =    2.700; RWIGS  =    1.429    wigner-seitz radius (au A)           
   ENMAX  =  222.660; ENMIN  =  166.995 eV                                      
   RCLOC  =    1.805    cutoff for local pot                                    
   LCOR   =        T    correct aug charges                                     
   LPAW   =        T    paw PP                                                  
   EAUG   =  443.063                                                            
   RMAX   =    2.551    core radius for proj-oper                               
   RAUG   =    1.300    factor for augmentation sphere                          
   RDEP   =    2.650    radius for radial grids                                 
   RDEPT  =    2.038    core radius for aug-charge                              
                                                                                
   Atomic configuration                                                         
    8 entries                                                                   
     n  l   j            E        occ.                                          
     1  0  0.50     -4394.2533   2.0000                                         
     2  0  0.50      -471.0040   2.0000                                         
     2  1  1.50      -384.9788   6.0000                                         
     3  0  0.50       -52.1410   2.0000                                         
     4  0  0.50        -3.5584   1.0000                                         
     3  1  1.50       -30.8841   6.0000                                         
     3  2  2.50        -1.3655   2.0000                                         
     4  3  2.50        -1.3606   0.0000                                         
   Description                                                                  
     l       E           TYP  RCUT    TYP  RCUT                                 
     0    -52.1409870     23  1.800                                             
     0     -3.5583698     23  2.500                                             
     1    -30.8840697     23  2.300                                             
     1      4.0817478     23  2.300                                             
     2     -1.3655397     23  2.500                                             
     2      0.3564476     23  2.500                                             
  local pseudopotential read in
  partial core-charges read in
  partial kinetic energy density read in
  atomic valenz-charges read in
  non local Contribution for L=           0  read in
    real space projection operators read in
  non local Contribution for L=           0  read in
    real space projection operators read in
  non local Contribution for L=           1  read in
    real space projection operators read in
  non local Contribution for L=           1  read in
    real space projection operators read in
  non local Contribution for L=           2  read in
    real space projection operators read in
  non local Contribution for L=           2  read in
    real space projection operators read in
    PAW grid and wavefunctions read in
 
   number of l-projection  operators is LMAX  =           6
   number of lm-projection operators is LMMAX =          18
 
 POTCAR:    PAW_PBE Cl 06Sep2000                  
   VRHFIN =Cl: s2p5                                                             
   LEXCH  = PE                                                                  
   EATOM  =   409.7259 eV,   30.1140 Ry                                         
                                                                                
   TITEL  = PAW_PBE Cl 06Sep2000                                                
   LULTRA =        F    use ultrasoft PP ?                                      
   IUNSCR =        1    unscreen: 0-lin 1-nonlin 2-no                           
   RPACOR =    1.500    partial core radius                                     
   POMASS =   35.453; ZVAL   =    7.000    mass and valenz                      
   RCORE  =    1.900    outmost cutoff radius                                   
   RWIGS  =    2.100; RWIGS  =    1.111    wigner-seitz radius (au A)           
   ENMAX  =  262.472; ENMIN  =  196.854 eV                                      
   ICORE  =        2    local potential                                         
   LCOR   =        T    correct aug charges                                     
   LPAW   =        T    paw PP                                                  
   EAUG   =  356.192                                                            
   DEXC   =    0.000                                                            
   RMAX   =    1.945    core radius for proj-oper                               
   RAUG   =    1.300    factor for augmentation sphere                          
   RDEP   =    2.020    radius for radial grids                                 
   RDEPT  =    1.678    core radius for aug-charge                              
                                                                                
   Atomic configuration                                                         
    6 entries                                                                   
     n  l   j            E        occ.                                          
     1  0  0.50     -2751.1850   2.0000                                         
     2  0  0.50      -252.6861   2.0000                                         
     2  1  1.50      -191.6157   6.0000                                         
     3  0  0.50       -20.6916   2.0000                                         
     3  1  0.50        -8.5949   5.0000                                         
     3  2  1.50        -8.1635   0.0000                                         
   Description                                                                  
     l       E           TYP  RCUT    TYP  RCUT                                 
     0    -20.6915656     23  1.900                                             
     0    -22.0521482     23  1.900                                             
     1     -8.5948577     23  1.900                                             
     1     -5.3847331     23  1.900                                             
     2     -8.1634956     23  1.900                                             
  local pseudopotential read in
  partial core-charges read in
  partial kinetic energy density read in
  atomic valenz-charges read in
  non local Contribution for L=           0  read in
    real space projection operators read in
  non local Contribution for L=           0  read in
    real space projection operators read in
  non local Contribution for L=           1  read in
    real space projection operators read in
  non local Contribution for L=           1  read in
    real space projection operators read in
    PAW grid and wavefunctions read in
 
   number of l-projection  operators is LMAX  =           4
   number of lm-projection operators is LMMAX =           8
 
 POTCAR:    PAW_PBE C 08Apr2002                   
   VRHFIN =C: s2p2                                                              
   LEXCH  = PE                                                                  
   EATOM  =   147.1560 eV,   10.8157 Ry                                         
                                                                                
   TITEL  = PAW_PBE C 08Apr2002                                                 
   LULTRA =        F    use ultrasoft PP ?                                      
   IUNSCR =        1    unscreen: 0-lin 1-nonlin 2-no                           
   RPACOR =    1.200    partial core radius                                     
   POMASS =   12.011; ZVAL   =    4.000    mass and valenz                      
   RCORE  =    1.500    outmost cutoff radius                                   
   RWIGS  =    1.630; RWIGS  =    0.863    wigner-seitz radius (au A)           
   ENMAX  =  400.000; ENMIN  =  300.000 eV                                      
   ICORE  =        2    local potential                                         
   LCOR   =        T    correct aug charges                                     
   LPAW   =        T    paw PP                                                  
   EAUG   =  644.873                                                            
   DEXC   =    0.000                                                            
   RMAX   =    1.529    core radius for proj-oper                               
   RAUG   =    1.300    factor for augmentation sphere                          
   RDEP   =    1.501    radius for radial grids                                 
   RDEPT  =    1.300    core radius for aug-charge                              
                                                                                
   Atomic configuration                                                         
    4 entries                                                                   
     n  l   j            E        occ.                                          
     1  0  0.50      -273.3789   2.0000                                         
     2  0  0.50       -13.7508   2.0000                                         
     2  1  0.50        -5.2854   2.0000                                         
     3  2  1.50        -5.4423   0.0000                                         
   Description                                                                  
     l       E           TYP  RCUT    TYP  RCUT                                 
     0    -13.7508458     23  1.200                                             
     0     -8.2022199     23  1.200                                             
     1     -5.2854383     23  1.500                                             
     1     34.0145650     23  1.500                                             
     2     -5.4423304      7  1.500                                             
  local pseudopotential read in
  partial core-charges read in
  partial kinetic energy density read in
  atomic valenz-charges read in
  non local Contribution for L=           0  read in
    real space projection operators read in
  non local Contribution for L=           0  read in
    real space projection operators read in
  non local Contribution for L=           1  read in
    real space projection operators read in
  non local Contribution for L=           1  read in
    real space projection operators read in
    PAW grid and wavefunctions read in
 
   number of l-projection  operators is LMAX  =           4
   number of lm-projection operators is LMMAX =           8
 
 Optimization of the real space projectors (new method)

 maximal supplied QI-value         = 15.12
 optimisation between [QCUT,QGAM] = [ 12.55, 25.10] = [ 44.09,176.36] Ry 
 Optimized for a Real-space Cutoff    1.56 Angstroem

   l    n(q)    QCUT    max X(q) W(low)/X(q) W(high)/X(q)  e(spline) 
   0     12    12.548     2.962    0.12E-05    0.11E-06    0.46E-07
   0     12    12.548    26.414    0.30E-04    0.15E-05    0.76E-07
   1     11    12.548     3.969    0.45E-05    0.12E-05    0.60E-07
   1     11    12.548     5.137    0.15E-04    0.18E-04    0.36E-06
   2     11    12.548   143.970    0.20E-03    0.19E-03    0.76E-06
   2     11    12.548   121.201    0.20E-03    0.19E-03    0.76E-06
 Optimization of the real space projectors (new method)

 maximal supplied QI-value         = 19.84
 optimisation between [QCUT,QGAM] = [ 12.50, 25.00] = [ 43.76,175.03] Ry 
 Optimized for a Real-space Cutoff    1.20 Angstroem

   l    n(q)    QCUT    max X(q) W(low)/X(q) W(high)/X(q)  e(spline) 
   0      9    12.501   168.010    0.44E-04    0.61E-04    0.77E-07
   0      9    12.501   164.674    0.43E-04    0.60E-04    0.75E-07
   1      8    12.501    69.222    0.11E-03    0.13E-03    0.91E-07
   1      8    12.501    56.786    0.11E-03    0.13E-03    0.90E-07
 Optimization of the real space projectors (new method)

 maximal supplied QI-value         = 25.13
 optimisation between [QCUT,QGAM] = [ 12.32, 24.88] = [ 42.47,173.37] Ry 
 Optimized for a Real-space Cutoff    1.16 Angstroem

   l    n(q)    QCUT    max X(q) W(low)/X(q) W(high)/X(q)  e(spline) 
   0      9    12.315   115.676    0.19E-03    0.80E-05    0.34E-06
   0      9    12.315    87.132    0.19E-03    0.82E-05    0.34E-06
   1      8    12.315     4.429    0.18E-03    0.13E-03    0.22E-06
   1      8    12.315     2.733    0.14E-03    0.10E-03    0.18E-06
  PAW_PBE Sc_sv 07Sep2000               :
 energy of atom  1       EATOM=-1273.2868
 kinetic energy error for atom=    0.0014 (will be added to EATOM!!)
  PAW_PBE Cl 06Sep2000                  :
 energy of atom  2       EATOM= -409.7259
 kinetic energy error for atom=    0.0013 (will be added to EATOM!!)
  PAW_PBE C 08Apr2002                   :
 energy of atom  3       EATOM= -147.1560
 kinetic energy error for atom=    0.0057 (will be added to EATOM!!)
 
 
 POSCAR: Sc Cl  C                                
  positions in cartesian coordinates
  No initial velocities read in
 exchange correlation table for  LEXCH =        8
   RHO(1)=    0.500       N(1)  =     2000
   RHO(2)=  100.500       N(2)  =     4000
 


--------------------------------------------------------------------------------------------------------


 ion  position               nearest neighbor table
   1  0.093  0.177  0.545-  70 2.32  66 2.33  65 2.52  50 2.56  49 2.60  61 2.69  18 3.12  29 3.24
                             2 3.28  17 3.32   6 3.38
   2  0.090  0.414  0.545-  71 2.27  66 2.33  50 2.51  67 2.56  62 2.58  51 2.60  30 3.12  18 3.16
                            19 3.20   1 3.28   6 3.36
   3  0.084  0.674  0.546-  72 2.35  67 2.39  68 2.39  52 2.57  63 2.59  51 2.64  20 3.08  19 3.24
                            31 3.31  14 3.42
   4  0.085  0.924  0.546-  65 2.37  69 2.41  68 2.51  49 2.51  52 2.54  64 2.59  17 3.18  32 3.26
                            20 3.31
   5  0.342  0.166  0.543-  74 2.23  70 2.31  69 2.39  54 2.47  53 2.55  49 2.87  22 3.10  21 3.12
                            17 3.25   8 3.34   9 3.39  10 3.43
   6  0.338  0.422  0.545-  70 2.33  75 2.39  71 2.40  54 2.52  50 2.53  55 2.62  23 3.09  18 3.18
                            22 3.24   2 3.36   1 3.38  10 3.38
   7  0.335  0.675  0.547-  76 2.28  72 2.37  71 2.54  55 2.54  56 2.63  51 2.69  24 3.17  19 3.21
                            23 3.26  12 3.39   8 3.39  11 3.39
   8  0.338  0.922  0.543-  73 2.24  69 2.26  72 2.40  56 2.59  53 2.73  52 2.78  21 3.08  20 3.19
                            24 3.22   5 3.34  12 3.36   7 3.39
   9  0.591  0.174  0.547-  78 2.32  74 2.38  73 2.43  58 2.48  53 2.62  57 2.65  25 3.19  26 3.23
                            21 3.27  13 3.36   5 3.39
  10  0.583  0.422  0.546-  75 2.32  74 2.35  79 2.41  54 2.53  59 2.55  58 2.79  27 3.17  22 3.20
                            26 3.23  15 3.37   6 3.38   5 3.43
  11  0.581  0.676  0.545-  76 2.23  80 2.36  75 2.50  55 2.52  60 2.59  59 2.74  28 3.09  23 3.16
                            27 3.29  12 3.37   7 3.39  16 3.42
  12  0.581  0.920  0.543-  73 2.32  77 2.36  76 2.40  57 2.52  56 2.62  60 2.62  25 3.06  28 3.17
                            24 3.20   8 3.36  11 3.37   7 3.39
  13  0.831  0.168  0.543-  78 2.28  77 2.31  66 2.38  61 2.52  57 2.55  62 2.66  30 3.08  25 3.19
                            29 3.21   9 3.36
  14  0.840  0.423  0.542-  79 2.24  67 2.26  78 2.42  62 2.49  63 2.58  58 2.82  30 3.10  31 3.11
                            26 3.16   3 3.42
  15  0.826  0.667  0.544-  80 2.26  79 2.33  68 2.43  64 2.57  63 2.60  59 2.62  27 3.10  32 3.17
                            31 3.28  10 3.37
  16  0.833  0.920  0.540-  65 2.27  80 2.32  77 2.41  64 2.56  61 2.59  60 2.60  29 3.09  28 3.10
                            32 3.20  11 3.42
  17  0.169  0.078  0.453-  69 2.36  65 2.43  37 2.45  70 2.52  36 2.67  33 2.68   4 3.18   5 3.25
                             1 3.32  21 3.41
  18  0.173  0.335  0.455-  71 2.26  66 2.39  70 2.40  38 2.48  34 2.60  33 2.66   1 3.12   2 3.16
                             6 3.18  23 3.37  22 3.42
  19  0.169  0.584  0.456-  71 2.27  72 2.31  67 2.33  35 2.54  39 2.56  34 2.61   2 3.20   7 3.21
                             3 3.24  20 3.32  24 3.36  30 3.42
  20  0.165  0.824  0.456-  72 2.19  68 2.31  69 2.37  36 2.49  40 2.59  35 2.61   3 3.08   8 3.19
                             4 3.31  19 3.32  24 3.39
  21  0.418  0.081  0.456-  73 2.25  69 2.30  74 2.45  37 2.51  41 2.55  40 2.76   8 3.08   5 3.12
                             9 3.27  25 3.33  22 3.41  17 3.41
  22  0.417  0.327  0.456-  74 2.27  70 2.29  75 2.36  37 2.61  42 2.63  38 2.73   5 3.10  10 3.20
                             6 3.24  26 3.39  21 3.41  18 3.42
  23  0.415  0.581  0.457-  76 2.30  75 2.31  71 2.32  39 2.62  43 2.63  38 2.67   6 3.09  11 3.16
                             7 3.26  18 3.37  28 3.42  24 3.42
  24  0.412  0.827  0.453-  72 2.34  76 2.36  40 2.46  73 2.47  39 2.49  44 2.55   7 3.17  12 3.20
                             8 3.22  19 3.36  20 3.39  23 3.42  28 3.42  25 3.43
  25  0.658  0.078  0.456-  77 2.19  73 2.29  78 2.35  41 2.50  44 2.55  45 2.59  12 3.06  13 3.19
                             9 3.19  21 3.33  24 3.43
  26  0.670  0.340  0.455-  79 2.30  74 2.40  78 2.40  42 2.56  41 2.60  46 2.64  14 3.16   9 3.23
                            10 3.23  31 3.32  27 3.36  22 3.39
  27  0.668  0.583  0.456-  75 2.27  80 2.34  79 2.39  47 2.56  42 2.59  43 2.59  15 3.10  10 3.17
                            11 3.29  26 3.36  31 3.40  32 3.43
  28  0.662  0.830  0.456-  80 2.36  76 2.38  77 2.42  48 2.55  43 2.57  44 2.67  11 3.09  16 3.10
                            12 3.17  23 3.42  24 3.42
  29  0.922  0.087  0.455-  65 2.29  66 2.31  77 2.41  45 2.49  33 2.54  48 2.62  16 3.09  13 3.21
                             1 3.24  30 3.40
  30  0.923  0.334  0.459-  66 2.26  78 2.35  67 2.36  34 2.64  46 2.67  45 2.70  13 3.08  14 3.10
                             2 3.12  29 3.40  19 3.42
  31  0.912  0.579  0.453-  67 2.28  79 2.32  68 2.37  35 2.55  47 2.57  46 2.64  14 3.11  15 3.28
                             3 3.31  26 3.32  32 3.39  27 3.40
  32  0.919  0.828  0.454-  68 2.22  65 2.37  80 2.42  47 2.51  36 2.58  48 2.67  15 3.17  16 3.20
                             4 3.26  31 3.39  27 3.43
  33  0.079  0.165  0.394-  29 2.54  18 2.66  17 2.68
  34  0.088  0.417  0.396-  18 2.60  19 2.61  30 2.64
  35  0.080  0.656  0.396-  19 2.54  31 2.55  20 2.61
  36  0.086  0.898  0.396-  20 2.49  32 2.58  17 2.67
  37  0.331  0.155  0.398-  17 2.45  21 2.51  22 2.61
  38  0.325  0.412  0.394-  18 2.48  23 2.67  22 2.73
  39  0.332  0.665  0.397-  24 2.49  19 2.56  23 2.62
  40  0.329  0.898  0.395-  24 2.46  20 2.59  21 2.76
  41  0.586  0.167  0.399-  25 2.50  21 2.55  26 2.60
  42  0.586  0.418  0.395-  26 2.56  27 2.59  22 2.63
  43  0.584  0.665  0.396-  28 2.57  27 2.59  23 2.63
  44  0.577  0.919  0.395-  25 2.55  24 2.55  28 2.67
  45  0.829  0.156  0.399-  29 2.49  25 2.59  30 2.70
  46  0.835  0.408  0.393-  31 2.64  26 2.64  30 2.67
  47  0.830  0.667  0.396-  32 2.51  27 2.56  31 2.57
  48  0.825  0.915  0.397-  28 2.55  29 2.62  32 2.67
  49  0.154  0.078  0.608-   4 2.51   1 2.60   5 2.87
  50  0.177  0.342  0.604-   2 2.51   6 2.53   1 2.56
  51  0.158  0.577  0.606-   2 2.60   3 2.64   7 2.69
  52  0.157  0.836  0.606-   4 2.54   3 2.57   8 2.78
  53  0.423  0.095  0.608-   5 2.55   9 2.62   8 2.73
  54  0.411  0.327  0.599-   5 2.47   6 2.52  10 2.53
  55  0.420  0.593  0.604-  11 2.52   7 2.54   6 2.62
  56  0.420  0.846  0.607-   8 2.59  12 2.62   7 2.63
  57  0.671  0.076  0.604-  12 2.52  13 2.55   9 2.65
  58  0.664  0.322  0.609-   9 2.48  10 2.79  14 2.82
  59  0.664  0.581  0.607-  10 2.55  15 2.62  11 2.74
  60  0.673  0.845  0.604-  11 2.59  16 2.60  12 2.62
  61  0.909  0.083  0.601-  13 2.52  16 2.59   1 2.69
  62  0.920  0.346  0.601-  14 2.49   2 2.58  13 2.66
  63  0.913  0.586  0.603-  14 2.58   3 2.59  15 2.60
  64  0.909  0.836  0.601-  16 2.56  15 2.57   4 2.59
  65  0.996  0.998  0.498-  16 2.27  29 2.29   4 2.37  32 2.37  17 2.43   1 2.52
  66  0.002  0.250  0.500-  30 2.26  29 2.31   2 2.33   1 2.33  13 2.38  18 2.39
  67  1.000  0.508  0.498-  14 2.26  31 2.28  19 2.33  30 2.36   3 2.39   2 2.56
  68  0.997  0.749  0.496-  32 2.22  20 2.31  31 2.37   3 2.39  15 2.43   4 2.51
  69  0.254  0.996  0.499-   8 2.26  21 2.30  17 2.36  20 2.37   5 2.39   4 2.41
  70  0.260  0.254  0.503-  22 2.29   5 2.31   1 2.32   6 2.33  18 2.40  17 2.52
  71  0.245  0.497  0.497-  18 2.26  19 2.27   2 2.27  23 2.32   6 2.40   7 2.54
  72  0.247  0.750  0.498-  20 2.19  19 2.31  24 2.34   3 2.35   7 2.37   8 2.40
  73  0.497  0.002  0.500-   8 2.24  21 2.25  25 2.29  12 2.32   9 2.43  24 2.47
  74  0.501  0.254  0.502-   5 2.23  22 2.27  10 2.35   9 2.38  26 2.40  21 2.45
  75  0.504  0.499  0.497-  27 2.27  23 2.31  10 2.32  22 2.36   6 2.39  11 2.50
  76  0.493  0.744  0.501-  11 2.23   7 2.28  23 2.30  24 2.36  28 2.38  12 2.40
  77  0.746  0.009  0.496-  25 2.19  13 2.31  12 2.36  29 2.41  16 2.41  28 2.42
  78  0.750  0.247  0.499-  13 2.28   9 2.32  25 2.35  30 2.35  26 2.40  14 2.42
  79  0.755  0.500  0.501-  14 2.24  26 2.30  31 2.32  15 2.33  27 2.39  10 2.41
  80  0.748  0.749  0.500-  15 2.26  16 2.32  27 2.34  28 2.36  11 2.36  32 2.42
 
  LATTYP: Found a hexagonal cell.
 ALAT       =    13.7939866762
 C/A-ratio  =     2.0161119278
  
  Lattice vectors:
  
 A1 = (  13.7939866800,   0.0000000000,   0.0000000000)
 A2 = (  -6.8969933400,  11.9459428800,   0.0000000000)
 A3 = (   0.0000000000,   0.0000000000,  27.8102210700)


Analysis of symmetry for initial positions (statically):
=====================================================================
 Subroutine PRICEL returns:
 Original cell was already a primitive cell.
 

 Routine SETGRP: Setting up the symmetry group for a 
 hexagonal supercell.


 Subroutine GETGRP returns: Found  1 space group operations
 (whereof  1 operations were pure point group operations)
 out of a pool of 24 trial point group operations.


The static configuration has the point symmetry C_1 .


Analysis of symmetry for dynamics (positions and initial velocities):
=====================================================================
 Subroutine PRICEL returns:
 Original cell was already a primitive cell.
 

 Routine SETGRP: Setting up the symmetry group for a 
 hexagonal supercell.


 Subroutine GETGRP returns: Found  1 space group operations
 (whereof  1 operations were pure point group operations)
 out of a pool of 24 trial point group operations.


The dynamic configuration has the point symmetry C_1 .


 Subroutine INISYM returns: Found  1 space group operations
 (whereof  1 operations are pure point group operations),
 and found     1 'primitive' translations

 
 

Automatic generation of k-mesh.
 generate k-points for:    3    3    1
Space group operators:
 irot       det(A)        alpha          n_x          n_y          n_z        tau_x        tau_y        tau_z
    1     1.000000     0.000000     1.000000     0.000000     0.000000     0.000000     0.000000     0.000000
 
 Subroutine IBZKPT returns following result:
 ===========================================
 
 Found      5 irreducible k-points:
 
 Following reciprocal coordinates:
            Coordinates               Weight
  0.000000  0.000000  0.000000      1.000000
  0.333333 -0.000000  0.000000      2.000000
  0.000000  0.333333  0.000000      2.000000
  0.333333  0.333333  0.000000      2.000000
 -0.333333  0.333333  0.000000      2.000000
 
 Following cartesian coordinates:
            Coordinates               Weight
  0.000000  0.000000  0.000000      1.000000
  0.024165  0.013952  0.000000      2.000000
  0.000000  0.027903  0.000000      2.000000
  0.024165  0.041855  0.000000      2.000000
 -0.024165  0.013952  0.000000      2.000000
 


--------------------------------------------------------------------------------------------------------




 Dimension of arrays:
   k-points           NKPTS =      5   k-points in BZ     NKDIM =      5   number of bands    NBANDS=    384
   number of dos      NEDOS =    301   number of ions     NIONS =     80
   non local maximal  LDIM  =      6   non local SUM 2l+1 LMDIM =     18
   total plane-waves  NPLWV = ******
   max r-space proj   IRMAX =   9806   max aug-charges    IRDMAX= 216835
   dimension x,y,z NGX =   112 NGY =  112 NGZ =  224
   dimension x,y,z NGXF=   224 NGYF=  224 NGZF=  448
   support grid    NGXF=   448 NGYF=  448 NGZF=  896
   ions per type =              32  32  16
   NGX,Y,Z   is equivalent  to a cutoff of  13.50, 13.50, 13.39 a.u.
   NGXF,Y,Z  is equivalent  to a cutoff of  27.00, 27.00, 26.78 a.u.

 SYSTEM =  unknown system                          
 POSCAR =  Sc Cl  C                                

 Startparameter for this run:
   NWRITE =      2    write-flag & timer
   PREC   = anorma    normal or accurate (medium, high low for compatibility)
   ISTART =      0    job   : 0-new  1-cont  2-samecut
   ICHARG =      2    charge: 1-file 2-atom 10-const
   ISPIN  =      1    spin polarized calculation?
   LNONCOLLINEAR =      F non collinear calculations
   LSORBIT =      F    spin-orbit coupling
   INIWAV =      1    electr: 0-lowe 1-rand  2-diag
   LASPH  =      F    aspherical Exc in radial PAW
   METAGGA=      F    non-selfconsistent MetaGGA calc.

 Electronic Relaxation 1
   ENCUT  =  600.0 eV  44.10 Ry    6.64 a.u.  27.55 27.55 55.54*2*pi/ulx,y,z
   ENINI  =  600.0     initial cutoff
   ENAUG  =  644.9 eV  augmentation charge cutoff
   NELM   =     60;   NELMIN=  2; NELMDL= -5     # of ELM steps 
   EDIFF  = 0.1E-05   stopping-criterion for ELM
   LREAL  =      T    real-space projection
   NLSPLINE    = F    spline interpolate recip. space projectors
   LCOMPAT=      F    compatible to vasp.4.4
   GGA_COMPAT  = T    GGA compatible to vasp.4.4-vasp.4.6
   LMAXPAW     = -100 max onsite density
   LMAXMIX     =    2 max onsite mixed and CHGCAR
   VOSKOWN=      0    Vosko Wilk Nusair interpolation
   ROPT   =   -0.00025  -0.00025  -0.00025
 Ionic relaxation
   EDIFFG = -.1E-01   stopping-criterion for IOM
   NSW    =      1    number of steps for IOM
   NBLOCK =      1;   KBLOCK =      1    inner block; outer block 
   IBRION =     -1    ionic relax: 0-MD 1-quasi-New 2-CG
   NFREE  =      0    steps in history (QN), initial steepest desc. (CG)
   ISIF   =      2    stress and relaxation
   IWAVPR =     10    prediction:  0-non 1-charg 2-wave 3-comb
   ISYM   =      2    0-nonsym 1-usesym 2-fastsym
   LCORR  =      T    Harris-Foulkes like correction to forces

   POTIM  = 1.0000    time-step for ionic-motion
   TEIN   =    0.0    initial temperature
   TEBEG  =    0.0;   TEEND  =   0.0 temperature during run
   SMASS  =  -3.00    Nose mass-parameter (am)
   estimated Nose-frequenzy (Omega)   =  0.10E-29 period in steps =****** mass=  -0.435E-26a.u.
   SCALEE = 1.0000    scale energy and forces
   NPACO  =    256;   APACO  = 16.0  distance and # of slots for P.C.
   PSTRESS=    0.0 pullay stress

  Mass of Ions in am
   POMASS =  44.96 35.45 12.01
  Ionic Valenz
   ZVAL   =  11.00  7.00  4.00
  Atomic Wigner-Seitz radii
   RWIGS  =  -1.00 -1.00 -1.00
  virtual crystal weights 
   VCA    =   1.00  1.00  1.00
   NELECT =     640.0000    total number of electrons
   NUPDOWN=      -1.0000    fix difference up-down

 DOS related values:
   EMIN   =  10.00;   EMAX   =-10.00  energy-range for DOS
   EFERMI =   0.00
   ISMEAR =     0;   SIGMA  =   0.05  broadening in eV -4-tet -1-fermi 0-gaus

 Electronic relaxation 2 (details)
   IALGO  =     38    algorithm
   LDIAG  =      T    sub-space diagonalisation (order eigenvalues)
   LSUBROT=      F    optimize rotation matrix (better conditioning)
   TURBO    =      0    0=normal 1=particle mesh
   IRESTART =      0    0=no restart 2=restart with 2 vectors
   NREBOOT  =      0    no. of reboots
   NMIN     =      0    reboot dimension
   EREF     =   0.00    reference energy to select bands
   IMIX   =      4    mixing-type and parameters
     AMIX     =   0.40;   BMIX     =  1.00
     AMIX_MAG =   1.60;   BMIX_MAG =  1.00
     AMIN     =   0.10
     WC   =   100.;   INIMIX=   1;  MIXPRE=   1;  MAXMIX= -45

 Intra band minimization:
   WEIMIN = 0.0000     energy-eigenvalue tresh-hold
   EBREAK =  0.65E-09  absolut break condition
   DEPER  =   0.30     relativ break condition  

   TIME   =   0.40     timestep for ELM

  volume/ion in A,a.u.               =      57.28       386.56
  Fermi-wavevector in a.u.,A,eV,Ry     =   0.849369  1.605075  9.815628  0.721428
  Thomas-Fermi vector in A             =   1.965179
 
 Write flags
   LWAVE        =      F    write WAVECAR
   LDOWNSAMPLE  =      F    k-point downsampling of WAVECAR
   LCHARG       =      F    write CHGCAR
   LVTOT        =      F    write LOCPOT, total local potential
   LVHAR        =      F    write LOCPOT, Hartree potential only
   LELF         =      F    write electronic localiz. function (ELF)
   LORBIT       =      0    0 simple, 1 ext, 2 COOP (PROOUT), +10 PAW based schemes


 Dipole corrections
   LMONO  =      F    monopole corrections only (constant potential shift)
   LDIPOL =      F    correct potential (dipole corrections)
   IDIPOL =      0    1-x, 2-y, 3-z, 4-all directions 
   EPSILON=  1.0000000 bulk dielectric constant

 Exchange correlation treatment:
   GGA     =    --    GGA type
   LEXCH   =     8    internal setting for exchange type
   VOSKOWN=      0    Vosko Wilk Nusair interpolation
   LHFCALC =     F    Hartree Fock is set to
   LHFONE  =     F    Hartree Fock one center treatment
   AEXX    =    0.0000 exact exchange contribution

 Linear response parameters
   LEPSILON=     F    determine dielectric tensor
   LRPA    =     F    only Hartree local field effects (RPA)
   LNABLA  =     F    use nabla operator in PAW spheres
   LVEL    =     F    velocity operator in full k-point grid
   LINTERFAST=   F  fast interpolation
   KINTER  =     0    interpolate to denser k-point grid
   CSHIFT  =0.1000    complex shift for real part using Kramers Kronig
   OMEGAMAX=  -1.0    maximum frequency
   DEG_THRESHOLD= 0.2000000E-02 threshold for treating states as degnerate
   RTIME   =   -0.100 relaxation time in fs
  (WPLASMAI=    0.000 imaginary part of plasma frequency in eV, 0.658/RTIME)
   DFIELD  = 0.0000000 0.0000000 0.0000000 field for delta impulse in time
 
 Orbital magnetization related:
   ORBITALMAG=     F  switch on orbital magnetization
   LCHIMAG   =     F  perturbation theory with respect to B field
   DQ        =  0.001000  dq finite difference perturbation B field
   LLRAUG    =     F  two centre corrections for induced B field



--------------------------------------------------------------------------------------------------------


 Static calculation
 charge density and potential will be updated during run
 non-spin polarized calculation
 Variant of blocked Davidson
 Davidson routine will perform the subspace rotation
 perform sub-space diagonalisation
    after iterative eigenvector-optimisation
 modified Broyden-mixing scheme, WC =      100.0
 initial mixing is a Kerker type mixing with AMIX =  0.4000 and BMIX =      1.0000
 Hartree-type preconditioning will be used
 using additional bands           64
 real space projection scheme for non local part
 use partial core corrections
 calculate Harris-corrections to forces 
   (improved forces if not selfconsistent)
 use gradient corrections 
 use of overlap-Matrix (Vanderbilt PP)
 Gauss-broadening in eV      SIGMA  =   0.05


--------------------------------------------------------------------------------------------------------


  energy-cutoff  :      600.00
  volume of cell :     4582.63
      direct lattice vectors                 reciprocal lattice vectors
    13.793986680  0.000000000  0.000000000     0.072495358  0.041855214  0.000000000
    -6.896993340 11.945942880  0.000000000     0.000000000  0.083710429  0.000000000
     0.000000000  0.000000000 27.810221070     0.000000000  0.000000000  0.035958003

  length of vectors
    13.793986680 13.793986676 27.810221070     0.083710429  0.083710429  0.035958003


 
 k-points in units of 2pi/SCALE and weight: read from INCAR                         
   0.00000000  0.00000000  0.00000000       0.111
   0.02416512  0.01395174  0.00000000       0.222
   0.00000000  0.02790348  0.00000000       0.222
   0.02416512  0.04185521  0.00000000       0.222
  -0.02416512  0.01395174  0.00000000       0.222
 
 k-points in reciprocal lattice and weights: read from INCAR                         
   0.00000000  0.00000000  0.00000000       0.111
   0.33333333 -0.00000000  0.00000000       0.222
   0.00000000  0.33333333  0.00000000       0.222
   0.33333333  0.33333333  0.00000000       0.222
  -0.33333333  0.33333333  0.00000000       0.222
 
 position of ions in fractional coordinates (direct lattice) 
   0.09311045  0.17726078  0.54517996
   0.09033346  0.41392630  0.54493455
   0.08442355  0.67357245  0.54600128
   0.08530742  0.92419851  0.54624967
   0.34170422  0.16644904  0.54344170
   0.33788164  0.42210655  0.54514902
   0.33503708  0.67518059  0.54695071
   0.33811007  0.92226655  0.54316895
   0.59063887  0.17350796  0.54684271
   0.58271178  0.42173487  0.54641021
   0.58128164  0.67615324  0.54522551
   0.58081626  0.91996807  0.54283066
   0.83106214  0.16814253  0.54334171
   0.84000313  0.42303908  0.54207438
   0.82620873  0.66703071  0.54404932
   0.83270175  0.92040690  0.53965296
   0.16946680  0.07751565  0.45284584
   0.17325946  0.33451641  0.45543649
   0.16853704  0.58429893  0.45630969
   0.16531052  0.82357457  0.45613788
   0.41798378  0.08051683  0.45572349
   0.41737786  0.32714924  0.45615633
   0.41529335  0.58052710  0.45713690
   0.41244430  0.82685597  0.45337498
   0.65801603  0.07806306  0.45610307
   0.66961328  0.34013516  0.45536988
   0.66764786  0.58258060  0.45579698
   0.66171973  0.82962551  0.45560912
   0.92227175  0.08725287  0.45488377
   0.92291123  0.33377859  0.45863105
   0.91232980  0.57897363  0.45268155
   0.91885465  0.82826976  0.45373281
   0.07949095  0.16468953  0.39358491
   0.08840026  0.41747068  0.39581240
   0.08027994  0.65568252  0.39620185
   0.08638765  0.89832604  0.39581399
   0.33074224  0.15528753  0.39815500
   0.32454610  0.41189405  0.39432395
   0.33179581  0.66526103  0.39679565
   0.32884638  0.89794540  0.39489583
   0.58554643  0.16663427  0.39870304
   0.58552736  0.41810943  0.39528999
   0.58362285  0.66491484  0.39602241
   0.57709941  0.91876951  0.39533816
   0.82924858  0.15570114  0.39886364
   0.83493142  0.40819351  0.39257011
   0.83005566  0.66686951  0.39592201
   0.82526114  0.91468360  0.39685146
   0.15416735  0.07789392  0.60777804
   0.17666243  0.34230580  0.60414486
   0.15757806  0.57666968  0.60644507
   0.15718322  0.83605829  0.60627884
   0.42322591  0.09494871  0.60757298
   0.41116468  0.32683325  0.59931704
   0.42046109  0.59347535  0.60365955
   0.41982326  0.84557178  0.60660362
   0.67096994  0.07617382  0.60365645
   0.66435456  0.32167480  0.60947390
   0.66363327  0.58078749  0.60743367
   0.67344826  0.84543435  0.60354840
   0.90928364  0.08347451  0.60097483
   0.91950604  0.34564960  0.60110264
   0.91336727  0.58558467  0.60328604
   0.90948078  0.83647084  0.60078158
   0.99570403  0.99769018  0.49792358
   0.00213676  0.25020995  0.49977381
   0.99954011  0.50765832  0.49825016
   0.99662516  0.74886740  0.49648940
   0.25360228  0.99563676  0.49874858
   0.25993506  0.25359337  0.50284854
   0.24511932  0.49669624  0.49736111
   0.24688743  0.75033857  0.49847594
   0.49656456  0.00221429  0.50022347
   0.50141788  0.25427609  0.50241617
   0.50384141  0.49948561  0.49736082
   0.49290930  0.74373315  0.50123330
   0.74594836  0.00874454  0.49643671
   0.74985327  0.24722862  0.49913531
   0.75470869  0.49982938  0.50130431
   0.74824229  0.74863171  0.50037016
 
 position of ions in cartesian coordinates  (Angst):
   0.06179796  2.11754710 15.16157508
  -1.60878839  4.94473990 15.15475025
  -3.48108742  8.04645800 15.18441627
  -5.19746154 11.04042260 15.19132416
   3.56546554  1.98839078 15.11323371
   1.74946878  5.04246079 15.16071474
  -0.03521898  8.06566873 15.21082025
  -1.69698048 11.01734351 15.10564862
   6.95058137  2.07271623 15.20781652
   5.12921586  5.03802071 15.19578861
   3.35476686  8.07728799 15.16284184
   1.66675810 10.98988607 15.09624079
  10.30398217  2.00862104 15.11045319
   8.66929428  5.05360069 15.07520837
   6.79620580  7.96831076 15.13013185
   5.13823665 10.99512825 15.00786804
   1.80299792  0.92599751 12.59374301
   0.08278118  3.99611395 12.66578946
  -1.70510816  6.98000159 12.69007334
  -3.39989717  9.83837479 12.68529536
   5.21033862  0.96184946 12.67377103
   3.50095851  3.90810610 12.68580841
   1.72465941  6.93494358 12.71307816
  -0.01356895  9.87757414 12.60845846
   8.53826386  0.93253691 12.68432709
   6.89072670  4.06323517 12.66393711
   5.19147112  6.95947463 12.67581479
   3.40583155  9.91065897 12.67059022
  12.12002174  1.04231778 12.65041814
  10.42855648  3.98729996 12.75463100
   8.59148789  6.91638590 12.58917396
   6.96209785  9.89446320 12.61840968
  -0.03936557  1.96737175 10.94568348
  -1.65990056  4.98708094 11.00763040
  -3.41485751  7.83274595 11.01846116
  -5.00411857 10.73135152 11.00767463
   3.49123698  1.85505597 11.07277864
   1.63595405  4.92046276 10.96623624
  -0.01151393  7.94717029 11.03497466
  -1.65702081 10.72680448 10.98214047
   6.92774428  1.99060342 11.08801978
   5.19305868  4.99471138 10.99310200
   3.46457265  7.94303467 11.01347086
   1.62375443 10.97556807 10.99444150
  10.36477414  1.85999688 11.09248601
   8.70172495  4.87625637 10.91746156
   6.85038223  7.96638503 11.01067873
   5.07507455 10.92675798 11.03652673
   1.58934850  0.93051628 16.90244177
   0.07599842  4.08916558 16.80140204
  -1.80365728  6.88886304 16.86537149
  -3.59810522  9.98750460 16.86074850
   5.18311196  1.13425185 16.89673898
   3.41743334  3.90433129 16.66713940
   1.70663912  7.08962264 16.78790555
  -0.04086641 10.10115213 16.86978085
   8.72998010  0.90996811 16.78781939
   6.94550904  3.84270873 16.94960379
   5.14846109  6.93805415 16.89286455
   3.45858130 10.09951040 16.78481448
  11.96692321  0.99718176 16.71324278
  10.29971103  4.12911038 16.71679730
   8.56020237  6.99536096 16.77751815
   6.77623195  9.99243288 16.70786844
   6.85366559 11.91834991 13.84736476
  -1.69622202  2.98899383 13.89882018
  10.28632692  6.06445735 13.85644699
   8.58250063  8.94592723 13.80748001
  -3.36871363 11.89381981 13.87030821
   1.83650896  3.02941188 13.98432912
  -0.04453805  5.93350497 13.83172234
  -1.76951814  8.96350171 13.86272619
   6.83433301  0.02645173 13.91132523
   5.16281109  3.03756767 13.97230483
   3.50503276  5.96682655 13.83171436
   1.66966175  8.88459377 13.93940890
  10.22929067  0.10446179 13.80601458
   8.63833187  2.95337896 13.88106331
   6.96312177  5.97093318 13.94138361
   5.15793628  8.94311166 13.91540488
 


--------------------------------------------------------------------------------------------------------


 k-point  1 :   0.0000 0.0000 0.0000  plane waves:  153003
 k-point  2 :   0.3333-0.0000 0.0000  plane waves:  152954
 k-point  3 :   0.0000 0.3333 0.0000  plane waves:  152954
 k-point  4 :   0.3333 0.3333 0.0000  plane waves:  152898
 k-point  5 :  -0.3333 0.3333 0.0000  plane waves:  152954

 maximum and minimum number of plane-waves per node :     11814    11730

 maximum number of plane-waves:    153003
 maximum index in each direction: 
   IXMAX=   27   IYMAX=   27   IZMAX=   55
   IXMIN=  -27   IYMIN=  -27   IZMIN=  -55


 real space projection operators:
  total allocation   :      55018.55 KBytes
  max/ min on nodes  :       4441.66       3895.94


 parallel 3D FFT for wavefunctions:
    minimum data exchange during FFTs selected (reduces bandwidth)
 parallel 3D FFT for charge:
    minimum data exchange during FFTs selected (reduces bandwidth)


 total amount of memory used by VASP MPI-rank0   253907. kBytes
=======================================================================

   base      :      30000. kBytes
   nonlr-proj:      18723. kBytes
   fftplans  :      72602. kBytes
   grid      :      41267. kBytes
   one-center:        108. kBytes
   wavefun   :      91207. kBytes
 
     INWAV:  cpu time    0.0000: real time    0.0000
 Broyden mixing: mesh for mixing (old mesh)
   NGX = 55   NGY = 55   NGZ =111
  (NGX  =224   NGY  =224   NGZ  =448)
  gives a total of 335775 points

 initial charge density was supplied:
 charge density of overlapping atoms calculated
 number of electron     640.0000000 magnetization 
 keeping initial charge density in first step


--------------------------------------------------------------------------------------------------------


 Maximum index for non-local projection operator          944
 Maximum index for augmentation-charges         4943 (set IRDMAX)


--------------------------------------------------------------------------------------------------------


 First call to EWALD:  gamma=   0.107
 Maximum number of real-space cells 4x 4x 2
 Maximum number of reciprocal cells 2x 2x 4

    FEWALD:  cpu time    0.0029: real time    0.0029


--------------------------------------- Iteration      1(   1)  ---------------------------------------


    POTLOK:  cpu time    1.1333: real time    1.1424
    SETDIJ:  cpu time    1.2183: real time    1.2183
     EDDAV:  cpu time  143.3375: real time  143.3430
       DOS:  cpu time    0.0013: real time    0.0013
    --------------------------------------------
      LOOP:  cpu time  145.6904: real time  145.7050

 eigenvalue-minimisations  :  4416
 total energy-change (2. order) : 0.1221304E+05  (-0.2679330E+05)
 number of electron     640.0000000 magnetization 
 augmentation part      640.0000000 magnetization 

 Free energy of the ion-electron system (eV)
  ---------------------------------------------------
  alpha Z        PSCENC =       784.57699423
  Ewald energy   TEWEN  =    253802.19117093
  -Hartree energ DENC   =   -301446.33518761
  -exchange      EXHF   =         0.00000000
  -V(xc)+E(xc)   XCENC  =      2503.89952240
  PAW double counting   =     43679.68029659   -43417.33247688
  entropy T*S    EENTRO =        -0.05916540
  eigenvalues    EBANDS =        95.69578558
  atomic energy  EATOM  =     56210.72393729
  Solvation  Ediel_sol  =         0.00000000
  ---------------------------------------------------
  free energy    TOTEN  =     12213.04087712 eV

  energy without entropy =    12213.10004253  energy(sigma->0) =    12213.07045983


--------------------------------------------------------------------------------------------------------




--------------------------------------- Iteration      1(   2)  ---------------------------------------


     EDDAV:  cpu time  165.6957: real time  165.7098
       DOS:  cpu time    0.0018: real time    0.0017
    --------------------------------------------
      LOOP:  cpu time  165.6974: real time  165.7115

 eigenvalue-minimisations  :  5232
 total energy-change (2. order) :-0.1048515E+05  (-0.1021938E+05)
 number of electron     640.0000000 magnetization 
 augmentation part      640.0000000 magnetization 

 Free energy of the ion-electron system (eV)
  ---------------------------------------------------
  alpha Z        PSCENC =       784.57699423
  Ewald energy   TEWEN  =    253802.19117093
  -Hartree energ DENC   =   -301446.33518761
  -exchange      EXHF   =         0.00000000
  -V(xc)+E(xc)   XCENC  =      2503.89952240
  PAW double counting   =     43679.68029659   -43417.33247688
  entropy T*S    EENTRO =        -0.03934929
  eigenvalues    EBANDS =    -10389.47346045
  atomic energy  EATOM  =     56210.72393729
  Solvation  Ediel_sol  =         0.00000000
  ---------------------------------------------------
  free energy    TOTEN  =      1727.89144722 eV

  energy without entropy =     1727.93079650  energy(sigma->0) =     1727.91112186


--------------------------------------------------------------------------------------------------------




--------------------------------------- Iteration      1(   3)  ---------------------------------------


     EDDAV:  cpu time  205.8974: real time  205.9077
       DOS:  cpu time    0.0016: real time    0.0016
    --------------------------------------------
      LOOP:  cpu time  205.8990: real time  205.9094

 eigenvalue-minimisations  :  6800
 total energy-change (2. order) :-0.2140380E+04  (-0.2053928E+04)
 number of electron     640.0000000 magnetization 
 augmentation part      640.0000000 magnetization 

 Free energy of the ion-electron system (eV)
  ---------------------------------------------------
  alpha Z        PSCENC =       784.57699423
  Ewald energy   TEWEN  =    253802.19117093
  -Hartree energ DENC   =   -301446.33518761
  -exchange      EXHF   =         0.00000000
  -V(xc)+E(xc)   XCENC  =      2503.89952240
  PAW double counting   =     43679.68029659   -43417.33247688
  entropy T*S    EENTRO =        -0.00039572
  eigenvalues    EBANDS =    -12529.89217762
  atomic energy  EATOM  =     56210.72393729
  Solvation  Ediel_sol  =         0.00000000
  ---------------------------------------------------
  free energy    TOTEN  =      -412.48831639 eV

  energy without entropy =     -412.48792067  energy(sigma->0) =     -412.48811853


--------------------------------------------------------------------------------------------------------




--------------------------------------- Iteration      1(   4)  ---------------------------------------


     EDDAV:  cpu time  187.5632: real time  187.5777
       DOS:  cpu time    0.0010: real time    0.0010
    --------------------------------------------
      LOOP:  cpu time  187.5642: real time  187.5787

 eigenvalue-minimisations  :  6088
 total energy-change (2. order) :-0.2333542E+03  (-0.2288970E+03)
 number of electron     640.0000000 magnetization 
 augmentation part      640.0000000 magnetization 

 Free energy of the ion-electron system (eV)
  ---------------------------------------------------
  alpha Z        PSCENC =       784.57699423
  Ewald energy   TEWEN  =    253802.19117093
  -Hartree energ DENC   =   -301446.33518761
  -exchange      EXHF   =         0.00000000
  -V(xc)+E(xc)   XCENC  =      2503.89952240
  PAW double counting   =     43679.68029659   -43417.33247688
  entropy T*S    EENTRO =        -0.00000000
  eigenvalues    EBANDS =    -12763.24680957
  atomic energy  EATOM  =     56210.72393729
  Solvation  Ediel_sol  =         0.00000000
  ---------------------------------------------------
  free energy    TOTEN  =      -645.84255262 eV

  energy without entropy =     -645.84255262  energy(sigma->0) =     -645.84255262


--------------------------------------------------------------------------------------------------------




--------------------------------------- Iteration      1(   5)  ---------------------------------------


     EDDAV:  cpu time  187.1474: real time  187.1902
       DOS:  cpu time    0.0011: real time    0.0011
    CHARGE:  cpu time   13.0460: real time   13.0460
    MIXING:  cpu time    0.1894: real time    0.1894
    --------------------------------------------
      LOOP:  cpu time  200.3839: real time  200.4268

 eigenvalue-minimisations  :  6072
 total energy-change (2. order) :-0.1013791E+02  (-0.1008821E+02)
 number of electron     640.0000003 magnetization 
 augmentation part       59.2588108 magnetization 

 Broyden mixing:
  rms(total) = 0.69472E+01    rms(broyden)= 0.69470E+01
  rms(prec ) = 0.73107E+01
  weight for this iteration     100.00

 Free energy of the ion-electron system (eV)
  ---------------------------------------------------
  alpha Z        PSCENC =       784.57699423
  Ewald energy   TEWEN  =    253802.19117093
  -Hartree energ DENC   =   -301446.33518761
  -exchange      EXHF   =         0.00000000
  -V(xc)+E(xc)   XCENC  =      2503.89952240
  PAW double counting   =     43679.68029659   -43417.33247688
  entropy T*S    EENTRO =        -0.00000000
  eigenvalues    EBANDS =    -12773.38471774
  atomic energy  EATOM  =     56210.72393729
  Solvation  Ediel_sol  =         0.00000000
  ---------------------------------------------------
  free energy    TOTEN  =      -655.98046080 eV

  energy without entropy =     -655.98046080  energy(sigma->0) =     -655.98046080


--------------------------------------------------------------------------------------------------------




--------------------------------------- Iteration      1(   6)  ---------------------------------------


    POTLOK:  cpu time    1.1074: real time    1.1192
    SETDIJ:  cpu time    1.1293: real time    1.1293
     EDDAV:  cpu time  180.5302: real time  180.5341
       DOS:  cpu time    0.0013: real time    0.0013
    CHARGE:  cpu time   13.1606: real time   13.1607
    MIXING:  cpu time    0.1951: real time    0.1951
    --------------------------------------------
      LOOP:  cpu time  196.1240: real time  196.1397

 eigenvalue-minimisations  :  5832
 total energy-change (2. order) : 0.1306800E+03  (-0.6927997E+02)
 number of electron     640.0000004 magnetization 
 augmentation part       70.0606728 magnetization 

 Broyden mixing:
  rms(total) = 0.30239E+01    rms(broyden)= 0.30237E+01
  rms(prec ) = 0.30559E+01
  weight for this iteration     100.00

 eigenvalues of (default mixing * dielectric matrix)
  average eigenvalue GAMMA=   0.9558
  0.9558

 Free energy of the ion-electron system (eV)
  ---------------------------------------------------
  alpha Z        PSCENC =       784.57699423
  Ewald energy   TEWEN  =    253802.19117093
  -Hartree energ DENC   =   -301266.62239570
  -exchange      EXHF   =         0.00000000
  -V(xc)+E(xc)   XCENC  =      2493.37219656
  PAW double counting   =     49255.60820791   -49047.87043469
  entropy T*S    EENTRO =        -0.00000000
  eigenvalues    EBANDS =    -12757.28012537
  atomic energy  EATOM  =     56210.72393729
  Solvation  Ediel_sol  =         0.00000000
  ---------------------------------------------------
  free energy    TOTEN  =      -525.30044885 eV

  energy without entropy =     -525.30044884  energy(sigma->0) =     -525.30044884


--------------------------------------------------------------------------------------------------------




--------------------------------------- Iteration      1(   7)  ---------------------------------------


    POTLOK:  cpu time    1.1076: real time    1.1160
    SETDIJ:  cpu time    1.1285: real time    1.1285
     EDDAV:  cpu time  181.5913: real time  181.5949
       DOS:  cpu time    0.0010: real time    0.0010
    CHARGE:  cpu time   13.1638: real time   13.1651
    MIXING:  cpu time    0.1973: real time    0.1973
    --------------------------------------------
      LOOP:  cpu time  197.1894: real time  197.2026

 eigenvalue-minimisations  :  5880
 total energy-change (2. order) :-0.5026966E+01  (-0.8795086E+01)
 number of electron     640.0000004 magnetization 
 augmentation part       69.5574718 magnetization 

 Broyden mixing:
  rms(total) = 0.15249E+01    rms(broyden)= 0.15248E+01
  rms(prec ) = 0.15612E+01
  weight for this iteration     100.00

 eigenvalues of (default mixing * dielectric matrix)
  average eigenvalue GAMMA=   1.0042
  1.0042  1.0042

 Free energy of the ion-electron system (eV)
  ---------------------------------------------------
  alpha Z        PSCENC =       784.57699423
  Ewald energy   TEWEN  =    253802.19117093
  -Hartree energ DENC   =   -301370.06090620
  -exchange      EXHF   =         0.00000000
  -V(xc)+E(xc)   XCENC  =      2489.44173342
  PAW double counting   =     54312.45752769   -54119.14711659
  entropy T*S    EENTRO =        -0.00000000
  eigenvalues    EBANDS =    -12640.51075574
  atomic energy  EATOM  =     56210.72393729
  Solvation  Ediel_sol  =         0.00000000
  ---------------------------------------------------
  free energy    TOTEN  =      -530.32741497 eV

  energy without entropy =     -530.32741497  energy(sigma->0) =     -530.32741497


--------------------------------------------------------------------------------------------------------




--------------------------------------- Iteration      1(   8)  ---------------------------------------


    POTLOK:  cpu time    1.1055: real time    1.1171
    SETDIJ:  cpu time    1.1271: real time    1.1271
     EDDAV:  cpu time  184.7097: real time  184.7122
       DOS:  cpu time    0.0009: real time    0.0009
    CHARGE:  cpu time   13.1856: real time   13.1857
    MIXING:  cpu time    0.1964: real time    0.1964
    --------------------------------------------
      LOOP:  cpu time  200.3251: real time  200.3393

 eigenvalue-minimisations  :  6000
 total energy-change (2. order) : 0.2282925E+01  (-0.9704051E+00)
 number of electron     640.0000004 magnetization 
 augmentation part       69.2678357 magnetization 

 Broyden mixing:
  rms(total) = 0.93210E+00    rms(broyden)= 0.93209E+00
  rms(prec ) = 0.94825E+00
  weight for this iteration     100.00

 eigenvalues of (default mixing * dielectric matrix)
  average eigenvalue GAMMA=   1.4415
  2.5841  0.8702  0.8702

 Free energy of the ion-electron system (eV)
  ---------------------------------------------------
  alpha Z        PSCENC =       784.57699423
  Ewald energy   TEWEN  =    253802.19117093
  -Hartree energ DENC   =   -301444.81498708
  -exchange      EXHF   =         0.00000000
  -V(xc)+E(xc)   XCENC  =      2489.51609554
  PAW double counting   =     56252.49599903   -56069.85973333
  entropy T*S    EENTRO =        -0.00000000
  eigenvalues    EBANDS =    -12552.87396639
  atomic energy  EATOM  =     56210.72393729
  Solvation  Ediel_sol  =         0.00000000
  ---------------------------------------------------
  free energy    TOTEN  =      -528.04448979 eV

  energy without entropy =     -528.04448979  energy(sigma->0) =     -528.04448979


--------------------------------------------------------------------------------------------------------




--------------------------------------- Iteration      1(   9)  ---------------------------------------


    POTLOK:  cpu time    1.1102: real time    1.1186
    SETDIJ:  cpu time    1.1285: real time    1.1285
     EDDAV:  cpu time  168.3016: real time  168.3038
       DOS:  cpu time    0.0009: real time    0.0009
    CHARGE:  cpu time   13.1500: real time   13.1501
    MIXING:  cpu time    0.1953: real time    0.1953
    --------------------------------------------
      LOOP:  cpu time  183.8865: real time  183.8971

 eigenvalue-minimisations  :  5360
 total energy-change (2. order) : 0.5528438E+00  (-0.3703515E+00)
 number of electron     640.0000004 magnetization 
 augmentation part       69.9998875 magnetization 

 Broyden mixing:
  rms(total) = 0.30758E+00    rms(broyden)= 0.30757E+00
  rms(prec ) = 0.32006E+00
  weight for this iteration     100.00

 eigenvalues of (default mixing * dielectric matrix)
  average eigenvalue GAMMA=   1.2275
  2.1268  0.8686  0.8686  1.0462

 Free energy of the ion-electron system (eV)
  ---------------------------------------------------
  alpha Z        PSCENC =       784.57699423
  Ewald energy   TEWEN  =    253802.19117093
  -Hartree energ DENC   =   -301581.67955345
  -exchange      EXHF   =         0.00000000
  -V(xc)+E(xc)   XCENC  =      2489.00891362
  PAW double counting   =     60127.60405147   -59962.50252572
  entropy T*S    EENTRO =        -0.00000000
  eigenvalues    EBANDS =    -12397.41463435
  atomic energy  EATOM  =     56210.72393729
  Solvation  Ediel_sol  =         0.00000000
  ---------------------------------------------------
  free energy    TOTEN  =      -527.49164598 eV

  energy without entropy =     -527.49164598  energy(sigma->0) =     -527.49164598


--------------------------------------------------------------------------------------------------------




--------------------------------------- Iteration      1(  10)  ---------------------------------------


    POTLOK:  cpu time    1.1078: real time    1.1209
    SETDIJ:  cpu time    1.1265: real time    1.1265
     EDDAV:  cpu time  175.3362: real time  175.3402
       DOS:  cpu time    0.0008: real time    0.0008
    CHARGE:  cpu time   13.1510: real time   13.1511
    MIXING:  cpu time    0.1955: real time    0.1955
    --------------------------------------------
      LOOP:  cpu time  190.9179: real time  190.9351

 eigenvalue-minimisations  :  5632
 total energy-change (2. order) : 0.1252645E+00  (-0.6045703E-01)
 number of electron     640.0000004 magnetization 
 augmentation part       69.7978302 magnetization 

 Broyden mixing:
  rms(total) = 0.17102E+00    rms(broyden)= 0.17101E+00
  rms(prec ) = 0.17778E+00
  weight for this iteration     100.00

 eigenvalues of (default mixing * dielectric matrix)
  average eigenvalue GAMMA=   1.2524
  1.9054  1.9054  0.8982  0.8982  0.6546

 Free energy of the ion-electron system (eV)
  ---------------------------------------------------
  alpha Z        PSCENC =       784.57699423
  Ewald energy   TEWEN  =    253802.19117093
  -Hartree energ DENC   =   -301607.12706265
  -exchange      EXHF   =         0.00000000
  -V(xc)+E(xc)   XCENC  =      2489.65335171
  PAW double counting   =     59483.97979734   -59316.04616322
  entropy T*S    EENTRO =        -0.00000000
  eigenvalues    EBANDS =    -12375.31840707
  atomic energy  EATOM  =     56210.72393729
  Solvation  Ediel_sol  =         0.00000000
  ---------------------------------------------------
  free energy    TOTEN  =      -527.36638144 eV

  energy without entropy =     -527.36638144  energy(sigma->0) =     -527.36638144


--------------------------------------------------------------------------------------------------------




--------------------------------------- Iteration      1(  11)  ---------------------------------------


    POTLOK:  cpu time    1.1080: real time    1.1171
    SETDIJ:  cpu time    1.1377: real time    1.1379
     EDDAV:  cpu time  175.6272: real time  175.6321
       DOS:  cpu time    0.0009: real time    0.0009
    CHARGE:  cpu time   13.4959: real time   13.4960
    MIXING:  cpu time    0.1898: real time    0.1898
    --------------------------------------------
      LOOP:  cpu time  191.5595: real time  191.5738

 eigenvalue-minimisations  :  5648
 total energy-change (2. order) : 0.2230681E-01  (-0.1872165E-01)
 number of electron     640.0000004 magnetization 
 augmentation part       69.7188737 magnetization 

 Broyden mixing:
  rms(total) = 0.77168E-01    rms(broyden)= 0.77167E-01
  rms(prec ) = 0.83267E-01
  weight for this iteration     100.00

 eigenvalues of (default mixing * dielectric matrix)
  average eigenvalue GAMMA=   1.2791
  2.5221  1.6981  0.8886  0.8886  0.9201  0.7569

 Free energy of the ion-electron system (eV)
  ---------------------------------------------------
  alpha Z        PSCENC =       784.57699423
  Ewald energy   TEWEN  =    253802.19117093
  -Hartree energ DENC   =   -301662.24825093
  -exchange      EXHF   =         0.00000000
  -V(xc)+E(xc)   XCENC  =      2490.30266154
  PAW double counting   =     59604.20050688   -59436.42259687
  entropy T*S    EENTRO =        -0.00000000
  eigenvalues    EBANDS =    -12320.66849770
  atomic energy  EATOM  =     56210.72393729
  Solvation  Ediel_sol  =         0.00000000
  ---------------------------------------------------
  free energy    TOTEN  =      -527.34407463 eV

  energy without entropy =     -527.34407463  energy(sigma->0) =     -527.34407463


--------------------------------------------------------------------------------------------------------




--------------------------------------- Iteration      1(  12)  ---------------------------------------


    POTLOK:  cpu time    1.1088: real time    1.1170
    SETDIJ:  cpu time    1.1401: real time    1.1401
     EDDAV:  cpu time  189.0916: real time  189.0960
       DOS:  cpu time    0.0009: real time    0.0008
    CHARGE:  cpu time   13.4990: real time   13.4991
    MIXING:  cpu time    0.1999: real time    0.1999
    --------------------------------------------
      LOOP:  cpu time  205.0403: real time  205.0530

 eigenvalue-minimisations  :  6176
 total energy-change (2. order) : 0.1462246E-01  (-0.3401720E-02)
 number of electron     640.0000004 magnetization 
 augmentation part       69.7406532 magnetization 

 Broyden mixing:
  rms(total) = 0.29056E-01    rms(broyden)= 0.29056E-01
  rms(prec ) = 0.36344E-01
  weight for this iteration     100.00

 eigenvalues of (default mixing * dielectric matrix)
  average eigenvalue GAMMA=   1.2789
  2.2413  2.2413  0.9370  0.9370  0.9403  0.9403  0.7150

 Free energy of the ion-electron system (eV)
  ---------------------------------------------------
  alpha Z        PSCENC =       784.57699423
  Ewald energy   TEWEN  =    253802.19117093
  -Hartree energ DENC   =   -301694.44677535
  -exchange      EXHF   =         0.00000000
  -V(xc)+E(xc)   XCENC  =      2490.61756112
  PAW double counting   =     59747.42741549   -59580.11817116
  entropy T*S    EENTRO =        -0.00000000
  eigenvalues    EBANDS =    -12288.30158472
  atomic energy  EATOM  =     56210.72393729
  Solvation  Ediel_sol  =         0.00000000
  ---------------------------------------------------
  free energy    TOTEN  =      -527.32945216 eV

  energy without entropy =     -527.32945216  energy(sigma->0) =     -527.32945216


--------------------------------------------------------------------------------------------------------




--------------------------------------- Iteration      1(  13)  ---------------------------------------


    POTLOK:  cpu time    1.1103: real time    1.1186
    SETDIJ:  cpu time    1.1367: real time    1.1367
     EDDAV:  cpu time  166.6166: real time  166.6237
       DOS:  cpu time    0.0010: real time    0.0010
    CHARGE:  cpu time   13.3008: real time   13.3010
    MIXING:  cpu time    0.1920: real time    0.1920
    --------------------------------------------
      LOOP:  cpu time  182.3574: real time  182.3730

 eigenvalue-minimisations  :  5296
 total energy-change (2. order) : 0.2758108E-02  (-0.8021935E-03)
 number of electron     640.0000004 magnetization 
 augmentation part       69.7468099 magnetization 

 Broyden mixing:
  rms(total) = 0.17444E-01    rms(broyden)= 0.17444E-01
  rms(prec ) = 0.24518E-01
  weight for this iteration     100.00

 eigenvalues of (default mixing * dielectric matrix)
  average eigenvalue GAMMA=   1.3357
  2.8006  2.1042  1.4957  0.9070  0.9070  0.8986  0.8986  0.6738

 Free energy of the ion-electron system (eV)
  ---------------------------------------------------
  alpha Z        PSCENC =       784.57699423
  Ewald energy   TEWEN  =    253802.19117093
  -Hartree energ DENC   =   -301716.20579516
  -exchange      EXHF   =         0.00000000
  -V(xc)+E(xc)   XCENC  =      2490.80503523
  PAW double counting   =     59698.72144617   -59531.21645812
  entropy T*S    EENTRO =        -0.00000000
  eigenvalues    EBANDS =    -12266.92302463
  atomic energy  EATOM  =     56210.72393729
  Solvation  Ediel_sol  =         0.00000000
  ---------------------------------------------------
  free energy    TOTEN  =      -527.32669406 eV

  energy without entropy =     -527.32669406  energy(sigma->0) =     -527.32669406


--------------------------------------------------------------------------------------------------------




--------------------------------------- Iteration      1(  14)  ---------------------------------------


    POTLOK:  cpu time    1.1074: real time    1.1159
    SETDIJ:  cpu time    1.1376: real time    1.1376
     EDDAV:  cpu time  166.4250: real time  166.4347
       DOS:  cpu time    0.0010: real time    0.0010
    CHARGE:  cpu time   13.5715: real time   13.5716
    MIXING:  cpu time    0.1984: real time    0.1984
    --------------------------------------------
      LOOP:  cpu time  182.4409: real time  182.4593

 eigenvalue-minimisations  :  5288
 total energy-change (2. order) : 0.1749832E-02  (-0.6655945E-03)
 number of electron     640.0000004 magnetization 
 augmentation part       69.7552253 magnetization 

 Broyden mixing:
  rms(total) = 0.16948E-01    rms(broyden)= 0.16948E-01
  rms(prec ) = 0.20490E-01
  weight for this iteration     100.00

 eigenvalues of (default mixing * dielectric matrix)
  average eigenvalue GAMMA=   1.3407
  2.6586  2.6586  1.6390  0.9386  0.9386  0.9249  0.9249  0.6917  0.6917

 Free energy of the ion-electron system (eV)
  ---------------------------------------------------
  alpha Z        PSCENC =       784.57699423
  Ewald energy   TEWEN  =    253802.19117093
  -Hartree energ DENC   =   -301744.86067580
  -exchange      EXHF   =         0.00000000
  -V(xc)+E(xc)   XCENC  =      2490.98673349
  PAW double counting   =     59700.45124194   -59532.96557060
  entropy T*S    EENTRO =        -0.00000000
  eigenvalues    EBANDS =    -12238.42877570
  atomic energy  EATOM  =     56210.72393729
  Solvation  Ediel_sol  =         0.00000000
  ---------------------------------------------------
  free energy    TOTEN  =      -527.32494422 eV

  energy without entropy =     -527.32494422  energy(sigma->0) =     -527.32494422


--------------------------------------------------------------------------------------------------------




--------------------------------------- Iteration      1(  15)  ---------------------------------------


    POTLOK:  cpu time    1.1047: real time    1.1192
    SETDIJ:  cpu time    1.1365: real time    1.1365
     EDDAV:  cpu time  173.9755: real time  173.9805
       DOS:  cpu time    0.0013: real time    0.0012
    CHARGE:  cpu time   13.7331: real time   13.7332
    MIXING:  cpu time    0.1933: real time    0.1933
    --------------------------------------------
      LOOP:  cpu time  190.1443: real time  190.1640

 eigenvalue-minimisations  :  5584
 total energy-change (2. order) :-0.1752353E-02  (-0.1991114E-03)
 number of electron     640.0000004 magnetization 
 augmentation part       69.7564030 magnetization 

 Broyden mixing:
  rms(total) = 0.10774E-01    rms(broyden)= 0.10773E-01
  rms(prec ) = 0.13536E-01
  weight for this iteration     100.00

 eigenvalues of (default mixing * dielectric matrix)
  average eigenvalue GAMMA=   1.3496
  2.8639  2.7898  1.3763  1.3763  0.9446  0.9446  0.8472  0.8472  0.8622  0.6442

 Free energy of the ion-electron system (eV)
  ---------------------------------------------------
  alpha Z        PSCENC =       784.57699423
  Ewald energy   TEWEN  =    253802.19117093
  -Hartree energ DENC   =   -301761.61229781
  -exchange      EXHF   =         0.00000000
  -V(xc)+E(xc)   XCENC  =      2491.05945961
  PAW double counting   =     59667.87792530   -59500.29186404
  entropy T*S    EENTRO =        -0.00000000
  eigenvalues    EBANDS =    -12221.85202208
  atomic energy  EATOM  =     56210.72393729
  Solvation  Ediel_sol  =         0.00000000
  ---------------------------------------------------
  free energy    TOTEN  =      -527.32669658 eV

  energy without entropy =     -527.32669658  energy(sigma->0) =     -527.32669658


--------------------------------------------------------------------------------------------------------




--------------------------------------- Iteration      1(  16)  ---------------------------------------


    POTLOK:  cpu time    1.1074: real time    1.1198
    SETDIJ:  cpu time    1.1377: real time    1.1418
     EDDAV:  cpu time  181.0630: real time  181.0680
       DOS:  cpu time    0.0007: real time    0.0006
    CHARGE:  cpu time   13.3284: real time   13.3285
    MIXING:  cpu time    0.1995: real time    0.1995
    --------------------------------------------
      LOOP:  cpu time  196.8366: real time  196.8582

 eigenvalue-minimisations  :  5872
 total energy-change (2. order) :-0.2407739E-02  (-0.9745072E-04)
 number of electron     640.0000004 magnetization 
 augmentation part       69.7557975 magnetization 

 Broyden mixing:
  rms(total) = 0.57976E-02    rms(broyden)= 0.57975E-02
  rms(prec ) = 0.80867E-02
  weight for this iteration     100.00

 eigenvalues of (default mixing * dielectric matrix)
  average eigenvalue GAMMA=   1.4261
  3.5703  2.5428  2.1747  1.3562  0.9901  0.9641  0.9641  0.8685  0.8685  0.7316
  0.6558

 Free energy of the ion-electron system (eV)
  ---------------------------------------------------
  alpha Z        PSCENC =       784.57699423
  Ewald energy   TEWEN  =    253802.19117093
  -Hartree energ DENC   =   -301774.13999378
  -exchange      EXHF   =         0.00000000
  -V(xc)+E(xc)   XCENC  =      2491.11097332
  PAW double counting   =     59655.43420654   -59487.84257776
  entropy T*S    EENTRO =        -0.00000000
  eigenvalues    EBANDS =    -12209.38381508
  atomic energy  EATOM  =     56210.72393729
  Solvation  Ediel_sol  =         0.00000000
  ---------------------------------------------------
  free energy    TOTEN  =      -527.32910432 eV

  energy without entropy =     -527.32910432  energy(sigma->0) =     -527.32910432


--------------------------------------------------------------------------------------------------------




--------------------------------------- Iteration      1(  17)  ---------------------------------------


    POTLOK:  cpu time    1.1114: real time    1.1197
    SETDIJ:  cpu time    1.1418: real time    1.1418
     EDDAV:  cpu time  158.0582: real time  158.0640
       DOS:  cpu time    0.0007: real time    0.0007
    CHARGE:  cpu time   13.2032: real time   13.2032
    MIXING:  cpu time    0.2007: real time    0.2006
    --------------------------------------------
      LOOP:  cpu time  173.7159: real time  173.7301

 eigenvalue-minimisations  :  4968
 total energy-change (2. order) :-0.3857606E-02  (-0.7275700E-04)
 number of electron     640.0000004 magnetization 
 augmentation part       69.7555354 magnetization 

 Broyden mixing:
  rms(total) = 0.31661E-02    rms(broyden)= 0.31660E-02
  rms(prec ) = 0.45669E-02
  weight for this iteration     100.00

 eigenvalues of (default mixing * dielectric matrix)
  average eigenvalue GAMMA=   1.4844
  4.4256  2.6946  2.4098  1.3199  1.1212  0.9308  0.9308  0.8848  0.8848  0.7826
  0.7826  0.6449

 Free energy of the ion-electron system (eV)
  ---------------------------------------------------
  alpha Z        PSCENC =       784.57699423
  Ewald energy   TEWEN  =    253802.19117093
  -Hartree energ DENC   =   -301788.08620636
  -exchange      EXHF   =         0.00000000
  -V(xc)+E(xc)   XCENC  =      2491.15195737
  PAW double counting   =     59653.23283353   -59485.68917723
  entropy T*S    EENTRO =        -0.00000000
  eigenvalues    EBANDS =    -12195.43447168
  atomic energy  EATOM  =     56210.72393729
  Solvation  Ediel_sol  =         0.00000000
  ---------------------------------------------------
  free energy    TOTEN  =      -527.33296192 eV

  energy without entropy =     -527.33296192  energy(sigma->0) =     -527.33296192


--------------------------------------------------------------------------------------------------------




--------------------------------------- Iteration      1(  18)  ---------------------------------------


    POTLOK:  cpu time    1.1135: real time    1.1214
    SETDIJ:  cpu time    1.1435: real time    1.1435
     EDDAV:  cpu time  157.0229: real time  157.0270
       DOS:  cpu time    0.0007: real time    0.0007
    CHARGE:  cpu time   13.2539: real time   13.2540
    MIXING:  cpu time    0.1945: real time    0.1945
    --------------------------------------------
      LOOP:  cpu time  172.7290: real time  172.7411

 eigenvalue-minimisations  :  4928
 total energy-change (2. order) :-0.2017200E-02  (-0.2689332E-04)
 number of electron     640.0000004 magnetization 
 augmentation part       69.7562659 magnetization 

 Broyden mixing:
  rms(total) = 0.24349E-02    rms(broyden)= 0.24349E-02
  rms(prec ) = 0.31712E-02
  weight for this iteration     100.00

 eigenvalues of (default mixing * dielectric matrix)
  average eigenvalue GAMMA=   1.4970
  4.7876  2.6855  2.3222  1.5780  1.0999  1.0999  0.9449  0.9449  0.8902  0.8902
  0.8552  0.6498  0.7127

 Free energy of the ion-electron system (eV)
  ---------------------------------------------------
  alpha Z        PSCENC =       784.57699423
  Ewald energy   TEWEN  =    253802.19117093
  -Hartree energ DENC   =   -301795.74331995
  -exchange      EXHF   =         0.00000000
  -V(xc)+E(xc)   XCENC  =      2491.17204238
  PAW double counting   =     59650.72462949   -59483.19241551
  entropy T*S    EENTRO =        -0.00000000
  eigenvalues    EBANDS =    -12187.78801797
  atomic energy  EATOM  =     56210.72393729
  Solvation  Ediel_sol  =         0.00000000
  ---------------------------------------------------
  free energy    TOTEN  =      -527.33497912 eV

  energy without entropy =     -527.33497912  energy(sigma->0) =     -527.33497912


--------------------------------------------------------------------------------------------------------




--------------------------------------- Iteration      1(  19)  ---------------------------------------


    POTLOK:  cpu time    1.1125: real time    1.1215
    SETDIJ:  cpu time    1.1435: real time    1.1435
     EDDAV:  cpu time  165.4713: real time  165.4741
       DOS:  cpu time    0.0008: real time    0.0008
    CHARGE:  cpu time   13.4422: real time   13.4423
    MIXING:  cpu time    0.1989: real time    0.1989
    --------------------------------------------
      LOOP:  cpu time  181.3692: real time  181.3811

 eigenvalue-minimisations  :  5256
 total energy-change (2. order) :-0.1156013E-02  (-0.1100045E-04)
 number of electron     640.0000004 magnetization 
 augmentation part       69.7557127 magnetization 

 Broyden mixing:
  rms(total) = 0.15800E-02    rms(broyden)= 0.15799E-02
  rms(prec ) = 0.21605E-02
  weight for this iteration     100.00

 eigenvalues of (default mixing * dielectric matrix)
  average eigenvalue GAMMA=   1.5719
  5.3890  2.9737  2.2378  2.2378  1.1942  1.1942  0.9901  0.9901  0.8856  0.8856
  0.8417  0.8417  0.7049  0.6398

 Free energy of the ion-electron system (eV)
  ---------------------------------------------------
  alpha Z        PSCENC =       784.57699423
  Ewald energy   TEWEN  =    253802.19117093
  -Hartree energ DENC   =   -301798.98028652
  -exchange      EXHF   =         0.00000000
  -V(xc)+E(xc)   XCENC  =      2491.18219787
  PAW double counting   =     59650.45752744   -59482.91997707
  entropy T*S    EENTRO =        -0.00000000
  eigenvalues    EBANDS =    -12184.56769930
  atomic energy  EATOM  =     56210.72393729
  Solvation  Ediel_sol  =         0.00000000
  ---------------------------------------------------
  free energy    TOTEN  =      -527.33613514 eV

  energy without entropy =     -527.33613514  energy(sigma->0) =     -527.33613514


--------------------------------------------------------------------------------------------------------




--------------------------------------- Iteration      1(  20)  ---------------------------------------


    POTLOK:  cpu time    1.1111: real time    1.1194
    SETDIJ:  cpu time    1.1412: real time    1.1412
     EDDAV:  cpu time  148.7845: real time  148.7885
       DOS:  cpu time    0.0008: real time    0.0008
    CHARGE:  cpu time   13.2744: real time   13.2745
    MIXING:  cpu time    0.1980: real time    0.1980
    --------------------------------------------
      LOOP:  cpu time  164.5099: real time  164.5223

 eigenvalue-minimisations  :  4600
 total energy-change (2. order) :-0.1249812E-02  (-0.3260660E-05)
 number of electron     640.0000004 magnetization 
 augmentation part       69.7554634 magnetization 

 Broyden mixing:
  rms(total) = 0.11120E-02    rms(broyden)= 0.11119E-02
  rms(prec ) = 0.14160E-02
  weight for this iteration     100.00

 eigenvalues of (default mixing * dielectric matrix)
  average eigenvalue GAMMA=   1.5926
  6.0371  3.0924  2.4115  2.1438  1.3250  1.0613  1.0613  0.9985  0.9985  0.8752
  0.8752  0.8918  0.7647  0.7180  0.6349

 Free energy of the ion-electron system (eV)
  ---------------------------------------------------
  alpha Z        PSCENC =       784.57699423
  Ewald energy   TEWEN  =    253802.19117093
  -Hartree energ DENC   =   -301801.94158216
  -exchange      EXHF   =         0.00000000
  -V(xc)+E(xc)   XCENC  =      2491.18538586
  PAW double counting   =     59650.62440317   -59483.08629693
  entropy T*S    EENTRO =        -0.00000000
  eigenvalues    EBANDS =    -12181.61139732
  atomic energy  EATOM  =     56210.72393729
  Solvation  Ediel_sol  =         0.00000000
  ---------------------------------------------------
  free energy    TOTEN  =      -527.33738495 eV

  energy without entropy =     -527.33738495  energy(sigma->0) =     -527.33738495


--------------------------------------------------------------------------------------------------------




--------------------------------------- Iteration      1(  21)  ---------------------------------------


    POTLOK:  cpu time    1.1160: real time    1.1290
    SETDIJ:  cpu time    1.1757: real time    1.1757
     EDDAV:  cpu time  131.2614: real time  131.2654
       DOS:  cpu time    0.0010: real time    0.0010
    CHARGE:  cpu time   13.0932: real time   13.0933
    MIXING:  cpu time    0.1936: real time    0.1936
    --------------------------------------------
      LOOP:  cpu time  146.8408: real time  146.8580

 eigenvalue-minimisations  :  3984
 total energy-change (2. order) :-0.4570825E-03  (-0.1308740E-05)
 number of electron     640.0000004 magnetization 
 augmentation part       69.7556911 magnetization 

 Broyden mixing:
  rms(total) = 0.73053E-03    rms(broyden)= 0.73036E-03
  rms(prec ) = 0.97129E-03
  weight for this iteration     100.00

 eigenvalues of (default mixing * dielectric matrix)
  average eigenvalue GAMMA=   1.6053
  6.5042  3.0282  2.4742  1.7277  1.7277  1.2688  1.2688  1.0189  1.0189  0.8797
  0.8797  0.9020  0.8313  0.8313  0.6892  0.6338

 Free energy of the ion-electron system (eV)
  ---------------------------------------------------
  alpha Z        PSCENC =       784.57699423
  Ewald energy   TEWEN  =    253802.19117093
  -Hartree energ DENC   =   -301803.16818490
  -exchange      EXHF   =         0.00000000
  -V(xc)+E(xc)   XCENC  =      2491.18528862
  PAW double counting   =     59651.43549024   -59483.90032765
[...]
    -6.896993340 11.945942880  0.000000000     0.000000000  0.083710429  0.000000000
     0.000000000  0.000000000 27.810221070     0.000000000  0.000000000  0.035958003

  length of vectors
    13.793986680 13.793986676 27.810221070     0.083710429  0.083710429  0.035958003


 FORCES acting on ions
    electron-ion (+dipol)            ewald-force                    non-local-force                 convergence-correction
 -----------------------------------------------------------------------------------------------
   -.505E+01 0.460E+02 -.108E+04   0.499E+01 -.469E+02 0.108E+04   -.127E+00 -.312E+00 0.441E+01   -.698E-04 0.233E-04 -.293E-04
   0.258E+02 -.156E+02 -.109E+04   -.265E+02 0.160E+02 0.108E+04   -.313E+00 0.181E+00 0.428E+01   -.187E-04 -.615E-04 -.281E-04
   0.188E+00 0.181E+01 -.113E+04   -.938E+00 -.266E+01 0.112E+04   0.426E+00 0.159E+00 0.447E+01   0.601E-05 -.939E-05 -.389E-04
   0.193E+01 -.156E+01 -.108E+04   -.241E+01 0.120E+01 0.108E+04   0.268E+00 -.257E+00 0.362E+01   0.737E-05 -.157E-05 -.246E-04
   0.488E+02 0.477E+02 -.106E+04   -.486E+02 -.470E+02 0.106E+04   -.744E+00 -.958E+00 0.456E+01   0.106E-04 -.103E-04 -.114E-04
   -.561E+01 -.183E+02 -.109E+04   0.618E+01 0.174E+02 0.108E+04   -.235E+00 0.628E+00 0.458E+01   -.937E-05 -.366E-05 0.487E-05
   0.329E+02 0.202E+02 -.115E+04   -.330E+02 -.201E+02 0.114E+04   -.213E+00 -.480E+00 0.450E+01   0.176E-04 0.132E-04 -.299E-04
   0.321E+02 0.175E+02 -.109E+04   -.323E+02 -.170E+02 0.109E+04   -.268E+00 -.670E+00 0.531E+01   0.223E-04 0.212E-04 -.501E-04
   0.159E+01 -.607E+01 -.111E+04   -.163E+01 0.698E+01 0.111E+04   -.591E-01 -.102E+01 0.372E+01   -.336E-05 -.423E-04 -.214E-04
   -.309E+02 -.118E+02 -.113E+04   0.312E+02 0.115E+02 0.112E+04   0.340E+00 -.594E-01 0.454E+01   0.967E-05 -.203E-04 -.722E-05
   -.376E+02 0.226E+02 -.111E+04   0.383E+02 -.224E+02 0.110E+04   0.295E+00 -.635E+00 0.437E+01   -.246E-04 0.378E-04 -.319E-04
   -.545E+01 0.216E+02 -.104E+04   0.576E+01 -.206E+02 0.104E+04   0.188E-01 -.849E+00 0.396E+01   -.225E-04 0.444E-05 -.270E-04
   -.253E+02 -.196E+02 -.106E+04   0.249E+02 0.192E+02 0.106E+04   0.443E+00 0.381E+00 0.435E+01   0.584E-04 0.285E-04 0.277E-05
   0.217E+02 0.108E+02 -.104E+04   -.217E+02 -.105E+02 0.104E+04   -.374E+00 -.621E+00 0.454E+01   0.216E-04 -.855E-05 0.401E-05
   -.165E+02 -.708E+01 -.108E+04   0.171E+02 0.727E+01 0.108E+04   0.111E+00 -.521E-01 0.438E+01   -.435E-05 0.287E-05 -.229E-04
   -.146E+02 -.914E+01 -.962E+03   0.152E+02 0.909E+01 0.958E+03   -.443E+00 0.841E-01 0.399E+01   -.166E-04 -.168E-05 0.862E-05
   0.463E+02 -.342E+01 0.111E+04   -.467E+02 0.274E+01 -.111E+04   -.287E+00 0.478E+00 -.423E+01   0.203E-04 -.904E-05 0.182E-04
   -.825E+01 0.450E+02 0.108E+04   0.765E+01 -.443E+02 -.107E+04   0.126E+00 -.742E+00 -.372E+01   -.555E-04 -.188E-04 0.577E-04
   0.495E+01 0.248E+02 0.103E+04   -.589E+01 -.256E+02 -.103E+04   0.454E+00 0.308E+00 -.405E+01   -.120E-04 0.175E-04 0.523E-05
   0.278E+02 -.293E+02 0.104E+04   -.283E+02 0.295E+02 -.103E+04   0.268E-01 0.286E+00 -.419E+01   0.291E-04 -.241E-05 0.218E-05
   0.779E+01 -.141E+02 0.109E+04   -.739E+01 0.135E+02 -.109E+04   -.229E+00 0.460E+00 -.484E+01   0.376E-04 -.194E-04 0.273E-04
   0.139E+02 -.113E+02 0.110E+04   -.139E+02 0.122E+02 -.110E+04   -.940E-01 -.637E-01 -.541E+01   0.129E-04 -.111E-04 0.143E-04
   -.189E+02 0.143E+02 0.105E+04   0.190E+02 -.146E+02 -.105E+04   -.459E-01 0.295E+00 -.446E+01   -.221E-04 0.379E-04 0.276E-04
   -.223E+02 -.104E+02 0.109E+04   0.217E+02 0.104E+02 -.109E+04   0.525E+00 0.344E+00 -.322E+01   0.116E-04 0.310E-05 0.355E-04
   -.643E+01 -.281E+02 0.108E+04   0.768E+01 0.289E+02 -.107E+04   -.571E+00 0.814E-01 -.437E+01   -.374E-04 -.109E-04 -.721E-05
   -.268E+01 0.159E+02 0.108E+04   0.342E+01 -.164E+02 -.107E+04   -.250E+00 -.161E+00 -.443E+01   -.102E-05 -.152E-04 0.373E-05
   0.961E+01 0.313E+01 0.106E+04   -.105E+02 -.305E+01 -.106E+04   0.432E+00 -.823E-02 -.436E+01   0.354E-04 0.176E-04 0.101E-04
   -.100E+02 -.613E+01 0.108E+04   0.109E+02 0.674E+01 -.108E+04   -.674E+00 -.777E-01 -.381E+01   -.192E-04 -.221E-05 0.325E-04
   -.288E+02 0.118E+02 0.108E+04   0.285E+02 -.119E+02 -.108E+04   0.746E-02 -.153E+00 -.370E+01   -.324E-04 0.617E-04 0.532E-04
   0.104E+02 0.258E+01 0.103E+04   -.109E+02 -.257E+01 -.103E+04   -.997E-02 0.358E-01 -.436E+01   0.572E-04 -.369E-04 0.506E-04
   0.759E+01 0.384E+01 0.113E+04   -.648E+01 -.350E+01 -.113E+04   -.568E+00 0.256E-01 -.450E+01   -.452E-05 0.633E-05 -.592E-06
   0.194E+02 -.448E+02 0.111E+04   -.190E+02 0.449E+02 -.110E+04   -.739E+00 0.382E+00 -.450E+01   -.197E-04 -.175E-04 0.943E-06
   -.149E+02 0.791E+01 0.146E+04   0.146E+02 -.782E+01 -.146E+04   0.740E+00 -.169E+00 0.228E+01   -.664E-05 0.176E-05 0.196E-04
   0.997E+01 0.158E+02 0.145E+04   -.100E+02 -.158E+02 -.146E+04   -.164E+00 -.215E+00 0.227E+01   -.797E-05 0.113E-05 0.265E-04
   0.820E+01 0.594E+01 0.146E+04   -.812E+01 -.600E+01 -.147E+04   -.135E+00 0.307E+00 0.169E+01   0.146E-06 0.874E-05 0.952E-05
   0.198E+02 -.264E+02 0.146E+04   -.196E+02 0.262E+02 -.146E+04   -.810E+00 0.108E+01 0.163E+01   0.121E-04 -.117E-04 0.492E-05
   0.106E+01 -.155E+02 0.146E+04   -.107E+01 0.154E+02 -.146E+04   0.514E-01 0.538E+00 0.115E+01   0.101E-04 -.617E-05 -.120E-05
   -.298E+02 0.145E+01 0.147E+04   0.296E+02 -.149E+01 -.147E+04   0.960E+00 0.175E+00 0.210E+01   -.844E-06 0.126E-05 0.193E-04
   -.194E+02 0.207E+02 0.146E+04   0.194E+02 -.207E+02 -.147E+04   0.401E+00 -.258E+00 0.170E+01   -.767E-05 0.828E-05 0.197E-04
   0.183E+02 -.347E+02 0.147E+04   -.183E+02 0.345E+02 -.147E+04   -.444E+00 0.101E+01 0.186E+01   -.389E-05 -.927E-06 0.638E-05
   0.656E+01 -.176E+02 0.145E+04   -.640E+01 0.176E+02 -.145E+04   -.589E+00 0.184E+00 0.144E+01   0.103E-04 -.645E-05 0.459E-05
   0.142E+02 0.863E+01 0.147E+04   -.141E+02 -.859E+01 -.147E+04   -.171E+00 -.219E+00 0.197E+01   0.144E-04 -.317E-05 0.448E-05
   0.388E+01 0.735E+01 0.146E+04   -.381E+01 -.732E+01 -.146E+04   -.321E+00 -.436E-01 0.209E+01   0.488E-05 0.768E-05 0.165E-04
   -.206E+02 0.374E+00 0.147E+04   0.205E+02 -.209E+00 -.147E+04   0.348E+00 -.568E+00 0.198E+01   -.565E-05 0.147E-04 0.165E-04
   0.812E+01 -.179E+02 0.144E+04   -.808E+01 0.178E+02 -.144E+04   -.264E+00 0.780E+00 0.164E+01   -.121E-04 -.305E-05 0.157E-04
   -.443E+01 0.167E+02 0.147E+04   0.461E+01 -.169E+02 -.147E+04   -.415E+00 0.330E+00 0.254E+01   -.604E-05 -.218E-05 0.356E-05
   0.662E+01 0.118E+01 0.147E+04   -.672E+01 -.113E+01 -.147E+04   0.174E+00 -.273E+00 0.150E+01   0.265E-05 -.412E-06 0.293E-05
   -.157E+02 -.384E+01 0.144E+04   0.155E+02 0.388E+01 -.144E+04   0.522E+00 -.134E+00 0.199E+01   -.469E-05 -.445E-05 0.981E-05
   -.539E+01 -.138E+02 -.147E+04   0.531E+01 0.136E+02 0.147E+04   0.372E+00 0.615E+00 -.230E+01   -.917E-05 0.261E-05 -.208E-04
   0.239E+01 0.118E+02 -.148E+04   -.244E+01 -.117E+02 0.148E+04   -.859E-01 -.376E+00 -.149E+01   -.167E-04 -.110E-05 -.740E-05
   0.126E+01 -.110E+02 -.146E+04   -.149E+01 0.107E+02 0.146E+04   0.556E+00 0.770E+00 -.245E+01   -.168E-05 -.144E-04 -.932E-05
   -.142E+02 -.339E+01 -.146E+04   0.141E+02 0.338E+01 0.146E+04   0.614E+00 0.773E-02 -.221E+01   0.672E-06 -.269E-05 -.271E-04
   0.105E+02 0.213E+02 -.148E+04   -.105E+02 -.211E+02 0.148E+04   -.497E-01 -.847E+00 -.238E+01   0.978E-05 0.751E-07 -.321E-04
   0.822E+01 -.386E+01 -.144E+04   -.815E+01 0.373E+01 0.144E+04   -.541E-01 0.669E+00 -.948E+00   -.807E-06 -.299E-06 -.167E-04
   -.757E+00 0.104E+02 -.146E+04   0.801E+00 -.103E+02 0.147E+04   -.106E+00 -.395E+00 -.166E+01   -.565E-05 0.373E-05 -.105E-04
   0.111E+02 0.830E+01 -.148E+04   -.111E+02 -.807E+01 0.148E+04   -.363E-01 -.664E+00 -.230E+01   0.987E-05 0.421E-05 -.258E-04
   -.393E+00 -.103E+02 -.146E+04   0.604E+00 0.101E+02 0.147E+04   -.714E+00 0.568E+00 -.190E+01   0.862E-05 -.883E-06 -.927E-05
   -.615E+01 -.352E+02 -.148E+04   0.627E+01 0.350E+02 0.148E+04   -.173E+00 0.960E+00 -.244E+01   0.130E-04 -.458E-05 -.203E-04
   0.378E+01 -.852E+01 -.147E+04   -.367E+01 0.847E+01 0.148E+04   -.273E+00 0.203E+00 -.233E+01   -.750E-06 0.445E-05 -.189E-04
   -.119E+02 0.650E+01 -.145E+04   0.121E+02 -.625E+01 0.146E+04   -.314E+00 -.800E+00 -.223E+01   -.528E-06 0.122E-04 -.131E-04
   -.239E+02 -.773E+01 -.143E+04   0.237E+02 0.750E+01 0.143E+04   0.746E+00 0.473E+00 -.189E+01   -.978E-05 0.709E-05 -.800E-05
   -.665E+01 0.119E+02 -.144E+04   0.644E+01 -.116E+02 0.144E+04   0.574E+00 -.861E+00 -.166E+01   0.804E-05 -.580E-05 -.815E-05
   0.660E+01 -.337E+01 -.145E+04   -.660E+01 0.330E+01 0.145E+04   0.275E-02 0.134E+00 -.200E+01   0.742E-05 -.905E-05 -.152E-04
   -.140E+01 0.130E+01 -.143E+04   0.127E+01 -.127E+01 0.143E+04   0.298E+00 -.107E+00 -.186E+01   -.960E-05 0.501E-05 -.172E-04
   -.178E+02 -.125E+02 0.180E+02   0.175E+02 0.122E+02 -.181E+02   0.112E+01 0.692E+00 0.160E+00   0.193E-06 0.550E-06 0.539E-05
   -.713E+01 0.986E+01 -.139E+01   0.702E+01 -.995E+01 0.125E+01   0.548E+00 0.371E+00 0.514E+00   0.628E-06 0.381E-05 0.410E-05
   -.166E+02 -.142E+01 0.363E+01   0.163E+02 0.170E+01 -.391E+01   0.866E+00 -.928E+00 0.591E+00   0.359E-05 -.237E-05 0.368E-05
   0.103E+01 -.324E+01 0.540E+01   -.108E+01 0.324E+01 -.580E+01   0.285E+00 -.605E-02 0.124E+01   0.327E-05 0.154E-05 -.207E-05
   0.259E+02 0.177E+01 0.599E+01   -.256E+02 -.196E+01 -.609E+01   -.852E+00 0.679E+00 0.363E+00   0.297E-05 -.675E-05 -.449E-06
   0.102E+02 0.197E+02 -.167E+02   -.991E+01 -.195E+02 0.171E+02   -.103E+01 -.538E+00 -.101E+01   -.464E-05 -.590E-07 0.202E-05
   -.497E+01 -.132E+02 0.100E+02   0.470E+01 0.130E+02 -.105E+02   0.997E+00 0.448E+00 0.146E+01   -.509E-05 -.288E-05 0.171E-05
   -.660E+01 0.313E+01 -.135E+02   0.642E+01 -.318E+01 0.133E+02   0.104E+01 -.108E+00 0.124E+01   -.369E-05 0.441E-05 -.604E-05
   -.172E+01 -.806E+00 -.604E+01   0.157E+01 0.938E+00 0.603E+01   0.451E+00 -.609E+00 0.159E+00   0.368E-05 -.432E-06 -.639E-06
   -.209E+02 -.183E+01 -.127E+02   0.208E+02 0.204E+01 0.130E+02   0.525E+00 -.483E+00 -.756E+00   0.445E-05 -.108E-05 -.518E-06
   0.246E+01 -.379E+01 0.210E+02   -.228E+01 0.369E+01 -.215E+02   -.766E+00 0.170E+00 0.131E+01   0.136E-06 0.186E-05 0.167E-05
   0.119E+01 -.745E+01 -.570E+01   -.126E+01 0.719E+01 0.574E+01   0.117E+00 0.845E+00 -.153E+00   -.364E-06 0.384E-05 -.737E-07
   -.236E+02 0.102E+02 0.337E+02   0.233E+02 -.984E+01 -.339E+02   0.859E+00 -.180E+01 0.111E+01   -.427E-05 -.234E-05 -.599E-06
   0.798E+01 -.121E+02 0.189E+02   -.792E+01 0.118E+02 -.190E+02   -.387E+00 0.869E+00 0.582E+00   -.189E-05 -.111E-05 -.371E-05
   0.115E+02 -.394E+00 -.216E+02   -.112E+02 0.357E+00 0.218E+02   -.132E+01 0.894E-01 -.744E+00   0.678E-06 -.127E-05 -.215E-05
   -.498E+00 -.484E+01 0.165E+00   0.622E+00 0.476E+01 -.352E-01   -.671E+00 0.163E+00 -.377E+00   -.461E-06 0.249E-05 -.177E-05
 -----------------------------------------------------------------------------------------------
   -.248E+00 0.266E+00 -.492E+01   -.149E-12 -.240E-12 -.259E-11   0.253E+00 -.267E+00 0.492E+01   -.142E-04 -.214E-04 -.516E-04
 
 
 POSITION                                       TOTAL-FORCE (eV/Angst)
 -----------------------------------------------------------------------------------
      0.06180      2.11755     15.16158        -0.181604     -1.147965     -0.385601
     -1.60879      4.94474     15.15475        -0.964057      0.601500     -0.428704
     -3.48109      8.04646     15.18442        -0.324468     -0.691168     -0.588059
     -5.19746     11.04042     15.19132        -0.210810     -0.619141     -0.985541
      3.56547      1.98839     15.11323        -0.607225     -0.245573      0.041555
      1.74947      5.04246     15.16071         0.329980     -0.306071     -0.845043
     -0.03522      8.06567     15.21082        -0.351923     -0.419586     -0.432530
     -1.69698     11.01734     15.10565        -0.404417     -0.188497      0.389333
      6.95058      2.07272     15.20782        -0.102423     -0.114020     -0.489817
      5.12922      5.03802     15.19579         0.662405     -0.380357     -0.458532
      3.35477      8.07729     15.16284         1.039199     -0.434540     -0.117443
      1.66676     10.98989     15.09624         0.328622      0.152740      0.068000
     10.30398      2.00862     15.11045         0.088356      0.001763     -0.222726
      8.66929      5.05360     15.07521        -0.312612     -0.236644      0.381177
      6.79621      7.96831     15.13013         0.784438      0.142478     -0.065390
      5.13824     10.99513     15.00787         0.147024      0.041400      0.380364
      1.80300      0.92600     12.59374        -0.696058     -0.204859      0.933075
      0.08278      3.99611     12.66579        -0.477178     -0.109603      0.015067
     -1.70511      6.98000     12.69007        -0.492656     -0.483340      0.159441
     -3.39990      9.83837     12.68530        -0.484366      0.438558      0.003843
      5.21034      0.96185     12.67377         0.171010     -0.115525      0.178996
      3.50096      3.90811     12.68581        -0.165927      0.793429      0.096930
      1.72466      6.93494     12.71308         0.060197     -0.074863     -0.463509
     -0.01357      9.87757     12.60846        -0.122752      0.358534      0.757993
      8.53826      0.93254     12.68433         0.682587      0.918733     -0.138694
      6.89073      4.06324     12.66394         0.484581     -0.634295      0.409748
      5.19147      6.95947     12.67581        -0.445599      0.071223      0.246473
      3.40583      9.91066     12.67059         0.199359      0.530406     -0.359123
     12.12002      1.04232     12.65042        -0.273735     -0.323368      0.042948
     10.42856      3.98730     12.75463        -0.515750      0.052320     -1.097813
      8.59149      6.91639     12.58917         0.549527      0.364029      0.646781
      6.96210      9.89446     12.61841        -0.323232      0.567764      0.440250
     -0.03937      1.96737     10.94568         0.473421     -0.074725      0.134033
     -1.65990      4.98708     11.00763        -0.214903     -0.204413      0.106242
     -3.41486      7.83275     11.01846        -0.058342      0.241822     -0.409817
     -5.00412     10.73135     11.00767        -0.609510      0.802840     -0.453782
      3.49124      1.85506     11.07278         0.051090      0.475207     -0.847052
      1.63595      4.92046     10.96624         0.693843      0.134673      0.022587
     -0.01151      7.94717     11.03497         0.321442     -0.263484     -0.352742
     -1.65702     10.72680     10.98214        -0.385106      0.789331     -0.243192
      6.92774      1.99060     11.08802        -0.432726      0.146617     -0.598197
      5.19306      4.99471     10.99310        -0.103623     -0.177995     -0.118035
      3.46457      7.94303     11.01347        -0.255095     -0.015867     -0.036030
      1.62375     10.97557     10.99444         0.306355     -0.402662     -0.119446
     10.36477      1.86000     11.09249        -0.221215      0.687499     -0.483145
      8.70172      4.87626     10.91746        -0.235284      0.145670      0.373497
      6.85038      7.96639     11.01068         0.078398     -0.223400     -0.535112
      5.07507     10.92676     11.03653         0.327396     -0.097770     -0.162397
      1.58935      0.93052     16.90244         0.292609      0.436343     -0.244773
      0.07600      4.08917     16.80140        -0.131017     -0.297550      0.492073
     -1.80366      6.88886     16.86537         0.333994      0.539353     -0.256355
     -3.59811      9.98750     16.86075         0.478647      0.004171     -0.100538
      5.18311      1.13425     16.89674        -0.075099     -0.628316     -0.272752
      3.41743      3.90433     16.66714         0.021431      0.538902      1.154105
      1.70664      7.08962     16.78791        -0.062144     -0.319808      0.434262
     -0.04087     10.10115     16.86978        -0.044886     -0.432944     -0.204662
      8.72998      0.90997     16.78782        -0.503411      0.428282      0.189936
      6.94551      3.84271     16.94960        -0.051919      0.733997     -0.377749
      5.14846      6.93805     16.89286        -0.161856      0.149687     -0.216183
      3.45858     10.09951     16.78481        -0.182117     -0.541702     -0.114583
     11.96692      0.99718     16.71324         0.556809      0.251043      0.225672
     10.29971      4.12911     16.71680         0.365444     -0.632952      0.433320
      8.56020      6.99536     16.77752         0.000197      0.063418      0.112426
      6.77623      9.99243     16.70787         0.167397     -0.069564      0.280224
      6.85367     11.91835     13.84736         0.817817      0.433483      0.097984
     -1.69622      2.98899     13.89882         0.438194      0.285752      0.374490
     10.28633      6.06446     13.85645         0.567181     -0.643785      0.317614
      8.58250      8.94593     13.80748         0.237687     -0.007993      0.834101
     -3.36871     11.89382     13.87031        -0.608745      0.491187      0.258435
      1.83651      3.02941     13.98433        -0.752133     -0.355738     -0.670073
     -0.04454      5.93350     13.83172         0.725652      0.237423      0.959252
     -1.76952      8.96350     13.86273         0.859971     -0.161099      1.002262
      6.83433      0.02645     13.91133         0.306748     -0.476755      0.153187
      5.16281      3.03757     13.97230         0.375681     -0.274321     -0.525508
      3.50503      5.96683     13.83171        -0.586612      0.068817      0.853758
      1.66966      8.88459     13.93941         0.046921      0.582379     -0.110372
     10.22929      0.10446     13.80601         0.635769     -1.417412      0.878240
      8.63833      2.95338     13.88106        -0.324384      0.604091      0.417105
      6.96312      5.97093     13.94138        -1.003630      0.052470     -0.518228
      5.15794      8.94311     13.91540        -0.546831      0.090331     -0.247531
 -----------------------------------------------------------------------------------
    total drift:                                0.004826     -0.001244      0.003220


--------------------------------------------------------------------------------------------------------



  FREE ENERGIE OF THE ION-ELECTRON SYSTEM (eV)
  ---------------------------------------------------
  free  energy   TOTEN  =      -527.33915632 eV

  energy  without entropy=     -527.33915632  energy(sigma->0) =     -527.33915632
 


--------------------------------------------------------------------------------------------------------


    POTLOK:  cpu time    2.3377: real time    2.3377


--------------------------------------------------------------------------------------------------------


     LOOP+:  cpu time 5506.0237: real time 5506.5648
    4ORBIT:  cpu time    0.0000: real time    0.0000

 total amount of memory used by VASP MPI-rank0   253907. kBytes
=======================================================================

   base      :      30000. kBytes
   nonlr-proj:      18723. kBytes
   fftplans  :      72602. kBytes
   grid      :      41267. kBytes
   one-center:        108. kBytes
   wavefun   :      91207. kBytes
 
  
  
 General timing and accounting informations for this job:
 ========================================================
  
                  Total CPU time used (sec):     5552.763
                            User time (sec):     5480.388
                          System time (sec):       72.376
                         Elapsed time (sec):     5553.439
  
                   Maximum memory used (kb):      449348.
                   Average memory used (kb):           0.
  
                          Minor page faults:       259744
                          Major page faults:            0
                 Voluntary context switches:         2435
