<?xml version="1.0" encoding="ISO-8859-1"?>
<modeling>
 <generator>
  <i name="program" type="string">vasp </i>
  <i name="version" type="string">5.4.4.18Apr17-6-g9f103f2a35  </i>
  <i name="subversion" type="string">(build Oct 31 2019 15:01:46) complex            parallel </i>
  <i name="platform" type="string">LinuxIFC </i>
  <i name="date" type="string">2024 04 19 </i>
  <i name="time" type="string">16:04:26 </i>
 </generator>
 <incar>
  <i type="int" name="ISTART">     0</i>
  <i type="string" name="PREC">anormal</i>
  <i type="logical" name="ADDGRID"> T  </i>
  <i type="int" name="IBRION">    -1</i>
  <i name="EDIFF">      0.00000100</i>
  <i name="EDIFFG">     -0.01000000</i>
  <i type="int" name="NSW">     1</i>
  <i type="int" name="ISIF">     2</i>
  <i type="int" name="ISYM">     2</i>
  <i name="ENCUT">    600.00000000</i>
  <i name="POTIM">      1.00000000</i>
  <i type="string" name="LREAL"> Auto.</i>
  <i type="int" name="ISMEAR">     0</i>
  <i name="SIGMA">      0.05000000</i>
  <i name="KSPACING">      0.25000000</i>
  <i type="logical" name="LWAVE"> F  </i>
  <i type="logical" name="LCHARG"> F  </i>
  <i type="logical" name="LSCALAPACK"> F  </i>
  <v type="int" name="KPOINT_BSE">    -1     0     0     0</v>
 </incar>
 <structure name="primitive_cell" >
  <crystal>
   <varray name="basis" >
    <v>      13.12862340       0.00000000       0.00000000 </v>
    <v>      -6.56431170      11.36972138       0.00000000 </v>
    <v>       0.00000000       0.00000000      26.82809424 </v>
   </varray>
   <i name="volume">   4004.59716953 </i>
   <varray name="rec_basis" >
    <v>       0.07616945       0.04397645       0.00000000 </v>
    <v>       0.00000000       0.08795290       0.00000000 </v>
    <v>       0.00000000       0.00000000       0.03727436 </v>
   </varray>
  </crystal>
  <varray name="positions" >
   <v>       0.07375531       0.16064679       0.45290301 </v>
   <v>      -0.09093811       0.07220671       0.41219828 </v>
   <v>       0.00247761       0.00244584      -0.49780990 </v>
   <v>      -0.00020381       0.24836818      -0.49778136 </v>
   <v>       0.16385576       0.32187387       0.40301353 </v>
   <v>       0.24550120       0.25375530       0.49740255 </v>
   <v>       0.17479586       0.07887106       0.40658867 </v>
   <v>      -0.15954073       0.17148610       0.45626843 </v>
   <v>      -0.16454679      -0.07910808       0.45782625 </v>
   <v>      -0.08257954       0.08334836      -0.44935912 </v>
   <v>       0.16902289       0.08771558      -0.45168264 </v>
   <v>       0.17391016       0.33960466      -0.45280980 </v>
   <v>       0.32246798       0.16005574       0.45074974 </v>
   <v>       0.09712657      -0.07602050       0.45890119 </v>
   <v>       0.07963275       0.41517760       0.44948829 </v>
   <v>       0.33208337       0.41107275       0.45052724 </v>
   <v>      -0.08739143      -0.15783798       0.41806784 </v>
   <v>       0.08131648       0.17285474      -0.40746437 </v>
   <v>      -0.07338048       0.33719285       0.40890834 </v>
   <v>      -0.25320264       0.00886041      -0.49869053 </v>
   <v>       0.25132895       0.49389020       0.49980156 </v>
   <v>       0.25817241       0.01068398      -0.49831517 </v>
   <v>       0.41039681       0.33283539       0.40370837 </v>
   <v>      -0.07611668      -0.15943439      -0.44876140 </v>
   <v>      -0.08855148       0.32635271      -0.44919950 </v>
   <v>       0.41971235       0.34135880      -0.45389948 </v>
   <v>      -0.32049092      -0.15546434       0.41388067 </v>
   <v>       0.09159634       0.42158617      -0.41392440 </v>
   <v>      -0.17381511      -0.08457227      -0.40817686 </v>
   <v>       0.08646251      -0.08446555      -0.41023063 </v>
   <v>      -0.16472611       0.15635056      -0.40364373 </v>
   <v>       0.33687420       0.17877796      -0.41091216 </v>
   <v>      -0.32716797       0.08131524       0.41044430 </v>
   <v>      -0.24599891      -0.24909296      -0.49943338 </v>
   <v>       0.17052461      -0.42152780       0.41137237 </v>
   <v>      -0.24216194       0.26089037      -0.49684308 </v>
   <v>       0.33814297       0.42447600      -0.40641497 </v>
   <v>       0.16267641      -0.16941823       0.40777820 </v>
   <v>       0.41493309       0.08661174       0.40467648 </v>
   <v>       0.49593830       0.49778629       0.49478585 </v>
   <v>      -0.00401462      -0.25777366      -0.49692119 </v>
   <v>      -0.00715162      -0.49955804      -0.49860864 </v>
   <v>       0.49800615       0.24205176      -0.49958237 </v>
   <v>       0.41099389      -0.41383188       0.40268693 </v>
   <v>      -0.33249646      -0.16179114      -0.45135422 </v>
   <v>       0.16335734      -0.42499570      -0.45659935 </v>
   <v>      -0.16045931      -0.32484244       0.45239683 </v>
   <v>      -0.33920063       0.07716540      -0.45186599 </v>
   <v>      -0.41850382      -0.08130296       0.45072651 </v>
   <v>      -0.42785006       0.41392701       0.44976699 </v>
   <v>       0.33648680      -0.33892315       0.45216151 </v>
   <v>       0.32963055      -0.08514885       0.45130184 </v>
   <v>       0.42372106      -0.41226504      -0.45658563 </v>
   <v>       0.42311009       0.08413113      -0.45384067 </v>
   <v>      -0.17072002       0.42275148       0.45419638 </v>
   <v>       0.16631028      -0.17940984      -0.45149338 </v>
   <v>      -0.41226730      -0.32708974       0.45144320 </v>
   <v>      -0.41929064       0.16192079       0.45158071 </v>
   <v>       0.08506645      -0.33923482       0.44917772 </v>
   <v>      -0.17423642      -0.33012602      -0.41226466 </v>
   <v>      -0.41901734      -0.08078908      -0.40871956 </v>
   <v>      -0.49355526      -0.24091134      -0.49909570 </v>
   <v>      -0.06646133      -0.41287797       0.40521585 </v>
   <v>       0.33814454      -0.33530223      -0.40844973 </v>
   <v>      -0.33878931      -0.41729964       0.41384940 </v>
   <v>      -0.40966988       0.42715261      -0.41546271 </v>
   <v>      -0.15884881       0.42807242      -0.40420560 </v>
   <v>       0.33474816      -0.08348932      -0.40716497 </v>
   <v>      -0.34384716       0.33596849       0.40992354 </v>
   <v>       0.49381455      -0.00497894      -0.49971283 </v>
   <v>       0.25141434      -0.24906705      -0.49866227 </v>
   <v>      -0.33526020      -0.41540223      -0.45431256 </v>
   <v>      -0.08533353      -0.42099793      -0.45254384 </v>
   <v>      -0.34010959       0.32557841      -0.45112692 </v>
   <v>       0.08822320      -0.34396483      -0.41372403 </v>
   <v>      -0.42074983      -0.32924791      -0.41478233 </v>
   <v>      -0.42424043       0.15788322      -0.40743196 </v>
   <v>      -0.25665197       0.49941376       0.49783095 </v>
   <v>       0.40592248      -0.17473981       0.41027905 </v>
   <v>       0.41241983      -0.16886615      -0.45182960 </v>
  </varray>
 </structure>
 <varray name="primitive_index" >
  <v type="int" >        1 </v>
  <v type="int" >       61 </v>
  <v type="int" >       65 </v>
  <v type="int" >       66 </v>
  <v type="int" >       50 </v>
  <v type="int" >       70 </v>
  <v type="int" >       49 </v>
  <v type="int" >       13 </v>
  <v type="int" >       16 </v>
  <v type="int" >       29 </v>
  <v type="int" >       17 </v>
  <v type="int" >       18 </v>
  <v type="int" >        5 </v>
  <v type="int" >        4 </v>
  <v type="int" >        2 </v>
  <v type="int" >        6 </v>
  <v type="int" >       64 </v>
  <v type="int" >       33 </v>
  <v type="int" >       62 </v>
  <v type="int" >       77 </v>
  <v type="int" >       71 </v>
  <v type="int" >       69 </v>
  <v type="int" >       54 </v>
  <v type="int" >       32 </v>
  <v type="int" >       30 </v>
  <v type="int" >       22 </v>
  <v type="int" >       60 </v>
  <v type="int" >       34 </v>
  <v type="int" >       48 </v>
  <v type="int" >       36 </v>
  <v type="int" >       45 </v>
  <v type="int" >       37 </v>
  <v type="int" >       57 </v>
  <v type="int" >       80 </v>
  <v type="int" >       51 </v>
  <v type="int" >       78 </v>
  <v type="int" >       38 </v>
  <v type="int" >       52 </v>
  <v type="int" >       53 </v>
  <v type="int" >       75 </v>
  <v type="int" >       68 </v>
  <v type="int" >       67 </v>
  <v type="int" >       74 </v>
  <v type="int" >       55 </v>
  <v type="int" >       28 </v>
  <v type="int" >       19 </v>
  <v type="int" >       15 </v>
  <v type="int" >       25 </v>
  <v type="int" >       12 </v>
  <v type="int" >       10 </v>
  <v type="int" >        7 </v>
  <v type="int" >        8 </v>
  <v type="int" >       23 </v>
  <v type="int" >       21 </v>
  <v type="int" >       14 </v>
  <v type="int" >       20 </v>
  <v type="int" >       11 </v>
  <v type="int" >        9 </v>
  <v type="int" >        3 </v>
  <v type="int" >       47 </v>
  <v type="int" >       44 </v>
  <v type="int" >       76 </v>
  <v type="int" >       63 </v>
  <v type="int" >       39 </v>
  <v type="int" >       59 </v>
  <v type="int" >       42 </v>
  <v type="int" >       46 </v>
  <v type="int" >       40 </v>
  <v type="int" >       58 </v>
  <v type="int" >       73 </v>
  <v type="int" >       72 </v>
  <v type="int" >       27 </v>
  <v type="int" >       31 </v>
  <v type="int" >       26 </v>
  <v type="int" >       35 </v>
  <v type="int" >       43 </v>
  <v type="int" >       41 </v>
  <v type="int" >       79 </v>
  <v type="int" >       56 </v>
  <v type="int" >       24 </v>
 </varray>
 <kpoints>
  <generation param="Gamma">
   <v type="int" name="divisions">       3        3        1 </v>
   <v name="usershift">      0.00000000       0.00000000       0.00000000 </v>
   <v name="genvec1">      0.33333333       0.00000000       0.00000000 </v>
   <v name="genvec2">      0.00000000       0.33333333       0.00000000 </v>
   <v name="genvec3">      0.00000000       0.00000000       1.00000000 </v>
   <v name="shift">      0.00000000       0.00000000       0.00000000 </v>
  </generation>
  <varray name="kpointlist" >
   <v>       0.00000000       0.00000000       0.00000000 </v>
   <v>       0.33333333      -0.00000000       0.00000000 </v>
   <v>       0.00000000       0.33333333       0.00000000 </v>
   <v>       0.33333333       0.33333333       0.00000000 </v>
   <v>      -0.33333333       0.33333333       0.00000000 </v>
  </varray>
  <varray name="weights" >
   <v>       0.11111111 </v>
   <v>       0.22222222 </v>
   <v>       0.22222222 </v>
   <v>       0.22222222 </v>
   <v>       0.22222222 </v>
  </varray>
 </kpoints>
 <parameters>
  <separator name="general" >
   <i type="string" name="SYSTEM">unknown system</i>
   <i type="logical" name="LCOMPAT"> F  </i>
  </separator>
  <separator name="electronic" >
   <i type="string" name="PREC">anorma</i>
   <i name="ENMAX">    600.00000000</i>
   <i name="ENAUG">    644.87300000</i>
   <i name="EDIFF">      0.00000100</i>
   <i type="int" name="IALGO">    38</i>
   <i type="int" name="IWAVPR">    10</i>
   <i type="int" name="NBANDS">   384</i>
   <i name="NELECT">    640.00000000</i>
   <i type="int" name="TURBO">     0</i>
   <i type="int" name="IRESTART">     0</i>
   <i type="int" name="NREBOOT">     0</i>
   <i type="int" name="NMIN">     0</i>
   <i name="EREF">      0.00000000</i>
   <separator name="electronic smearing" >
    <i type="int" name="ISMEAR">     0</i>
    <i name="SIGMA">      0.05000000</i>
    <i name="KSPACING">      0.25000000</i>
    <i type="logical" name="KGAMMA"> T  </i>
   </separator>
   <separator name="electronic projectors" >
    <i type="logical" name="LREAL"> T  </i>
    <v name="ROPT">     -0.00025000     -0.00025000     -0.00025000</v>
    <i type="int" name="LMAXPAW">  -100</i>
    <i type="int" name="LMAXMIX">     2</i>
    <i type="logical" name="NLSPLINE"> F  </i>
   </separator>
   <separator name="electronic startup" >
    <i type="int" name="ISTART">     0</i>
    <i type="int" name="ICHARG">     2</i>
    <i type="int" name="INIWAV">     1</i>
   </separator>
   <separator name="electronic spin" >
    <i type="int" name="ISPIN">     1</i>
    <i type="logical" name="LNONCOLLINEAR"> F  </i>
    <v name="MAGMOM">      1.00000000      1.00000000      1.00000000      1.00000000      1.00000000      1.00000000      1.00000000      1.00000000      1.00000000      1.00000000      1.00000000      1.00000000      1.00000000      1.00000000      1.00000000      1.00000000      1.00000000      1.00000000      1.00000000      1.00000000
      1.00000000      1.00000000      1.00000000      1.00000000      1.00000000      1.00000000      1.00000000      1.00000000      1.00000000      1.00000000      1.00000000      1.00000000      1.00000000      1.00000000      1.00000000      1.00000000      1.00000000      1.00000000      1.00000000      1.00000000
      1.00000000      1.00000000      1.00000000      1.00000000      1.00000000      1.00000000      1.00000000      1.00000000      1.00000000      1.00000000      1.00000000      1.00000000      1.00000000      1.00000000      1.00000000      1.00000000      1.00000000      1.00000000      1.00000000      1.00000000
      1.00000000      1.00000000      1.00000000      1.00000000      1.00000000      1.00000000      1.00000000      1.00000000      1.00000000      1.00000000      1.00000000      1.00000000      1.00000000      1.00000000      1.00000000      1.00000000      1.00000000      1.00000000      1.00000000      1.00000000
</v>
    <i name="NUPDOWN">     -1.00000000</i>
    <i type="logical" name="LSORBIT"> F  </i>
    <v name="SAXIS">      0.00000000      0.00000000      1.00000000</v>
    <i type="logical" name="LSPIRAL"> F  </i>
    <v name="QSPIRAL">      0.00000000      0.00000000      0.00000000</v>
    <i type="logical" name="LZEROZ"> F  </i>
   </separator>
   <separator name="electronic exchange-correlation" >
    <i type="logical" name="LASPH"> F  </i>
    <i type="logical" name="LMETAGGA"> F  </i>
   </separator>
   <separator name="electronic convergence" >
    <i type="int" name="NELM">    60</i>
    <i type="int" name="NELMDL">    -5</i>
    <i type="int" name="NELMIN">     2</i>
    <i name="ENINI">    600.00000000</i>
    <separator name="electronic convergence detail" >
     <i type="logical" name="LDIAG"> T  </i>
     <i type="logical" name="LSUBROT"> F  </i>
     <i name="WEIMIN">      0.00000000</i>
     <i name="EBREAK">      0.00000000</i>
     <i name="DEPER">      0.30000000</i>
     <i type="int" name="NRMM">     4</i>
     <i name="TIME">      0.40000000</i>
    </separator>
   </separator>
   <separator name="electronic mixer" >
    <i name="AMIX">      0.40000000</i>
    <i name="BMIX">      1.00000000</i>
    <i name="AMIN">      0.10000000</i>
    <i name="AMIX_MAG">      1.60000000</i>
    <i name="BMIX_MAG">      1.00000000</i>
    <separator name="electronic mixer details" >
     <i type="int" name="IMIX">     4</i>
     <i type="logical" name="MIXFIRST"> F  </i>
     <i type="int" name="MAXMIX">   -45</i>
     <i name="WC">    100.00000000</i>
     <i type="int" name="INIMIX">     1</i>
     <i type="int" name="MIXPRE">     1</i>
     <i type="int" name="MREMOVE">     5</i>
    </separator>
   </separator>
   <separator name="electronic dipolcorrection" >
    <i type="logical" name="LDIPOL"> F  </i>
    <i type="logical" name="LMONO"> F  </i>
    <i type="int" name="IDIPOL">     0</i>
    <i name="EPSILON">      1.00000000</i>
    <v name="DIPOL">   -100.00000000   -100.00000000   -100.00000000</v>
    <i name="EFIELD">      0.00000000</i>
   </separator>
  </separator>
  <separator name="grids" >
   <i type="int" name="NGX">   108</i>
   <i type="int" name="NGY">   108</i>
   <i type="int" name="NGZ">   216</i>
   <i type="int" name="NGXF">   216</i>
   <i type="int" name="NGYF">   216</i>
   <i type="int" name="NGZF">   432</i>
   <i type="logical" name="ADDGRID"> T  </i>
  </separator>
  <separator name="ionic" >
   <i type="int" name="NSW">     1</i>
   <i type="int" name="IBRION">    -1</i>
   <i type="int" name="MDALGO">     0</i>
   <i type="int" name="ISIF">     2</i>
   <i name="PSTRESS">      0.00000000</i>
   <i name="EDIFFG">     -0.01000000</i>
   <i type="int" name="NFREE">     0</i>
   <i name="POTIM">      1.00000000</i>
   <i name="SMASS">     -3.00000000</i>
   <i name="SCALEE">      1.00000000</i>
  </separator>
  <separator name="ionic md" >
   <i name="TEBEG">      0.00010000</i>
   <i name="TEEND">      0.00010000</i>
   <i type="int" name="NBLOCK">     1</i>
   <i type="int" name="KBLOCK">     1</i>
   <i type="int" name="NPACO">   256</i>
   <i name="APACO">     16.00000000</i>
  </separator>
  <separator name="symmetry" >
   <i type="int" name="ISYM">     2</i>
   <i name="SYMPREC">      0.00001000</i>
  </separator>
  <separator name="dos" >
   <i type="int" name="LORBIT">     0</i>
   <v name="RWIGS">     -1.00000000     -1.00000000     -1.00000000</v>
   <i type="int" name="NEDOS">   301</i>
   <i name="EMIN">     10.00000000</i>
   <i name="EMAX">    -10.00000000</i>
   <i name="EFERMI">      0.00000000</i>
  </separator>
  <separator name="writing" >
   <i type="int" name="NWRITE">     2</i>
   <i type="logical" name="LWAVE"> F  </i>
   <i type="logical" name="LDOWNSAMPLE"> F  </i>
   <i type="logical" name="LCHARG"> F  </i>
   <i type="logical" name="LPARD"> F  </i>
   <i type="logical" name="LVTOT"> F  </i>
   <i type="logical" name="LVHAR"> F  </i>
   <i type="logical" name="LELF"> F  </i>
   <i type="logical" name="LOPTICS"> F  </i>
   <v name="STM">      0.00000000      0.00000000      0.00000000      0.00000000      0.00000000      0.00000000      0.00000000</v>
  </separator>
  <separator name="performance" >
   <i type="int" name="NPAR">     4</i>
   <i type="int" name="NSIM">     4</i>
   <i type="int" name="NBLK">    -1</i>
   <i type="logical" name="LPLANE"> T  </i>
   <i type="logical" name="LSCALAPACK"> F  </i>
   <i type="logical" name="LSCAAWARE"> F  </i>
   <i type="logical" name="LSCALU"> F  </i>
   <i type="logical" name="LASYNC"> F  </i>
   <i type="logical" name="LORBITALREAL"> F  </i>
  </separator>
  <separator name="miscellaneous" >
   <i type="int" name="IDIOT">     3</i>
   <i type="int" name="ISPECIAL">     0</i>
   <i type="logical" name="LMUSIC"> F  </i>
   <v name="POMASS">     44.95600000     18.99800000     12.01100000</v>
   <v name="DARWINR">      0.00000000      0.00000000      0.00000000</v>
   <v name="DARWINV">      1.00000000      1.00000000      1.00000000</v>
   <i type="logical" name="LCORR"> T  </i>
  </separator>
  <i type="logical" name="GGA_COMPAT"> T  </i>
  <i type="logical" name="LBERRY"> F  </i>
  <i type="int" name="ICORELEVEL">     0</i>
  <i type="logical" name="LDAU"> F  </i>
  <i type="int" name="I_CONSTRAINED_M">     0</i>
  <separator name="electronic exchange-correlation" >
   <i type="string" name="GGA">--</i>
   <i type="int" name="VOSKOWN">     0</i>
   <i type="logical" name="LHFCALC"> F  </i>
   <i type="string" name="PRECFOCK"></i>
   <i type="logical" name="LSYMGRAD"> F  </i>
   <i type="logical" name="LHFONE"> F  </i>
   <i type="logical" name="LRHFCALC"> F  </i>
   <i type="logical" name="LTHOMAS"> F  </i>
   <i type="logical" name="LMODELHF"> F  </i>
   <i name="ENCUT4O">     -1.00000000</i>
   <i type="int" name="EXXOEP">     0</i>
   <i type="int" name="FOURORBIT">     0</i>
   <i name="AEXX">      0.00000000</i>
   <i name="HFALPHA">      0.00000000</i>
   <i name="MCALPHA">      0.00000000</i>
   <i name="ALDAX">      1.00000000</i>
   <i name="AGGAX">      1.00000000</i>
   <i name="ALDAC">      1.00000000</i>
   <i name="AGGAC">      1.00000000</i>
   <i type="int" name="NKREDX">     1</i>
   <i type="int" name="NKREDY">     1</i>
   <i type="int" name="NKREDZ">     1</i>
   <i type="logical" name="SHIFTRED"> F  </i>
   <i type="logical" name="ODDONLY"> F  </i>
   <i type="logical" name="EVENONLY"> F  </i>
   <i type="int" name="LMAXFOCK">     0</i>
   <i type="int" name="NMAXFOCKAE">     0</i>
   <i type="logical" name="LFOCKAEDFT"> F  </i>
   <i name="HFSCREEN">      0.00000000</i>
   <i name="HFSCREENC">      0.00000000</i>
   <i type="int" name="NBANDSGWLOW">     0</i>
  </separator>
  <separator name="vdW DFT" >
   <i type="logical" name="LUSE_VDW"> F  </i>
   <i name="Zab_VDW">     -0.84910000</i>
   <i name="PARAM1">      0.12340000</i>
   <i name="PARAM2">      1.00000000</i>
   <i name="PARAM3">      0.00000000</i>
  </separator>
  <separator name="model GW" >
   <i type="int" name="MODEL_GW">     0</i>
   <i name="MODEL_EPS0">     30.03447877</i>
   <i name="MODEL_ALPHA">      1.00000000</i>
  </separator>
  <separator name="linear response parameters" >
   <i type="logical" name="LEPSILON"> F  </i>
   <i type="logical" name="LRPA"> F  </i>
   <i type="logical" name="LNABLA"> F  </i>
   <i type="logical" name="LVEL"> F  </i>
   <i type="int" name="KINTER">     0</i>
   <i name="CSHIFT">      0.10000000</i>
   <i name="OMEGAMAX">     -1.00000000</i>
   <i name="DEG_THRESHOLD">      0.00200000</i>
   <i name="RTIME">     -0.10000000</i>
   <i name="WPLASMAI">      0.00000000</i>
   <v name="DFIELD">      0.00000000      0.00000000      0.00000000</v>
   <v name="WPLASMA">      0.00000000      0.00000000      0.00000000      0.00000000      0.00000000      0.00000000      0.00000000      0.00000000      0.00000000</v>
  </separator>
  <separator name="orbital magnetization" >
   <i type="logical" name="NUCIND"> F  </i>
   <v name="MAGPOS">      0.00000000      0.00000000      0.00000000</v>
   <i type="logical" name="LNICSALL"> T  </i>
   <i type="logical" name="ORBITALMAG"> F  </i>
   <i type="logical" name="LMAGBLOCH"> F  </i>
   <i type="logical" name="LCHIMAG"> F  </i>
   <i type="logical" name="LGAUGE"> T  </i>
   <i type="int" name="MAGATOM">     0</i>
   <v name="MAGDIPOL">      0.00000000      0.00000000      0.00000000</v>
   <v name="AVECCONST">      0.00000000      0.00000000      0.00000000</v>
  </separator>
  <separator name="response functions" >
   <i type="logical" name="LADDER"> F  </i>
   <i type="logical" name="LRPAFORCE"> F  </i>
   <i type="logical" name="LFXC"> F  </i>
   <i type="logical" name="LHARTREE"> T  </i>
   <i type="int" name="IBSE">     0</i>
   <v type="int" name="KPOINT">    -1     0     0     0</v>
   <i type="logical" name="LTCTE"> F  </i>
   <i type="logical" name="LTETE"> F  </i>
   <i type="logical" name="LTRIPLET"> F  </i>
   <i type="logical" name="LFXCEPS"> F  </i>
   <i type="logical" name="LFXHEG"> F  </i>
   <i type="int" name="NATURALO">     2</i>
   <i type="logical" name="L2ORDER"> F  </i>
   <i type="logical" name="LMP2LT"> F  </i>
   <i type="logical" name="LUSEW"> F  </i>
   <i name="ENCUTGW">     -2.00000000</i>
   <i name="ENCUTGWSOFT">     -2.00000000</i>
   <i name="ENCUTLF">     -1.00000000</i>
   <i type="int" name="LMAXMP2">    -1</i>
   <i name="SCISSOR">      0.00000000</i>
   <i type="int" name="NOMEGA">     0</i>
   <i type="int" name="NOMEGAR">     0</i>
   <i type="int" name="NBANDSGW">    -1</i>
   <i type="int" name="NBANDSO">    -1</i>
   <i type="int" name="NBANDSV">    -1</i>
   <i type="int" name="NELM">     1</i>
   <i type="int" name="NELMHF">     1</i>
   <i type="int" name="DIM">     3</i>
   <i type="int" name="ANTIRES">     0</i>
   <i name="OMEGAMAX">    -30.00000000</i>
   <i name="OMEGAMIN">    -30.00000000</i>
   <i name="OMEGATL">   -200.00000000</i>
   <i type="int" name="OMEGAGRID">   140</i>
   <i name="CSHIFT">     -0.10000000</i>
   <i type="logical" name="SELFENERGY"> F  </i>
   <i type="logical" name="LSPECTRAL"> F  </i>
   <i type="logical" name="LSPECTRALGW"> F  </i>
   <i type="logical" name="LSINGLES"> F  </i>
   <i type="logical" name="LFERMIGW"> F  </i>
   <i type="logical" name="ODDONLYGW"> F  </i>
   <i type="logical" name="EVENONLYGW"> F  </i>
   <i type="int" name="NKREDLFX">     1</i>
   <i type="int" name="NKREDLFY">     1</i>
   <i type="int" name="NKREDLFZ">     1</i>
   <i type="int" name="MAXMEM">  2800</i>
   <i type="int" name="TELESCOPE">     0</i>
   <i type="int" name="TAUPAR">     1</i>
   <i type="int" name="OMEGAPAR">    -1</i>
   <i name="LAMBDA">      1.00000000</i>
  </separator>
  <separator name="External order field" >
   <i name="OFIELD_KAPPA">      0.00000000</i>
   <v name="OFIELD_K">      0.00000000      0.00000000      0.00000000</v>
   <i name="OFIELD_Q6_NEAR">      0.00000000</i>
   <i name="OFIELD_Q6_FAR">      0.00000000</i>
   <i name="OFIELD_A">      0.00000000</i>
  </separator>
 </parameters>
 <atominfo>
  <atoms>      80 </atoms>
  <types>       3 </types>
  <array name="atoms" >
   <dimension dim="1">ion</dimension>
   <field type="string">element</field>
   <field type="int">atomtype</field>
   <set>
    <rc><c>Sc</c><c>   1</c></rc>
    <rc><c>Sc</c><c>   1</c></rc>
    <rc><c>Sc</c><c>   1</c></rc>
    <rc><c>Sc</c><c>   1</c></rc>
    <rc><c>Sc</c><c>   1</c></rc>
    <rc><c>Sc</c><c>   1</c></rc>
    <rc><c>Sc</c><c>   1</c></rc>
    <rc><c>Sc</c><c>   1</c></rc>
    <rc><c>Sc</c><c>   1</c></rc>
    <rc><c>Sc</c><c>   1</c></rc>
    <rc><c>Sc</c><c>   1</c></rc>
    <rc><c>Sc</c><c>   1</c></rc>
    <rc><c>Sc</c><c>   1</c></rc>
    <rc><c>Sc</c><c>   1</c></rc>
    <rc><c>Sc</c><c>   1</c></rc>
    <rc><c>Sc</c><c>   1</c></rc>
    <rc><c>Sc</c><c>   1</c></rc>
    <rc><c>Sc</c><c>   1</c></rc>
    <rc><c>Sc</c><c>   1</c></rc>
    <rc><c>Sc</c><c>   1</c></rc>
    <rc><c>Sc</c><c>   1</c></rc>
    <rc><c>Sc</c><c>   1</c></rc>
    <rc><c>Sc</c><c>   1</c></rc>
    <rc><c>Sc</c><c>   1</c></rc>
    <rc><c>Sc</c><c>   1</c></rc>
    <rc><c>Sc</c><c>   1</c></rc>
    <rc><c>Sc</c><c>   1</c></rc>
    <rc><c>Sc</c><c>   1</c></rc>
    <rc><c>Sc</c><c>   1</c></rc>
    <rc><c>Sc</c><c>   1</c></rc>
    <rc><c>Sc</c><c>   1</c></rc>
    <rc><c>Sc</c><c>   1</c></rc>
    <rc><c>F </c><c>   2</c></rc>
    <rc><c>F </c><c>   2</c></rc>
    <rc><c>F </c><c>   2</c></rc>
    <rc><c>F </c><c>   2</c></rc>
    <rc><c>F </c><c>   2</c></rc>
    <rc><c>F </c><c>   2</c></rc>
    <rc><c>F </c><c>   2</c></rc>
    <rc><c>F </c><c>   2</c></rc>
    <rc><c>F </c><c>   2</c></rc>
    <rc><c>F </c><c>   2</c></rc>
    <rc><c>F </c><c>   2</c></rc>
    <rc><c>F </c><c>   2</c></rc>
    <rc><c>F </c><c>   2</c></rc>
    <rc><c>F </c><c>   2</c></rc>
    <rc><c>F </c><c>   2</c></rc>
    <rc><c>F </c><c>   2</c></rc>
    <rc><c>F </c><c>   2</c></rc>
    <rc><c>F </c><c>   2</c></rc>
    <rc><c>F </c><c>   2</c></rc>
    <rc><c>F </c><c>   2</c></rc>
    <rc><c>F </c><c>   2</c></rc>
    <rc><c>F </c><c>   2</c></rc>
    <rc><c>F </c><c>   2</c></rc>
    <rc><c>F </c><c>   2</c></rc>
    <rc><c>F </c><c>   2</c></rc>
    <rc><c>F </c><c>   2</c></rc>
    <rc><c>F </c><c>   2</c></rc>
    <rc><c>F </c><c>   2</c></rc>
    <rc><c>F </c><c>   2</c></rc>
    <rc><c>F </c><c>   2</c></rc>
    <rc><c>F </c><c>   2</c></rc>
    <rc><c>F </c><c>   2</c></rc>
    <rc><c>C </c><c>   3</c></rc>
    <rc><c>C </c><c>   3</c></rc>
    <rc><c>C </c><c>   3</c></rc>
    <rc><c>C </c><c>   3</c></rc>
    <rc><c>C </c><c>   3</c></rc>
    <rc><c>C </c><c>   3</c></rc>
    <rc><c>C </c><c>   3</c></rc>
    <rc><c>C </c><c>   3</c></rc>
    <rc><c>C </c><c>   3</c></rc>
    <rc><c>C </c><c>   3</c></rc>
    <rc><c>C </c><c>   3</c></rc>
    <rc><c>C </c><c>   3</c></rc>
    <rc><c>C </c><c>   3</c></rc>
    <rc><c>C </c><c>   3</c></rc>
    <rc><c>C </c><c>   3</c></rc>
    <rc><c>C </c><c>   3</c></rc>
   </set>
  </array>
  <array name="atomtypes" >
   <dimension dim="1">type</dimension>
   <field type="int">atomspertype</field>
   <field type="string">element</field>
   <field>mass</field>
   <field>valence</field>
   <field type="string">pseudopotential</field>
   <set>
    <rc><c>  32</c><c>Sc</c><c>     44.95600000</c><c>     11.00000000</c><c>  PAW_PBE Sc_sv 07Sep2000               </c></rc>
    <rc><c>  32</c><c>F </c><c>     18.99800000</c><c>      7.00000000</c><c>  PAW_PBE F 08Apr2002                   </c></rc>
    <rc><c>  16</c><c>C </c><c>     12.01100000</c><c>      4.00000000</c><c>  PAW_PBE C 08Apr2002                   </c></rc>
   </set>
  </array>
 </atominfo>
 <structure name="initialpos" >
  <crystal>
   <varray name="basis" >
    <v>      13.12862340       0.00000000       0.00000000 </v>
    <v>      -6.56431170      11.36972138       0.00000000 </v>
    <v>       0.00000000       0.00000000      26.82809424 </v>
   </varray>
   <i name="volume">   4004.59716953 </i>
   <varray name="rec_basis" >
    <v>       0.07616945       0.04397645       0.00000000 </v>
    <v>       0.00000000       0.08795290       0.00000000 </v>
    <v>       0.00000000       0.00000000       0.03727436 </v>
   </varray>
  </crystal>
  <varray name="positions" >
   <v>       0.07375531       0.16064679       0.45290301 </v>
   <v>       0.07963275       0.41517760       0.44948829 </v>
   <v>       0.08506645       0.66076518       0.44917772 </v>
   <v>       0.09712657       0.92397950       0.45890119 </v>
   <v>       0.32246798       0.16005574       0.45074974 </v>
   <v>       0.33208337       0.41107275       0.45052724 </v>
   <v>       0.33648680       0.66107685       0.45216151 </v>
   <v>       0.32963055       0.91485115       0.45130184 </v>
   <v>       0.58070936       0.16192079       0.45158071 </v>
   <v>       0.57214994       0.41392701       0.44976699 </v>
   <v>       0.58773270       0.67291026       0.45144320 </v>
   <v>       0.58149618       0.91869704       0.45072651 </v>
   <v>       0.84045927       0.17148610       0.45626843 </v>
   <v>       0.82927998       0.42275148       0.45419638 </v>
   <v>       0.83954069       0.67515756       0.45239683 </v>
   <v>       0.83545321       0.92089192       0.45782625 </v>
   <v>       0.16902289       0.08771558       0.54831736 </v>
   <v>       0.17391016       0.33960466       0.54719020 </v>
   <v>       0.16335734       0.57500430       0.54340065 </v>
   <v>       0.16631028       0.82059016       0.54850662 </v>
   <v>       0.42311009       0.08413113       0.54615933 </v>
   <v>       0.41971235       0.34135880       0.54610052 </v>
   <v>       0.42372106       0.58773496       0.54341437 </v>
   <v>       0.41241983       0.83113385       0.54817040 </v>
   <v>       0.66079937       0.07716540       0.54813401 </v>
   <v>       0.65989041       0.32557841       0.54887308 </v>
   <v>       0.66473980       0.58459777       0.54568744 </v>
   <v>       0.66750354       0.83820886       0.54864578 </v>
   <v>       0.91742046       0.08334836       0.55064088 </v>
   <v>       0.91144852       0.32635271       0.55080050 </v>
   <v>       0.91466647       0.57900207       0.54745616 </v>
   <v>       0.92388332       0.84056561       0.55123860 </v>
   <v>       0.08131648       0.17285474       0.59253563 </v>
   <v>       0.09159634       0.42158617       0.58607560 </v>
   <v>       0.08822320       0.65603517       0.58627597 </v>
   <v>       0.08646251       0.91553445       0.58976937 </v>
   <v>       0.33687420       0.17877796       0.58908784 </v>
   <v>       0.33814297       0.42447600       0.59358503 </v>
   <v>       0.33814454       0.66469777       0.59155027 </v>
   <v>       0.33474816       0.91651068       0.59283503 </v>
   <v>       0.57575957       0.15788322       0.59256804 </v>
   <v>       0.59033012       0.42715261       0.58453729 </v>
   <v>       0.57925017       0.67075209       0.58521767 </v>
   <v>       0.58098266       0.91921092       0.59128044 </v>
   <v>       0.83527389       0.15635056       0.59635627 </v>
   <v>       0.84115119       0.42807242       0.59579440 </v>
   <v>       0.82576358       0.66987398       0.58773534 </v>
   <v>       0.82618489       0.91542773       0.59182314 </v>
   <v>       0.17479586       0.07887106       0.40658867 </v>
   <v>       0.16385576       0.32187387       0.40301353 </v>
   <v>       0.17052461       0.57847220       0.41137237 </v>
   <v>       0.16267641       0.83058177       0.40777820 </v>
   <v>       0.41493309       0.08661174       0.40467648 </v>
   <v>       0.41039681       0.33283539       0.40370837 </v>
   <v>       0.41099389       0.58616812       0.40268693 </v>
   <v>       0.40592248       0.82526019       0.41027905 </v>
   <v>       0.67283203       0.08131524       0.41044430 </v>
   <v>       0.65615284       0.33596849       0.40992354 </v>
   <v>       0.66121069       0.58270036       0.41384940 </v>
   <v>       0.67950908       0.84453566       0.41388067 </v>
   <v>       0.90906189       0.07220671       0.41219828 </v>
   <v>       0.92661952       0.33719285       0.40890834 </v>
   <v>       0.93353867       0.58712203       0.40521585 </v>
   <v>       0.91260857       0.84216202       0.41806784 </v>
   <v>       0.00247761       0.00244584       0.50219010 </v>
   <v>       0.99979619       0.24836818       0.50221864 </v>
   <v>       0.99284838       0.50044196       0.50139136 </v>
   <v>       0.99598538       0.74222634       0.50307881 </v>
   <v>       0.25817241       0.01068398       0.50168483 </v>
   <v>       0.24550120       0.25375530       0.49740255 </v>
   <v>       0.25132895       0.49389020       0.49980156 </v>
   <v>       0.25141434       0.75093295       0.50133773 </v>
   <v>       0.49381455       0.99502106       0.50028717 </v>
   <v>       0.49800615       0.24205176       0.50041763 </v>
   <v>       0.49593830       0.49778629       0.49478585 </v>
   <v>       0.50644474       0.75908866       0.50090430 </v>
   <v>       0.74679736       0.00886041       0.50130947 </v>
   <v>       0.75783806       0.26089037       0.50315692 </v>
   <v>       0.74334803       0.49941376       0.49783095 </v>
   <v>       0.75400109       0.75090704       0.50056662 </v>
  </varray>
  <varray name="velocities" >
   <v>       0.00000000       0.00000000       0.00000000 </v>
   <v>       0.00000000       0.00000000       0.00000000 </v>
   <v>       0.00000000       0.00000000       0.00000000 </v>
   <v>       0.00000000       0.00000000       0.00000000 </v>
   <v>       0.00000000       0.00000000       0.00000000 </v>
   <v>       0.00000000       0.00000000       0.00000000 </v>
   <v>       0.00000000       0.00000000       0.00000000 </v>
   <v>       0.00000000       0.00000000       0.00000000 </v>
   <v>       0.00000000       0.00000000       0.00000000 </v>
   <v>       0.00000000       0.00000000       0.00000000 </v>
   <v>       0.00000000       0.00000000       0.00000000 </v>
   <v>       0.00000000       0.00000000       0.00000000 </v>
   <v>       0.00000000       0.00000000       0.00000000 </v>
   <v>       0.00000000       0.00000000       0.00000000 </v>
   <v>       0.00000000       0.00000000       0.00000000 </v>
   <v>       0.00000000       0.00000000       0.00000000 </v>
   <v>       0.00000000       0.00000000       0.00000000 </v>
   <v>       0.00000000       0.00000000       0.00000000 </v>
   <v>       0.00000000       0.00000000       0.00000000 </v>
   <v>       0.00000000       0.00000000       0.00000000 </v>
   <v>       0.00000000       0.00000000       0.00000000 </v>
   <v>       0.00000000       0.00000000       0.00000000 </v>
   <v>       0.00000000       0.00000000       0.00000000 </v>
   <v>       0.00000000       0.00000000       0.00000000 </v>
   <v>       0.00000000       0.00000000       0.00000000 </v>
   <v>       0.00000000       0.00000000       0.00000000 </v>
   <v>       0.00000000       0.00000000       0.00000000 </v>
   <v>       0.00000000       0.00000000       0.00000000 </v>
   <v>       0.00000000       0.00000000       0.00000000 </v>
   <v>       0.00000000       0.00000000       0.00000000 </v>
   <v>       0.00000000       0.00000000       0.00000000 </v>
   <v>       0.00000000       0.00000000       0.00000000 </v>
   <v>       0.00000000       0.00000000       0.00000000 </v>
   <v>       0.00000000       0.00000000       0.00000000 </v>
   <v>       0.00000000       0.00000000       0.00000000 </v>
   <v>       0.00000000       0.00000000       0.00000000 </v>
   <v>       0.00000000       0.00000000       0.00000000 </v>
   <v>       0.00000000       0.00000000       0.00000000 </v>
   <v>       0.00000000       0.00000000       0.00000000 </v>
   <v>       0.00000000       0.00000000       0.00000000 </v>
   <v>       0.00000000       0.00000000       0.00000000 </v>
   <v>       0.00000000       0.00000000       0.00000000 </v>
   <v>       0.00000000       0.00000000       0.00000000 </v>
   <v>       0.00000000       0.00000000       0.00000000 </v>
   <v>       0.00000000       0.00000000       0.00000000 </v>
   <v>       0.00000000       0.00000000       0.00000000 </v>
   <v>       0.00000000       0.00000000       0.00000000 </v>
   <v>       0.00000000       0.00000000       0.00000000 </v>
   <v>       0.00000000       0.00000000       0.00000000 </v>
   <v>       0.00000000       0.00000000       0.00000000 </v>
   <v>       0.00000000       0.00000000       0.00000000 </v>
   <v>       0.00000000       0.00000000       0.00000000 </v>
   <v>       0.00000000       0.00000000       0.00000000 </v>
   <v>       0.00000000       0.00000000       0.00000000 </v>
   <v>       0.00000000       0.00000000       0.00000000 </v>
   <v>       0.00000000       0.00000000       0.00000000 </v>
   <v>       0.00000000       0.00000000       0.00000000 </v>
   <v>       0.00000000       0.00000000       0.00000000 </v>
   <v>       0.00000000       0.00000000       0.00000000 </v>
   <v>       0.00000000       0.00000000       0.00000000 </v>
   <v>       0.00000000       0.00000000       0.00000000 </v>
   <v>       0.00000000       0.00000000       0.00000000 </v>
   <v>       0.00000000       0.00000000       0.00000000 </v>
   <v>       0.00000000       0.00000000       0.00000000 </v>
   <v>       0.00000000       0.00000000       0.00000000 </v>
   <v>       0.00000000       0.00000000       0.00000000 </v>
   <v>       0.00000000       0.00000000       0.00000000 </v>
   <v>       0.00000000       0.00000000       0.00000000 </v>
   <v>       0.00000000       0.00000000       0.00000000 </v>
   <v>       0.00000000       0.00000000       0.00000000 </v>
   <v>       0.00000000       0.00000000       0.00000000 </v>
   <v>       0.00000000       0.00000000       0.00000000 </v>
   <v>       0.00000000       0.00000000       0.00000000 </v>
   <v>       0.00000000       0.00000000       0.00000000 </v>
   <v>       0.00000000       0.00000000       0.00000000 </v>
   <v>       0.00000000       0.00000000       0.00000000 </v>
   <v>       0.00000000       0.00000000       0.00000000 </v>
   <v>       0.00000000       0.00000000       0.00000000 </v>
   <v>       0.00000000       0.00000000       0.00000000 </v>
   <v>       0.00000000       0.00000000       0.00000000 </v>
  </varray>
 </structure>
 <calculation>
  <scstep>
   <time name="dav">   46.27   46.28</time>
   <time name="total">   47.14   47.16</time>
   <energy>
    <i name="alphaZ">    871.83850952 </i>
    <i name="ewald"> 286630.21135422 </i>
    <i name="hartreedc">-340983.52609302 </i>
    <i name="XCdc">   3042.93590461 </i>
    <i name="pawpsdc">  50525.51240023 </i>
    <i name="pawaedc"> -50422.77561733 </i>
    <i name="eentropy">     -0.07852978 </i>
    <i name="bandstr">   -176.05349606 </i>
    <i name="atom">  64207.43592568 </i>
    <i name="e_fr_energy">  13695.50035808 </i>
    <i name="e_wo_entrp">  13695.57888786 </i>
    <i name="e_0_energy">  13695.53962297 </i>
   </energy>
  </scstep>
  <scstep>
   <time name="dav">   50.61   50.63</time>
   <time name="total">   50.61   50.63</time>
   <energy>
    <i name="e_fr_energy">   2499.72514263 </i>
    <i name="e_wo_entrp">   2499.77287491 </i>
    <i name="e_0_energy">   2499.74900877 </i>
   </energy>
  </scstep>
  <scstep>
   <time name="dav">   67.75   67.75</time>
   <time name="total">   67.75   67.76</time>
   <energy>
    <i name="e_fr_energy">   -380.88026025 </i>
    <i name="e_wo_entrp">   -380.88026025 </i>
    <i name="e_0_energy">   -380.88026025 </i>
   </energy>
  </scstep>
  <scstep>
   <time name="dav">   61.16   61.17</time>
   <time name="total">   61.16   61.17</time>
   <energy>
    <i name="e_fr_energy">   -740.36775784 </i>
    <i name="e_wo_entrp">   -740.36775784 </i>
    <i name="e_0_energy">   -740.36775784 </i>
   </energy>
  </scstep>
  <scstep>
   <time name="dav">   61.46   61.48</time>
   <time name="total">   65.01   65.03</time>
   <energy>
    <i name="e_fr_energy">   -754.91418831 </i>
    <i name="e_wo_entrp">   -754.91418831 </i>
    <i name="e_0_energy">   -754.91418831 </i>
   </energy>
  </scstep>
  <scstep>
   <time name="dav">   58.77   58.78</time>
   <time name="total">   63.18   63.20</time>
   <energy>
    <i name="e_fr_energy">   -599.27071796 </i>
    <i name="e_wo_entrp">   -599.27071796 </i>
    <i name="e_0_energy">   -599.27071796 </i>
   </energy>
  </scstep>
  <scstep>
   <time name="dav">   60.66   60.66</time>
   <time name="total">   65.06   65.07</time>
   <energy>
    <i name="e_fr_energy">   -599.25772677 </i>
    <i name="e_wo_entrp">   -599.25772677 </i>
    <i name="e_0_energy">   -599.25772677 </i>
   </energy>
  </scstep>
  <scstep>
   <time name="dav">   56.88   56.88</time>
   <time name="total">   61.26   61.27</time>
   <energy>
    <i name="e_fr_energy">   -597.69445727 </i>
    <i name="e_wo_entrp">   -597.69445727 </i>
    <i name="e_0_energy">   -597.69445727 </i>
   </energy>
  </scstep>
  <scstep>
   <time name="dav">   56.41   56.41</time>
   <time name="total">   60.88   60.90</time>
   <energy>
    <i name="e_fr_energy">   -597.16695831 </i>
    <i name="e_wo_entrp">   -597.16695831 </i>
    <i name="e_0_energy">   -597.16695831 </i>
   </energy>
  </scstep>
  <scstep>
   <time name="dav">   60.03   60.03</time>
   <time name="total">   64.45   64.46</time>
   <energy>
    <i name="e_fr_energy">   -597.13002453 </i>
    <i name="e_wo_entrp">   -597.13002453 </i>
    <i name="e_0_energy">   -597.13002453 </i>
   </energy>
  </scstep>
  <scstep>
   <time name="dav">   57.18   57.19</time>
   <time name="total">   61.64   61.66</time>
   <energy>
    <i name="e_fr_energy">   -597.00326165 </i>
    <i name="e_wo_entrp">   -597.00326165 </i>
    <i name="e_0_energy">   -597.00326165 </i>
   </energy>
  </scstep>
  <scstep>
   <time name="dav">   61.22   61.23</time>
   <time name="total">   65.60   65.62</time>
   <energy>
    <i name="e_fr_energy">   -596.97575990 </i>
    <i name="e_wo_entrp">   -596.97575990 </i>
    <i name="e_0_energy">   -596.97575990 </i>
   </energy>
  </scstep>
  <scstep>
   <time name="dav">   58.92   58.93</time>
   <time name="total">   63.29   63.31</time>
   <energy>
    <i name="e_fr_energy">   -596.96875014 </i>
    <i name="e_wo_entrp">   -596.96875014 </i>
    <i name="e_0_energy">   -596.96875014 </i>
   </energy>
  </scstep>
  <scstep>
   <time name="dav">   58.02   58.03</time>
   <time name="total">   62.43   62.44</time>
   <energy>
    <i name="e_fr_energy">   -596.96619227 </i>
    <i name="e_wo_entrp">   -596.96619227 </i>
    <i name="e_0_energy">   -596.96619227 </i>
   </energy>
  </scstep>
  <scstep>
   <time name="dav">   60.47   60.47</time>
   <time name="total">   64.96   64.98</time>
   <energy>
    <i name="e_fr_energy">   -596.97208596 </i>
    <i name="e_wo_entrp">   -596.97208596 </i>
    <i name="e_0_energy">   -596.97208596 </i>
   </energy>
  </scstep>
  <scstep>
   <time name="dav">   60.48   60.48</time>
   <time name="total">   64.90   64.92</time>
   <energy>
    <i name="e_fr_energy">   -596.97547680 </i>
    <i name="e_wo_entrp">   -596.97547680 </i>
    <i name="e_0_energy">   -596.97547680 </i>
   </energy>
  </scstep>
  <scstep>
   <time name="dav">   61.50   61.50</time>
   <time name="total">   65.98   66.00</time>
   <energy>
    <i name="e_fr_energy">   -596.98048285 </i>
    <i name="e_wo_entrp">   -596.98048285 </i>
    <i name="e_0_energy">   -596.98048285 </i>
   </energy>
  </scstep>
  <scstep>
   <time name="dav">   55.62   55.62</time>
   <time name="total">   60.01   60.03</time>
   <energy>
    <i name="e_fr_energy">   -596.98396756 </i>
    <i name="e_wo_entrp">   -596.98396756 </i>
    <i name="e_0_energy">   -596.98396756 </i>
   </energy>
  </scstep>
  <scstep>
   <time name="dav">   59.11   59.12</time>
   <time name="total">   63.54   63.55</time>
   <energy>
    <i name="e_fr_energy">   -596.98548497 </i>
    <i name="e_wo_entrp">   -596.98548497 </i>
    <i name="e_0_energy">   -596.98548497 </i>
   </energy>
  </scstep>
  <scstep>
   <time name="dav">   51.53   51.53</time>
   <time name="total">   56.07   56.09</time>
   <energy>
    <i name="e_fr_energy">   -596.98876721 </i>
    <i name="e_wo_entrp">   -596.98876721 </i>
    <i name="e_0_energy">   -596.98876721 </i>
   </energy>
  </scstep>
  <scstep>
   <time name="dav">   47.46   47.47</time>
   <time name="total">   51.90   51.91</time>
   <energy>
    <i name="e_fr_energy">   -596.99105192 </i>
    <i name="e_wo_entrp">   -596.99105192 </i>
    <i name="e_0_energy">   -596.99105192 </i>
   </energy>
  </scstep>
  <scstep>
   <time name="dav">   50.22   50.22</time>
   <time name="total">   54.64   54.66</time>
   <energy>
    <i name="e_fr_energy">   -596.99192489 </i>
    <i name="e_wo_entrp">   -596.99192489 </i>
    <i name="e_0_energy">   -596.99192489 </i>
   </energy>
  </scstep>
  <scstep>
   <time name="dav">   51.82   51.82</time>
   <time name="total">   56.20   56.21</time>
   <energy>
    <i name="e_fr_energy">   -596.99231390 </i>
    <i name="e_wo_entrp">   -596.99231390 </i>
    <i name="e_0_energy">   -596.99231390 </i>
   </energy>
  </scstep>
  <scstep>
   <time name="dav">   46.17   46.17</time>
   <time name="total">   50.59   50.60</time>
   <energy>
    <i name="e_fr_energy">   -596.99262117 </i>
    <i name="e_wo_entrp">   -596.99262117 </i>
    <i name="e_0_energy">   -596.99262117 </i>
   </energy>
  </scstep>
  <scstep>
   <time name="dav">   44.06   44.07</time>
   <time name="total">   48.44   48.45</time>
   <energy>
    <i name="e_fr_energy">   -596.99277961 </i>
    <i name="e_wo_entrp">   -596.99277961 </i>
    <i name="e_0_energy">   -596.99277961 </i>
   </energy>
  </scstep>
  <scstep>
   <time name="dav">   35.18   35.19</time>
   <time name="total">   39.58   39.60</time>
   <energy>
    <i name="e_fr_energy">   -596.99284401 </i>
    <i name="e_wo_entrp">   -596.99284401 </i>
    <i name="e_0_energy">   -596.99284401 </i>
   </energy>
  </scstep>
  <scstep>
   <time name="dav">   33.06   33.07</time>
   <time name="total">   37.46   37.47</time>
   <energy>
    <i name="e_fr_energy">   -596.99287146 </i>
    <i name="e_wo_entrp">   -596.99287146 </i>
    <i name="e_0_energy">   -596.99287146 </i>
   </energy>
  </scstep>
  <scstep>
   <time name="dav">   34.20   34.20</time>
   <time name="total">   38.57   38.58</time>
   <energy>
    <i name="e_fr_energy">   -596.99288967 </i>
    <i name="e_wo_entrp">   -596.99288967 </i>
    <i name="e_0_energy">   -596.99288967 </i>
   </energy>
  </scstep>
  <scstep>
   <time name="dav">   32.89   32.89</time>
   <time name="total">   37.28   37.28</time>
   <energy>
    <i name="e_fr_energy">   -596.99289506 </i>
    <i name="e_wo_entrp">   -596.99289506 </i>
    <i name="e_0_energy">   -596.99289506 </i>
   </energy>
  </scstep>
  <scstep>
   <time name="dav">   32.12   32.13</time>
   <time name="total">   36.51   36.52</time>
   <energy>
    <i name="e_fr_energy">   -596.99289869 </i>
    <i name="e_wo_entrp">   -596.99289869 </i>
    <i name="e_0_energy">   -596.99289869 </i>
   </energy>
  </scstep>
  <scstep>
   <time name="dav">   32.19   32.19</time>
   <time name="total">   36.60   36.61</time>
   <energy>
    <i name="e_fr_energy">   -596.99290009 </i>
    <i name="e_wo_entrp">   -596.99290009 </i>
    <i name="e_0_energy">   -596.99290009 </i>
   </energy>
  </scstep>
  <scstep>
   <time name="dav">   32.13   32.13</time>
   <time name="total">   32.98   33.00</time>
   <energy>
    <i name="alphaZ">    871.83850952 </i>
    <i name="ewald"> 286630.21135422 </i>
    <i name="hartreedc">-342191.93255869 </i>
    <i name="XCdc">   3054.04450338 </i>
    <i name="pawpsdc">  66091.14449046 </i>
    <i name="pawaedc"> -66084.02371643 </i>
    <i name="eentropy">     -0.00000000 </i>
    <i name="bandstr"> -13175.71140912 </i>
    <i name="atom">  64207.43592568 </i>
    <i name="e_fr_energy">   -596.99290097 </i>
    <i name="e_wo_entrp">   -596.99290097 </i>
    <i name="e_0_energy">   -596.99290097 </i>
   </energy>
  </scstep>
  <structure>
   <crystal>
    <varray name="basis" >
     <v>      13.12862340       0.00000000       0.00000000 </v>
     <v>      -6.56431170      11.36972138       0.00000000 </v>
     <v>       0.00000000       0.00000000      26.82809424 </v>
    </varray>
    <i name="volume">   4004.59716953 </i>
    <varray name="rec_basis" >
     <v>       0.07616945       0.04397645       0.00000000 </v>
     <v>       0.00000000       0.08795290       0.00000000 </v>
     <v>       0.00000000       0.00000000       0.03727436 </v>
    </varray>
   </crystal>
   <varray name="positions" >
    <v>       0.07375531       0.16064679       0.45290301 </v>
    <v>       0.07963275       0.41517760       0.44948829 </v>
    <v>       0.08506645       0.66076518       0.44917772 </v>
    <v>       0.09712657       0.92397950       0.45890119 </v>
    <v>       0.32246798       0.16005574       0.45074974 </v>
    <v>       0.33208337       0.41107275       0.45052724 </v>
    <v>       0.33648680       0.66107685       0.45216151 </v>
    <v>       0.32963055       0.91485115       0.45130184 </v>
    <v>       0.58070936       0.16192079       0.45158071 </v>
    <v>       0.57214994       0.41392701       0.44976699 </v>
    <v>       0.58773270       0.67291026       0.45144320 </v>
    <v>       0.58149618       0.91869704       0.45072651 </v>
    <v>       0.84045927       0.17148610       0.45626843 </v>
    <v>       0.82927998       0.42275148       0.45419638 </v>
    <v>       0.83954069       0.67515756       0.45239683 </v>
    <v>       0.83545321       0.92089192       0.45782625 </v>
    <v>       0.16902289       0.08771558       0.54831736 </v>
    <v>       0.17391016       0.33960466       0.54719020 </v>
    <v>       0.16335734       0.57500430       0.54340065 </v>
    <v>       0.16631028       0.82059016       0.54850662 </v>
    <v>       0.42311009       0.08413113       0.54615933 </v>
    <v>       0.41971235       0.34135880       0.54610052 </v>
    <v>       0.42372106       0.58773496       0.54341437 </v>
    <v>       0.41241983       0.83113385       0.54817040 </v>
    <v>       0.66079937       0.07716540       0.54813401 </v>
    <v>       0.65989041       0.32557841       0.54887308 </v>
    <v>       0.66473980       0.58459777       0.54568744 </v>
    <v>       0.66750354       0.83820886       0.54864578 </v>
    <v>       0.91742046       0.08334836       0.55064088 </v>
    <v>       0.91144852       0.32635271       0.55080050 </v>
    <v>       0.91466647       0.57900207       0.54745616 </v>
    <v>       0.92388332       0.84056561       0.55123860 </v>
    <v>       0.08131648       0.17285474       0.59253563 </v>
    <v>       0.09159634       0.42158617       0.58607560 </v>
    <v>       0.08822320       0.65603517       0.58627597 </v>
    <v>       0.08646251       0.91553445       0.58976937 </v>
    <v>       0.33687420       0.17877796       0.58908784 </v>
    <v>       0.33814297       0.42447600       0.59358503 </v>
    <v>       0.33814454       0.66469777       0.59155027 </v>
    <v>       0.33474816       0.91651068       0.59283503 </v>
    <v>       0.57575957       0.15788322       0.59256804 </v>
    <v>       0.59033012       0.42715261       0.58453729 </v>
    <v>       0.57925017       0.67075209       0.58521767 </v>
    <v>       0.58098266       0.91921092       0.59128044 </v>
    <v>       0.83527389       0.15635056       0.59635627 </v>
    <v>       0.84115119       0.42807242       0.59579440 </v>
    <v>       0.82576358       0.66987398       0.58773534 </v>
    <v>       0.82618489       0.91542773       0.59182314 </v>
    <v>       0.17479586       0.07887106       0.40658867 </v>
    <v>       0.16385576       0.32187387       0.40301353 </v>
    <v>       0.17052461       0.57847220       0.41137237 </v>
    <v>       0.16267641       0.83058177       0.40777820 </v>
    <v>       0.41493309       0.08661174       0.40467648 </v>
    <v>       0.41039681       0.33283539       0.40370837 </v>
    <v>       0.41099389       0.58616812       0.40268693 </v>
    <v>       0.40592248       0.82526019       0.41027905 </v>
    <v>       0.67283203       0.08131524       0.41044430 </v>
    <v>       0.65615284       0.33596849       0.40992354 </v>
    <v>       0.66121069       0.58270036       0.41384940 </v>
    <v>       0.67950908       0.84453566       0.41388067 </v>
    <v>       0.90906189       0.07220671       0.41219828 </v>
    <v>       0.92661952       0.33719285       0.40890834 </v>
    <v>       0.93353867       0.58712203       0.40521585 </v>
    <v>       0.91260857       0.84216202       0.41806784 </v>
    <v>       0.00247761       0.00244584       0.50219010 </v>
    <v>       0.99979619       0.24836818       0.50221864 </v>
    <v>       0.99284838       0.50044196       0.50139136 </v>
    <v>       0.99598538       0.74222634       0.50307881 </v>
    <v>       0.25817241       0.01068398       0.50168483 </v>
    <v>       0.24550120       0.25375530       0.49740255 </v>
    <v>       0.25132895       0.49389020       0.49980156 </v>
    <v>       0.25141434       0.75093295       0.50133773 </v>
    <v>       0.49381455       0.99502106       0.50028717 </v>
    <v>       0.49800615       0.24205176       0.50041763 </v>
    <v>       0.49593830       0.49778629       0.49478585 </v>
    <v>       0.50644474       0.75908866       0.50090430 </v>
    <v>       0.74679736       0.00886041       0.50130947 </v>
    <v>       0.75783806       0.26089037       0.50315692 </v>
    <v>       0.74334803       0.49941376       0.49783095 </v>
    <v>       0.75400109       0.75090704       0.50056662 </v>
   </varray>
  </structure>
  <varray name="forces" >
   <v>       0.75429801       0.99560135      -0.05943438 </v>
   <v>       0.65375140      -0.55364732       0.89263641 </v>
   <v>      -0.72363074       0.52968575       1.06216612 </v>
   <v>      -1.16115642      -1.21025479      -0.95990446 </v>
   <v>       1.17080065       1.12544165       0.16582468 </v>
   <v>      -0.77776050       0.13116314      -0.80685766 </v>
   <v>      -0.16702589       0.38075987       0.03974599 </v>
   <v>       0.33805576      -0.06027485       0.34277725 </v>
   <v>      -0.37149858       0.73899246       0.07566014 </v>
   <v>       1.24804915      -0.04486862       0.16892527 </v>
   <v>       0.21640812       0.05144008       0.09708084 </v>
   <v>       0.33983025      -0.07855249       0.69828294 </v>
   <v>      -0.90083535      -0.24467656      -0.35176997 </v>
   <v>       0.04589262      -0.50483863      -0.17684505 </v>
   <v>      -0.24927685      -0.55033720       0.72151982 </v>
   <v>      -0.11786143      -0.47576764      -0.13286464 </v>
   <v>       0.28135158       0.45262515       0.34183553 </v>
   <v>      -0.26172610      -0.64970357       0.11314060 </v>
   <v>       0.29410527       0.52543428       0.49530134 </v>
   <v>      -0.41142706       0.65987767       0.08976508 </v>
   <v>      -1.19130119      -0.16075536       0.58740619 </v>
   <v>      -0.06577443      -1.00877149      -0.18230918 </v>
   <v>      -0.98619088      -0.28788047       0.69010792 </v>
   <v>       0.26396399      -0.25751401       0.20485799 </v>
   <v>       0.30261124       0.55658625       0.10455705 </v>
   <v>       0.17667586       0.88829208      -0.67536873 </v>
   <v>       0.83771911       0.50898595      -0.65392424 </v>
   <v>      -0.07970468      -0.18721261      -0.43764642 </v>
   <v>      -0.23392298       0.49608468       0.01054348 </v>
   <v>       0.04979333       0.84612277      -0.09569933 </v>
   <v>      -0.57910809       0.15356161       0.05759612 </v>
   <v>      -0.20144338      -1.23627062      -0.58945128 </v>
   <v>       0.37761395      -0.20988781      -0.19108666 </v>
   <v>      -0.29393084      -0.32684135       0.68052084 </v>
   <v>      -0.42464980       0.30531439       0.72382786 </v>
   <v>       0.04509167       0.20846406       0.27338213 </v>
   <v>      -0.05187459      -0.15260397       0.03558511 </v>
   <v>       0.26622185      -0.16066895      -0.78277790 </v>
   <v>      -0.11862152       0.04897442      -0.59978971 </v>
   <v>      -0.08554651      -0.15069692      -0.39884413 </v>
   <v>       0.24498803       0.40577529      -0.07650650 </v>
   <v>      -0.36601723      -0.64904203       0.87885059 </v>
   <v>       0.40822775      -0.18430167       0.70692481 </v>
   <v>       0.08282398      -0.10943193      -0.01016660 </v>
   <v>      -0.37744868       0.42662892      -0.49067685 </v>
   <v>      -0.07374652      -0.57622215      -0.38511534 </v>
   <v>       0.24546390      -0.12745401       0.47463335 </v>
   <v>       0.42782764       0.13139328       0.07016149 </v>
   <v>      -0.65074257      -0.38048575       0.40101327 </v>
   <v>      -0.38101072       0.17444725       0.88343935 </v>
   <v>      -0.16607168       0.18012268      -0.37592350 </v>
   <v>       0.11576173       0.17598190       0.56403781 </v>
   <v>       0.25955996      -0.23307324       0.73427496 </v>
   <v>       0.21246716      -0.11322113       0.60311595 </v>
   <v>       0.22226793       0.14206091       0.82077463 </v>
   <v>       0.25689286       0.34062599      -0.12537600 </v>
   <v>      -0.41291008       0.33848171      -0.02935323 </v>
   <v>       0.60900235      -0.37838739      -0.09090910 </v>
   <v>       0.22200336       0.27847704      -0.84022498 </v>
   <v>      -0.49513330      -0.36290367      -0.52255772 </v>
   <v>       0.01155443       0.65431209      -0.15826500 </v>
   <v>      -0.47957057      -0.30432237       0.00875902 </v>
   <v>      -0.60737830      -0.17642137       0.31696331 </v>
   <v>       0.81801369      -0.11251347      -1.00107493 </v>
   <v>       0.17909287       0.11393564       0.53987098 </v>
   <v>      -0.05460232       0.10493907      -0.46047193 </v>
   <v>       1.31050506      -0.37134223      -1.06267514 </v>
   <v>       0.52495687       1.32830304      -0.57314754 </v>
   <v>      -0.49718705      -1.27451065      -0.45646723 </v>
   <v>       0.83492207      -0.61349110       0.49564167 </v>
   <v>      -0.40527120       0.93319097      -0.93740891 </v>
   <v>       0.05039345      -0.26813399      -0.89111254 </v>
   <v>       0.44801442       0.53391759      -0.77305164 </v>
   <v>      -0.20797594       0.90293986      -0.33030240 </v>
   <v>      -0.16439453       0.44956033       0.98400797 </v>
   <v>      -0.23821601      -1.00157919      -0.88105993 </v>
   <v>       0.72246647      -0.72589813       0.40295460 </v>
   <v>      -0.46535454      -1.26560210      -0.34055090 </v>
   <v>       0.46511694       0.12164163       0.26948692 </v>
   <v>      -0.83725768       0.40022000       0.07901428 </v>
  </varray>
  <varray name="stress" >
   <v>       2.02928126       0.38744840      -0.34798893 </v>
   <v>       0.38744841       2.32246304      -0.87283037 </v>
   <v>      -0.34798894      -0.87283038      -3.07900430 </v>
  </varray>
  <energy>
   <i name="e_fr_energy">   -596.99290097 </i>
   <i name="e_wo_entrp">   -596.99290097 </i>
   <i name="e_0_energy">     -0.00000000 </i>
  </energy>
  <time name="totalsc"> 1820.96 1821.44</time>
  <eigenvalues>
   <array>
    <dimension dim="1">band</dimension>
    <dimension dim="2">kpoint</dimension>
    <dimension dim="3">spin</dimension>
    <field>eigene</field>
    <field>occ</field>
    <set>
     <set comment="spin 1">
      <set comment="kpoint 1">
       <r>  -51.8704    1.0000 </r>
       <r>  -51.7684    1.0000 </r>
       <r>  -51.7408    1.0000 </r>
       <r>  -51.7135    1.0000 </r>
       <r>  -51.6719    1.0000 </r>
       <r>  -51.6484    1.0000 </r>
       <r>  -51.6406    1.0000 </r>
       <r>  -51.6302    1.0000 </r>
       <r>  -51.6085    1.0000 </r>
       <r>  -51.5862    1.0000 </r>
       <r>  -51.5758    1.0000 </r>
       <r>  -51.5340    1.0000 </r>
       <r>  -51.5315    1.0000 </r>
       <r>  -51.5134    1.0000 </r>
       <r>  -51.4818    1.0000 </r>
       <r>  -51.4618    1.0000 </r>
       <r>  -51.4580    1.0000 </r>
       <r>  -51.4433    1.0000 </r>
       <r>  -51.4098    1.0000 </r>
       <r>  -51.3974    1.0000 </r>
       <r>  -51.3895    1.0000 </r>
       <r>  -51.3775    1.0000 </r>
       <r>  -51.3387    1.0000 </r>
       <r>  -51.3224    1.0000 </r>
       <r>  -51.2587    1.0000 </r>
       <r>  -51.2541    1.0000 </r>
       <r>  -51.2210    1.0000 </r>
       <r>  -51.1979    1.0000 </r>
       <r>  -51.1826    1.0000 </r>
       <r>  -51.1665    1.0000 </r>
       <r>  -51.1391    1.0000 </r>
       <r>  -51.0623    1.0000 </r>
       <r>  -30.8928    1.0000 </r>
       <r>  -30.7294    1.0000 </r>
       <r>  -30.6851    1.0000 </r>
       <r>  -30.6675    1.0000 </r>
       <r>  -30.6543    1.0000 </r>
       <r>  -30.6314    1.0000 </r>
       <r>  -30.6158    1.0000 </r>
       <r>  -30.5821    1.0000 </r>
       <r>  -30.5752    1.0000 </r>
       <r>  -30.5703    1.0000 </r>
       <r>  -30.5569    1.0000 </r>
       <r>  -30.5458    1.0000 </r>
       <r>  -30.5372    1.0000 </r>
       <r>  -30.5243    1.0000 </r>
       <r>  -30.5207    1.0000 </r>
       <r>  -30.5078    1.0000 </r>
       <r>  -30.4876    1.0000 </r>
       <r>  -30.4865    1.0000 </r>
       <r>  -30.4806    1.0000 </r>
       <r>  -30.4591    1.0000 </r>
       <r>  -30.4576    1.0000 </r>
       <r>  -30.4500    1.0000 </r>
       <r>  -30.4451    1.0000 </r>
       <r>  -30.4350    1.0000 </r>
       <r>  -30.4315    1.0000 </r>
       <r>  -30.4093    1.0000 </r>
       <r>  -30.3972    1.0000 </r>
       <r>  -30.3904    1.0000 </r>
       <r>  -30.3811    1.0000 </r>
       <r>  -30.3731    1.0000 </r>
       <r>  -30.3609    1.0000 </r>
       <r>  -30.3481    1.0000 </r>
       <r>  -30.3373    1.0000 </r>
       <r>  -30.3271    1.0000 </r>
       <r>  -30.3254    1.0000 </r>
       <r>  -30.3108    1.0000 </r>
       <r>  -30.3061    1.0000 </r>
       <r>  -30.2927    1.0000 </r>
       <r>  -30.2868    1.0000 </r>
       <r>  -30.2842    1.0000 </r>
       <r>  -30.2710    1.0000 </r>
       <r>  -30.2561    1.0000 </r>
       <r>  -30.2429    1.0000 </r>
       <r>  -30.2385    1.0000 </r>
       <r>  -30.2216    1.0000 </r>
       <r>  -30.2121    1.0000 </r>
       <r>  -30.2044    1.0000 </r>
       <r>  -30.1862    1.0000 </r>
       <r>  -30.1784    1.0000 </r>
       <r>  -30.1630    1.0000 </r>
       <r>  -30.1581    1.0000 </r>
       <r>  -30.1571    1.0000 </r>
       <r>  -30.1432    1.0000 </r>
       <r>  -30.1365    1.0000 </r>
       <r>  -30.1251    1.0000 </r>
       <r>  -30.1185    1.0000 </r>
       <r>  -30.1130    1.0000 </r>
       <r>  -30.1053    1.0000 </r>
       <r>  -30.0952    1.0000 </r>
       <r>  -30.0902    1.0000 </r>
       <r>  -30.0853    1.0000 </r>
       <r>  -30.0804    1.0000 </r>
       <r>  -30.0667    1.0000 </r>
       <r>  -30.0639    1.0000 </r>
       <r>  -30.0537    1.0000 </r>
       <r>  -30.0466    1.0000 </r>
       <r>  -30.0420    1.0000 </r>
       <r>  -30.0381    1.0000 </r>
       <r>  -30.0191    1.0000 </r>
       <r>  -30.0104    1.0000 </r>
       <r>  -30.0015    1.0000 </r>
       <r>  -29.9937    1.0000 </r>
       <r>  -29.9830    1.0000 </r>
       <r>  -29.9806    1.0000 </r>
       <r>  -29.9613    1.0000 </r>
       <r>  -29.9573    1.0000 </r>
       <r>  -29.9425    1.0000 </r>
       <r>  -29.9333    1.0000 </r>
       <r>  -29.9294    1.0000 </r>
       <r>  -29.9216    1.0000 </r>
       <r>  -29.9105    1.0000 </r>
       <r>  -29.9075    1.0000 </r>
       <r>  -29.8951    1.0000 </r>
       <r>  -29.8892    1.0000 </r>
       <r>  -29.8701    1.0000 </r>
       <r>  -29.8544    1.0000 </r>
       <r>  -29.8490    1.0000 </r>
       <r>  -29.8379    1.0000 </r>
       <r>  -29.8313    1.0000 </r>
       <r>  -29.8100    1.0000 </r>
       <r>  -29.8027    1.0000 </r>
       <r>  -29.7894    1.0000 </r>
       <r>  -29.7740    1.0000 </r>
       <r>  -29.7697    1.0000 </r>
       <r>  -29.7602    1.0000 </r>
       <r>  -29.7299    1.0000 </r>
       <r>  -27.1631    1.0000 </r>
       <r>  -27.0078    1.0000 </r>
       <r>  -26.8977    1.0000 </r>
       <r>  -26.8416    1.0000 </r>
       <r>  -26.8354    1.0000 </r>
       <r>  -26.7937    1.0000 </r>
       <r>  -26.7792    1.0000 </r>
       <r>  -26.7424    1.0000 </r>
       <r>  -26.7372    1.0000 </r>
       <r>  -26.7332    1.0000 </r>
       <r>  -26.7180    1.0000 </r>
       <r>  -26.7079    1.0000 </r>
       <r>  -26.6832    1.0000 </r>
       <r>  -26.6731    1.0000 </r>
       <r>  -26.6290    1.0000 </r>
       <r>  -26.5953    1.0000 </r>
       <r>  -26.5819    1.0000 </r>
       <r>  -26.5250    1.0000 </r>
       <r>  -26.4947    1.0000 </r>
       <r>  -26.4735    1.0000 </r>
       <r>  -26.4642    1.0000 </r>
       <r>  -26.4409    1.0000 </r>
       <r>  -26.4056    1.0000 </r>
       <r>  -26.3962    1.0000 </r>
       <r>  -26.3732    1.0000 </r>
       <r>  -26.3601    1.0000 </r>
       <r>  -26.3458    1.0000 </r>
       <r>  -26.3267    1.0000 </r>
       <r>  -26.2011    1.0000 </r>
       <r>  -26.1813    1.0000 </r>
       <r>  -26.0568    1.0000 </r>
       <r>  -26.0012    1.0000 </r>
       <r>  -12.0615    1.0000 </r>
       <r>  -11.6983    1.0000 </r>
       <r>  -11.6668    1.0000 </r>
       <r>  -11.6169    1.0000 </r>
       <r>  -11.5913    1.0000 </r>
       <r>  -11.5555    1.0000 </r>
       <r>  -11.5306    1.0000 </r>
       <r>  -11.0968    1.0000 </r>
       <r>  -11.0722    1.0000 </r>
       <r>  -11.0566    1.0000 </r>
       <r>  -11.0135    1.0000 </r>
       <r>  -11.0049    1.0000 </r>
       <r>  -10.9856    1.0000 </r>
       <r>  -10.9060    1.0000 </r>
       <r>  -10.8842    1.0000 </r>
       <r>  -10.7755    1.0000 </r>
       <r>   -9.4486    1.0000 </r>
       <r>   -9.4010    1.0000 </r>
       <r>   -9.3654    1.0000 </r>
       <r>   -9.3041    1.0000 </r>
       <r>   -9.2593    1.0000 </r>
       <r>   -9.2192    1.0000 </r>
       <r>   -9.1885    1.0000 </r>
       <r>   -9.1447    1.0000 </r>
       <r>   -9.1396    1.0000 </r>
       <r>   -9.1075    1.0000 </r>
       <r>   -9.1061    1.0000 </r>
       <r>   -9.0633    1.0000 </r>
       <r>   -9.0420    1.0000 </r>
       <r>   -9.0165    1.0000 </r>
       <r>   -8.9906    1.0000 </r>
       <r>   -8.9812    1.0000 </r>
       <r>   -8.9694    1.0000 </r>
       <r>   -8.9392    1.0000 </r>
       <r>   -8.9341    1.0000 </r>
       <r>   -8.9194    1.0000 </r>
       <r>   -8.8974    1.0000 </r>
       <r>   -8.8876    1.0000 </r>
       <r>   -8.8708    1.0000 </r>
       <r>   -8.8554    1.0000 </r>
       <r>   -8.8516    1.0000 </r>
       <r>   -8.8384    1.0000 </r>
       <r>   -8.8146    1.0000 </r>
       <r>   -8.7981    1.0000 </r>
       <r>   -8.7794    1.0000 </r>
       <r>   -8.7570    1.0000 </r>
       <r>   -8.7063    1.0000 </r>
       <r>   -8.6977    1.0000 </r>
       <r>   -8.6863    1.0000 </r>
       <r>   -8.6695    1.0000 </r>
       <r>   -8.6581    1.0000 </r>
       <r>   -8.6504    1.0000 </r>
       <r>   -8.6361    1.0000 </r>
       <r>   -8.6160    1.0000 </r>
       <r>   -8.6046    1.0000 </r>
       <r>   -8.5954    1.0000 </r>
       <r>   -8.5796    1.0000 </r>
       <r>   -8.5699    1.0000 </r>
       <r>   -8.5647    1.0000 </r>
       <r>   -8.5538    1.0000 </r>
       <r>   -8.5373    1.0000 </r>
       <r>   -8.5314    1.0000 </r>
       <r>   -8.5153    1.0000 </r>
       <r>   -8.4946    1.0000 </r>
       <r>   -8.4892    1.0000 </r>
       <r>   -8.4838    1.0000 </r>
       <r>   -8.4602    1.0000 </r>
       <r>   -8.4529    1.0000 </r>
       <r>   -8.4399    1.0000 </r>
       <r>   -8.4356    1.0000 </r>
       <r>   -8.4194    1.0000 </r>
       <r>   -8.4101    1.0000 </r>
       <r>   -8.3938    1.0000 </r>
       <r>   -8.3886    1.0000 </r>
       <r>   -8.3839    1.0000 </r>
       <r>   -8.3734    1.0000 </r>
       <r>   -8.3441    1.0000 </r>
       <r>   -8.3383    1.0000 </r>
       <r>   -8.3195    1.0000 </r>
       <r>   -8.2870    1.0000 </r>
       <r>   -8.2835    1.0000 </r>
       <r>   -8.2626    1.0000 </r>
       <r>   -8.2499    1.0000 </r>
       <r>   -8.2455    1.0000 </r>
       <r>   -8.2289    1.0000 </r>
       <r>   -8.2200    1.0000 </r>
       <r>   -8.2039    1.0000 </r>
       <r>   -8.1922    1.0000 </r>
       <r>   -8.1843    1.0000 </r>
       <r>   -8.1728    1.0000 </r>
       <r>   -8.1688    1.0000 </r>
       <r>   -8.1495    1.0000 </r>
       <r>   -8.1407    1.0000 </r>
       <r>   -8.1281    1.0000 </r>
       <r>   -8.1112    1.0000 </r>
       <r>   -8.0929    1.0000 </r>
       <r>   -8.0850    1.0000 </r>
       <r>   -8.0707    1.0000 </r>
       <r>   -8.0701    1.0000 </r>
       <r>   -8.0584    1.0000 </r>
       <r>   -8.0459    1.0000 </r>
       <r>   -8.0078    1.0000 </r>
       <r>   -7.9996    1.0000 </r>
       <r>   -7.9794    1.0000 </r>
       <r>   -7.9379    1.0000 </r>
       <r>   -7.9093    1.0000 </r>
       <r>   -7.8673    1.0000 </r>
       <r>   -7.8531    1.0000 </r>
       <r>   -7.8161    1.0000 </r>
       <r>   -7.7792    1.0000 </r>
       <r>   -7.7536    1.0000 </r>
       <r>   -7.7001    1.0000 </r>
       <r>   -5.1643    1.0000 </r>
       <r>   -5.1521    1.0000 </r>
       <r>   -5.0837    1.0000 </r>
       <r>   -4.8951    1.0000 </r>
       <r>   -4.8674    1.0000 </r>
       <r>   -4.8167    1.0000 </r>
       <r>   -4.7813    1.0000 </r>
       <r>   -4.7701    1.0000 </r>
       <r>   -4.7188    1.0000 </r>
       <r>   -4.4864    1.0000 </r>
       <r>   -4.3974    1.0000 </r>
       <r>   -4.3718    1.0000 </r>
       <r>   -4.3209    1.0000 </r>
       <r>   -4.2865    1.0000 </r>
       <r>   -4.2739    1.0000 </r>
       <r>   -4.2320    1.0000 </r>
       <r>   -4.2141    1.0000 </r>
       <r>   -4.1975    1.0000 </r>
       <r>   -4.1693    1.0000 </r>
       <r>   -4.1500    1.0000 </r>
       <r>   -4.1365    1.0000 </r>
       <r>   -4.0970    1.0000 </r>
       <r>   -4.0904    1.0000 </r>
       <r>   -4.0636    1.0000 </r>
       <r>   -4.0499    1.0000 </r>
       <r>   -4.0015    1.0000 </r>
       <r>   -3.9868    1.0000 </r>
       <r>   -3.9776    1.0000 </r>
       <r>   -3.9473    1.0000 </r>
       <r>   -3.9240    1.0000 </r>
       <r>   -3.9004    1.0000 </r>
       <r>   -3.8761    1.0000 </r>
       <r>   -3.8608    1.0000 </r>
       <r>   -3.8103    1.0000 </r>
       <r>   -3.7939    1.0000 </r>
       <r>   -3.6940    1.0000 </r>
       <r>   -3.6052    1.0000 </r>
       <r>   -3.3493    1.0000 </r>
       <r>   -3.2952    1.0000 </r>
       <r>   -3.2498    1.0000 </r>
       <r>   -3.1747    1.0000 </r>
       <r>   -3.1459    1.0000 </r>
       <r>   -3.1318    1.0000 </r>
       <r>   -3.0818    1.0000 </r>
       <r>   -3.0341    1.0000 </r>
       <r>   -3.0108    1.0000 </r>
       <r>   -2.8212    1.0000 </r>
       <r>   -2.7564    1.0000 </r>
       <r>   -1.8703    0.0000 </r>
       <r>   -1.8654    0.0000 </r>
       <r>   -1.7911    0.0000 </r>
       <r>   -1.2770    0.0000 </r>
       <r>   -1.2431    0.0000 </r>
       <r>   -1.1996    0.0000 </r>
       <r>   -1.1940    0.0000 </r>
       <r>   -1.1256    0.0000 </r>
       <r>   -1.0964    0.0000 </r>
       <r>   -0.4972    0.0000 </r>
       <r>   -0.4764    0.0000 </r>
       <r>   -0.4357    0.0000 </r>
       <r>   -0.4277    0.0000 </r>
       <r>   -0.3696    0.0000 </r>
       <r>   -0.3161    0.0000 </r>
       <r>   -0.2752    0.0000 </r>
       <r>   -0.2611    0.0000 </r>
       <r>   -0.2341    0.0000 </r>
       <r>   -0.2190    0.0000 </r>
       <r>   -0.1385    0.0000 </r>
       <r>   -0.1254    0.0000 </r>
       <r>   -0.0616    0.0000 </r>
       <r>   -0.0239    0.0000 </r>
       <r>    0.0543    0.0000 </r>
       <r>    0.2990    0.0000 </r>
       <r>    0.3396    0.0000 </r>
       <r>    0.3727    0.0000 </r>
       <r>    0.3869    0.0000 </r>
       <r>    0.4215    0.0000 </r>
       <r>    0.4314    0.0000 </r>
       <r>    0.4496    0.0000 </r>
       <r>    0.4822    0.0000 </r>
       <r>    0.5170    0.0000 </r>
       <r>    0.5269    0.0000 </r>
       <r>    0.5416    0.0000 </r>
       <r>    0.5831    0.0000 </r>
       <r>    0.6202    0.0000 </r>
       <r>    0.6252    0.0000 </r>
       <r>    0.6655    0.0000 </r>
       <r>    0.6778    0.0000 </r>
       <r>    0.7319    0.0000 </r>
       <r>    0.7557    0.0000 </r>
       <r>    0.7975    0.0000 </r>
       <r>    0.8057    0.0000 </r>
       <r>    0.8109    0.0000 </r>
       <r>    0.8383    0.0000 </r>
       <r>    0.8625    0.0000 </r>
       <r>    0.9076    0.0000 </r>
       <r>    0.9247    0.0000 </r>
       <r>    0.9629    0.0000 </r>
       <r>    0.9797    0.0000 </r>
       <r>    0.9931    0.0000 </r>
       <r>    1.0098    0.0000 </r>
       <r>    1.0401    0.0000 </r>
       <r>    1.0486    0.0000 </r>
       <r>    1.0688    0.0000 </r>
       <r>    1.0792    0.0000 </r>
       <r>    1.0921    0.0000 </r>
       <r>    1.1095    0.0000 </r>
       <r>    1.1467    0.0000 </r>
       <r>    1.1606    0.0000 </r>
       <r>    1.1686    0.0000 </r>
       <r>    1.1811    0.0000 </r>
       <r>    1.2188    0.0000 </r>
      </set>
      <set comment="kpoint 2">
       <r>  -51.8704    1.0000 </r>
       <r>  -51.7684    1.0000 </r>
       <r>  -51.7408    1.0000 </r>
       <r>  -51.7135    1.0000 </r>
       <r>  -51.6719    1.0000 </r>
       <r>  -51.6484    1.0000 </r>
       <r>  -51.6406    1.0000 </r>
       <r>  -51.6302    1.0000 </r>
       <r>  -51.6085    1.0000 </r>
       <r>  -51.5862    1.0000 </r>
       <r>  -51.5758    1.0000 </r>
       <r>  -51.5340    1.0000 </r>
       <r>  -51.5315    1.0000 </r>
       <r>  -51.5134    1.0000 </r>
       <r>  -51.4818    1.0000 </r>
       <r>  -51.4618    1.0000 </r>
       <r>  -51.4580    1.0000 </r>
       <r>  -51.4433    1.0000 </r>
       <r>  -51.4100    1.0000 </r>
       <r>  -51.3972    1.0000 </r>
       <r>  -51.3895    1.0000 </r>
       <r>  -51.3776    1.0000 </r>
       <r>  -51.3387    1.0000 </r>
       <r>  -51.3224    1.0000 </r>
       <r>  -51.2587    1.0000 </r>
       <r>  -51.2541    1.0000 </r>
       <r>  -51.2210    1.0000 </r>
       <r>  -51.1979    1.0000 </r>
       <r>  -51.1826    1.0000 </r>
       <r>  -51.1665    1.0000 </r>
       <r>  -51.1391    1.0000 </r>
       <r>  -51.0623    1.0000 </r>
       <r>  -30.8914    1.0000 </r>
       <r>  -30.7270    1.0000 </r>
       <r>  -30.6725    1.0000 </r>
       <r>  -30.6656    1.0000 </r>
       <r>  -30.6513    1.0000 </r>
       <r>  -30.6330    1.0000 </r>
       <r>  -30.6181    1.0000 </r>
       <r>  -30.5900    1.0000 </r>
       <r>  -30.5762    1.0000 </r>
       <r>  -30.5667    1.0000 </r>
       <r>  -30.5548    1.0000 </r>
       <r>  -30.5498    1.0000 </r>
       <r>  -30.5351    1.0000 </r>
       <r>  -30.5275    1.0000 </r>
       <r>  -30.5191    1.0000 </r>
       <r>  -30.5115    1.0000 </r>
       <r>  -30.4969    1.0000 </r>
       <r>  -30.4888    1.0000 </r>
       <r>  -30.4817    1.0000 </r>
       <r>  -30.4657    1.0000 </r>
       <r>  -30.4634    1.0000 </r>
       <r>  -30.4570    1.0000 </r>
       <r>  -30.4458    1.0000 </r>
       <r>  -30.4357    1.0000 </r>
       <r>  -30.4273    1.0000 </r>
       <r>  -30.4118    1.0000 </r>
       <r>  -30.4002    1.0000 </r>
       <r>  -30.3858    1.0000 </r>
       <r>  -30.3807    1.0000 </r>
       <r>  -30.3737    1.0000 </r>
       <r>  -30.3626    1.0000 </r>
       <r>  -30.3522    1.0000 </r>
       <r>  -30.3425    1.0000 </r>
       <r>  -30.3287    1.0000 </r>
       <r>  -30.3249    1.0000 </r>
       <r>  -30.3127    1.0000 </r>
       <r>  -30.3035    1.0000 </r>
       <r>  -30.2944    1.0000 </r>
       <r>  -30.2844    1.0000 </r>
       <r>  -30.2769    1.0000 </r>
       <r>  -30.2626    1.0000 </r>
       <r>  -30.2545    1.0000 </r>
       <r>  -30.2460    1.0000 </r>
       <r>  -30.2387    1.0000 </r>
       <r>  -30.2151    1.0000 </r>
       <r>  -30.2053    1.0000 </r>
       <r>  -30.2010    1.0000 </r>
       <r>  -30.1852    1.0000 </r>
       <r>  -30.1797    1.0000 </r>
       <r>  -30.1660    1.0000 </r>
       <r>  -30.1579    1.0000 </r>
       <r>  -30.1488    1.0000 </r>
       <r>  -30.1420    1.0000 </r>
       <r>  -30.1346    1.0000 </r>
       <r>  -30.1269    1.0000 </r>
       <r>  -30.1194    1.0000 </r>
       <r>  -30.1095    1.0000 </r>
       <r>  -30.1059    1.0000 </r>
       <r>  -30.0950    1.0000 </r>
       <r>  -30.0880    1.0000 </r>
       <r>  -30.0872    1.0000 </r>
       <r>  -30.0762    1.0000 </r>
       <r>  -30.0693    1.0000 </r>
       <r>  -30.0614    1.0000 </r>
       <r>  -30.0528    1.0000 </r>
       <r>  -30.0465    1.0000 </r>
       <r>  -30.0381    1.0000 </r>
       <r>  -30.0348    1.0000 </r>
       <r>  -30.0189    1.0000 </r>
       <r>  -30.0106    1.0000 </r>
       <r>  -30.0040    1.0000 </r>
       <r>  -29.9939    1.0000 </r>
       <r>  -29.9848    1.0000 </r>
       <r>  -29.9780    1.0000 </r>
       <r>  -29.9655    1.0000 </r>
       <r>  -29.9550    1.0000 </r>
       <r>  -29.9453    1.0000 </r>
       <r>  -29.9387    1.0000 </r>
       <r>  -29.9323    1.0000 </r>
       <r>  -29.9164    1.0000 </r>
       <r>  -29.9096    1.0000 </r>
       <r>  -29.9009    1.0000 </r>
       <r>  -29.8968    1.0000 </r>
       <r>  -29.8867    1.0000 </r>
       <r>  -29.8655    1.0000 </r>
       <r>  -29.8542    1.0000 </r>
       <r>  -29.8506    1.0000 </r>
       <r>  -29.8413    1.0000 </r>
       <r>  -29.8331    1.0000 </r>
       <r>  -29.8115    1.0000 </r>
       <r>  -29.8060    1.0000 </r>
       <r>  -29.7901    1.0000 </r>
       <r>  -29.7799    1.0000 </r>
       <r>  -29.7688    1.0000 </r>
       <r>  -29.7637    1.0000 </r>
       <r>  -29.7311    1.0000 </r>
       <r>  -27.1629    1.0000 </r>
       <r>  -27.0073    1.0000 </r>
       <r>  -26.8969    1.0000 </r>
       <r>  -26.8414    1.0000 </r>
       <r>  -26.8353    1.0000 </r>
       <r>  -26.7949    1.0000 </r>
       <r>  -26.7790    1.0000 </r>
       <r>  -26.7425    1.0000 </r>
       <r>  -26.7385    1.0000 </r>
       <r>  -26.7324    1.0000 </r>
       <r>  -26.7178    1.0000 </r>
       <r>  -26.7078    1.0000 </r>
       <r>  -26.6833    1.0000 </r>
       <r>  -26.6730    1.0000 </r>
       <r>  -26.6292    1.0000 </r>
       <r>  -26.5953    1.0000 </r>
       <r>  -26.5817    1.0000 </r>
       <r>  -26.5250    1.0000 </r>
       <r>  -26.4948    1.0000 </r>
       <r>  -26.4736    1.0000 </r>
       <r>  -26.4640    1.0000 </r>
       <r>  -26.4411    1.0000 </r>
       <r>  -26.4056    1.0000 </r>
       <r>  -26.3961    1.0000 </r>
       <r>  -26.3731    1.0000 </r>
       <r>  -26.3601    1.0000 </r>
       <r>  -26.3458    1.0000 </r>
       <r>  -26.3267    1.0000 </r>
       <r>  -26.2011    1.0000 </r>
       <r>  -26.1813    1.0000 </r>
       <r>  -26.0568    1.0000 </r>
       <r>  -26.0012    1.0000 </r>
       <r>  -12.0118    1.0000 </r>
       <r>  -11.8536    1.0000 </r>
       <r>  -11.7170    1.0000 </r>
       <r>  -11.6798    1.0000 </r>
       <r>  -11.4596    1.0000 </r>
[...]
       <r>   -32.3215     0.0000    64.0000 </r>
       <r>   -32.1268     0.0000    64.0000 </r>
       <r>   -31.9320     0.0000    64.0000 </r>
       <r>   -31.7372     0.0000    64.0000 </r>
       <r>   -31.5424     0.0000    64.0000 </r>
       <r>   -31.3476     0.0000    64.0000 </r>
       <r>   -31.1529     0.0000    64.0000 </r>
       <r>   -30.9581     0.3092    64.0602 </r>
       <r>   -30.7633    11.6241    66.3244 </r>
       <r>   -30.5685    89.6160    83.7798 </r>
       <r>   -30.3737   199.5442   122.6471 </r>
       <r>   -30.1790   198.1078   161.2347 </r>
       <r>   -29.9842   245.8804   209.1274 </r>
       <r>   -29.7894   195.7382   247.2534 </r>
       <r>   -29.5946    44.9045   255.9999 </r>
       <r>   -29.3998     0.0006   256.0000 </r>
       <r>   -29.2051     0.0000   256.0000 </r>
       <r>   -29.0103     0.0000   256.0000 </r>
       <r>   -28.8155     0.0000   256.0000 </r>
       <r>   -28.6207     0.0000   256.0000 </r>
       <r>   -28.4259     0.0000   256.0000 </r>
       <r>   -28.2312     0.0000   256.0000 </r>
       <r>   -28.0364     0.0000   256.0000 </r>
       <r>   -27.8416     0.0000   256.0000 </r>
       <r>   -27.6468     0.0000   256.0000 </r>
       <r>   -27.4520     0.0000   256.0000 </r>
       <r>   -27.2572     0.0392   256.0076 </r>
       <r>   -27.0625    10.8062   258.1125 </r>
       <r>   -26.8677    22.3172   262.4594 </r>
       <r>   -26.6729    99.0133   281.7453 </r>
       <r>   -26.4781    68.6487   295.1167 </r>
       <r>   -26.2833    85.0490   311.6826 </r>
       <r>   -26.0886    24.0777   316.3725 </r>
       <r>   -25.8938    18.6115   319.9976 </r>
       <r>   -25.6990     0.0122   320.0000 </r>
       <r>   -25.5042     0.0000   320.0000 </r>
       <r>   -25.3094     0.0000   320.0000 </r>
       <r>   -25.1147     0.0000   320.0000 </r>
       <r>   -24.9199     0.0000   320.0000 </r>
       <r>   -24.7251     0.0000   320.0000 </r>
       <r>   -24.5303     0.0000   320.0000 </r>
       <r>   -24.3355     0.0000   320.0000 </r>
       <r>   -24.1408     0.0000   320.0000 </r>
       <r>   -23.9460     0.0000   320.0000 </r>
       <r>   -23.7512     0.0000   320.0000 </r>
       <r>   -23.5564     0.0000   320.0000 </r>
       <r>   -23.3616     0.0000   320.0000 </r>
       <r>   -23.1669     0.0000   320.0000 </r>
       <r>   -22.9721     0.0000   320.0000 </r>
       <r>   -22.7773     0.0000   320.0000 </r>
       <r>   -22.5825     0.0000   320.0000 </r>
       <r>   -22.3877     0.0000   320.0000 </r>
       <r>   -22.1930     0.0000   320.0000 </r>
       <r>   -21.9982     0.0000   320.0000 </r>
       <r>   -21.8034     0.0000   320.0000 </r>
       <r>   -21.6086     0.0000   320.0000 </r>
       <r>   -21.4138     0.0000   320.0000 </r>
       <r>   -21.2191     0.0000   320.0000 </r>
       <r>   -21.0243     0.0000   320.0000 </r>
       <r>   -20.8295     0.0000   320.0000 </r>
       <r>   -20.6347     0.0000   320.0000 </r>
       <r>   -20.4399     0.0000   320.0000 </r>
       <r>   -20.2452     0.0000   320.0000 </r>
       <r>   -20.0504     0.0000   320.0000 </r>
       <r>   -19.8556     0.0000   320.0000 </r>
       <r>   -19.6608     0.0000   320.0000 </r>
       <r>   -19.4660     0.0000   320.0000 </r>
       <r>   -19.2712     0.0000   320.0000 </r>
       <r>   -19.0765     0.0000   320.0000 </r>
       <r>   -18.8817     0.0000   320.0000 </r>
       <r>   -18.6869     0.0000   320.0000 </r>
       <r>   -18.4921     0.0000   320.0000 </r>
       <r>   -18.2973     0.0000   320.0000 </r>
       <r>   -18.1026     0.0000   320.0000 </r>
       <r>   -17.9078     0.0000   320.0000 </r>
       <r>   -17.7130     0.0000   320.0000 </r>
       <r>   -17.5182     0.0000   320.0000 </r>
       <r>   -17.3234     0.0000   320.0000 </r>
       <r>   -17.1287     0.0000   320.0000 </r>
       <r>   -16.9339     0.0000   320.0000 </r>
       <r>   -16.7391     0.0000   320.0000 </r>
       <r>   -16.5443     0.0000   320.0000 </r>
       <r>   -16.3495     0.0000   320.0000 </r>
       <r>   -16.1548     0.0000   320.0000 </r>
       <r>   -15.9600     0.0000   320.0000 </r>
       <r>   -15.7652     0.0000   320.0000 </r>
       <r>   -15.5704     0.0000   320.0000 </r>
       <r>   -15.3756     0.0000   320.0000 </r>
       <r>   -15.1809     0.0000   320.0000 </r>
       <r>   -14.9861     0.0000   320.0000 </r>
       <r>   -14.7913     0.0000   320.0000 </r>
       <r>   -14.5965     0.0000   320.0000 </r>
       <r>   -14.4017     0.0000   320.0000 </r>
       <r>   -14.2070     0.0000   320.0000 </r>
       <r>   -14.0122     0.0000   320.0000 </r>
       <r>   -13.8174     0.0000   320.0000 </r>
       <r>   -13.6226     0.0000   320.0000 </r>
       <r>   -13.4278     0.0000   320.0000 </r>
       <r>   -13.2331     0.0000   320.0000 </r>
       <r>   -13.0383     0.0000   320.0000 </r>
       <r>   -12.8435     0.0000   320.0000 </r>
       <r>   -12.6487     0.0000   320.0000 </r>
       <r>   -12.4539     0.0000   320.0000 </r>
       <r>   -12.2591     0.0000   320.0000 </r>
       <r>   -12.0644     0.9941   320.1936 </r>
       <r>   -11.8696    14.1072   322.9414 </r>
       <r>   -11.6748    17.7207   326.3931 </r>
       <r>   -11.4800    15.6909   329.4494 </r>
       <r>   -11.2852    21.8139   333.6983 </r>
       <r>   -11.0905    30.8863   339.7143 </r>
       <r>   -10.8957    38.6956   347.2515 </r>
       <r>   -10.7009    23.5442   351.8374 </r>
       <r>   -10.5061     0.8345   352.0000 </r>
       <r>   -10.3113     0.0000   352.0000 </r>
       <r>   -10.1166     0.0000   352.0000 </r>
       <r>    -9.9218     0.0000   352.0000 </r>
       <r>    -9.7270     0.0000   352.0000 </r>
       <r>    -9.5322     0.0300   352.0058 </r>
       <r>    -9.3374    28.0972   357.4786 </r>
       <r>    -9.1427    55.5355   368.2958 </r>
       <r>    -8.9479    96.6741   387.1261 </r>
       <r>    -8.7531   122.1412   410.9168 </r>
       <r>    -8.5583   138.7362   437.9399 </r>
       <r>    -8.3635   168.2088   470.7037 </r>
       <r>    -8.1688   149.8341   499.8885 </r>
       <r>    -7.9740   136.2269   526.4228 </r>
       <r>    -7.7792    63.9390   538.8769 </r>
       <r>    -7.5844    26.2949   543.9986 </r>
       <r>    -7.3896     0.0071   544.0000 </r>
       <r>    -7.1949     0.0000   544.0000 </r>
       <r>    -7.0001     0.0000   544.0000 </r>
       <r>    -6.8053     0.0000   544.0000 </r>
       <r>    -6.6105     0.0000   544.0000 </r>
       <r>    -6.4157     0.0000   544.0000 </r>
       <r>    -6.2210     0.0000   544.0000 </r>
       <r>    -6.0262     0.0000   544.0000 </r>
       <r>    -5.8314     0.0000   544.0000 </r>
       <r>    -5.6366     0.0000   544.0000 </r>
       <r>    -5.4418     0.0000   544.0000 </r>
       <r>    -5.2471     0.0168   544.0033 </r>
       <r>    -5.0523    19.9067   547.8807 </r>
       <r>    -4.8575    38.0518   555.2925 </r>
       <r>    -4.6627    36.1125   562.3265 </r>
       <r>    -4.4679    22.3458   566.6790 </r>
       <r>    -4.2731    40.0360   574.4772 </r>
       <r>    -4.0784    45.4852   583.3369 </r>
       <r>    -3.8836    88.4402   600.5633 </r>
       <r>    -3.6888    57.8692   611.8351 </r>
       <r>    -3.4940    40.4041   619.7050 </r>
       <r>    -3.2992    34.0225   626.3319 </r>
       <r>    -3.1045    35.0721   633.1633 </r>
       <r>    -2.9097    24.1749   637.8721 </r>
       <r>    -2.7149    10.7515   639.9663 </r>
       <r>    -2.5201     0.1731   640.0000 </r>
       <r>    -2.3253     0.0000   640.0000 </r>
       <r>    -2.1306     0.0000   640.0000 </r>
       <r>    -1.9358     0.0632   640.0123 </r>
       <r>    -1.7410     8.9789   641.7612 </r>
       <r>    -1.5462    12.7266   644.2401 </r>
       <r>    -1.3514    20.1885   648.1725 </r>
       <r>    -1.1567    15.4874   651.1891 </r>
       <r>    -0.9619    19.0015   654.8902 </r>
       <r>    -0.7671    28.5084   660.4431 </r>
       <r>    -0.5723    20.4162   664.4198 </r>
       <r>    -0.3775    36.1129   671.4539 </r>
       <r>    -0.1828    30.2775   677.3513 </r>
       <r>     0.0120    32.7834   683.7369 </r>
       <r>     0.2068    27.9205   689.1752 </r>
       <r>     0.4016    29.7116   694.9625 </r>
       <r>     0.5964    49.1274   704.5316 </r>
       <r>     0.7911    91.5405   722.3618 </r>
       <r>     0.9859   106.6498   743.1351 </r>
       <r>     1.1807   101.0693   762.8215 </r>
       <r>     1.3755    26.5856   767.9998 </r>
       <r>     1.5703     0.0009   768.0000 </r>
       <r>     1.7650     0.0000   768.0000 </r>
       <r>     1.9598     0.0000   768.0000 </r>
       <r>     2.1546     0.0000   768.0000 </r>
       <r>     2.3494     0.0000   768.0000 </r>
       <r>     2.5442     0.0000   768.0000 </r>
       <r>     2.7389     0.0000   768.0000 </r>
       <r>     2.9337     0.0000   768.0000 </r>
       <r>     3.1285     0.0000   768.0000 </r>
       <r>     3.3233     0.0000   768.0000 </r>
       <r>     3.5181     0.0000   768.0000 </r>
       <r>     3.7129     0.0000   768.0000 </r>
       <r>     3.9076     0.0000   768.0000 </r>
      </set>
     </set>
    </array>
   </total>
  </dos>
 </calculation>
 <structure name="finalpos" >
  <crystal>
   <varray name="basis" >
    <v>      13.12862340       0.00000000       0.00000000 </v>
    <v>      -6.56431170      11.36972138       0.00000000 </v>
    <v>       0.00000000       0.00000000      26.82809424 </v>
   </varray>
   <i name="volume">   4004.59716953 </i>
   <varray name="rec_basis" >
    <v>       0.07616945       0.04397645       0.00000000 </v>
    <v>       0.00000000       0.08795290       0.00000000 </v>
    <v>       0.00000000       0.00000000       0.03727436 </v>
   </varray>
  </crystal>
  <varray name="positions" >
   <v>       0.07375531       0.16064679       0.45290301 </v>
   <v>       0.07963275       0.41517760       0.44948829 </v>
   <v>       0.08506645       0.66076518       0.44917772 </v>
   <v>       0.09712657       0.92397950       0.45890119 </v>
   <v>       0.32246798       0.16005574       0.45074974 </v>
   <v>       0.33208337       0.41107275       0.45052724 </v>
   <v>       0.33648680       0.66107685       0.45216151 </v>
   <v>       0.32963055       0.91485115       0.45130184 </v>
   <v>       0.58070936       0.16192079       0.45158071 </v>
   <v>       0.57214994       0.41392701       0.44976699 </v>
   <v>       0.58773270       0.67291026       0.45144320 </v>
   <v>       0.58149618       0.91869704       0.45072651 </v>
   <v>       0.84045927       0.17148610       0.45626843 </v>
   <v>       0.82927998       0.42275148       0.45419638 </v>
   <v>       0.83954069       0.67515756       0.45239683 </v>
   <v>       0.83545321       0.92089192       0.45782625 </v>
   <v>       0.16902289       0.08771558       0.54831736 </v>
   <v>       0.17391016       0.33960466       0.54719020 </v>
   <v>       0.16335734       0.57500430       0.54340065 </v>
   <v>       0.16631028       0.82059016       0.54850662 </v>
   <v>       0.42311009       0.08413113       0.54615933 </v>
   <v>       0.41971235       0.34135880       0.54610052 </v>
   <v>       0.42372106       0.58773496       0.54341437 </v>
   <v>       0.41241983       0.83113385       0.54817040 </v>
   <v>       0.66079937       0.07716540       0.54813401 </v>
   <v>       0.65989041       0.32557841       0.54887308 </v>
   <v>       0.66473980       0.58459777       0.54568744 </v>
   <v>       0.66750354       0.83820886       0.54864578 </v>
   <v>       0.91742046       0.08334836       0.55064088 </v>
   <v>       0.91144852       0.32635271       0.55080050 </v>
   <v>       0.91466647       0.57900207       0.54745616 </v>
   <v>       0.92388332       0.84056561       0.55123860 </v>
   <v>       0.08131648       0.17285474       0.59253563 </v>
   <v>       0.09159634       0.42158617       0.58607560 </v>
   <v>       0.08822320       0.65603517       0.58627597 </v>
   <v>       0.08646251       0.91553445       0.58976937 </v>
   <v>       0.33687420       0.17877796       0.58908784 </v>
   <v>       0.33814297       0.42447600       0.59358503 </v>
   <v>       0.33814454       0.66469777       0.59155027 </v>
   <v>       0.33474816       0.91651068       0.59283503 </v>
   <v>       0.57575957       0.15788322       0.59256804 </v>
   <v>       0.59033012       0.42715261       0.58453729 </v>
   <v>       0.57925017       0.67075209       0.58521767 </v>
   <v>       0.58098266       0.91921092       0.59128044 </v>
   <v>       0.83527389       0.15635056       0.59635627 </v>
   <v>       0.84115119       0.42807242       0.59579440 </v>
   <v>       0.82576358       0.66987398       0.58773534 </v>
   <v>       0.82618489       0.91542773       0.59182314 </v>
   <v>       0.17479586       0.07887106       0.40658867 </v>
   <v>       0.16385576       0.32187387       0.40301353 </v>
   <v>       0.17052461       0.57847220       0.41137237 </v>
   <v>       0.16267641       0.83058177       0.40777820 </v>
   <v>       0.41493309       0.08661174       0.40467648 </v>
   <v>       0.41039681       0.33283539       0.40370837 </v>
   <v>       0.41099389       0.58616812       0.40268693 </v>
   <v>       0.40592248       0.82526019       0.41027905 </v>
   <v>       0.67283203       0.08131524       0.41044430 </v>
   <v>       0.65615284       0.33596849       0.40992354 </v>
   <v>       0.66121069       0.58270036       0.41384940 </v>
   <v>       0.67950908       0.84453566       0.41388067 </v>
   <v>       0.90906189       0.07220671       0.41219828 </v>
   <v>       0.92661952       0.33719285       0.40890834 </v>
   <v>       0.93353867       0.58712203       0.40521585 </v>
   <v>       0.91260857       0.84216202       0.41806784 </v>
   <v>       0.00247761       0.00244584       0.50219010 </v>
   <v>       0.99979619       0.24836818       0.50221864 </v>
   <v>       0.99284838       0.50044196       0.50139136 </v>
   <v>       0.99598538       0.74222634       0.50307881 </v>
   <v>       0.25817241       0.01068398       0.50168483 </v>
   <v>       0.24550120       0.25375530       0.49740255 </v>
   <v>       0.25132895       0.49389020       0.49980156 </v>
   <v>       0.25141434       0.75093295       0.50133773 </v>
   <v>       0.49381455       0.99502106       0.50028717 </v>
   <v>       0.49800615       0.24205176       0.50041763 </v>
   <v>       0.49593830       0.49778629       0.49478585 </v>
   <v>       0.50644474       0.75908866       0.50090430 </v>
   <v>       0.74679736       0.00886041       0.50130947 </v>
   <v>       0.75783806       0.26089037       0.50315692 </v>
   <v>       0.74334803       0.49941376       0.49783095 </v>
   <v>       0.75400109       0.75090704       0.50056662 </v>
  </varray>
  <varray name="velocities" >
   <v>       0.00000000       0.00000000       0.00000000 </v>
   <v>       0.00000000       0.00000000       0.00000000 </v>
   <v>       0.00000000       0.00000000       0.00000000 </v>
   <v>       0.00000000       0.00000000       0.00000000 </v>
   <v>       0.00000000       0.00000000       0.00000000 </v>
   <v>       0.00000000       0.00000000       0.00000000 </v>
   <v>       0.00000000       0.00000000       0.00000000 </v>
   <v>       0.00000000       0.00000000       0.00000000 </v>
   <v>       0.00000000       0.00000000       0.00000000 </v>
   <v>       0.00000000       0.00000000       0.00000000 </v>
   <v>       0.00000000       0.00000000       0.00000000 </v>
   <v>       0.00000000       0.00000000       0.00000000 </v>
   <v>       0.00000000       0.00000000       0.00000000 </v>
   <v>       0.00000000       0.00000000       0.00000000 </v>
   <v>       0.00000000       0.00000000       0.00000000 </v>
   <v>       0.00000000       0.00000000       0.00000000 </v>
   <v>       0.00000000       0.00000000       0.00000000 </v>
   <v>       0.00000000       0.00000000       0.00000000 </v>
   <v>       0.00000000       0.00000000       0.00000000 </v>
   <v>       0.00000000       0.00000000       0.00000000 </v>
   <v>       0.00000000       0.00000000       0.00000000 </v>
   <v>       0.00000000       0.00000000       0.00000000 </v>
   <v>       0.00000000       0.00000000       0.00000000 </v>
   <v>       0.00000000       0.00000000       0.00000000 </v>
   <v>       0.00000000       0.00000000       0.00000000 </v>
   <v>       0.00000000       0.00000000       0.00000000 </v>
   <v>       0.00000000       0.00000000       0.00000000 </v>
   <v>       0.00000000       0.00000000       0.00000000 </v>
   <v>       0.00000000       0.00000000       0.00000000 </v>
   <v>       0.00000000       0.00000000       0.00000000 </v>
   <v>       0.00000000       0.00000000       0.00000000 </v>
   <v>       0.00000000       0.00000000       0.00000000 </v>
   <v>       0.00000000       0.00000000       0.00000000 </v>
   <v>       0.00000000       0.00000000       0.00000000 </v>
   <v>       0.00000000       0.00000000       0.00000000 </v>
   <v>       0.00000000       0.00000000       0.00000000 </v>
   <v>       0.00000000       0.00000000       0.00000000 </v>
   <v>       0.00000000       0.00000000       0.00000000 </v>
   <v>       0.00000000       0.00000000       0.00000000 </v>
   <v>       0.00000000       0.00000000       0.00000000 </v>
   <v>       0.00000000       0.00000000       0.00000000 </v>
   <v>       0.00000000       0.00000000       0.00000000 </v>
   <v>       0.00000000       0.00000000       0.00000000 </v>
   <v>       0.00000000       0.00000000       0.00000000 </v>
   <v>       0.00000000       0.00000000       0.00000000 </v>
   <v>       0.00000000       0.00000000       0.00000000 </v>
   <v>       0.00000000       0.00000000       0.00000000 </v>
   <v>       0.00000000       0.00000000       0.00000000 </v>
   <v>       0.00000000       0.00000000       0.00000000 </v>
   <v>       0.00000000       0.00000000       0.00000000 </v>
   <v>       0.00000000       0.00000000       0.00000000 </v>
   <v>       0.00000000       0.00000000       0.00000000 </v>
   <v>       0.00000000       0.00000000       0.00000000 </v>
   <v>       0.00000000       0.00000000       0.00000000 </v>
   <v>       0.00000000       0.00000000       0.00000000 </v>
   <v>       0.00000000       0.00000000       0.00000000 </v>
   <v>       0.00000000       0.00000000       0.00000000 </v>
   <v>       0.00000000       0.00000000       0.00000000 </v>
   <v>       0.00000000       0.00000000       0.00000000 </v>
   <v>       0.00000000       0.00000000       0.00000000 </v>
   <v>       0.00000000       0.00000000       0.00000000 </v>
   <v>       0.00000000       0.00000000       0.00000000 </v>
   <v>       0.00000000       0.00000000       0.00000000 </v>
   <v>       0.00000000       0.00000000       0.00000000 </v>
   <v>       0.00000000       0.00000000       0.00000000 </v>
   <v>       0.00000000       0.00000000       0.00000000 </v>
   <v>       0.00000000       0.00000000       0.00000000 </v>
   <v>       0.00000000       0.00000000       0.00000000 </v>
   <v>       0.00000000       0.00000000       0.00000000 </v>
   <v>       0.00000000       0.00000000       0.00000000 </v>
   <v>       0.00000000       0.00000000       0.00000000 </v>
   <v>       0.00000000       0.00000000       0.00000000 </v>
   <v>       0.00000000       0.00000000       0.00000000 </v>
   <v>       0.00000000       0.00000000       0.00000000 </v>
   <v>       0.00000000       0.00000000       0.00000000 </v>
   <v>       0.00000000       0.00000000       0.00000000 </v>
   <v>       0.00000000       0.00000000       0.00000000 </v>
   <v>       0.00000000       0.00000000       0.00000000 </v>
   <v>       0.00000000       0.00000000       0.00000000 </v>
   <v>       0.00000000       0.00000000       0.00000000 </v>
  </varray>
 </structure>
</modeling>
