<?xml version="1.0" encoding="ISO-8859-1"?>
<modeling>
 <generator>
  <i name="program" type="string">vasp </i>
  <i name="version" type="string">5.4.4.18Apr17-6-g9f103f2a35  </i>
  <i name="subversion" type="string">(build Oct 31 2019 15:01:46) complex            parallel </i>
  <i name="platform" type="string">LinuxIFC </i>
  <i name="date" type="string">2024 04 30 </i>
  <i name="time" type="string">02:54:57 </i>
 </generator>
 <incar>
  <i type="int" name="ISTART">     0</i>
  <i type="string" name="PREC">anormal</i>
  <i type="logical" name="ADDGRID"> T  </i>
  <i type="int" name="IBRION">    -1</i>
  <i name="EDIFF">      0.00000100</i>
  <i name="EDIFFG">     -0.01000000</i>
  <i type="int" name="NSW">     1</i>
  <i type="int" name="ISIF">     2</i>
  <i type="int" name="ISYM">     2</i>
  <i name="ENCUT">    600.00000000</i>
  <i name="POTIM">      1.00000000</i>
  <i type="string" name="LREAL"> Auto.</i>
  <i type="int" name="ISMEAR">     0</i>
  <i name="SIGMA">      0.05000000</i>
  <i name="KSPACING">      0.25000000</i>
  <i type="logical" name="LWAVE"> F  </i>
  <i type="logical" name="LCHARG"> F  </i>
  <i type="logical" name="LSCALAPACK"> F  </i>
  <v type="int" name="KPOINT_BSE">    -1     0     0     0</v>
 </incar>
 <structure name="primitive_cell" >
  <crystal>
   <varray name="basis" >
    <v>      13.79398668       0.00000000       0.00000000 </v>
    <v>      -6.89699334      11.94594288       0.00000000 </v>
    <v>       0.00000000       0.00000000      27.81022107 </v>
   </varray>
   <i name="volume">   4582.62876984 </i>
   <varray name="rec_basis" >
    <v>       0.07249536       0.04185521       0.00000000 </v>
    <v>       0.00000000       0.08371043       0.00000000 </v>
    <v>       0.00000000       0.00000000       0.03595800 </v>
   </varray>
  </crystal>
  <varray name="positions" >
   <v>       0.08513519       0.18123665      -0.45361979 </v>
   <v>       0.24977571       0.25208781      -0.49778890 </v>
   <v>      -0.00526953       0.26007463      -0.49823643 </v>
   <v>       0.15618806       0.07689060      -0.39938202 </v>
   <v>       0.17580117       0.34417451      -0.39177180 </v>
   <v>      -0.01988257      -0.00773231       0.49758112 </v>
   <v>      -0.09832526       0.07831301      -0.39347357 </v>
   <v>       0.16699189       0.33524362       0.46097505 </v>
   <v>       0.15051027       0.07666063       0.46043543 </v>
   <v>      -0.09013083       0.09119139       0.45425042 </v>
   <v>       0.34005433       0.42565630      -0.45074819 </v>
   <v>      -0.17466988       0.16071375      -0.45605084 </v>
   <v>       0.08307342       0.43253925      -0.45615951 </v>
   <v>       0.32712564       0.15865194      -0.45756977 </v>
   <v>      -0.17030329      -0.07278334      -0.45600825 </v>
   <v>       0.07194630      -0.09724601      -0.45553821 </v>
   <v>       0.25450842      -0.49866542      -0.49939136 </v>
   <v>       0.08656950       0.17313984       0.40099015 </v>
   <v>      -0.25493610       0.00116422       0.49737303 </v>
   <v>      -0.10600018       0.32520790      -0.39689995 </v>
   <v>       0.24212700      -0.00962600       0.49815897 </v>
   <v>       0.42112475       0.31561170      -0.39203296 </v>
   <v>      -0.07385713      -0.16421415      -0.39465605 </v>
   <v>       0.41281208       0.32980238       0.45707426 </v>
   <v>      -0.08587064       0.33608672       0.45525771 </v>
   <v>      -0.09162731      -0.17089183       0.44999535 </v>
   <v>      -0.00235727       0.49452678       0.49941906 </v>
   <v>       0.33247089       0.41832153       0.40195043 </v>
   <v>       0.07718013       0.40774954       0.39706571 </v>
   <v>      -0.49990968      -0.49331896      -0.49376285 </v>
   <v>      -0.24448908       0.26304486      -0.49610644 </v>
   <v>       0.15910654      -0.42090243      -0.39101752 </v>
   <v>      -0.24390510      -0.24320988      -0.49894564 </v>
   <v>      -0.49901190       0.25031467      -0.49968277 </v>
   <v>       0.39886203       0.06999159      -0.39731049 </v>
   <v>      -0.33687267       0.07781998      -0.39461770 </v>
   <v>       0.43005172      -0.41244278      -0.39184990 </v>
   <v>      -0.16059250      -0.06771732       0.38877638 </v>
   <v>      -0.17530808       0.17733713       0.39193125 </v>
   <v>       0.17942001      -0.15423960      -0.39893935 </v>
   <v>       0.07123393      -0.09417915       0.39404155 </v>
   <v>      -0.33622204      -0.16595042      -0.39110620 </v>
   <v>       0.34144242       0.16324167       0.38989183 </v>
   <v>       0.17069355      -0.41340959       0.45383092 </v>
   <v>       0.00059969      -0.25546801       0.49464753 </v>
   <v>      -0.33305573       0.08037607       0.45591136 </v>
   <v>       0.42563705      -0.40969865       0.45650048 </v>
   <v>       0.34246138      -0.33036358      -0.45275245 </v>
   <v>      -0.40682057      -0.07683137      -0.45512889 </v>
   <v>      -0.16326366       0.43027904      -0.45900380 </v>
   <v>      -0.33396352      -0.16830148       0.45355240 </v>
   <v>      -0.41086922       0.41595120      -0.45386606 </v>
   <v>       0.42211457       0.08431955       0.44990844 </v>
   <v>       0.33117727      -0.09052959      -0.45815589 </v>
   <v>       0.16619351      -0.17784485       0.45019883 </v>
   <v>      -0.16705993      -0.34000827      -0.45317202 </v>
   <v>       0.08747691      -0.33419601      -0.45744145 </v>
   <v>      -0.41573115       0.17181075      -0.45623628 </v>
   <v>      -0.40606245      -0.32653868      -0.45446490 </v>
   <v>       0.23992328      -0.26125049      -0.49843240 </v>
   <v>       0.49490596      -0.25735302      -0.49697740 </v>
   <v>      -0.42788775       0.41656143       0.40001548 </v>
   <v>      -0.09756159      -0.43378199      -0.39568995 </v>
   <v>      -0.40313050      -0.07516709       0.39865335 </v>
   <v>       0.34275467      -0.33515191       0.39343797 </v>
   <v>      -0.16522487       0.42051524       0.39657536 </v>
   <v>      -0.34229930       0.32073665      -0.39388607 </v>
   <v>      -0.49798235      -0.00646408       0.49407247 </v>
   <v>      -0.33307247      -0.42450159      -0.39653017 </v>
   <v>      -0.07225672      -0.41790745       0.45379422 </v>
   <v>      -0.34512710      -0.42755909       0.45526378 </v>
   <v>      -0.33501266       0.34029761       0.45803280 </v>
   <v>      -0.17421746      -0.34428622       0.39369184 </v>
   <v>       0.34907025      -0.08238719       0.38910913 </v>
   <v>       0.09323616      -0.34593555       0.38426637 </v>
   <v>      -0.40466824       0.17164643       0.39391647 </v>
   <v>       0.43451457      -0.14368154      -0.39245104 </v>
   <v>      -0.40109764      -0.32037546       0.39784477 </v>
   <v>      -0.25054711      -0.49070400      -0.49905362 </v>
   <v>       0.41815374      -0.17421007       0.45973848 </v>
  </varray>
 </structure>
 <varray name="primitive_index" >
  <v type="int" >        1 </v>
  <v type="int" >       70 </v>
  <v type="int" >       66 </v>
  <v type="int" >       49 </v>
  <v type="int" >       50 </v>
  <v type="int" >       65 </v>
  <v type="int" >       61 </v>
  <v type="int" >       18 </v>
  <v type="int" >       17 </v>
  <v type="int" >       29 </v>
  <v type="int" >        6 </v>
  <v type="int" >       13 </v>
  <v type="int" >        2 </v>
  <v type="int" >        5 </v>
  <v type="int" >       16 </v>
  <v type="int" >        4 </v>
  <v type="int" >       71 </v>
  <v type="int" >       33 </v>
  <v type="int" >       77 </v>
  <v type="int" >       62 </v>
  <v type="int" >       69 </v>
  <v type="int" >       54 </v>
  <v type="int" >       64 </v>
  <v type="int" >       22 </v>
  <v type="int" >       30 </v>
  <v type="int" >       32 </v>
  <v type="int" >       67 </v>
  <v type="int" >       38 </v>
  <v type="int" >       34 </v>
  <v type="int" >       75 </v>
  <v type="int" >       78 </v>
  <v type="int" >       51 </v>
  <v type="int" >       80 </v>
  <v type="int" >       74 </v>
  <v type="int" >       53 </v>
  <v type="int" >       57 </v>
  <v type="int" >       55 </v>
  <v type="int" >       48 </v>
  <v type="int" >       45 </v>
  <v type="int" >       52 </v>
  <v type="int" >       36 </v>
  <v type="int" >       60 </v>
  <v type="int" >       37 </v>
  <v type="int" >       19 </v>
  <v type="int" >       68 </v>
  <v type="int" >       25 </v>
  <v type="int" >       23 </v>
  <v type="int" >        7 </v>
  <v type="int" >       12 </v>
  <v type="int" >       14 </v>
  <v type="int" >       28 </v>
  <v type="int" >       10 </v>
  <v type="int" >       21 </v>
  <v type="int" >        8 </v>
  <v type="int" >       20 </v>
  <v type="int" >       15 </v>
  <v type="int" >        3 </v>
  <v type="int" >        9 </v>
  <v type="int" >       11 </v>
  <v type="int" >       72 </v>
  <v type="int" >       76 </v>
  <v type="int" >       42 </v>
  <v type="int" >       63 </v>
  <v type="int" >       44 </v>
  <v type="int" >       39 </v>
  <v type="int" >       46 </v>
  <v type="int" >       58 </v>
  <v type="int" >       73 </v>
  <v type="int" >       59 </v>
  <v type="int" >       31 </v>
  <v type="int" >       27 </v>
  <v type="int" >       26 </v>
  <v type="int" >       47 </v>
  <v type="int" >       40 </v>
  <v type="int" >       35 </v>
  <v type="int" >       41 </v>
  <v type="int" >       56 </v>
  <v type="int" >       43 </v>
  <v type="int" >       79 </v>
  <v type="int" >       24 </v>
 </varray>
 <kpoints>
  <generation param="Gamma">
   <v type="int" name="divisions">       3        3        1 </v>
   <v name="usershift">      0.00000000       0.00000000       0.00000000 </v>
   <v name="genvec1">      0.33333333      -0.00000000       0.00000000 </v>
   <v name="genvec2">      0.00000000       0.33333333       0.00000000 </v>
   <v name="genvec3">      0.00000000       0.00000000       1.00000000 </v>
   <v name="shift">      0.00000000       0.00000000       0.00000000 </v>
  </generation>
  <varray name="kpointlist" >
   <v>       0.00000000       0.00000000       0.00000000 </v>
   <v>       0.33333333      -0.00000000       0.00000000 </v>
   <v>       0.00000000       0.33333333       0.00000000 </v>
   <v>       0.33333333       0.33333333       0.00000000 </v>
   <v>      -0.33333333       0.33333333       0.00000000 </v>
  </varray>
  <varray name="weights" >
   <v>       0.11111111 </v>
   <v>       0.22222222 </v>
   <v>       0.22222222 </v>
   <v>       0.22222222 </v>
   <v>       0.22222222 </v>
  </varray>
 </kpoints>
 <parameters>
  <separator name="general" >
   <i type="string" name="SYSTEM">unknown system</i>
   <i type="logical" name="LCOMPAT"> F  </i>
  </separator>
  <separator name="electronic" >
   <i type="string" name="PREC">anorma</i>
   <i name="ENMAX">    600.00000000</i>
   <i name="ENAUG">    644.87300000</i>
   <i name="EDIFF">      0.00000100</i>
   <i type="int" name="IALGO">    38</i>
   <i type="int" name="IWAVPR">    10</i>
   <i type="int" name="NBANDS">   384</i>
   <i name="NELECT">    640.00000000</i>
   <i type="int" name="TURBO">     0</i>
   <i type="int" name="IRESTART">     0</i>
   <i type="int" name="NREBOOT">     0</i>
   <i type="int" name="NMIN">     0</i>
   <i name="EREF">      0.00000000</i>
   <separator name="electronic smearing" >
    <i type="int" name="ISMEAR">     0</i>
    <i name="SIGMA">      0.05000000</i>
    <i name="KSPACING">      0.25000000</i>
    <i type="logical" name="KGAMMA"> T  </i>
   </separator>
   <separator name="electronic projectors" >
    <i type="logical" name="LREAL"> T  </i>
    <v name="ROPT">     -0.00025000     -0.00025000     -0.00025000</v>
    <i type="int" name="LMAXPAW">  -100</i>
    <i type="int" name="LMAXMIX">     2</i>
    <i type="logical" name="NLSPLINE"> F  </i>
   </separator>
   <separator name="electronic startup" >
    <i type="int" name="ISTART">     0</i>
    <i type="int" name="ICHARG">     2</i>
    <i type="int" name="INIWAV">     1</i>
   </separator>
   <separator name="electronic spin" >
    <i type="int" name="ISPIN">     1</i>
    <i type="logical" name="LNONCOLLINEAR"> F  </i>
    <v name="MAGMOM">      1.00000000      1.00000000      1.00000000      1.00000000      1.00000000      1.00000000      1.00000000      1.00000000      1.00000000      1.00000000      1.00000000      1.00000000      1.00000000      1.00000000      1.00000000      1.00000000      1.00000000      1.00000000      1.00000000      1.00000000
      1.00000000      1.00000000      1.00000000      1.00000000      1.00000000      1.00000000      1.00000000      1.00000000      1.00000000      1.00000000      1.00000000      1.00000000      1.00000000      1.00000000      1.00000000      1.00000000      1.00000000      1.00000000      1.00000000      1.00000000
      1.00000000      1.00000000      1.00000000      1.00000000      1.00000000      1.00000000      1.00000000      1.00000000      1.00000000      1.00000000      1.00000000      1.00000000      1.00000000      1.00000000      1.00000000      1.00000000      1.00000000      1.00000000      1.00000000      1.00000000
      1.00000000      1.00000000      1.00000000      1.00000000      1.00000000      1.00000000      1.00000000      1.00000000      1.00000000      1.00000000      1.00000000      1.00000000      1.00000000      1.00000000      1.00000000      1.00000000      1.00000000      1.00000000      1.00000000      1.00000000
</v>
    <i name="NUPDOWN">     -1.00000000</i>
    <i type="logical" name="LSORBIT"> F  </i>
    <v name="SAXIS">      0.00000000      0.00000000      1.00000000</v>
    <i type="logical" name="LSPIRAL"> F  </i>
    <v name="QSPIRAL">      0.00000000      0.00000000      0.00000000</v>
    <i type="logical" name="LZEROZ"> F  </i>
   </separator>
   <separator name="electronic exchange-correlation" >
    <i type="logical" name="LASPH"> F  </i>
    <i type="logical" name="LMETAGGA"> F  </i>
   </separator>
   <separator name="electronic convergence" >
    <i type="int" name="NELM">    60</i>
    <i type="int" name="NELMDL">    -5</i>
    <i type="int" name="NELMIN">     2</i>
    <i name="ENINI">    600.00000000</i>
    <separator name="electronic convergence detail" >
     <i type="logical" name="LDIAG"> T  </i>
     <i type="logical" name="LSUBROT"> F  </i>
     <i name="WEIMIN">      0.00000000</i>
     <i name="EBREAK">      0.00000000</i>
     <i name="DEPER">      0.30000000</i>
     <i type="int" name="NRMM">     4</i>
     <i name="TIME">      0.40000000</i>
    </separator>
   </separator>
   <separator name="electronic mixer" >
    <i name="AMIX">      0.40000000</i>
    <i name="BMIX">      1.00000000</i>
    <i name="AMIN">      0.10000000</i>
    <i name="AMIX_MAG">      1.60000000</i>
    <i name="BMIX_MAG">      1.00000000</i>
    <separator name="electronic mixer details" >
     <i type="int" name="IMIX">     4</i>
     <i type="logical" name="MIXFIRST"> F  </i>
     <i type="int" name="MAXMIX">   -45</i>
     <i name="WC">    100.00000000</i>
     <i type="int" name="INIMIX">     1</i>
     <i type="int" name="MIXPRE">     1</i>
     <i type="int" name="MREMOVE">     5</i>
    </separator>
   </separator>
   <separator name="electronic dipolcorrection" >
    <i type="logical" name="LDIPOL"> F  </i>
    <i type="logical" name="LMONO"> F  </i>
    <i type="int" name="IDIPOL">     0</i>
    <i name="EPSILON">      1.00000000</i>
    <v name="DIPOL">   -100.00000000   -100.00000000   -100.00000000</v>
    <i name="EFIELD">      0.00000000</i>
   </separator>
  </separator>
  <separator name="grids" >
   <i type="int" name="NGX">   112</i>
   <i type="int" name="NGY">   112</i>
   <i type="int" name="NGZ">   224</i>
   <i type="int" name="NGXF">   224</i>
   <i type="int" name="NGYF">   224</i>
   <i type="int" name="NGZF">   448</i>
   <i type="logical" name="ADDGRID"> T  </i>
  </separator>
  <separator name="ionic" >
   <i type="int" name="NSW">     1</i>
   <i type="int" name="IBRION">    -1</i>
   <i type="int" name="MDALGO">     0</i>
   <i type="int" name="ISIF">     2</i>
   <i name="PSTRESS">      0.00000000</i>
   <i name="EDIFFG">     -0.01000000</i>
   <i type="int" name="NFREE">     0</i>
   <i name="POTIM">      1.00000000</i>
   <i name="SMASS">     -3.00000000</i>
   <i name="SCALEE">      1.00000000</i>
  </separator>
  <separator name="ionic md" >
   <i name="TEBEG">      0.00010000</i>
   <i name="TEEND">      0.00010000</i>
   <i type="int" name="NBLOCK">     1</i>
   <i type="int" name="KBLOCK">     1</i>
   <i type="int" name="NPACO">   256</i>
   <i name="APACO">     16.00000000</i>
  </separator>
  <separator name="symmetry" >
   <i type="int" name="ISYM">     2</i>
   <i name="SYMPREC">      0.00001000</i>
  </separator>
  <separator name="dos" >
   <i type="int" name="LORBIT">     0</i>
   <v name="RWIGS">     -1.00000000     -1.00000000     -1.00000000</v>
   <i type="int" name="NEDOS">   301</i>
   <i name="EMIN">     10.00000000</i>
   <i name="EMAX">    -10.00000000</i>
   <i name="EFERMI">      0.00000000</i>
  </separator>
  <separator name="writing" >
   <i type="int" name="NWRITE">     2</i>
   <i type="logical" name="LWAVE"> F  </i>
   <i type="logical" name="LDOWNSAMPLE"> F  </i>
   <i type="logical" name="LCHARG"> F  </i>
   <i type="logical" name="LPARD"> F  </i>
   <i type="logical" name="LVTOT"> F  </i>
   <i type="logical" name="LVHAR"> F  </i>
   <i type="logical" name="LELF"> F  </i>
   <i type="logical" name="LOPTICS"> F  </i>
   <v name="STM">      0.00000000      0.00000000      0.00000000      0.00000000      0.00000000      0.00000000      0.00000000</v>
  </separator>
  <separator name="performance" >
   <i type="int" name="NPAR">     4</i>
   <i type="int" name="NSIM">     4</i>
   <i type="int" name="NBLK">    -1</i>
   <i type="logical" name="LPLANE"> T  </i>
   <i type="logical" name="LSCALAPACK"> F  </i>
   <i type="logical" name="LSCAAWARE"> F  </i>
   <i type="logical" name="LSCALU"> F  </i>
   <i type="logical" name="LASYNC"> F  </i>
   <i type="logical" name="LORBITALREAL"> F  </i>
  </separator>
  <separator name="miscellaneous" >
   <i type="int" name="IDIOT">     3</i>
   <i type="int" name="ISPECIAL">     0</i>
   <i type="logical" name="LMUSIC"> F  </i>
   <v name="POMASS">     44.95600000     35.45300000     12.01100000</v>
   <v name="DARWINR">      0.00000000      0.00000000      0.00000000</v>
   <v name="DARWINV">      1.00000000      1.00000000      1.00000000</v>
   <i type="logical" name="LCORR"> T  </i>
  </separator>
  <i type="logical" name="GGA_COMPAT"> T  </i>
  <i type="logical" name="LBERRY"> F  </i>
  <i type="int" name="ICORELEVEL">     0</i>
  <i type="logical" name="LDAU"> F  </i>
  <i type="int" name="I_CONSTRAINED_M">     0</i>
  <separator name="electronic exchange-correlation" >
   <i type="string" name="GGA">--</i>
   <i type="int" name="VOSKOWN">     0</i>
   <i type="logical" name="LHFCALC"> F  </i>
   <i type="string" name="PRECFOCK"></i>
   <i type="logical" name="LSYMGRAD"> F  </i>
   <i type="logical" name="LHFONE"> F  </i>
   <i type="logical" name="LRHFCALC"> F  </i>
   <i type="logical" name="LTHOMAS"> F  </i>
   <i type="logical" name="LMODELHF"> F  </i>
   <i name="ENCUT4O">     -1.00000000</i>
   <i type="int" name="EXXOEP">     0</i>
   <i type="int" name="FOURORBIT">     0</i>
   <i name="AEXX">      0.00000000</i>
   <i name="HFALPHA">      0.00000000</i>
   <i name="MCALPHA">      0.00000000</i>
   <i name="ALDAX">      1.00000000</i>
   <i name="AGGAX">      1.00000000</i>
   <i name="ALDAC">      1.00000000</i>
   <i name="AGGAC">      1.00000000</i>
   <i type="int" name="NKREDX">     1</i>
   <i type="int" name="NKREDY">     1</i>
   <i type="int" name="NKREDZ">     1</i>
   <i type="logical" name="SHIFTRED"> F  </i>
   <i type="logical" name="ODDONLY"> F  </i>
   <i type="logical" name="EVENONLY"> F  </i>
   <i type="int" name="LMAXFOCK">     0</i>
   <i type="int" name="NMAXFOCKAE">     0</i>
   <i type="logical" name="LFOCKAEDFT"> F  </i>
   <i name="HFSCREEN">      0.00000000</i>
   <i name="HFSCREENC">      0.00000000</i>
   <i type="int" name="NBANDSGWLOW">     0</i>
  </separator>
  <separator name="vdW DFT" >
   <i type="logical" name="LUSE_VDW"> F  </i>
   <i name="Zab_VDW">     -0.84910000</i>
   <i name="PARAM1">      0.12340000</i>
   <i name="PARAM2">      1.00000000</i>
   <i name="PARAM3">      0.00000000</i>
  </separator>
  <separator name="model GW" >
   <i type="int" name="MODEL_GW">     0</i>
   <i name="MODEL_EPS0">     34.36971577</i>
   <i name="MODEL_ALPHA">      1.00000000</i>
  </separator>
  <separator name="linear response parameters" >
   <i type="logical" name="LEPSILON"> F  </i>
   <i type="logical" name="LRPA"> F  </i>
   <i type="logical" name="LNABLA"> F  </i>
   <i type="logical" name="LVEL"> F  </i>
   <i type="int" name="KINTER">     0</i>
   <i name="CSHIFT">      0.10000000</i>
   <i name="OMEGAMAX">     -1.00000000</i>
   <i name="DEG_THRESHOLD">      0.00200000</i>
   <i name="RTIME">     -0.10000000</i>
   <i name="WPLASMAI">      0.00000000</i>
   <v name="DFIELD">      0.00000000      0.00000000      0.00000000</v>
   <v name="WPLASMA">      0.00000000      0.00000000      0.00000000      0.00000000      0.00000000      0.00000000      0.00000000      0.00000000      0.00000000</v>
  </separator>
  <separator name="orbital magnetization" >
   <i type="logical" name="NUCIND"> F  </i>
   <v name="MAGPOS">      0.00000000      0.00000000      0.00000000</v>
   <i type="logical" name="LNICSALL"> T  </i>
   <i type="logical" name="ORBITALMAG"> F  </i>
   <i type="logical" name="LMAGBLOCH"> F  </i>
   <i type="logical" name="LCHIMAG"> F  </i>
   <i type="logical" name="LGAUGE"> T  </i>
   <i type="int" name="MAGATOM">     0</i>
   <v name="MAGDIPOL">      0.00000000      0.00000000      0.00000000</v>
   <v name="AVECCONST">      0.00000000      0.00000000      0.00000000</v>
  </separator>
  <separator name="response functions" >
   <i type="logical" name="LADDER"> F  </i>
   <i type="logical" name="LRPAFORCE"> F  </i>
   <i type="logical" name="LFXC"> F  </i>
   <i type="logical" name="LHARTREE"> T  </i>
   <i type="int" name="IBSE">     0</i>
   <v type="int" name="KPOINT">    -1     0     0     0</v>
   <i type="logical" name="LTCTE"> F  </i>
   <i type="logical" name="LTETE"> F  </i>
   <i type="logical" name="LTRIPLET"> F  </i>
   <i type="logical" name="LFXCEPS"> F  </i>
   <i type="logical" name="LFXHEG"> F  </i>
   <i type="int" name="NATURALO">     2</i>
   <i type="logical" name="L2ORDER"> F  </i>
   <i type="logical" name="LMP2LT"> F  </i>
   <i type="logical" name="LUSEW"> F  </i>
   <i name="ENCUTGW">     -2.00000000</i>
   <i name="ENCUTGWSOFT">     -2.00000000</i>
   <i name="ENCUTLF">     -1.00000000</i>
   <i type="int" name="LMAXMP2">    -1</i>
   <i name="SCISSOR">      0.00000000</i>
   <i type="int" name="NOMEGA">     0</i>
   <i type="int" name="NOMEGAR">     0</i>
   <i type="int" name="NBANDSGW">    -1</i>
   <i type="int" name="NBANDSO">    -1</i>
   <i type="int" name="NBANDSV">    -1</i>
   <i type="int" name="NELM">     1</i>
   <i type="int" name="NELMHF">     1</i>
   <i type="int" name="DIM">     3</i>
   <i type="int" name="ANTIRES">     0</i>
   <i name="OMEGAMAX">    -30.00000000</i>
   <i name="OMEGAMIN">    -30.00000000</i>
   <i name="OMEGATL">   -200.00000000</i>
   <i type="int" name="OMEGAGRID">   140</i>
   <i name="CSHIFT">     -0.10000000</i>
   <i type="logical" name="SELFENERGY"> F  </i>
   <i type="logical" name="LSPECTRAL"> F  </i>
   <i type="logical" name="LSPECTRALGW"> F  </i>
   <i type="logical" name="LSINGLES"> F  </i>
   <i type="logical" name="LFERMIGW"> F  </i>
   <i type="logical" name="ODDONLYGW"> F  </i>
   <i type="logical" name="EVENONLYGW"> F  </i>
   <i type="int" name="NKREDLFX">     1</i>
   <i type="int" name="NKREDLFY">     1</i>
   <i type="int" name="NKREDLFZ">     1</i>
   <i type="int" name="MAXMEM">  2800</i>
   <i type="int" name="TELESCOPE">     0</i>
   <i type="int" name="TAUPAR">     1</i>
   <i type="int" name="OMEGAPAR">    -1</i>
   <i name="LAMBDA">      1.00000000</i>
  </separator>
  <separator name="External order field" >
   <i name="OFIELD_KAPPA">      0.00000000</i>
   <v name="OFIELD_K">      0.00000000      0.00000000      0.00000000</v>
   <i name="OFIELD_Q6_NEAR">      0.00000000</i>
   <i name="OFIELD_Q6_FAR">      0.00000000</i>
   <i name="OFIELD_A">      0.00000000</i>
  </separator>
 </parameters>
 <atominfo>
  <atoms>      80 </atoms>
  <types>       3 </types>
  <array name="atoms" >
   <dimension dim="1">ion</dimension>
   <field type="string">element</field>
   <field type="int">atomtype</field>
   <set>
    <rc><c>Sc</c><c>   1</c></rc>
    <rc><c>Sc</c><c>   1</c></rc>
    <rc><c>Sc</c><c>   1</c></rc>
    <rc><c>Sc</c><c>   1</c></rc>
    <rc><c>Sc</c><c>   1</c></rc>
    <rc><c>Sc</c><c>   1</c></rc>
    <rc><c>Sc</c><c>   1</c></rc>
    <rc><c>Sc</c><c>   1</c></rc>
    <rc><c>Sc</c><c>   1</c></rc>
    <rc><c>Sc</c><c>   1</c></rc>
    <rc><c>Sc</c><c>   1</c></rc>
    <rc><c>Sc</c><c>   1</c></rc>
    <rc><c>Sc</c><c>   1</c></rc>
    <rc><c>Sc</c><c>   1</c></rc>
    <rc><c>Sc</c><c>   1</c></rc>
    <rc><c>Sc</c><c>   1</c></rc>
    <rc><c>Sc</c><c>   1</c></rc>
    <rc><c>Sc</c><c>   1</c></rc>
    <rc><c>Sc</c><c>   1</c></rc>
    <rc><c>Sc</c><c>   1</c></rc>
    <rc><c>Sc</c><c>   1</c></rc>
    <rc><c>Sc</c><c>   1</c></rc>
    <rc><c>Sc</c><c>   1</c></rc>
    <rc><c>Sc</c><c>   1</c></rc>
    <rc><c>Sc</c><c>   1</c></rc>
    <rc><c>Sc</c><c>   1</c></rc>
    <rc><c>Sc</c><c>   1</c></rc>
    <rc><c>Sc</c><c>   1</c></rc>
    <rc><c>Sc</c><c>   1</c></rc>
    <rc><c>Sc</c><c>   1</c></rc>
    <rc><c>Sc</c><c>   1</c></rc>
    <rc><c>Sc</c><c>   1</c></rc>
    <rc><c>Cl</c><c>   2</c></rc>
    <rc><c>Cl</c><c>   2</c></rc>
    <rc><c>Cl</c><c>   2</c></rc>
    <rc><c>Cl</c><c>   2</c></rc>
    <rc><c>Cl</c><c>   2</c></rc>
    <rc><c>Cl</c><c>   2</c></rc>
    <rc><c>Cl</c><c>   2</c></rc>
    <rc><c>Cl</c><c>   2</c></rc>
    <rc><c>Cl</c><c>   2</c></rc>
    <rc><c>Cl</c><c>   2</c></rc>
    <rc><c>Cl</c><c>   2</c></rc>
    <rc><c>Cl</c><c>   2</c></rc>
    <rc><c>Cl</c><c>   2</c></rc>
    <rc><c>Cl</c><c>   2</c></rc>
    <rc><c>Cl</c><c>   2</c></rc>
    <rc><c>Cl</c><c>   2</c></rc>
    <rc><c>Cl</c><c>   2</c></rc>
    <rc><c>Cl</c><c>   2</c></rc>
    <rc><c>Cl</c><c>   2</c></rc>
    <rc><c>Cl</c><c>   2</c></rc>
    <rc><c>Cl</c><c>   2</c></rc>
    <rc><c>Cl</c><c>   2</c></rc>
    <rc><c>Cl</c><c>   2</c></rc>
    <rc><c>Cl</c><c>   2</c></rc>
    <rc><c>Cl</c><c>   2</c></rc>
    <rc><c>Cl</c><c>   2</c></rc>
    <rc><c>Cl</c><c>   2</c></rc>
    <rc><c>Cl</c><c>   2</c></rc>
    <rc><c>Cl</c><c>   2</c></rc>
    <rc><c>Cl</c><c>   2</c></rc>
    <rc><c>Cl</c><c>   2</c></rc>
    <rc><c>Cl</c><c>   2</c></rc>
    <rc><c>C </c><c>   3</c></rc>
    <rc><c>C </c><c>   3</c></rc>
    <rc><c>C </c><c>   3</c></rc>
    <rc><c>C </c><c>   3</c></rc>
    <rc><c>C </c><c>   3</c></rc>
    <rc><c>C </c><c>   3</c></rc>
    <rc><c>C </c><c>   3</c></rc>
    <rc><c>C </c><c>   3</c></rc>
    <rc><c>C </c><c>   3</c></rc>
    <rc><c>C </c><c>   3</c></rc>
    <rc><c>C </c><c>   3</c></rc>
    <rc><c>C </c><c>   3</c></rc>
    <rc><c>C </c><c>   3</c></rc>
    <rc><c>C </c><c>   3</c></rc>
    <rc><c>C </c><c>   3</c></rc>
    <rc><c>C </c><c>   3</c></rc>
   </set>
  </array>
  <array name="atomtypes" >
   <dimension dim="1">type</dimension>
   <field type="int">atomspertype</field>
   <field type="string">element</field>
   <field>mass</field>
   <field>valence</field>
   <field type="string">pseudopotential</field>
   <set>
    <rc><c>  32</c><c>Sc</c><c>     44.95600000</c><c>     11.00000000</c><c>  PAW_PBE Sc_sv 07Sep2000               </c></rc>
    <rc><c>  32</c><c>Cl</c><c>     35.45300000</c><c>      7.00000000</c><c>  PAW_PBE Cl 06Sep2000                  </c></rc>
    <rc><c>  16</c><c>C </c><c>     12.01100000</c><c>      4.00000000</c><c>  PAW_PBE C 08Apr2002                   </c></rc>
   </set>
  </array>
 </atominfo>
 <structure name="initialpos" >
  <crystal>
   <varray name="basis" >
    <v>      13.79398668       0.00000000       0.00000000 </v>
    <v>      -6.89699334      11.94594288       0.00000000 </v>
    <v>       0.00000000       0.00000000      27.81022107 </v>
   </varray>
   <i name="volume">   4582.62876984 </i>
   <varray name="rec_basis" >
    <v>       0.07249536       0.04185521       0.00000000 </v>
    <v>       0.00000000       0.08371043       0.00000000 </v>
    <v>       0.00000000       0.00000000       0.03595800 </v>
   </varray>
  </crystal>
  <varray name="positions" >
   <v>       0.08513519       0.18123665       0.54638021 </v>
   <v>       0.08307342       0.43253925       0.54384049 </v>
   <v>       0.08747691       0.66580399       0.54255855 </v>
   <v>       0.07194630       0.90275399       0.54446179 </v>
   <v>       0.32712564       0.15865194       0.54243023 </v>
   <v>       0.34005433       0.42565630       0.54925181 </v>
   <v>       0.34246138       0.66963642       0.54724755 </v>
   <v>       0.33117727       0.90947041       0.54184411 </v>
   <v>       0.58426885       0.17181075       0.54376372 </v>
   <v>       0.58913078       0.41595120       0.54613394 </v>
   <v>       0.59393755       0.67346132       0.54553510 </v>
   <v>       0.59317943       0.92316863       0.54487111 </v>
   <v>       0.82533012       0.16071375       0.54394916 </v>
   <v>       0.83673634       0.43027904       0.54099620 </v>
   <v>       0.83294007       0.65999173       0.54682798 </v>
   <v>       0.82969671       0.92721666       0.54399175 </v>
   <v>       0.15051027       0.07666063       0.46043543 </v>
   <v>       0.16699189       0.33524362       0.46097505 </v>
   <v>       0.17069355       0.58659041       0.45383092 </v>
   <v>       0.16619351       0.82215515       0.45019883 </v>
   <v>       0.42211457       0.08431955       0.44990844 </v>
   <v>       0.41281208       0.32980238       0.45707426 </v>
   <v>       0.42563705       0.59030135       0.45650048 </v>
   <v>       0.41815374       0.82578993       0.45973848 </v>
   <v>       0.66694427       0.08037607       0.45591136 </v>
   <v>       0.66498734       0.34029761       0.45803280 </v>
   <v>       0.65487290       0.57244091       0.45526378 </v>
   <v>       0.66603648       0.83169852       0.45355240 </v>
   <v>       0.90986917       0.09119139       0.45425042 </v>
   <v>       0.91412936       0.33608672       0.45525771 </v>
   <v>       0.92774328       0.58209255       0.45379422 </v>
   <v>       0.90837269       0.82910817       0.44999535 </v>
   <v>       0.08656950       0.17313984       0.40099015 </v>
   <v>       0.07718013       0.40774954       0.39706571 </v>
   <v>       0.09323616       0.65406445       0.38426637 </v>
   <v>       0.07123393       0.90582085       0.39404155 </v>
   <v>       0.34144242       0.16324167       0.38989183 </v>
   <v>       0.33247089       0.41832153       0.40195043 </v>
   <v>       0.34275467       0.66484809       0.39343797 </v>
   <v>       0.34907025       0.91761281       0.38910913 </v>
   <v>       0.59533176       0.17164643       0.39391647 </v>
   <v>       0.57211225       0.41656143       0.40001548 </v>
   <v>       0.59890236       0.67962454       0.39784477 </v>
   <v>       0.59686950       0.92483291       0.39865335 </v>
   <v>       0.82469192       0.17733713       0.39193125 </v>
   <v>       0.83477513       0.42051524       0.39657536 </v>
   <v>       0.82578254       0.65571378       0.39369184 </v>
   <v>       0.83940750       0.93228268       0.38877638 </v>
   <v>       0.15618806       0.07689060       0.60061798 </v>
   <v>       0.17580117       0.34417451       0.60822820 </v>
   <v>       0.15910654       0.57909757       0.60898248 </v>
   <v>       0.17942001       0.84576040       0.60106065 </v>
   <v>       0.39886203       0.06999159       0.60268951 </v>
   <v>       0.42112475       0.31561170       0.60796704 </v>
   <v>       0.43005172       0.58755722       0.60815010 </v>
   <v>       0.43451457       0.85631846       0.60754896 </v>
   <v>       0.66312733       0.07781998       0.60538230 </v>
   <v>       0.65770070       0.32073665       0.60611393 </v>
   <v>       0.66692753       0.57549841       0.60346983 </v>
   <v>       0.66377796       0.83404958       0.60889380 </v>
   <v>       0.90167474       0.07831301       0.60652643 </v>
   <v>       0.89399982       0.32520790       0.60310005 </v>
   <v>       0.90243841       0.56621801       0.60431005 </v>
   <v>       0.92614287       0.83578585       0.60534395 </v>
   <v>       0.98011743       0.99226769       0.49758112 </v>
   <v>       0.99473047       0.26007463       0.50176357 </v>
   <v>       0.99764273       0.49452678       0.49941906 </v>
   <v>       0.00059969       0.74453199       0.49464753 </v>
   <v>       0.24212700       0.99037400       0.49815897 </v>
   <v>       0.24977571       0.25208781       0.50221110 </v>
   <v>       0.25450842       0.50133458       0.50060864 </v>
   <v>       0.23992328       0.73874951       0.50156760 </v>
   <v>       0.50201765       0.99353592       0.49407247 </v>
   <v>       0.50098810       0.25031467       0.50031723 </v>
   <v>       0.50009032       0.50668104       0.50623715 </v>
   <v>       0.49490596       0.74264698       0.50302260 </v>
   <v>       0.74506390       0.00116422       0.49737303 </v>
   <v>       0.75551092       0.26304486       0.50389356 </v>
   <v>       0.74945289       0.50929600       0.50094638 </v>
   <v>       0.75609490       0.75679012       0.50105436 </v>
  </varray>
  <varray name="velocities" >
   <v>       0.00000000       0.00000000       0.00000000 </v>
   <v>       0.00000000       0.00000000       0.00000000 </v>
   <v>       0.00000000       0.00000000       0.00000000 </v>
   <v>       0.00000000       0.00000000       0.00000000 </v>
   <v>       0.00000000       0.00000000       0.00000000 </v>
   <v>       0.00000000       0.00000000       0.00000000 </v>
   <v>       0.00000000       0.00000000       0.00000000 </v>
   <v>       0.00000000       0.00000000       0.00000000 </v>
   <v>       0.00000000       0.00000000       0.00000000 </v>
   <v>       0.00000000       0.00000000       0.00000000 </v>
   <v>       0.00000000       0.00000000       0.00000000 </v>
   <v>       0.00000000       0.00000000       0.00000000 </v>
   <v>       0.00000000       0.00000000       0.00000000 </v>
   <v>       0.00000000       0.00000000       0.00000000 </v>
   <v>       0.00000000       0.00000000       0.00000000 </v>
   <v>       0.00000000       0.00000000       0.00000000 </v>
   <v>       0.00000000       0.00000000       0.00000000 </v>
   <v>       0.00000000       0.00000000       0.00000000 </v>
   <v>       0.00000000       0.00000000       0.00000000 </v>
   <v>       0.00000000       0.00000000       0.00000000 </v>
   <v>       0.00000000       0.00000000       0.00000000 </v>
   <v>       0.00000000       0.00000000       0.00000000 </v>
   <v>       0.00000000       0.00000000       0.00000000 </v>
   <v>       0.00000000       0.00000000       0.00000000 </v>
   <v>       0.00000000       0.00000000       0.00000000 </v>
   <v>       0.00000000       0.00000000       0.00000000 </v>
   <v>       0.00000000       0.00000000       0.00000000 </v>
   <v>       0.00000000       0.00000000       0.00000000 </v>
   <v>       0.00000000       0.00000000       0.00000000 </v>
   <v>       0.00000000       0.00000000       0.00000000 </v>
   <v>       0.00000000       0.00000000       0.00000000 </v>
   <v>       0.00000000       0.00000000       0.00000000 </v>
   <v>       0.00000000       0.00000000       0.00000000 </v>
   <v>       0.00000000       0.00000000       0.00000000 </v>
   <v>       0.00000000       0.00000000       0.00000000 </v>
   <v>       0.00000000       0.00000000       0.00000000 </v>
   <v>       0.00000000       0.00000000       0.00000000 </v>
   <v>       0.00000000       0.00000000       0.00000000 </v>
   <v>       0.00000000       0.00000000       0.00000000 </v>
   <v>       0.00000000       0.00000000       0.00000000 </v>
   <v>       0.00000000       0.00000000       0.00000000 </v>
   <v>       0.00000000       0.00000000       0.00000000 </v>
   <v>       0.00000000       0.00000000       0.00000000 </v>
   <v>       0.00000000       0.00000000       0.00000000 </v>
   <v>       0.00000000       0.00000000       0.00000000 </v>
   <v>       0.00000000       0.00000000       0.00000000 </v>
   <v>       0.00000000       0.00000000       0.00000000 </v>
   <v>       0.00000000       0.00000000       0.00000000 </v>
   <v>       0.00000000       0.00000000       0.00000000 </v>
   <v>       0.00000000       0.00000000       0.00000000 </v>
   <v>       0.00000000       0.00000000       0.00000000 </v>
   <v>       0.00000000       0.00000000       0.00000000 </v>
   <v>       0.00000000       0.00000000       0.00000000 </v>
   <v>       0.00000000       0.00000000       0.00000000 </v>
   <v>       0.00000000       0.00000000       0.00000000 </v>
   <v>       0.00000000       0.00000000       0.00000000 </v>
   <v>       0.00000000       0.00000000       0.00000000 </v>
   <v>       0.00000000       0.00000000       0.00000000 </v>
   <v>       0.00000000       0.00000000       0.00000000 </v>
   <v>       0.00000000       0.00000000       0.00000000 </v>
   <v>       0.00000000       0.00000000       0.00000000 </v>
   <v>       0.00000000       0.00000000       0.00000000 </v>
   <v>       0.00000000       0.00000000       0.00000000 </v>
   <v>       0.00000000       0.00000000       0.00000000 </v>
   <v>       0.00000000       0.00000000       0.00000000 </v>
   <v>       0.00000000       0.00000000       0.00000000 </v>
   <v>       0.00000000       0.00000000       0.00000000 </v>
   <v>       0.00000000       0.00000000       0.00000000 </v>
   <v>       0.00000000       0.00000000       0.00000000 </v>
   <v>       0.00000000       0.00000000       0.00000000 </v>
   <v>       0.00000000       0.00000000       0.00000000 </v>
   <v>       0.00000000       0.00000000       0.00000000 </v>
   <v>       0.00000000       0.00000000       0.00000000 </v>
   <v>       0.00000000       0.00000000       0.00000000 </v>
   <v>       0.00000000       0.00000000       0.00000000 </v>
   <v>       0.00000000       0.00000000       0.00000000 </v>
   <v>       0.00000000       0.00000000       0.00000000 </v>
   <v>       0.00000000       0.00000000       0.00000000 </v>
   <v>       0.00000000       0.00000000       0.00000000 </v>
   <v>       0.00000000       0.00000000       0.00000000 </v>
  </varray>
 </structure>
 <calculation>
  <scstep>
   <time name="dav">   50.44   50.44</time>
   <time name="total">   51.28   51.28</time>
   <energy>
    <i name="alphaZ">    784.57699423 </i>
    <i name="ewald"> 252093.75537860 </i>
    <i name="hartreedc">-299754.54452560 </i>
    <i name="XCdc">   2502.61945164 </i>
    <i name="pawpsdc">  43679.68029659 </i>
    <i name="pawaedc"> -43417.33247688 </i>
    <i name="eentropy">     -0.06305251 </i>
    <i name="bandstr">    117.23781793 </i>
    <i name="atom">  56210.72393729 </i>
    <i name="e_fr_energy">  12216.65382129 </i>
    <i name="e_wo_entrp">  12216.71687380 </i>
    <i name="e_0_energy">  12216.68534754 </i>
   </energy>
  </scstep>
  <scstep>
   <time name="dav">   56.77   56.79</time>
   <time name="total">   56.77   56.79</time>
   <energy>
    <i name="e_fr_energy">   1729.81921869 </i>
    <i name="e_wo_entrp">   1729.86148416 </i>
    <i name="e_0_energy">   1729.84035142 </i>
   </energy>
  </scstep>
  <scstep>
   <time name="dav">   70.90   70.91</time>
   <time name="total">   70.90   70.91</time>
   <energy>
    <i name="e_fr_energy">   -406.65607343 </i>
    <i name="e_wo_entrp">   -406.65600084 </i>
    <i name="e_0_energy">   -406.65603713 </i>
   </energy>
  </scstep>
  <scstep>
   <time name="dav">   64.66   64.67</time>
   <time name="total">   64.66   64.67</time>
   <energy>
    <i name="e_fr_energy">   -642.71714349 </i>
    <i name="e_wo_entrp">   -642.71714349 </i>
    <i name="e_0_energy">   -642.71714349 </i>
   </energy>
  </scstep>
  <scstep>
   <time name="dav">   64.59   64.60</time>
   <time name="total">   68.53   68.54</time>
   <energy>
    <i name="e_fr_energy">   -653.21740258 </i>
    <i name="e_wo_entrp">   -653.21740258 </i>
    <i name="e_0_energy">   -653.21740258 </i>
   </energy>
  </scstep>
  <scstep>
   <time name="dav">   62.66   62.66</time>
   <time name="total">   67.39   67.40</time>
   <energy>
    <i name="e_fr_energy">   -522.86234846 </i>
    <i name="e_wo_entrp">   -522.86234625 </i>
    <i name="e_0_energy">   -522.86234735 </i>
   </energy>
  </scstep>
  <scstep>
   <time name="dav">   63.38   63.38</time>
   <time name="total">   68.10   68.12</time>
   <energy>
    <i name="e_fr_energy">   -527.60321167 </i>
    <i name="e_wo_entrp">   -527.60321167 </i>
    <i name="e_0_energy">   -527.60321167 </i>
   </energy>
  </scstep>
  <scstep>
   <time name="dav">   62.67   62.67</time>
   <time name="total">   67.40   67.41</time>
   <energy>
    <i name="e_fr_energy">   -525.37826940 </i>
    <i name="e_wo_entrp">   -525.37826940 </i>
    <i name="e_0_energy">   -525.37826940 </i>
   </energy>
  </scstep>
  <scstep>
   <time name="dav">   58.39   58.39</time>
   <time name="total">   63.11   63.12</time>
   <energy>
    <i name="e_fr_energy">   -524.86503879 </i>
    <i name="e_wo_entrp">   -524.86503879 </i>
    <i name="e_0_energy">   -524.86503879 </i>
   </energy>
  </scstep>
  <scstep>
   <time name="dav">   61.00   61.00</time>
   <time name="total">   65.73   65.74</time>
   <energy>
    <i name="e_fr_energy">   -524.72716238 </i>
    <i name="e_wo_entrp">   -524.72716238 </i>
    <i name="e_0_energy">   -524.72716238 </i>
   </energy>
  </scstep>
  <scstep>
   <time name="dav">   62.41   62.41</time>
   <time name="total">   67.12   67.13</time>
   <energy>
    <i name="e_fr_energy">   -524.70828177 </i>
    <i name="e_wo_entrp">   -524.70828177 </i>
    <i name="e_0_energy">   -524.70828177 </i>
   </energy>
  </scstep>
  <scstep>
   <time name="dav">   64.75   64.75</time>
   <time name="total">   69.48   69.49</time>
   <energy>
    <i name="e_fr_energy">   -524.69463065 </i>
    <i name="e_wo_entrp">   -524.69463065 </i>
    <i name="e_0_energy">   -524.69463065 </i>
   </energy>
  </scstep>
  <scstep>
   <time name="dav">   59.15   59.15</time>
   <time name="total">   63.85   63.87</time>
   <energy>
    <i name="e_fr_energy">   -524.69104429 </i>
    <i name="e_wo_entrp">   -524.69104429 </i>
    <i name="e_0_energy">   -524.69104429 </i>
   </energy>
  </scstep>
  <scstep>
   <time name="dav">   59.11   59.11</time>
   <time name="total">   63.83   63.84</time>
   <energy>
    <i name="e_fr_energy">   -524.68922203 </i>
    <i name="e_wo_entrp">   -524.68922203 </i>
    <i name="e_0_energy">   -524.68922203 </i>
   </energy>
  </scstep>
  <scstep>
   <time name="dav">   59.26   59.26</time>
   <time name="total">   63.98   63.99</time>
   <energy>
    <i name="e_fr_energy">   -524.69052772 </i>
    <i name="e_wo_entrp">   -524.69052772 </i>
    <i name="e_0_energy">   -524.69052772 </i>
   </energy>
  </scstep>
  <scstep>
   <time name="dav">   62.23   62.23</time>
   <time name="total">   66.96   66.97</time>
   <energy>
    <i name="e_fr_energy">   -524.69227298 </i>
    <i name="e_wo_entrp">   -524.69227298 </i>
    <i name="e_0_energy">   -524.69227298 </i>
   </energy>
  </scstep>
  <scstep>
   <time name="dav">   58.91   58.91</time>
   <time name="total">   63.63   63.64</time>
   <energy>
    <i name="e_fr_energy">   -524.69530993 </i>
    <i name="e_wo_entrp">   -524.69530993 </i>
    <i name="e_0_energy">   -524.69530993 </i>
   </energy>
  </scstep>
  <scstep>
   <time name="dav">   55.51   55.51</time>
   <time name="total">   60.23   60.24</time>
   <energy>
    <i name="e_fr_energy">   -524.69798605 </i>
    <i name="e_wo_entrp">   -524.69798605 </i>
    <i name="e_0_energy">   -524.69798605 </i>
   </energy>
  </scstep>
  <scstep>
   <time name="dav">   55.03   55.03</time>
   <time name="total">   59.76   59.77</time>
   <energy>
    <i name="e_fr_energy">   -524.69906092 </i>
    <i name="e_wo_entrp">   -524.69906092 </i>
    <i name="e_0_energy">   -524.69906092 </i>
   </energy>
  </scstep>
  <scstep>
   <time name="dav">   50.86   50.87</time>
   <time name="total">   55.60   55.61</time>
   <energy>
    <i name="e_fr_energy">   -524.70035408 </i>
    <i name="e_wo_entrp">   -524.70035408 </i>
    <i name="e_0_energy">   -524.70035408 </i>
   </energy>
  </scstep>
  <scstep>
   <time name="dav">   48.46   48.47</time>
   <time name="total">   53.21   53.22</time>
   <energy>
    <i name="e_fr_energy">   -524.70083186 </i>
    <i name="e_wo_entrp">   -524.70083186 </i>
    <i name="e_0_energy">   -524.70083186 </i>
   </energy>
  </scstep>
  <scstep>
   <time name="dav">   45.30   45.30</time>
   <time name="total">   50.03   50.04</time>
   <energy>
    <i name="e_fr_energy">   -524.70118970 </i>
    <i name="e_wo_entrp">   -524.70118970 </i>
    <i name="e_0_energy">   -524.70118970 </i>
   </energy>
  </scstep>
  <scstep>
   <time name="dav">   43.37   43.37</time>
   <time name="total">   48.10   48.11</time>
   <energy>
    <i name="e_fr_energy">   -524.70175323 </i>
    <i name="e_wo_entrp">   -524.70175323 </i>
    <i name="e_0_energy">   -524.70175323 </i>
   </energy>
  </scstep>
  <scstep>
   <time name="dav">   44.05   44.05</time>
   <time name="total">   48.77   48.78</time>
   <energy>
    <i name="e_fr_energy">   -524.70196349 </i>
    <i name="e_wo_entrp">   -524.70196349 </i>
    <i name="e_0_energy">   -524.70196349 </i>
   </energy>
  </scstep>
  <scstep>
   <time name="dav">   37.59   37.59</time>
   <time name="total">   42.33   42.34</time>
   <energy>
    <i name="e_fr_energy">   -524.70204547 </i>
    <i name="e_wo_entrp">   -524.70204547 </i>
    <i name="e_0_energy">   -524.70204547 </i>
   </energy>
  </scstep>
  <scstep>
   <time name="dav">   40.89   40.89</time>
   <time name="total">   45.62   45.63</time>
   <energy>
    <i name="e_fr_energy">   -524.70214825 </i>
    <i name="e_wo_entrp">   -524.70214825 </i>
    <i name="e_0_energy">   -524.70214825 </i>
   </energy>
  </scstep>
  <scstep>
   <time name="dav">   34.93   34.93</time>
   <time name="total">   39.65   39.66</time>
   <energy>
    <i name="e_fr_energy">   -524.70216454 </i>
    <i name="e_wo_entrp">   -524.70216454 </i>
    <i name="e_0_energy">   -524.70216454 </i>
   </energy>
  </scstep>
  <scstep>
   <time name="dav">   34.37   34.38</time>
   <time name="total">   39.11   39.12</time>
   <energy>
    <i name="e_fr_energy">   -524.70217420 </i>
    <i name="e_wo_entrp">   -524.70217420 </i>
    <i name="e_0_energy">   -524.70217420 </i>
   </energy>
  </scstep>
  <scstep>
   <time name="dav">   34.31   34.31</time>
   <time name="total">   39.02   39.03</time>
   <energy>
    <i name="e_fr_energy">   -524.70218328 </i>
    <i name="e_wo_entrp">   -524.70218328 </i>
    <i name="e_0_energy">   -524.70218328 </i>
   </energy>
  </scstep>
  <scstep>
   <time name="dav">   34.92   34.93</time>
   <time name="total">   39.66   39.67</time>
   <energy>
    <i name="e_fr_energy">   -524.70219462 </i>
    <i name="e_wo_entrp">   -524.70219462 </i>
    <i name="e_0_energy">   -524.70219462 </i>
   </energy>
  </scstep>
  <scstep>
   <time name="dav">   34.95   34.95</time>
   <time name="total">   39.68   39.69</time>
   <energy>
    <i name="e_fr_energy">   -524.70220153 </i>
    <i name="e_wo_entrp">   -524.70220153 </i>
    <i name="e_0_energy">   -524.70220153 </i>
   </energy>
  </scstep>
  <scstep>
   <time name="dav">   32.63   32.63</time>
   <time name="total">   37.37   37.38</time>
   <energy>
    <i name="e_fr_energy">   -524.70220338 </i>
    <i name="e_wo_entrp">   -524.70220338 </i>
    <i name="e_0_energy">   -524.70220338 </i>
   </energy>
  </scstep>
  <scstep>
   <time name="dav">   32.54   32.54</time>
   <time name="total">   33.34   33.36</time>
   <energy>
    <i name="alphaZ">    784.57699423 </i>
    <i name="ewald"> 252093.75537860 </i>
    <i name="hartreedc">-300062.93700768 </i>
    <i name="XCdc">   2489.71061627 </i>
    <i name="pawpsdc">  59402.35445433 </i>
    <i name="pawaedc"> -59234.45818285 </i>
    <i name="eentropy">     -0.00000000 </i>
    <i name="bandstr"> -12208.42839379 </i>
    <i name="atom">  56210.72393729 </i>
    <i name="e_fr_energy">   -524.70220360 </i>
    <i name="e_wo_entrp">   -524.70220360 </i>
    <i name="e_0_energy">   -524.70220360 </i>
   </energy>
  </scstep>
  <structure>
   <crystal>
    <varray name="basis" >
     <v>      13.79398668       0.00000000       0.00000000 </v>
     <v>      -6.89699334      11.94594288       0.00000000 </v>
     <v>       0.00000000       0.00000000      27.81022107 </v>
    </varray>
    <i name="volume">   4582.62876984 </i>
    <varray name="rec_basis" >
     <v>       0.07249536       0.04185521       0.00000000 </v>
     <v>       0.00000000       0.08371043       0.00000000 </v>
     <v>       0.00000000       0.00000000       0.03595800 </v>
    </varray>
   </crystal>
   <varray name="positions" >
    <v>       0.08513519       0.18123665       0.54638021 </v>
    <v>       0.08307342       0.43253925       0.54384049 </v>
    <v>       0.08747691       0.66580399       0.54255855 </v>
    <v>       0.07194630       0.90275399       0.54446179 </v>
    <v>       0.32712564       0.15865194       0.54243023 </v>
    <v>       0.34005433       0.42565630       0.54925181 </v>
    <v>       0.34246138       0.66963642       0.54724755 </v>
    <v>       0.33117727       0.90947041       0.54184411 </v>
    <v>       0.58426885       0.17181075       0.54376372 </v>
    <v>       0.58913078       0.41595120       0.54613394 </v>
    <v>       0.59393755       0.67346132       0.54553510 </v>
    <v>       0.59317943       0.92316863       0.54487111 </v>
    <v>       0.82533012       0.16071375       0.54394916 </v>
    <v>       0.83673634       0.43027904       0.54099620 </v>
    <v>       0.83294007       0.65999173       0.54682798 </v>
    <v>       0.82969671       0.92721666       0.54399175 </v>
    <v>       0.15051027       0.07666063       0.46043543 </v>
    <v>       0.16699189       0.33524362       0.46097505 </v>
    <v>       0.17069355       0.58659041       0.45383092 </v>
    <v>       0.16619351       0.82215515       0.45019883 </v>
    <v>       0.42211457       0.08431955       0.44990844 </v>
    <v>       0.41281208       0.32980238       0.45707426 </v>
    <v>       0.42563705       0.59030135       0.45650048 </v>
    <v>       0.41815374       0.82578993       0.45973848 </v>
    <v>       0.66694427       0.08037607       0.45591136 </v>
    <v>       0.66498734       0.34029761       0.45803280 </v>
    <v>       0.65487290       0.57244091       0.45526378 </v>
    <v>       0.66603648       0.83169852       0.45355240 </v>
    <v>       0.90986917       0.09119139       0.45425042 </v>
    <v>       0.91412936       0.33608672       0.45525771 </v>
    <v>       0.92774328       0.58209255       0.45379422 </v>
    <v>       0.90837269       0.82910817       0.44999535 </v>
    <v>       0.08656950       0.17313984       0.40099015 </v>
    <v>       0.07718013       0.40774954       0.39706571 </v>
    <v>       0.09323616       0.65406445       0.38426637 </v>
    <v>       0.07123393       0.90582085       0.39404155 </v>
    <v>       0.34144242       0.16324167       0.38989183 </v>
    <v>       0.33247089       0.41832153       0.40195043 </v>
    <v>       0.34275467       0.66484809       0.39343797 </v>
    <v>       0.34907025       0.91761281       0.38910913 </v>
    <v>       0.59533176       0.17164643       0.39391647 </v>
    <v>       0.57211225       0.41656143       0.40001548 </v>
    <v>       0.59890236       0.67962454       0.39784477 </v>
    <v>       0.59686950       0.92483291       0.39865335 </v>
    <v>       0.82469192       0.17733713       0.39193125 </v>
    <v>       0.83477513       0.42051524       0.39657536 </v>
    <v>       0.82578254       0.65571378       0.39369184 </v>
    <v>       0.83940750       0.93228268       0.38877638 </v>
    <v>       0.15618806       0.07689060       0.60061798 </v>
    <v>       0.17580117       0.34417451       0.60822820 </v>
    <v>       0.15910654       0.57909757       0.60898248 </v>
    <v>       0.17942001       0.84576040       0.60106065 </v>
    <v>       0.39886203       0.06999159       0.60268951 </v>
    <v>       0.42112475       0.31561170       0.60796704 </v>
    <v>       0.43005172       0.58755722       0.60815010 </v>
    <v>       0.43451457       0.85631846       0.60754896 </v>
    <v>       0.66312733       0.07781998       0.60538230 </v>
    <v>       0.65770070       0.32073665       0.60611393 </v>
    <v>       0.66692753       0.57549841       0.60346983 </v>
    <v>       0.66377796       0.83404958       0.60889380 </v>
    <v>       0.90167474       0.07831301       0.60652643 </v>
    <v>       0.89399982       0.32520790       0.60310005 </v>
    <v>       0.90243841       0.56621801       0.60431005 </v>
    <v>       0.92614287       0.83578585       0.60534395 </v>
    <v>       0.98011743       0.99226769       0.49758112 </v>
    <v>       0.99473047       0.26007463       0.50176357 </v>
    <v>       0.99764273       0.49452678       0.49941906 </v>
    <v>       0.00059969       0.74453199       0.49464753 </v>
    <v>       0.24212700       0.99037400       0.49815897 </v>
    <v>       0.24977571       0.25208781       0.50221110 </v>
    <v>       0.25450842       0.50133458       0.50060864 </v>
    <v>       0.23992328       0.73874951       0.50156760 </v>
    <v>       0.50201765       0.99353592       0.49407247 </v>
    <v>       0.50098810       0.25031467       0.50031723 </v>
    <v>       0.50009032       0.50668104       0.50623715 </v>
    <v>       0.49490596       0.74264698       0.50302260 </v>
    <v>       0.74506390       0.00116422       0.49737303 </v>
    <v>       0.75551092       0.26304486       0.50389356 </v>
    <v>       0.74945289       0.50929600       0.50094638 </v>
    <v>       0.75609490       0.75679012       0.50105436 </v>
   </varray>
  </structure>
  <varray name="forces" >
   <v>      -0.21510891      -0.61513875       0.41001037 </v>
   <v>       0.74480119      -1.71648827       0.69280752 </v>
   <v>      -0.71154417       0.22628710       0.52271271 </v>
   <v>       0.43972757       0.76102004      -1.22224890 </v>
   <v>       0.12883710       0.01607993       0.35956075 </v>
   <v>       0.24380697      -0.53345360      -0.34331514 </v>
   <v>      -0.38728684      -0.50641725       0.35478525 </v>
   <v>      -0.16786530       1.02534202      -0.29675998 </v>
   <v>       0.17773430      -0.37777508       0.06287758 </v>
   <v>      -1.05939474      -0.33056988       0.20445582 </v>
   <v>      -0.10430411      -0.30570225       0.12263913 </v>
   <v>      -1.01817784      -0.68869834      -0.01811960 </v>
   <v>      -0.11840222       1.85944633       0.30911947 </v>
   <v>       0.38049489      -2.08063551       0.61237802 </v>
   <v>      -0.45686498       1.07882708      -1.20626724 </v>
   <v>       1.17855587      -1.26775017      -0.33728926 </v>
   <v>       0.64611152      -0.15662441      -0.85472602 </v>
   <v>      -0.19569537       0.51036243      -0.54471329 </v>
   <v>       0.78684689      -0.82341753      -0.08831241 </v>
   <v>      -0.67186224       1.14358313       0.28391662 </v>
   <v>      -0.24635735      -0.54827620       0.42947896 </v>
   <v>      -0.46253494      -0.38270154       0.63364476 </v>
   <v>      -0.54409433      -0.90903144       0.72871035 </v>
   <v>      -0.03516022       0.74285429      -1.37181425 </v>
   <v>      -0.83217496       0.73725686      -0.34674135 </v>
   <v>       0.81652685      -0.77049072      -0.49011336 </v>
   <v>       0.75646805       1.59956081       1.20671990 </v>
   <v>       0.73791354       0.75429950       1.08822549 </v>
   <v>       0.89170674      -0.26972139      -0.07136585 </v>
   <v>       0.09430672      -0.42030183       0.34290230 </v>
   <v>      -1.24683110       0.64963206      -0.52533222 </v>
   <v>      -0.16548555       0.06748459       1.05049419 </v>
   <v>       0.02160168      -0.19880918      -0.43715555 </v>
   <v>       0.33421601       0.37024998      -0.05010787 </v>
   <v>      -0.42637870       0.37929561       0.98151783 </v>
   <v>       0.56405895       0.45637090      -0.06404400 </v>
   <v>      -0.49953882       0.21841160       0.64045673 </v>
   <v>       0.10738500      -0.05735380      -0.61570200 </v>
   <v>      -0.17765516       0.14276319       0.34162138 </v>
   <v>      -0.38928226      -0.33808953       0.71948605 </v>
   <v>      -0.56426836       0.21012464       0.28718076 </v>
   <v>       0.43560043      -0.22841397      -1.02298812 </v>
   <v>      -0.41000330      -0.87909860      -0.90504439 </v>
   <v>      -0.54089248      -0.68775075      -0.73638658 </v>
   <v>       0.71782800      -0.28195344       0.37504369 </v>
   <v>      -0.32807042      -0.11341046      -0.27479834 </v>
   <v>       0.03561758       0.11942947       0.16741686 </v>
   <v>      -0.06945465      -0.39746038       0.58474987 </v>
   <v>      -0.03412677       0.26868418       0.11516545 </v>
   <v>      -0.36629315      -0.38486748      -0.22906927 </v>
   <v>       0.09245247       0.47983763      -0.31583668 </v>
   <v>      -0.57744268      -1.21656173       0.47847761 </v>
   <v>       0.61399635       0.50776914      -0.20893359 </v>
   <v>      -0.61904233       0.53689448      -0.48407720 </v>
   <v>      -0.49000660       0.06289443       0.03647955 </v>
   <v>      -0.38814377      -1.09442119      -0.49063948 </v>
   <v>      -0.18157592       0.41478498      -0.15644109 </v>
   <v>       0.02961555       0.41256407      -0.06062783 </v>
   <v>      -0.08333357       0.47405485       0.63398152 </v>
   <v>       0.31323360       0.00337388      -0.44390650 </v>
   <v>       0.52690586       0.47372373      -0.05648060 </v>
   <v>       0.82361752       0.43462149       0.03988439 </v>
   <v>       0.36082307       1.15646506       0.68489944 </v>
   <v>      -0.61091496      -0.45659384       0.20978937 </v>
   <v>       0.94281236       0.90488784       0.06729162 </v>
   <v>       0.87266665      -0.90682872       0.06437162 </v>
   <v>      -0.15703717       1.54355212      -0.34188139 </v>
   <v>       0.23592636      -0.11758213       0.78176073 </v>
   <v>       0.23802096       0.25474687      -0.29182308 </v>
   <v>      -0.24204170      -0.44688256       0.12045384 </v>
   <v>      -0.43634023       0.60738677       0.53716625 </v>
   <v>       1.03491747       0.68090611      -0.70158929 </v>
   <v>      -0.43360011       0.23096295       1.09073570 </v>
   <v>      -0.05297062      -0.09240871      -0.38617031 </v>
   <v>       0.71050066      -0.54029587      -1.19145911 </v>
   <v>       0.41331006       0.98021750      -0.39344376 </v>
   <v>       0.43644130       0.12841667       0.69385199 </v>
   <v>      -0.71698521      -1.06391614      -0.95587975 </v>
   <v>       0.31141727      -0.95608919      -0.28863640 </v>
   <v>      -0.76225922      -0.46344446      -0.24698043 </v>
  </varray>
  <varray name="stress" >
   <v>       1.58660978       0.01411213       0.14048637 </v>
   <v>       0.01411212       3.87197303       0.90875443 </v>
   <v>       0.14048639       0.90875445      -1.97599063 </v>
  </varray>
  <energy>
   <i name="e_fr_energy">   -524.70220360 </i>
   <i name="e_wo_entrp">   -524.70220360 </i>
   <i name="e_0_energy">     -0.00000000 </i>
  </energy>
  <time name="totalsc"> 1901.76 1902.12</time>
  <eigenvalues>
   <array>
    <dimension dim="1">band</dimension>
    <dimension dim="2">kpoint</dimension>
    <dimension dim="3">spin</dimension>
    <field>eigene</field>
    <field>occ</field>
    <set>
     <set comment="spin 1">
      <set comment="kpoint 1">
       <r>  -51.7583    1.0000 </r>
       <r>  -51.7382    1.0000 </r>
       <r>  -51.7173    1.0000 </r>
       <r>  -51.6527    1.0000 </r>
       <r>  -51.6440    1.0000 </r>
       <r>  -51.6403    1.0000 </r>
       <r>  -51.5792    1.0000 </r>
       <r>  -51.5784    1.0000 </r>
       <r>  -51.5263    1.0000 </r>
       <r>  -51.5255    1.0000 </r>
       <r>  -51.5087    1.0000 </r>
       <r>  -51.5010    1.0000 </r>
       <r>  -51.4893    1.0000 </r>
       <r>  -51.4869    1.0000 </r>
       <r>  -51.4745    1.0000 </r>
       <r>  -51.4623    1.0000 </r>
       <r>  -51.4596    1.0000 </r>
       <r>  -51.4506    1.0000 </r>
       <r>  -51.4316    1.0000 </r>
       <r>  -51.4301    1.0000 </r>
       <r>  -51.4024    1.0000 </r>
       <r>  -51.3863    1.0000 </r>
       <r>  -51.3637    1.0000 </r>
       <r>  -51.3562    1.0000 </r>
       <r>  -51.3295    1.0000 </r>
       <r>  -51.2868    1.0000 </r>
       <r>  -51.2395    1.0000 </r>
       <r>  -51.1809    1.0000 </r>
       <r>  -51.1652    1.0000 </r>
       <r>  -51.1574    1.0000 </r>
       <r>  -51.1059    1.0000 </r>
       <r>  -51.0280    1.0000 </r>
       <r>  -30.4499    1.0000 </r>
       <r>  -30.4369    1.0000 </r>
       <r>  -30.4270    1.0000 </r>
       <r>  -30.4181    1.0000 </r>
       <r>  -30.3961    1.0000 </r>
       <r>  -30.3908    1.0000 </r>
       <r>  -30.3851    1.0000 </r>
       <r>  -30.3818    1.0000 </r>
       <r>  -30.3770    1.0000 </r>
       <r>  -30.3740    1.0000 </r>
       <r>  -30.3672    1.0000 </r>
       <r>  -30.3598    1.0000 </r>
       <r>  -30.3526    1.0000 </r>
       <r>  -30.3353    1.0000 </r>
       <r>  -30.3277    1.0000 </r>
       <r>  -30.3228    1.0000 </r>
       <r>  -30.3104    1.0000 </r>
       <r>  -30.3013    1.0000 </r>
       <r>  -30.2984    1.0000 </r>
       <r>  -30.2893    1.0000 </r>
       <r>  -30.2788    1.0000 </r>
       <r>  -30.2741    1.0000 </r>
       <r>  -30.2608    1.0000 </r>
       <r>  -30.2521    1.0000 </r>
       <r>  -30.2447    1.0000 </r>
       <r>  -30.2408    1.0000 </r>
       <r>  -30.2365    1.0000 </r>
       <r>  -30.2227    1.0000 </r>
       <r>  -30.2178    1.0000 </r>
       <r>  -30.2131    1.0000 </r>
       <r>  -30.2067    1.0000 </r>
       <r>  -30.2013    1.0000 </r>
       <r>  -30.1935    1.0000 </r>
       <r>  -30.1852    1.0000 </r>
       <r>  -30.1823    1.0000 </r>
       <r>  -30.1782    1.0000 </r>
       <r>  -30.1667    1.0000 </r>
       <r>  -30.1659    1.0000 </r>
       <r>  -30.1540    1.0000 </r>
       <r>  -30.1516    1.0000 </r>
       <r>  -30.1490    1.0000 </r>
       <r>  -30.1409    1.0000 </r>
       <r>  -30.1398    1.0000 </r>
       <r>  -30.1367    1.0000 </r>
       <r>  -30.1316    1.0000 </r>
       <r>  -30.1265    1.0000 </r>
       <r>  -30.1185    1.0000 </r>
       <r>  -30.1145    1.0000 </r>
       <r>  -30.1116    1.0000 </r>
       <r>  -30.1055    1.0000 </r>
       <r>  -30.1011    1.0000 </r>
       <r>  -30.0953    1.0000 </r>
       <r>  -30.0939    1.0000 </r>
       <r>  -30.0744    1.0000 </r>
       <r>  -30.0692    1.0000 </r>
       <r>  -30.0652    1.0000 </r>
       <r>  -30.0564    1.0000 </r>
       <r>  -30.0516    1.0000 </r>
       <r>  -30.0435    1.0000 </r>
       <r>  -30.0384    1.0000 </r>
       <r>  -30.0343    1.0000 </r>
       <r>  -30.0324    1.0000 </r>
       <r>  -30.0261    1.0000 </r>
       <r>  -30.0235    1.0000 </r>
       <r>  -30.0191    1.0000 </r>
       <r>  -30.0091    1.0000 </r>
       <r>  -30.0080    1.0000 </r>
       <r>  -30.0014    1.0000 </r>
       <r>  -29.9994    1.0000 </r>
       <r>  -29.9912    1.0000 </r>
       <r>  -29.9878    1.0000 </r>
       <r>  -29.9814    1.0000 </r>
       <r>  -29.9706    1.0000 </r>
       <r>  -29.9621    1.0000 </r>
       <r>  -29.9443    1.0000 </r>
       <r>  -29.9396    1.0000 </r>
       <r>  -29.9344    1.0000 </r>
       <r>  -29.9230    1.0000 </r>
       <r>  -29.9110    1.0000 </r>
       <r>  -29.8822    1.0000 </r>
       <r>  -29.8773    1.0000 </r>
       <r>  -29.8527    1.0000 </r>
       <r>  -29.8519    1.0000 </r>
       <r>  -29.8381    1.0000 </r>
       <r>  -29.8324    1.0000 </r>
       <r>  -29.8195    1.0000 </r>
       <r>  -29.8108    1.0000 </r>
       <r>  -29.7980    1.0000 </r>
       <r>  -29.7963    1.0000 </r>
       <r>  -29.7896    1.0000 </r>
       <r>  -29.7872    1.0000 </r>
       <r>  -29.7625    1.0000 </r>
       <r>  -29.7392    1.0000 </r>
       <r>  -29.7029    1.0000 </r>
       <r>  -29.7002    1.0000 </r>
       <r>  -29.6523    1.0000 </r>
       <r>  -18.7875    1.0000 </r>
       <r>  -18.6129    1.0000 </r>
       <r>  -18.5026    1.0000 </r>
       <r>  -18.3782    1.0000 </r>
       <r>  -18.3706    1.0000 </r>
       <r>  -18.2962    1.0000 </r>
       <r>  -18.2908    1.0000 </r>
       <r>  -18.2414    1.0000 </r>
       <r>  -18.2380    1.0000 </r>
       <r>  -18.1618    1.0000 </r>
       <r>  -18.1559    1.0000 </r>
       <r>  -18.1373    1.0000 </r>
       <r>  -18.0719    1.0000 </r>
       <r>  -18.0285    1.0000 </r>
       <r>  -18.0025    1.0000 </r>
       <r>  -17.9973    1.0000 </r>
       <r>  -17.9627    1.0000 </r>
       <r>  -17.9318    1.0000 </r>
       <r>  -17.9078    1.0000 </r>
       <r>  -17.8782    1.0000 </r>
       <r>  -17.8462    1.0000 </r>
       <r>  -17.8356    1.0000 </r>
       <r>  -17.8296    1.0000 </r>
       <r>  -17.7977    1.0000 </r>
       <r>  -17.7968    1.0000 </r>
       <r>  -17.7582    1.0000 </r>
       <r>  -17.6769    1.0000 </r>
       <r>  -17.6637    1.0000 </r>
       <r>  -17.6154    1.0000 </r>
       <r>  -17.5086    1.0000 </r>
       <r>  -17.4946    1.0000 </r>
       <r>  -17.4407    1.0000 </r>
       <r>  -11.8462    1.0000 </r>
       <r>  -11.5664    1.0000 </r>
       <r>  -11.4976    1.0000 </r>
       <r>  -11.4431    1.0000 </r>
       <r>  -11.3483    1.0000 </r>
       <r>  -11.3268    1.0000 </r>
       <r>  -11.2675    1.0000 </r>
       <r>  -11.0734    1.0000 </r>
       <r>  -10.9818    1.0000 </r>
       <r>  -10.9277    1.0000 </r>
       <r>  -10.8967    1.0000 </r>
       <r>  -10.8800    1.0000 </r>
       <r>  -10.8320    1.0000 </r>
       <r>  -10.7670    1.0000 </r>
       <r>  -10.7426    1.0000 </r>
       <r>  -10.6693    1.0000 </r>
       <r>   -8.1040    1.0000 </r>
       <r>   -8.0281    1.0000 </r>
       <r>   -7.9516    1.0000 </r>
       <r>   -7.8493    1.0000 </r>
       <r>   -7.8126    1.0000 </r>
       <r>   -7.7632    1.0000 </r>
       <r>   -7.6177    1.0000 </r>
       <r>   -7.5699    1.0000 </r>
       <r>   -7.5559    1.0000 </r>
       <r>   -7.5249    1.0000 </r>
       <r>   -7.4879    1.0000 </r>
       <r>   -7.4784    1.0000 </r>
       <r>   -7.4479    1.0000 </r>
       <r>   -7.4005    1.0000 </r>
       <r>   -7.3844    1.0000 </r>
       <r>   -7.3768    1.0000 </r>
       <r>   -7.3594    1.0000 </r>
       <r>   -7.3341    1.0000 </r>
       <r>   -7.2685    1.0000 </r>
       <r>   -7.2137    1.0000 </r>
       <r>   -7.2071    1.0000 </r>
       <r>   -7.1035    1.0000 </r>
       <r>   -7.0422    1.0000 </r>
       <r>   -7.0299    1.0000 </r>
       <r>   -6.9821    1.0000 </r>
       <r>   -6.9624    1.0000 </r>
       <r>   -6.9592    1.0000 </r>
       <r>   -6.9269    1.0000 </r>
       <r>   -6.9143    1.0000 </r>
       <r>   -6.8718    1.0000 </r>
       <r>   -6.8507    1.0000 </r>
       <r>   -6.8389    1.0000 </r>
       <r>   -6.8292    1.0000 </r>
       <r>   -6.8043    1.0000 </r>
       <r>   -6.7826    1.0000 </r>
       <r>   -6.7721    1.0000 </r>
       <r>   -6.7454    1.0000 </r>
       <r>   -6.7194    1.0000 </r>
       <r>   -6.6916    1.0000 </r>
       <r>   -6.6852    1.0000 </r>
       <r>   -6.6716    1.0000 </r>
       <r>   -6.6510    1.0000 </r>
       <r>   -6.6338    1.0000 </r>
       <r>   -6.6262    1.0000 </r>
       <r>   -6.6134    1.0000 </r>
       <r>   -6.6054    1.0000 </r>
       <r>   -6.5762    1.0000 </r>
       <r>   -6.5670    1.0000 </r>
       <r>   -6.5525    1.0000 </r>
       <r>   -6.5477    1.0000 </r>
       <r>   -6.5267    1.0000 </r>
       <r>   -6.5186    1.0000 </r>
       <r>   -6.5005    1.0000 </r>
       <r>   -6.4851    1.0000 </r>
       <r>   -6.4822    1.0000 </r>
       <r>   -6.4607    1.0000 </r>
       <r>   -6.4480    1.0000 </r>
       <r>   -6.4311    1.0000 </r>
       <r>   -6.4074    1.0000 </r>
       <r>   -6.4031    1.0000 </r>
       <r>   -6.3874    1.0000 </r>
       <r>   -6.3672    1.0000 </r>
       <r>   -6.3443    1.0000 </r>
       <r>   -6.3319    1.0000 </r>
       <r>   -6.3064    1.0000 </r>
       <r>   -6.2792    1.0000 </r>
       <r>   -6.2664    1.0000 </r>
       <r>   -6.2390    1.0000 </r>
       <r>   -6.2048    1.0000 </r>
       <r>   -6.1817    1.0000 </r>
       <r>   -6.1380    1.0000 </r>
       <r>   -6.1198    1.0000 </r>
       <r>   -6.0945    1.0000 </r>
       <r>   -6.0219    1.0000 </r>
       <r>   -6.0017    1.0000 </r>
       <r>   -5.8904    1.0000 </r>
       <r>   -5.8049    1.0000 </r>
       <r>   -5.7831    1.0000 </r>
       <r>   -5.7738    1.0000 </r>
       <r>   -5.6798    1.0000 </r>
       <r>   -5.6136    1.0000 </r>
       <r>   -5.5977    1.0000 </r>
       <r>   -5.5803    1.0000 </r>
       <r>   -5.5507    1.0000 </r>
       <r>   -5.4868    1.0000 </r>
       <r>   -5.4769    1.0000 </r>
       <r>   -5.4378    1.0000 </r>
       <r>   -5.4213    1.0000 </r>
       <r>   -5.4091    1.0000 </r>
       <r>   -5.3483    1.0000 </r>
       <r>   -5.2907    1.0000 </r>
       <r>   -5.2454    1.0000 </r>
       <r>   -5.2245    1.0000 </r>
       <r>   -5.1289    1.0000 </r>
       <r>   -5.0566    1.0000 </r>
       <r>   -4.9429    1.0000 </r>
       <r>   -4.9303    1.0000 </r>
       <r>   -4.9080    1.0000 </r>
       <r>   -4.8634    1.0000 </r>
       <r>   -4.6810    1.0000 </r>
       <r>   -4.6605    1.0000 </r>
       <r>   -4.6264    1.0000 </r>
       <r>   -4.5623    1.0000 </r>
       <r>   -4.5481    1.0000 </r>
       <r>   -4.4961    1.0000 </r>
       <r>   -4.2757    1.0000 </r>
       <r>   -4.2239    1.0000 </r>
       <r>   -4.1895    1.0000 </r>
       <r>   -4.1560    1.0000 </r>
       <r>   -4.1478    1.0000 </r>
       <r>   -4.1284    1.0000 </r>
       <r>   -4.1177    1.0000 </r>
       <r>   -4.1080    1.0000 </r>
       <r>   -4.0625    1.0000 </r>
       <r>   -4.0481    1.0000 </r>
       <r>   -4.0251    1.0000 </r>
       <r>   -3.9990    1.0000 </r>
       <r>   -3.9789    1.0000 </r>
       <r>   -3.9603    1.0000 </r>
       <r>   -3.9086    1.0000 </r>
       <r>   -3.8835    1.0000 </r>
       <r>   -3.8699    1.0000 </r>
       <r>   -3.7870    1.0000 </r>
       <r>   -3.7447    1.0000 </r>
       <r>   -3.7273    1.0000 </r>
       <r>   -3.6592    1.0000 </r>
       <r>   -3.6376    1.0000 </r>
       <r>   -3.5930    1.0000 </r>
       <r>   -3.5718    1.0000 </r>
       <r>   -3.5540    1.0000 </r>
       <r>   -3.4774    1.0000 </r>
       <r>   -3.4074    1.0000 </r>
       <r>   -3.3892    1.0000 </r>
       <r>   -3.3621    1.0000 </r>
       <r>   -3.3517    1.0000 </r>
       <r>   -3.3189    1.0000 </r>
       <r>   -3.2676    1.0000 </r>
       <r>   -3.2363    1.0000 </r>
       <r>   -3.2001    1.0000 </r>
       <r>   -3.1670    1.0000 </r>
       <r>   -3.1039    1.0000 </r>
       <r>   -3.0297    1.0000 </r>
       <r>   -2.9989    1.0000 </r>
       <r>   -2.8756    1.0000 </r>
       <r>   -2.1392    0.0000 </r>
       <r>   -2.1202    0.0000 </r>
       <r>   -2.0915    0.0000 </r>
       <r>   -1.5939    0.0000 </r>
       <r>   -1.5074    0.0000 </r>
       <r>   -1.4841    0.0000 </r>
       <r>   -1.4544    0.0000 </r>
       <r>   -1.4378    0.0000 </r>
       <r>   -1.3415    0.0000 </r>
       <r>   -0.7911    0.0000 </r>
       <r>   -0.7292    0.0000 </r>
       <r>   -0.7071    0.0000 </r>
       <r>   -0.6695    0.0000 </r>
       <r>   -0.6290    0.0000 </r>
       <r>   -0.6062    0.0000 </r>
       <r>   -0.5618    0.0000 </r>
       <r>   -0.5353    0.0000 </r>
       <r>   -0.4822    0.0000 </r>
       <r>   -0.4673    0.0000 </r>
       <r>   -0.4486    0.0000 </r>
       <r>   -0.4257    0.0000 </r>
       <r>   -0.3921    0.0000 </r>
       <r>   -0.3253    0.0000 </r>
       <r>   -0.2586    0.0000 </r>
       <r>   -0.0577    0.0000 </r>
       <r>    0.0388    0.0000 </r>
       <r>    0.0706    0.0000 </r>
       <r>    0.1073    0.0000 </r>
       <r>    0.1321    0.0000 </r>
       <r>    0.1467    0.0000 </r>
       <r>    0.1671    0.0000 </r>
       <r>    0.1892    0.0000 </r>
       <r>    0.2088    0.0000 </r>
       <r>    0.2367    0.0000 </r>
       <r>    0.2480    0.0000 </r>
       <r>    0.3603    0.0000 </r>
       <r>    0.4649    0.0000 </r>
       <r>    0.5288    0.0000 </r>
       <r>    0.5446    0.0000 </r>
       <r>    0.5618    0.0000 </r>
       <r>    0.5919    0.0000 </r>
       <r>    0.5943    0.0000 </r>
       <r>    0.6328    0.0000 </r>
       <r>    0.6658    0.0000 </r>
       <r>    0.6726    0.0000 </r>
       <r>    0.7027    0.0000 </r>
       <r>    0.7425    0.0000 </r>
       <r>    0.7528    0.0000 </r>
       <r>    0.7679    0.0000 </r>
       <r>    0.7824    0.0000 </r>
       <r>    0.7950    0.0000 </r>
       <r>    0.8186    0.0000 </r>
       <r>    0.8357    0.0000 </r>
       <r>    0.8438    0.0000 </r>
       <r>    0.8731    0.0000 </r>
       <r>    0.8780    0.0000 </r>
       <r>    0.8860    0.0000 </r>
       <r>    0.9021    0.0000 </r>
       <r>    0.9242    0.0000 </r>
       <r>    0.9410    0.0000 </r>
       <r>    0.9585    0.0000 </r>
       <r>    0.9690    0.0000 </r>
       <r>    1.0009    0.0000 </r>
       <r>    1.0247    0.0000 </r>
      </set>
      <set comment="kpoint 2">
       <r>  -51.7583    1.0000 </r>
       <r>  -51.7382    1.0000 </r>
       <r>  -51.7173    1.0000 </r>
       <r>  -51.6527    1.0000 </r>
       <r>  -51.6440    1.0000 </r>
       <r>  -51.6403    1.0000 </r>
       <r>  -51.5791    1.0000 </r>
       <r>  -51.5784    1.0000 </r>
       <r>  -51.5263    1.0000 </r>
       <r>  -51.5255    1.0000 </r>
       <r>  -51.5087    1.0000 </r>
       <r>  -51.5010    1.0000 </r>
       <r>  -51.4893    1.0000 </r>
       <r>  -51.4869    1.0000 </r>
       <r>  -51.4745    1.0000 </r>
       <r>  -51.4623    1.0000 </r>
       <r>  -51.4596    1.0000 </r>
       <r>  -51.4506    1.0000 </r>
       <r>  -51.4316    1.0000 </r>
       <r>  -51.4301    1.0000 </r>
       <r>  -51.4024    1.0000 </r>
       <r>  -51.3863    1.0000 </r>
       <r>  -51.3637    1.0000 </r>
       <r>  -51.3562    1.0000 </r>
       <r>  -51.3295    1.0000 </r>
       <r>  -51.2868    1.0000 </r>
       <r>  -51.2395    1.0000 </r>
       <r>  -51.1809    1.0000 </r>
       <r>  -51.1652    1.0000 </r>
       <r>  -51.1574    1.0000 </r>
       <r>  -51.1059    1.0000 </r>
       <r>  -51.0280    1.0000 </r>
       <r>  -30.4498    1.0000 </r>
       <r>  -30.4364    1.0000 </r>
       <r>  -30.4264    1.0000 </r>
       <r>  -30.4159    1.0000 </r>
       <r>  -30.3963    1.0000 </r>
       <r>  -30.3911    1.0000 </r>
       <r>  -30.3848    1.0000 </r>
       <r>  -30.3820    1.0000 </r>
       <r>  -30.3770    1.0000 </r>
       <r>  -30.3733    1.0000 </r>
       <r>  -30.3676    1.0000 </r>
       <r>  -30.3603    1.0000 </r>
       <r>  -30.3565    1.0000 </r>
       <r>  -30.3352    1.0000 </r>
       <r>  -30.3273    1.0000 </r>
       <r>  -30.3212    1.0000 </r>
       <r>  -30.3122    1.0000 </r>
       <r>  -30.2993    1.0000 </r>
       <r>  -30.2961    1.0000 </r>
       <r>  -30.2906    1.0000 </r>
       <r>  -30.2796    1.0000 </r>
       <r>  -30.2739    1.0000 </r>
       <r>  -30.2596    1.0000 </r>
       <r>  -30.2546    1.0000 </r>
       <r>  -30.2469    1.0000 </r>
       <r>  -30.2406    1.0000 </r>
       <r>  -30.2355    1.0000 </r>
       <r>  -30.2238    1.0000 </r>
       <r>  -30.2195    1.0000 </r>
       <r>  -30.2170    1.0000 </r>
       <r>  -30.2077    1.0000 </r>
       <r>  -30.2007    1.0000 </r>
       <r>  -30.1945    1.0000 </r>
       <r>  -30.1833    1.0000 </r>
       <r>  -30.1814    1.0000 </r>
       <r>  -30.1780    1.0000 </r>
       <r>  -30.1667    1.0000 </r>
       <r>  -30.1602    1.0000 </r>
       <r>  -30.1564    1.0000 </r>
       <r>  -30.1528    1.0000 </r>
       <r>  -30.1487    1.0000 </r>
       <r>  -30.1431    1.0000 </r>
       <r>  -30.1379    1.0000 </r>
       <r>  -30.1336    1.0000 </r>
       <r>  -30.1298    1.0000 </r>
       <r>  -30.1256    1.0000 </r>
       <r>  -30.1197    1.0000 </r>
       <r>  -30.1170    1.0000 </r>
       <r>  -30.1115    1.0000 </r>
       <r>  -30.1086    1.0000 </r>
       <r>  -30.1013    1.0000 </r>
       <r>  -30.0936    1.0000 </r>
       <r>  -30.0913    1.0000 </r>
       <r>  -30.0737    1.0000 </r>
       <r>  -30.0693    1.0000 </r>
       <r>  -30.0639    1.0000 </r>
       <r>  -30.0587    1.0000 </r>
       <r>  -30.0512    1.0000 </r>
       <r>  -30.0451    1.0000 </r>
       <r>  -30.0384    1.0000 </r>
       <r>  -30.0329    1.0000 </r>
       <r>  -30.0297    1.0000 </r>
       <r>  -30.0276    1.0000 </r>
       <r>  -30.0215    1.0000 </r>
       <r>  -30.0193    1.0000 </r>
       <r>  -30.0103    1.0000 </r>
       <r>  -30.0076    1.0000 </r>
       <r>  -30.0019    1.0000 </r>
       <r>  -29.9988    1.0000 </r>
       <r>  -29.9937    1.0000 </r>
       <r>  -29.9865    1.0000 </r>
       <r>  -29.9817    1.0000 </r>
       <r>  -29.9701    1.0000 </r>
       <r>  -29.9612    1.0000 </r>
       <r>  -29.9446    1.0000 </r>
       <r>  -29.9388    1.0000 </r>
       <r>  -29.9348    1.0000 </r>
       <r>  -29.9243    1.0000 </r>
       <r>  -29.9110    1.0000 </r>
       <r>  -29.8823    1.0000 </r>
       <r>  -29.8766    1.0000 </r>
       <r>  -29.8528    1.0000 </r>
       <r>  -29.8526    1.0000 </r>
       <r>  -29.8386    1.0000 </r>
       <r>  -29.8314    1.0000 </r>
       <r>  -29.8201    1.0000 </r>
       <r>  -29.8091    1.0000 </r>
       <r>  -29.7980    1.0000 </r>
       <r>  -29.7953    1.0000 </r>
       <r>  -29.7912    1.0000 </r>
       <r>  -29.7876    1.0000 </r>
       <r>  -29.7629    1.0000 </r>
       <r>  -29.7396    1.0000 </r>
       <r>  -29.7029    1.0000 </r>
       <r>  -29.7003    1.0000 </r>
       <r>  -29.6524    1.0000 </r>
       <r>  -18.7858    1.0000 </r>
       <r>  -18.6132    1.0000 </r>
       <r>  -18.4835    1.0000 </r>
       <r>  -18.4033    1.0000 </r>
       <r>  -18.3794    1.0000 </r>
       <r>  -18.3011    1.0000 </r>
       <r>  -18.2932    1.0000 </r>
       <r>  -18.2673    1.0000 </r>
       <r>  -18.2367    1.0000 </r>
       <r>  -18.1436    1.0000 </r>
       <r>  -18.1392    1.0000 </r>
       <r>  -18.1046    1.0000 </r>
       <r>  -18.0688    1.0000 </r>
       <r>  -18.0354    1.0000 </r>
       <r>  -18.0079    1.0000 </r>
       <r>  -17.9850    1.0000 </r>
       <r>  -17.9669    1.0000 </r>
       <r>  -17.9348    1.0000 </r>
       <r>  -17.9019    1.0000 </r>
       <r>  -17.9016    1.0000 </r>
       <r>  -17.8503    1.0000 </r>
       <r>  -17.8264    1.0000 </r>
       <r>  -17.8238    1.0000 </r>
       <r>  -17.8039    1.0000 </r>
       <r>  -17.8010    1.0000 </r>
       <r>  -17.7605    1.0000 </r>
       <r>  -17.6769    1.0000 </r>
       <r>  -17.6728    1.0000 </r>
       <r>  -17.6082    1.0000 </r>
[...]
       <r>   -32.3331     0.0000    64.0000 </r>
       <r>   -32.1396     0.0000    64.0000 </r>
       <r>   -31.9460     0.0000    64.0000 </r>
       <r>   -31.7525     0.0000    64.0000 </r>
       <r>   -31.5589     0.0000    64.0000 </r>
       <r>   -31.3654     0.0000    64.0000 </r>
       <r>   -31.1718     0.0000    64.0000 </r>
       <r>   -30.9783     0.0000    64.0000 </r>
       <r>   -30.7847     0.0000    64.0000 </r>
       <r>   -30.5912     0.0004    64.0001 </r>
       <r>   -30.3976    61.5848    75.9197 </r>
       <r>   -30.2041   260.6703   126.3718 </r>
       <r>   -30.0105   353.2986   194.7519 </r>
       <r>   -29.8170   213.2676   236.0293 </r>
       <r>   -29.6235   100.7607   255.5313 </r>
       <r>   -29.4299     2.4215   256.0000 </r>
       <r>   -29.2364     0.0000   256.0000 </r>
       <r>   -29.0428     0.0000   256.0000 </r>
       <r>   -28.8493     0.0000   256.0000 </r>
       <r>   -28.6557     0.0000   256.0000 </r>
       <r>   -28.4622     0.0000   256.0000 </r>
       <r>   -28.2686     0.0000   256.0000 </r>
       <r>   -28.0751     0.0000   256.0000 </r>
       <r>   -27.8815     0.0000   256.0000 </r>
       <r>   -27.6880     0.0000   256.0000 </r>
       <r>   -27.4944     0.0000   256.0000 </r>
       <r>   -27.3009     0.0000   256.0000 </r>
       <r>   -27.1073     0.0000   256.0000 </r>
       <r>   -26.9138     0.0000   256.0000 </r>
       <r>   -26.7202     0.0000   256.0000 </r>
       <r>   -26.5267     0.0000   256.0000 </r>
       <r>   -26.3331     0.0000   256.0000 </r>
       <r>   -26.1396     0.0000   256.0000 </r>
       <r>   -25.9460     0.0000   256.0000 </r>
       <r>   -25.7525     0.0000   256.0000 </r>
       <r>   -25.5590     0.0000   256.0000 </r>
       <r>   -25.3654     0.0000   256.0000 </r>
       <r>   -25.1719     0.0000   256.0000 </r>
       <r>   -24.9783     0.0000   256.0000 </r>
       <r>   -24.7848     0.0000   256.0000 </r>
       <r>   -24.5912     0.0000   256.0000 </r>
       <r>   -24.3977     0.0000   256.0000 </r>
       <r>   -24.2041     0.0000   256.0000 </r>
       <r>   -24.0106     0.0000   256.0000 </r>
       <r>   -23.8170     0.0000   256.0000 </r>
       <r>   -23.6235     0.0000   256.0000 </r>
       <r>   -23.4299     0.0000   256.0000 </r>
       <r>   -23.2364     0.0000   256.0000 </r>
       <r>   -23.0428     0.0000   256.0000 </r>
       <r>   -22.8493     0.0000   256.0000 </r>
       <r>   -22.6557     0.0000   256.0000 </r>
       <r>   -22.4622     0.0000   256.0000 </r>
       <r>   -22.2686     0.0000   256.0000 </r>
       <r>   -22.0751     0.0000   256.0000 </r>
       <r>   -21.8815     0.0000   256.0000 </r>
       <r>   -21.6880     0.0000   256.0000 </r>
       <r>   -21.4945     0.0000   256.0000 </r>
       <r>   -21.3009     0.0000   256.0000 </r>
       <r>   -21.1074     0.0000   256.0000 </r>
       <r>   -20.9138     0.0000   256.0000 </r>
       <r>   -20.7203     0.0000   256.0000 </r>
       <r>   -20.5267     0.0000   256.0000 </r>
       <r>   -20.3332     0.0000   256.0000 </r>
       <r>   -20.1396     0.0000   256.0000 </r>
       <r>   -19.9461     0.0000   256.0000 </r>
       <r>   -19.7525     0.0000   256.0000 </r>
       <r>   -19.5590     0.0000   256.0000 </r>
       <r>   -19.3654     0.0000   256.0000 </r>
       <r>   -19.1719     0.0000   256.0000 </r>
       <r>   -18.9783     0.0000   256.0000 </r>
       <r>   -18.7848     5.1987   257.0062 </r>
       <r>   -18.5912    12.9727   259.5170 </r>
       <r>   -18.3977    20.6850   263.5206 </r>
       <r>   -18.2041    53.0132   273.7812 </r>
       <r>   -18.0106    56.8763   284.7894 </r>
       <r>   -17.8170    86.5807   301.5469 </r>
       <r>   -17.6235    55.9110   312.3684 </r>
       <r>   -17.4300    35.1566   319.1728 </r>
       <r>   -17.2364     4.2737   320.0000 </r>
       <r>   -17.0429     0.0000   320.0000 </r>
       <r>   -16.8493     0.0000   320.0000 </r>
       <r>   -16.6558     0.0000   320.0000 </r>
       <r>   -16.4622     0.0000   320.0000 </r>
       <r>   -16.2687     0.0000   320.0000 </r>
       <r>   -16.0751     0.0000   320.0000 </r>
       <r>   -15.8816     0.0000   320.0000 </r>
       <r>   -15.6880     0.0000   320.0000 </r>
       <r>   -15.4945     0.0000   320.0000 </r>
       <r>   -15.3009     0.0000   320.0000 </r>
       <r>   -15.1074     0.0000   320.0000 </r>
       <r>   -14.9138     0.0000   320.0000 </r>
       <r>   -14.7203     0.0000   320.0000 </r>
       <r>   -14.5267     0.0000   320.0000 </r>
       <r>   -14.3332     0.0000   320.0000 </r>
       <r>   -14.1396     0.0000   320.0000 </r>
       <r>   -13.9461     0.0000   320.0000 </r>
       <r>   -13.7525     0.0000   320.0000 </r>
       <r>   -13.5590     0.0000   320.0000 </r>
       <r>   -13.3655     0.0000   320.0000 </r>
       <r>   -13.1719     0.0000   320.0000 </r>
       <r>   -12.9784     0.0000   320.0000 </r>
       <r>   -12.7848     0.0000   320.0000 </r>
       <r>   -12.5913     0.0000   320.0000 </r>
       <r>   -12.3977     0.0000   320.0000 </r>
       <r>   -12.2042     0.0000   320.0000 </r>
       <r>   -12.0106     0.0000   320.0000 </r>
       <r>   -11.8171     3.5915   320.6951 </r>
       <r>   -11.6235    15.0928   323.6163 </r>
       <r>   -11.4300    17.4337   326.9906 </r>
       <r>   -11.2364    24.9872   331.8268 </r>
       <r>   -11.0429    23.4733   336.3700 </r>
       <r>   -10.8493    41.9778   344.4947 </r>
       <r>   -10.6558    32.2877   350.7439 </r>
       <r>   -10.4622     6.4900   352.0000 </r>
       <r>   -10.2687     0.0000   352.0000 </r>
       <r>   -10.0751     0.0000   352.0000 </r>
       <r>    -9.8816     0.0000   352.0000 </r>
       <r>    -9.6880     0.0000   352.0000 </r>
       <r>    -9.4945     0.0000   352.0000 </r>
       <r>    -9.3010     0.0000   352.0000 </r>
       <r>    -9.1074     0.0000   352.0000 </r>
       <r>    -8.9139     0.0000   352.0000 </r>
       <r>    -8.7203     0.0000   352.0000 </r>
       <r>    -8.5268     0.0000   352.0000 </r>
       <r>    -8.3332     0.0000   352.0000 </r>
       <r>    -8.1397     0.2046   352.0396 </r>
       <r>    -7.9461    14.9542   354.9340 </r>
       <r>    -7.7526    30.1329   360.7661 </r>
       <r>    -7.5590    52.1138   370.8526 </r>
       <r>    -7.3655    67.5683   383.9303 </r>
       <r>    -7.1719    59.3701   395.4212 </r>
       <r>    -6.9784    61.8854   407.3990 </r>
       <r>    -6.7848    85.1086   423.8716 </r>
       <r>    -6.5913   110.0407   445.1697 </r>
       <r>    -6.3977   107.3757   465.9520 </r>
       <r>    -6.2042    81.1271   481.6540 </r>
       <r>    -6.0106    64.3292   494.1048 </r>
       <r>    -5.8171    60.3157   505.7787 </r>
       <r>    -5.6235    57.3928   516.8870 </r>
       <r>    -5.4300    61.7974   528.8477 </r>
       <r>    -5.2365    40.6940   536.7239 </r>
       <r>    -5.0429    27.7943   542.1034 </r>
       <r>    -4.8494    26.6136   547.2544 </r>
       <r>    -4.6558    33.9667   553.8286 </r>
       <r>    -4.4623    38.0046   561.1843 </r>
       <r>    -4.2687    29.8066   566.9533 </r>
       <r>    -4.0752    50.8932   576.8036 </r>
       <r>    -3.8816    56.2909   587.6986 </r>
       <r>    -3.6881    67.9643   600.8529 </r>
       <r>    -3.4945    69.2128   614.2489 </r>
       <r>    -3.3010    67.0916   627.2343 </r>
       <r>    -3.1074    43.0877   635.5738 </r>
       <r>    -2.9139    20.0310   639.4508 </r>
       <r>    -2.7203     2.8378   640.0000 </r>
       <r>    -2.5268     0.0000   640.0000 </r>
       <r>    -2.3332     0.0000   640.0000 </r>
       <r>    -2.1397     1.0592   640.2050 </r>
       <r>    -1.9461     9.4498   642.0340 </r>
       <r>    -1.7526    23.2919   646.5421 </r>
       <r>    -1.5590    12.4872   648.9590 </r>
       <r>    -1.3655    19.1991   652.6749 </r>
       <r>    -1.1720    22.2478   656.9809 </r>
       <r>    -0.9784    32.6110   663.2927 </r>
       <r>    -0.7849    15.2118   666.2369 </r>
       <r>    -0.5913    25.4726   671.1671 </r>
       <r>    -0.3978    40.2698   678.9612 </r>
       <r>    -0.2042    30.1763   684.8018 </r>
       <r>    -0.0107    31.1232   690.8256 </r>
       <r>     0.1829    36.2923   697.8499 </r>
       <r>     0.3764    37.1870   705.0473 </r>
       <r>     0.5700    66.9859   718.0123 </r>
       <r>     0.7635    99.1613   737.2047 </r>
       <r>     0.9571   120.6271   760.5518 </r>
       <r>     1.1506    38.4809   767.9997 </r>
       <r>     1.3442     0.0016   768.0000 </r>
       <r>     1.5377     0.0000   768.0000 </r>
       <r>     1.7313     0.0000   768.0000 </r>
       <r>     1.9248     0.0000   768.0000 </r>
       <r>     2.1184     0.0000   768.0000 </r>
       <r>     2.3119     0.0000   768.0000 </r>
       <r>     2.5055     0.0000   768.0000 </r>
       <r>     2.6990     0.0000   768.0000 </r>
       <r>     2.8925     0.0000   768.0000 </r>
       <r>     3.0861     0.0000   768.0000 </r>
       <r>     3.2796     0.0000   768.0000 </r>
       <r>     3.4732     0.0000   768.0000 </r>
       <r>     3.6667     0.0000   768.0000 </r>
      </set>
     </set>
    </array>
   </total>
  </dos>
 </calculation>
 <structure name="finalpos" >
  <crystal>
   <varray name="basis" >
    <v>      13.79398668       0.00000000       0.00000000 </v>
    <v>      -6.89699334      11.94594288       0.00000000 </v>
    <v>       0.00000000       0.00000000      27.81022107 </v>
   </varray>
   <i name="volume">   4582.62876984 </i>
   <varray name="rec_basis" >
    <v>       0.07249536       0.04185521       0.00000000 </v>
    <v>       0.00000000       0.08371043       0.00000000 </v>
    <v>       0.00000000       0.00000000       0.03595800 </v>
   </varray>
  </crystal>
  <varray name="positions" >
   <v>       0.08513519       0.18123665       0.54638021 </v>
   <v>       0.08307342       0.43253925       0.54384049 </v>
   <v>       0.08747691       0.66580399       0.54255855 </v>
   <v>       0.07194630       0.90275399       0.54446179 </v>
   <v>       0.32712564       0.15865194       0.54243023 </v>
   <v>       0.34005433       0.42565630       0.54925181 </v>
   <v>       0.34246138       0.66963642       0.54724755 </v>
   <v>       0.33117727       0.90947041       0.54184411 </v>
   <v>       0.58426885       0.17181075       0.54376372 </v>
   <v>       0.58913078       0.41595120       0.54613394 </v>
   <v>       0.59393755       0.67346132       0.54553510 </v>
   <v>       0.59317943       0.92316863       0.54487111 </v>
   <v>       0.82533012       0.16071375       0.54394916 </v>
   <v>       0.83673634       0.43027904       0.54099620 </v>
   <v>       0.83294007       0.65999173       0.54682798 </v>
   <v>       0.82969671       0.92721666       0.54399175 </v>
   <v>       0.15051027       0.07666063       0.46043543 </v>
   <v>       0.16699189       0.33524362       0.46097505 </v>
   <v>       0.17069355       0.58659041       0.45383092 </v>
   <v>       0.16619351       0.82215515       0.45019883 </v>
   <v>       0.42211457       0.08431955       0.44990844 </v>
   <v>       0.41281208       0.32980238       0.45707426 </v>
   <v>       0.42563705       0.59030135       0.45650048 </v>
   <v>       0.41815374       0.82578993       0.45973848 </v>
   <v>       0.66694427       0.08037607       0.45591136 </v>
   <v>       0.66498734       0.34029761       0.45803280 </v>
   <v>       0.65487290       0.57244091       0.45526378 </v>
   <v>       0.66603648       0.83169852       0.45355240 </v>
   <v>       0.90986917       0.09119139       0.45425042 </v>
   <v>       0.91412936       0.33608672       0.45525771 </v>
   <v>       0.92774328       0.58209255       0.45379422 </v>
   <v>       0.90837269       0.82910817       0.44999535 </v>
   <v>       0.08656950       0.17313984       0.40099015 </v>
   <v>       0.07718013       0.40774954       0.39706571 </v>
   <v>       0.09323616       0.65406445       0.38426637 </v>
   <v>       0.07123393       0.90582085       0.39404155 </v>
   <v>       0.34144242       0.16324167       0.38989183 </v>
   <v>       0.33247089       0.41832153       0.40195043 </v>
   <v>       0.34275467       0.66484809       0.39343797 </v>
   <v>       0.34907025       0.91761281       0.38910913 </v>
   <v>       0.59533176       0.17164643       0.39391647 </v>
   <v>       0.57211225       0.41656143       0.40001548 </v>
   <v>       0.59890236       0.67962454       0.39784477 </v>
   <v>       0.59686950       0.92483291       0.39865335 </v>
   <v>       0.82469192       0.17733713       0.39193125 </v>
   <v>       0.83477513       0.42051524       0.39657536 </v>
   <v>       0.82578254       0.65571378       0.39369184 </v>
   <v>       0.83940750       0.93228268       0.38877638 </v>
   <v>       0.15618806       0.07689060       0.60061798 </v>
   <v>       0.17580117       0.34417451       0.60822820 </v>
   <v>       0.15910654       0.57909757       0.60898248 </v>
   <v>       0.17942001       0.84576040       0.60106065 </v>
   <v>       0.39886203       0.06999159       0.60268951 </v>
   <v>       0.42112475       0.31561170       0.60796704 </v>
   <v>       0.43005172       0.58755722       0.60815010 </v>
   <v>       0.43451457       0.85631846       0.60754896 </v>
   <v>       0.66312733       0.07781998       0.60538230 </v>
   <v>       0.65770070       0.32073665       0.60611393 </v>
   <v>       0.66692753       0.57549841       0.60346983 </v>
   <v>       0.66377796       0.83404958       0.60889380 </v>
   <v>       0.90167474       0.07831301       0.60652643 </v>
   <v>       0.89399982       0.32520790       0.60310005 </v>
   <v>       0.90243841       0.56621801       0.60431005 </v>
   <v>       0.92614287       0.83578585       0.60534395 </v>
   <v>       0.98011743       0.99226769       0.49758112 </v>
   <v>       0.99473047       0.26007463       0.50176357 </v>
   <v>       0.99764273       0.49452678       0.49941906 </v>
   <v>       0.00059969       0.74453199       0.49464753 </v>
   <v>       0.24212700       0.99037400       0.49815897 </v>
   <v>       0.24977571       0.25208781       0.50221110 </v>
   <v>       0.25450842       0.50133458       0.50060864 </v>
   <v>       0.23992328       0.73874951       0.50156760 </v>
   <v>       0.50201765       0.99353592       0.49407247 </v>
   <v>       0.50098810       0.25031467       0.50031723 </v>
   <v>       0.50009032       0.50668104       0.50623715 </v>
   <v>       0.49490596       0.74264698       0.50302260 </v>
   <v>       0.74506390       0.00116422       0.49737303 </v>
   <v>       0.75551092       0.26304486       0.50389356 </v>
   <v>       0.74945289       0.50929600       0.50094638 </v>
   <v>       0.75609490       0.75679012       0.50105436 </v>
  </varray>
  <varray name="velocities" >
   <v>       0.00000000       0.00000000       0.00000000 </v>
   <v>       0.00000000       0.00000000       0.00000000 </v>
   <v>       0.00000000       0.00000000       0.00000000 </v>
   <v>       0.00000000       0.00000000       0.00000000 </v>
   <v>       0.00000000       0.00000000       0.00000000 </v>
   <v>       0.00000000       0.00000000       0.00000000 </v>
   <v>       0.00000000       0.00000000       0.00000000 </v>
   <v>       0.00000000       0.00000000       0.00000000 </v>
   <v>       0.00000000       0.00000000       0.00000000 </v>
   <v>       0.00000000       0.00000000       0.00000000 </v>
   <v>       0.00000000       0.00000000       0.00000000 </v>
   <v>       0.00000000       0.00000000       0.00000000 </v>
   <v>       0.00000000       0.00000000       0.00000000 </v>
   <v>       0.00000000       0.00000000       0.00000000 </v>
   <v>       0.00000000       0.00000000       0.00000000 </v>
   <v>       0.00000000       0.00000000       0.00000000 </v>
   <v>       0.00000000       0.00000000       0.00000000 </v>
   <v>       0.00000000       0.00000000       0.00000000 </v>
   <v>       0.00000000       0.00000000       0.00000000 </v>
   <v>       0.00000000       0.00000000       0.00000000 </v>
   <v>       0.00000000       0.00000000       0.00000000 </v>
   <v>       0.00000000       0.00000000       0.00000000 </v>
   <v>       0.00000000       0.00000000       0.00000000 </v>
   <v>       0.00000000       0.00000000       0.00000000 </v>
   <v>       0.00000000       0.00000000       0.00000000 </v>
   <v>       0.00000000       0.00000000       0.00000000 </v>
   <v>       0.00000000       0.00000000       0.00000000 </v>
   <v>       0.00000000       0.00000000       0.00000000 </v>
   <v>       0.00000000       0.00000000       0.00000000 </v>
   <v>       0.00000000       0.00000000       0.00000000 </v>
   <v>       0.00000000       0.00000000       0.00000000 </v>
   <v>       0.00000000       0.00000000       0.00000000 </v>
   <v>       0.00000000       0.00000000       0.00000000 </v>
   <v>       0.00000000       0.00000000       0.00000000 </v>
   <v>       0.00000000       0.00000000       0.00000000 </v>
   <v>       0.00000000       0.00000000       0.00000000 </v>
   <v>       0.00000000       0.00000000       0.00000000 </v>
   <v>       0.00000000       0.00000000       0.00000000 </v>
   <v>       0.00000000       0.00000000       0.00000000 </v>
   <v>       0.00000000       0.00000000       0.00000000 </v>
   <v>       0.00000000       0.00000000       0.00000000 </v>
   <v>       0.00000000       0.00000000       0.00000000 </v>
   <v>       0.00000000       0.00000000       0.00000000 </v>
   <v>       0.00000000       0.00000000       0.00000000 </v>
   <v>       0.00000000       0.00000000       0.00000000 </v>
   <v>       0.00000000       0.00000000       0.00000000 </v>
   <v>       0.00000000       0.00000000       0.00000000 </v>
   <v>       0.00000000       0.00000000       0.00000000 </v>
   <v>       0.00000000       0.00000000       0.00000000 </v>
   <v>       0.00000000       0.00000000       0.00000000 </v>
   <v>       0.00000000       0.00000000       0.00000000 </v>
   <v>       0.00000000       0.00000000       0.00000000 </v>
   <v>       0.00000000       0.00000000       0.00000000 </v>
   <v>       0.00000000       0.00000000       0.00000000 </v>
   <v>       0.00000000       0.00000000       0.00000000 </v>
   <v>       0.00000000       0.00000000       0.00000000 </v>
   <v>       0.00000000       0.00000000       0.00000000 </v>
   <v>       0.00000000       0.00000000       0.00000000 </v>
   <v>       0.00000000       0.00000000       0.00000000 </v>
   <v>       0.00000000       0.00000000       0.00000000 </v>
   <v>       0.00000000       0.00000000       0.00000000 </v>
   <v>       0.00000000       0.00000000       0.00000000 </v>
   <v>       0.00000000       0.00000000       0.00000000 </v>
   <v>       0.00000000       0.00000000       0.00000000 </v>
   <v>       0.00000000       0.00000000       0.00000000 </v>
   <v>       0.00000000       0.00000000       0.00000000 </v>
   <v>       0.00000000       0.00000000       0.00000000 </v>
   <v>       0.00000000       0.00000000       0.00000000 </v>
   <v>       0.00000000       0.00000000       0.00000000 </v>
   <v>       0.00000000       0.00000000       0.00000000 </v>
   <v>       0.00000000       0.00000000       0.00000000 </v>
   <v>       0.00000000       0.00000000       0.00000000 </v>
   <v>       0.00000000       0.00000000       0.00000000 </v>
   <v>       0.00000000       0.00000000       0.00000000 </v>
   <v>       0.00000000       0.00000000       0.00000000 </v>
   <v>       0.00000000       0.00000000       0.00000000 </v>
   <v>       0.00000000       0.00000000       0.00000000 </v>
   <v>       0.00000000       0.00000000       0.00000000 </v>
   <v>       0.00000000       0.00000000       0.00000000 </v>
   <v>       0.00000000       0.00000000       0.00000000 </v>
  </varray>
 </structure>
</modeling>
