<?xml version="1.0" encoding="ISO-8859-1"?>
<modeling>
 <generator>
  <i name="program" type="string">vasp </i>
  <i name="version" type="string">5.4.4.18Apr17-6-g9f103f2a35  </i>
  <i name="subversion" type="string">(build Oct 31 2019 15:01:46) complex            parallel </i>
  <i name="platform" type="string">LinuxIFC </i>
  <i name="date" type="string">2024 05 01 </i>
  <i name="time" type="string">07:22:31 </i>
 </generator>
 <incar>
  <i type="int" name="ISTART">     0</i>
  <i type="string" name="PREC">anormal</i>
  <i type="logical" name="ADDGRID"> T  </i>
  <i type="int" name="IBRION">    -1</i>
  <i name="EDIFF">      0.00000100</i>
  <i name="EDIFFG">     -0.01000000</i>
  <i type="int" name="NSW">     1</i>
  <i type="int" name="ISIF">     2</i>
  <i type="int" name="ISYM">     2</i>
  <i name="ENCUT">    600.00000000</i>
  <i name="POTIM">      1.00000000</i>
  <i type="string" name="LREAL"> Auto.</i>
  <i type="int" name="ISMEAR">     0</i>
  <i name="SIGMA">      0.05000000</i>
  <i name="KSPACING">      0.25000000</i>
  <i type="logical" name="LWAVE"> F  </i>
  <i type="logical" name="LCHARG"> F  </i>
  <i type="logical" name="LSCALAPACK"> F  </i>
  <v type="int" name="KPOINT_BSE">    -1     0     0     0</v>
 </incar>
 <structure name="primitive_cell" >
  <crystal>
   <varray name="basis" >
    <v>      13.79398668       0.00000000       0.00000000 </v>
    <v>      -6.89699334      11.94594288       0.00000000 </v>
    <v>       0.00000000       0.00000000      27.81022107 </v>
   </varray>
   <i name="volume">   4582.62876984 </i>
   <varray name="rec_basis" >
    <v>       0.07249536       0.04185521       0.00000000 </v>
    <v>       0.00000000       0.08371043       0.00000000 </v>
    <v>       0.00000000       0.00000000       0.03595800 </v>
   </varray>
  </crystal>
  <varray name="positions" >
   <v>       0.08294882       0.17170109      -0.45152088 </v>
   <v>       0.24504038       0.26189829      -0.49766105 </v>
   <v>      -0.00432657       0.24691122       0.49951255 </v>
   <v>      -0.00332724       0.00529205       0.49641709 </v>
   <v>       0.15767422       0.08091526      -0.39567117 </v>
   <v>       0.17741902       0.33589381      -0.39110452 </v>
   <v>      -0.09515542       0.07868804      -0.39200236 </v>
   <v>       0.17254052       0.33824005       0.45763414 </v>
   <v>      -0.08249192       0.08555807       0.45710133 </v>
   <v>       0.16584820       0.08754219       0.45603451 </v>
   <v>       0.08255662       0.41428962      -0.45498496 </v>
   <v>      -0.16213529      -0.07872331      -0.45382555 </v>
   <v>       0.33148535       0.17079664      -0.45095049 </v>
   <v>      -0.16985880       0.16809755      -0.45617590 </v>
   <v>       0.33244588       0.42519637      -0.45341328 </v>
   <v>       0.07719185      -0.09775066      -0.45820316 </v>
   <v>       0.25630987      -0.49764438      -0.49691364 </v>
   <v>      -0.08911634       0.31870555      -0.39274014 </v>
   <v>       0.24642194       0.00395795      -0.49886647 </v>
   <v>      -0.25207536      -0.00362131      -0.49697322 </v>
   <v>       0.08889716       0.16546182       0.39442563 </v>
   <v>      -0.07851362      -0.16471521      -0.39668911 </v>
   <v>       0.42345931       0.33541875      -0.39685349 </v>
   <v>      -0.08121205       0.33415249       0.45686461 </v>
   <v>       0.41389528       0.33119775       0.45623430 </v>
   <v>      -0.07360216      -0.15011417       0.44855145 </v>
   <v>      -0.24101883      -0.23817402      -0.49505431 </v>
   <v>      -0.24532801       0.24653109       0.49772315 </v>
   <v>      -0.00834394       0.49397647      -0.49844112 </v>
   <v>       0.15711810      -0.41927293      -0.39488823 </v>
   <v>       0.33626372       0.41527397       0.39662719 </v>
   <v>       0.41697122      -0.42405337      -0.38919250 </v>
   <v>       0.16473799      -0.16086381      -0.39668185 </v>
   <v>      -0.49349694       0.49740091       0.49839884 </v>
   <v>       0.08823327       0.42247997       0.39444690 </v>
   <v>      -0.49930926       0.25030557       0.49837997 </v>
   <v>       0.33221470       0.16869751       0.39376608 </v>
   <v>       0.41097882       0.07972647      -0.39211834 </v>
   <v>      -0.16958033       0.15999867       0.39077581 </v>
   <v>      -0.16753811      -0.08322830       0.39251672 </v>
   <v>      -0.33125827      -0.16647741      -0.38674064 </v>
   <v>      -0.34212422       0.09014521      -0.39893625 </v>
   <v>       0.09366912      -0.07869045       0.39240393 </v>
   <v>      -0.00270490      -0.25662302       0.49351826 </v>
   <v>       0.17242456      -0.42042128       0.46103412 </v>
   <v>       0.40874125       0.08424378       0.45551239 </v>
   <v>      -0.32508249      -0.16779328       0.45604753 </v>
   <v>       0.33011093      -0.34062348      -0.45273566 </v>
   <v>      -0.33151728       0.08702241       0.45548287 </v>
   <v>       0.41962532      -0.41670525       0.45570614 </v>
   <v>      -0.40607861      -0.08940726      -0.45453318 </v>
   <v>       0.32053936      -0.08663435      -0.45615516 </v>
   <v>      -0.16807403       0.41800575      -0.45129021 </v>
   <v>      -0.41474785       0.41485234      -0.45603875 </v>
   <v>      -0.16797761      -0.33196644      -0.46027717 </v>
   <v>       0.16138722      -0.17568128       0.44920847 </v>
   <v>       0.08521638      -0.33995927      -0.46193755 </v>
   <v>      -0.41620239      -0.33305819      -0.45623216 </v>
   <v>      -0.41994478       0.16990421      -0.45825275 </v>
   <v>       0.25047680      -0.25942930      -0.49938261 </v>
   <v>      -0.08791667      -0.42959809      -0.39148062 </v>
   <v>      -0.16068371       0.41894819       0.39943211 </v>
   <v>       0.49089724       0.00418967      -0.49988590 </v>
   <v>      -0.34800025       0.32538462      -0.39518387 </v>
   <v>      -0.49150584      -0.24699265       0.49513567 </v>
   <v>      -0.32627434      -0.41479733      -0.40249680 </v>
   <v>       0.32652084      -0.08226492       0.39510547 </v>
   <v>       0.33454427      -0.32239939       0.39762405 </v>
   <v>      -0.41539601      -0.08031415       0.39135541 </v>
   <v>      -0.32193684       0.32921656       0.45390371 </v>
   <v>      -0.17250873      -0.33526469       0.39314850 </v>
   <v>      -0.41061218       0.41955278       0.39256410 </v>
   <v>      -0.33726755      -0.41833187       0.45493864 </v>
   <v>      -0.09875935      -0.42335343       0.45420857 </v>
   <v>       0.08248510      -0.34387466       0.39719286 </v>
   <v>       0.41444210      -0.17165986      -0.39471077 </v>
   <v>      -0.25360898       0.49684949      -0.49988053 </v>
   <v>      -0.41215170       0.17560474       0.39473553 </v>
   <v>      -0.41559000      -0.32241091       0.39353925 </v>
   <v>       0.43474800      -0.15369410       0.45741531 </v>
  </varray>
 </structure>
 <varray name="primitive_index" >
  <v type="int" >        1 </v>
  <v type="int" >       70 </v>
  <v type="int" >       66 </v>
  <v type="int" >       65 </v>
  <v type="int" >       49 </v>
  <v type="int" >       50 </v>
  <v type="int" >       61 </v>
  <v type="int" >       18 </v>
  <v type="int" >       29 </v>
  <v type="int" >       17 </v>
  <v type="int" >        2 </v>
  <v type="int" >       16 </v>
  <v type="int" >        5 </v>
  <v type="int" >       13 </v>
  <v type="int" >        6 </v>
  <v type="int" >        4 </v>
  <v type="int" >       71 </v>
  <v type="int" >       62 </v>
  <v type="int" >       69 </v>
  <v type="int" >       77 </v>
  <v type="int" >       33 </v>
  <v type="int" >       64 </v>
  <v type="int" >       54 </v>
  <v type="int" >       30 </v>
  <v type="int" >       22 </v>
  <v type="int" >       32 </v>
  <v type="int" >       80 </v>
  <v type="int" >       78 </v>
  <v type="int" >       67 </v>
  <v type="int" >       51 </v>
  <v type="int" >       38 </v>
  <v type="int" >       55 </v>
  <v type="int" >       52 </v>
  <v type="int" >       75 </v>
  <v type="int" >       34 </v>
  <v type="int" >       74 </v>
  <v type="int" >       37 </v>
  <v type="int" >       53 </v>
  <v type="int" >       45 </v>
  <v type="int" >       48 </v>
  <v type="int" >       60 </v>
  <v type="int" >       57 </v>
  <v type="int" >       36 </v>
  <v type="int" >       68 </v>
  <v type="int" >       19 </v>
  <v type="int" >       21 </v>
  <v type="int" >       28 </v>
  <v type="int" >        7 </v>
  <v type="int" >       25 </v>
  <v type="int" >       23 </v>
  <v type="int" >       12 </v>
  <v type="int" >        8 </v>
  <v type="int" >       14 </v>
  <v type="int" >       10 </v>
  <v type="int" >       15 </v>
  <v type="int" >       20 </v>
  <v type="int" >        3 </v>
  <v type="int" >       11 </v>
  <v type="int" >        9 </v>
  <v type="int" >       72 </v>
  <v type="int" >       63 </v>
  <v type="int" >       46 </v>
  <v type="int" >       73 </v>
  <v type="int" >       58 </v>
  <v type="int" >       76 </v>
  <v type="int" >       59 </v>
  <v type="int" >       40 </v>
  <v type="int" >       39 </v>
  <v type="int" >       44 </v>
  <v type="int" >       26 </v>
  <v type="int" >       47 </v>
  <v type="int" >       42 </v>
  <v type="int" >       27 </v>
  <v type="int" >       31 </v>
  <v type="int" >       35 </v>
  <v type="int" >       56 </v>
  <v type="int" >       79 </v>
  <v type="int" >       41 </v>
  <v type="int" >       43 </v>
  <v type="int" >       24 </v>
 </varray>
 <kpoints>
  <generation param="Gamma">
   <v type="int" name="divisions">       3        3        1 </v>
   <v name="usershift">      0.00000000       0.00000000       0.00000000 </v>
   <v name="genvec1">      0.33333333      -0.00000000       0.00000000 </v>
   <v name="genvec2">      0.00000000       0.33333333       0.00000000 </v>
   <v name="genvec3">      0.00000000       0.00000000       1.00000000 </v>
   <v name="shift">      0.00000000       0.00000000       0.00000000 </v>
  </generation>
  <varray name="kpointlist" >
   <v>       0.00000000       0.00000000       0.00000000 </v>
   <v>       0.33333333      -0.00000000       0.00000000 </v>
   <v>       0.00000000       0.33333333       0.00000000 </v>
   <v>       0.33333333       0.33333333       0.00000000 </v>
   <v>      -0.33333333       0.33333333       0.00000000 </v>
  </varray>
  <varray name="weights" >
   <v>       0.11111111 </v>
   <v>       0.22222222 </v>
   <v>       0.22222222 </v>
   <v>       0.22222222 </v>
   <v>       0.22222222 </v>
  </varray>
 </kpoints>
 <parameters>
  <separator name="general" >
   <i type="string" name="SYSTEM">unknown system</i>
   <i type="logical" name="LCOMPAT"> F  </i>
  </separator>
  <separator name="electronic" >
   <i type="string" name="PREC">anorma</i>
   <i name="ENMAX">    600.00000000</i>
   <i name="ENAUG">    644.87300000</i>
   <i name="EDIFF">      0.00000100</i>
   <i type="int" name="IALGO">    38</i>
   <i type="int" name="IWAVPR">    10</i>
   <i type="int" name="NBANDS">   384</i>
   <i name="NELECT">    640.00000000</i>
   <i type="int" name="TURBO">     0</i>
   <i type="int" name="IRESTART">     0</i>
   <i type="int" name="NREBOOT">     0</i>
   <i type="int" name="NMIN">     0</i>
   <i name="EREF">      0.00000000</i>
   <separator name="electronic smearing" >
    <i type="int" name="ISMEAR">     0</i>
    <i name="SIGMA">      0.05000000</i>
    <i name="KSPACING">      0.25000000</i>
    <i type="logical" name="KGAMMA"> T  </i>
   </separator>
   <separator name="electronic projectors" >
    <i type="logical" name="LREAL"> T  </i>
    <v name="ROPT">     -0.00025000     -0.00025000     -0.00025000</v>
    <i type="int" name="LMAXPAW">  -100</i>
    <i type="int" name="LMAXMIX">     2</i>
    <i type="logical" name="NLSPLINE"> F  </i>
   </separator>
   <separator name="electronic startup" >
    <i type="int" name="ISTART">     0</i>
    <i type="int" name="ICHARG">     2</i>
    <i type="int" name="INIWAV">     1</i>
   </separator>
   <separator name="electronic spin" >
    <i type="int" name="ISPIN">     1</i>
    <i type="logical" name="LNONCOLLINEAR"> F  </i>
    <v name="MAGMOM">      1.00000000      1.00000000      1.00000000      1.00000000      1.00000000      1.00000000      1.00000000      1.00000000      1.00000000      1.00000000      1.00000000      1.00000000      1.00000000      1.00000000      1.00000000      1.00000000      1.00000000      1.00000000      1.00000000      1.00000000
      1.00000000      1.00000000      1.00000000      1.00000000      1.00000000      1.00000000      1.00000000      1.00000000      1.00000000      1.00000000      1.00000000      1.00000000      1.00000000      1.00000000      1.00000000      1.00000000      1.00000000      1.00000000      1.00000000      1.00000000
      1.00000000      1.00000000      1.00000000      1.00000000      1.00000000      1.00000000      1.00000000      1.00000000      1.00000000      1.00000000      1.00000000      1.00000000      1.00000000      1.00000000      1.00000000      1.00000000      1.00000000      1.00000000      1.00000000      1.00000000
      1.00000000      1.00000000      1.00000000      1.00000000      1.00000000      1.00000000      1.00000000      1.00000000      1.00000000      1.00000000      1.00000000      1.00000000      1.00000000      1.00000000      1.00000000      1.00000000      1.00000000      1.00000000      1.00000000      1.00000000
</v>
    <i name="NUPDOWN">     -1.00000000</i>
    <i type="logical" name="LSORBIT"> F  </i>
    <v name="SAXIS">      0.00000000      0.00000000      1.00000000</v>
    <i type="logical" name="LSPIRAL"> F  </i>
    <v name="QSPIRAL">      0.00000000      0.00000000      0.00000000</v>
    <i type="logical" name="LZEROZ"> F  </i>
   </separator>
   <separator name="electronic exchange-correlation" >
    <i type="logical" name="LASPH"> F  </i>
    <i type="logical" name="LMETAGGA"> F  </i>
   </separator>
   <separator name="electronic convergence" >
    <i type="int" name="NELM">    60</i>
    <i type="int" name="NELMDL">    -5</i>
    <i type="int" name="NELMIN">     2</i>
    <i name="ENINI">    600.00000000</i>
    <separator name="electronic convergence detail" >
     <i type="logical" name="LDIAG"> T  </i>
     <i type="logical" name="LSUBROT"> F  </i>
     <i name="WEIMIN">      0.00000000</i>
     <i name="EBREAK">      0.00000000</i>
     <i name="DEPER">      0.30000000</i>
     <i type="int" name="NRMM">     4</i>
     <i name="TIME">      0.40000000</i>
    </separator>
   </separator>
   <separator name="electronic mixer" >
    <i name="AMIX">      0.40000000</i>
    <i name="BMIX">      1.00000000</i>
    <i name="AMIN">      0.10000000</i>
    <i name="AMIX_MAG">      1.60000000</i>
    <i name="BMIX_MAG">      1.00000000</i>
    <separator name="electronic mixer details" >
     <i type="int" name="IMIX">     4</i>
     <i type="logical" name="MIXFIRST"> F  </i>
     <i type="int" name="MAXMIX">   -45</i>
     <i name="WC">    100.00000000</i>
     <i type="int" name="INIMIX">     1</i>
     <i type="int" name="MIXPRE">     1</i>
     <i type="int" name="MREMOVE">     5</i>
    </separator>
   </separator>
   <separator name="electronic dipolcorrection" >
    <i type="logical" name="LDIPOL"> F  </i>
    <i type="logical" name="LMONO"> F  </i>
    <i type="int" name="IDIPOL">     0</i>
    <i name="EPSILON">      1.00000000</i>
    <v name="DIPOL">   -100.00000000   -100.00000000   -100.00000000</v>
    <i name="EFIELD">      0.00000000</i>
   </separator>
  </separator>
  <separator name="grids" >
   <i type="int" name="NGX">   112</i>
   <i type="int" name="NGY">   112</i>
   <i type="int" name="NGZ">   224</i>
   <i type="int" name="NGXF">   224</i>
   <i type="int" name="NGYF">   224</i>
   <i type="int" name="NGZF">   448</i>
   <i type="logical" name="ADDGRID"> T  </i>
  </separator>
  <separator name="ionic" >
   <i type="int" name="NSW">     1</i>
   <i type="int" name="IBRION">    -1</i>
   <i type="int" name="MDALGO">     0</i>
   <i type="int" name="ISIF">     2</i>
   <i name="PSTRESS">      0.00000000</i>
   <i name="EDIFFG">     -0.01000000</i>
   <i type="int" name="NFREE">     0</i>
   <i name="POTIM">      1.00000000</i>
   <i name="SMASS">     -3.00000000</i>
   <i name="SCALEE">      1.00000000</i>
  </separator>
  <separator name="ionic md" >
   <i name="TEBEG">      0.00010000</i>
   <i name="TEEND">      0.00010000</i>
   <i type="int" name="NBLOCK">     1</i>
   <i type="int" name="KBLOCK">     1</i>
   <i type="int" name="NPACO">   256</i>
   <i name="APACO">     16.00000000</i>
  </separator>
  <separator name="symmetry" >
   <i type="int" name="ISYM">     2</i>
   <i name="SYMPREC">      0.00001000</i>
  </separator>
  <separator name="dos" >
   <i type="int" name="LORBIT">     0</i>
   <v name="RWIGS">     -1.00000000     -1.00000000     -1.00000000</v>
   <i type="int" name="NEDOS">   301</i>
   <i name="EMIN">     10.00000000</i>
   <i name="EMAX">    -10.00000000</i>
   <i name="EFERMI">      0.00000000</i>
  </separator>
  <separator name="writing" >
   <i type="int" name="NWRITE">     2</i>
   <i type="logical" name="LWAVE"> F  </i>
   <i type="logical" name="LDOWNSAMPLE"> F  </i>
   <i type="logical" name="LCHARG"> F  </i>
   <i type="logical" name="LPARD"> F  </i>
   <i type="logical" name="LVTOT"> F  </i>
   <i type="logical" name="LVHAR"> F  </i>
   <i type="logical" name="LELF"> F  </i>
   <i type="logical" name="LOPTICS"> F  </i>
   <v name="STM">      0.00000000      0.00000000      0.00000000      0.00000000      0.00000000      0.00000000      0.00000000</v>
  </separator>
  <separator name="performance" >
   <i type="int" name="NPAR">     4</i>
   <i type="int" name="NSIM">     4</i>
   <i type="int" name="NBLK">    -1</i>
   <i type="logical" name="LPLANE"> T  </i>
   <i type="logical" name="LSCALAPACK"> F  </i>
   <i type="logical" name="LSCAAWARE"> F  </i>
   <i type="logical" name="LSCALU"> F  </i>
   <i type="logical" name="LASYNC"> F  </i>
   <i type="logical" name="LORBITALREAL"> F  </i>
  </separator>
  <separator name="miscellaneous" >
   <i type="int" name="IDIOT">     3</i>
   <i type="int" name="ISPECIAL">     0</i>
   <i type="logical" name="LMUSIC"> F  </i>
   <v name="POMASS">     44.95600000     35.45300000     12.01100000</v>
   <v name="DARWINR">      0.00000000      0.00000000      0.00000000</v>
   <v name="DARWINV">      1.00000000      1.00000000      1.00000000</v>
   <i type="logical" name="LCORR"> T  </i>
  </separator>
  <i type="logical" name="GGA_COMPAT"> T  </i>
  <i type="logical" name="LBERRY"> F  </i>
  <i type="int" name="ICORELEVEL">     0</i>
  <i type="logical" name="LDAU"> F  </i>
  <i type="int" name="I_CONSTRAINED_M">     0</i>
  <separator name="electronic exchange-correlation" >
   <i type="string" name="GGA">--</i>
   <i type="int" name="VOSKOWN">     0</i>
   <i type="logical" name="LHFCALC"> F  </i>
   <i type="string" name="PRECFOCK"></i>
   <i type="logical" name="LSYMGRAD"> F  </i>
   <i type="logical" name="LHFONE"> F  </i>
   <i type="logical" name="LRHFCALC"> F  </i>
   <i type="logical" name="LTHOMAS"> F  </i>
   <i type="logical" name="LMODELHF"> F  </i>
   <i name="ENCUT4O">     -1.00000000</i>
   <i type="int" name="EXXOEP">     0</i>
   <i type="int" name="FOURORBIT">     0</i>
   <i name="AEXX">      0.00000000</i>
   <i name="HFALPHA">      0.00000000</i>
   <i name="MCALPHA">      0.00000000</i>
   <i name="ALDAX">      1.00000000</i>
   <i name="AGGAX">      1.00000000</i>
   <i name="ALDAC">      1.00000000</i>
   <i name="AGGAC">      1.00000000</i>
   <i type="int" name="NKREDX">     1</i>
   <i type="int" name="NKREDY">     1</i>
   <i type="int" name="NKREDZ">     1</i>
   <i type="logical" name="SHIFTRED"> F  </i>
   <i type="logical" name="ODDONLY"> F  </i>
   <i type="logical" name="EVENONLY"> F  </i>
   <i type="int" name="LMAXFOCK">     0</i>
   <i type="int" name="NMAXFOCKAE">     0</i>
   <i type="logical" name="LFOCKAEDFT"> F  </i>
   <i name="HFSCREEN">      0.00000000</i>
   <i name="HFSCREENC">      0.00000000</i>
   <i type="int" name="NBANDSGWLOW">     0</i>
  </separator>
  <separator name="vdW DFT" >
   <i type="logical" name="LUSE_VDW"> F  </i>
   <i name="Zab_VDW">     -0.84910000</i>
   <i name="PARAM1">      0.12340000</i>
   <i name="PARAM2">      1.00000000</i>
   <i name="PARAM3">      0.00000000</i>
  </separator>
  <separator name="model GW" >
   <i type="int" name="MODEL_GW">     0</i>
   <i name="MODEL_EPS0">     34.36971577</i>
   <i name="MODEL_ALPHA">      1.00000000</i>
  </separator>
  <separator name="linear response parameters" >
   <i type="logical" name="LEPSILON"> F  </i>
   <i type="logical" name="LRPA"> F  </i>
   <i type="logical" name="LNABLA"> F  </i>
   <i type="logical" name="LVEL"> F  </i>
   <i type="int" name="KINTER">     0</i>
   <i name="CSHIFT">      0.10000000</i>
   <i name="OMEGAMAX">     -1.00000000</i>
   <i name="DEG_THRESHOLD">      0.00200000</i>
   <i name="RTIME">     -0.10000000</i>
   <i name="WPLASMAI">      0.00000000</i>
   <v name="DFIELD">      0.00000000      0.00000000      0.00000000</v>
   <v name="WPLASMA">      0.00000000      0.00000000      0.00000000      0.00000000      0.00000000      0.00000000      0.00000000      0.00000000      0.00000000</v>
  </separator>
  <separator name="orbital magnetization" >
   <i type="logical" name="NUCIND"> F  </i>
   <v name="MAGPOS">      0.00000000      0.00000000      0.00000000</v>
   <i type="logical" name="LNICSALL"> T  </i>
   <i type="logical" name="ORBITALMAG"> F  </i>
   <i type="logical" name="LMAGBLOCH"> F  </i>
   <i type="logical" name="LCHIMAG"> F  </i>
   <i type="logical" name="LGAUGE"> T  </i>
   <i type="int" name="MAGATOM">     0</i>
   <v name="MAGDIPOL">      0.00000000      0.00000000      0.00000000</v>
   <v name="AVECCONST">      0.00000000      0.00000000      0.00000000</v>
  </separator>
  <separator name="response functions" >
   <i type="logical" name="LADDER"> F  </i>
   <i type="logical" name="LRPAFORCE"> F  </i>
   <i type="logical" name="LFXC"> F  </i>
   <i type="logical" name="LHARTREE"> T  </i>
   <i type="int" name="IBSE">     0</i>
   <v type="int" name="KPOINT">    -1     0     0     0</v>
   <i type="logical" name="LTCTE"> F  </i>
   <i type="logical" name="LTETE"> F  </i>
   <i type="logical" name="LTRIPLET"> F  </i>
   <i type="logical" name="LFXCEPS"> F  </i>
   <i type="logical" name="LFXHEG"> F  </i>
   <i type="int" name="NATURALO">     2</i>
   <i type="logical" name="L2ORDER"> F  </i>
   <i type="logical" name="LMP2LT"> F  </i>
   <i type="logical" name="LUSEW"> F  </i>
   <i name="ENCUTGW">     -2.00000000</i>
   <i name="ENCUTGWSOFT">     -2.00000000</i>
   <i name="ENCUTLF">     -1.00000000</i>
   <i type="int" name="LMAXMP2">    -1</i>
   <i name="SCISSOR">      0.00000000</i>
   <i type="int" name="NOMEGA">     0</i>
   <i type="int" name="NOMEGAR">     0</i>
   <i type="int" name="NBANDSGW">    -1</i>
   <i type="int" name="NBANDSO">    -1</i>
   <i type="int" name="NBANDSV">    -1</i>
   <i type="int" name="NELM">     1</i>
   <i type="int" name="NELMHF">     1</i>
   <i type="int" name="DIM">     3</i>
   <i type="int" name="ANTIRES">     0</i>
   <i name="OMEGAMAX">    -30.00000000</i>
   <i name="OMEGAMIN">    -30.00000000</i>
   <i name="OMEGATL">   -200.00000000</i>
   <i type="int" name="OMEGAGRID">   140</i>
   <i name="CSHIFT">     -0.10000000</i>
   <i type="logical" name="SELFENERGY"> F  </i>
   <i type="logical" name="LSPECTRAL"> F  </i>
   <i type="logical" name="LSPECTRALGW"> F  </i>
   <i type="logical" name="LSINGLES"> F  </i>
   <i type="logical" name="LFERMIGW"> F  </i>
   <i type="logical" name="ODDONLYGW"> F  </i>
   <i type="logical" name="EVENONLYGW"> F  </i>
   <i type="int" name="NKREDLFX">     1</i>
   <i type="int" name="NKREDLFY">     1</i>
   <i type="int" name="NKREDLFZ">     1</i>
   <i type="int" name="MAXMEM">  2800</i>
   <i type="int" name="TELESCOPE">     0</i>
   <i type="int" name="TAUPAR">     1</i>
   <i type="int" name="OMEGAPAR">    -1</i>
   <i name="LAMBDA">      1.00000000</i>
  </separator>
  <separator name="External order field" >
   <i name="OFIELD_KAPPA">      0.00000000</i>
   <v name="OFIELD_K">      0.00000000      0.00000000      0.00000000</v>
   <i name="OFIELD_Q6_NEAR">      0.00000000</i>
   <i name="OFIELD_Q6_FAR">      0.00000000</i>
   <i name="OFIELD_A">      0.00000000</i>
  </separator>
 </parameters>
 <atominfo>
  <atoms>      80 </atoms>
  <types>       3 </types>
  <array name="atoms" >
   <dimension dim="1">ion</dimension>
   <field type="string">element</field>
   <field type="int">atomtype</field>
   <set>
    <rc><c>Sc</c><c>   1</c></rc>
    <rc><c>Sc</c><c>   1</c></rc>
    <rc><c>Sc</c><c>   1</c></rc>
    <rc><c>Sc</c><c>   1</c></rc>
    <rc><c>Sc</c><c>   1</c></rc>
    <rc><c>Sc</c><c>   1</c></rc>
    <rc><c>Sc</c><c>   1</c></rc>
    <rc><c>Sc</c><c>   1</c></rc>
    <rc><c>Sc</c><c>   1</c></rc>
    <rc><c>Sc</c><c>   1</c></rc>
    <rc><c>Sc</c><c>   1</c></rc>
    <rc><c>Sc</c><c>   1</c></rc>
    <rc><c>Sc</c><c>   1</c></rc>
    <rc><c>Sc</c><c>   1</c></rc>
    <rc><c>Sc</c><c>   1</c></rc>
    <rc><c>Sc</c><c>   1</c></rc>
    <rc><c>Sc</c><c>   1</c></rc>
    <rc><c>Sc</c><c>   1</c></rc>
    <rc><c>Sc</c><c>   1</c></rc>
    <rc><c>Sc</c><c>   1</c></rc>
    <rc><c>Sc</c><c>   1</c></rc>
    <rc><c>Sc</c><c>   1</c></rc>
    <rc><c>Sc</c><c>   1</c></rc>
    <rc><c>Sc</c><c>   1</c></rc>
    <rc><c>Sc</c><c>   1</c></rc>
    <rc><c>Sc</c><c>   1</c></rc>
    <rc><c>Sc</c><c>   1</c></rc>
    <rc><c>Sc</c><c>   1</c></rc>
    <rc><c>Sc</c><c>   1</c></rc>
    <rc><c>Sc</c><c>   1</c></rc>
    <rc><c>Sc</c><c>   1</c></rc>
    <rc><c>Sc</c><c>   1</c></rc>
    <rc><c>Cl</c><c>   2</c></rc>
    <rc><c>Cl</c><c>   2</c></rc>
    <rc><c>Cl</c><c>   2</c></rc>
    <rc><c>Cl</c><c>   2</c></rc>
    <rc><c>Cl</c><c>   2</c></rc>
    <rc><c>Cl</c><c>   2</c></rc>
    <rc><c>Cl</c><c>   2</c></rc>
    <rc><c>Cl</c><c>   2</c></rc>
    <rc><c>Cl</c><c>   2</c></rc>
    <rc><c>Cl</c><c>   2</c></rc>
    <rc><c>Cl</c><c>   2</c></rc>
    <rc><c>Cl</c><c>   2</c></rc>
    <rc><c>Cl</c><c>   2</c></rc>
    <rc><c>Cl</c><c>   2</c></rc>
    <rc><c>Cl</c><c>   2</c></rc>
    <rc><c>Cl</c><c>   2</c></rc>
    <rc><c>Cl</c><c>   2</c></rc>
    <rc><c>Cl</c><c>   2</c></rc>
    <rc><c>Cl</c><c>   2</c></rc>
    <rc><c>Cl</c><c>   2</c></rc>
    <rc><c>Cl</c><c>   2</c></rc>
    <rc><c>Cl</c><c>   2</c></rc>
    <rc><c>Cl</c><c>   2</c></rc>
    <rc><c>Cl</c><c>   2</c></rc>
    <rc><c>Cl</c><c>   2</c></rc>
    <rc><c>Cl</c><c>   2</c></rc>
    <rc><c>Cl</c><c>   2</c></rc>
    <rc><c>Cl</c><c>   2</c></rc>
    <rc><c>Cl</c><c>   2</c></rc>
    <rc><c>Cl</c><c>   2</c></rc>
    <rc><c>Cl</c><c>   2</c></rc>
    <rc><c>Cl</c><c>   2</c></rc>
    <rc><c>C </c><c>   3</c></rc>
    <rc><c>C </c><c>   3</c></rc>
    <rc><c>C </c><c>   3</c></rc>
    <rc><c>C </c><c>   3</c></rc>
    <rc><c>C </c><c>   3</c></rc>
    <rc><c>C </c><c>   3</c></rc>
    <rc><c>C </c><c>   3</c></rc>
    <rc><c>C </c><c>   3</c></rc>
    <rc><c>C </c><c>   3</c></rc>
    <rc><c>C </c><c>   3</c></rc>
    <rc><c>C </c><c>   3</c></rc>
    <rc><c>C </c><c>   3</c></rc>
    <rc><c>C </c><c>   3</c></rc>
    <rc><c>C </c><c>   3</c></rc>
    <rc><c>C </c><c>   3</c></rc>
    <rc><c>C </c><c>   3</c></rc>
   </set>
  </array>
  <array name="atomtypes" >
   <dimension dim="1">type</dimension>
   <field type="int">atomspertype</field>
   <field type="string">element</field>
   <field>mass</field>
   <field>valence</field>
   <field type="string">pseudopotential</field>
   <set>
    <rc><c>  32</c><c>Sc</c><c>     44.95600000</c><c>     11.00000000</c><c>  PAW_PBE Sc_sv 07Sep2000               </c></rc>
    <rc><c>  32</c><c>Cl</c><c>     35.45300000</c><c>      7.00000000</c><c>  PAW_PBE Cl 06Sep2000                  </c></rc>
    <rc><c>  16</c><c>C </c><c>     12.01100000</c><c>      4.00000000</c><c>  PAW_PBE C 08Apr2002                   </c></rc>
   </set>
  </array>
 </atominfo>
 <structure name="initialpos" >
  <crystal>
   <varray name="basis" >
    <v>      13.79398668       0.00000000       0.00000000 </v>
    <v>      -6.89699334      11.94594288       0.00000000 </v>
    <v>       0.00000000       0.00000000      27.81022107 </v>
   </varray>
   <i name="volume">   4582.62876984 </i>
   <varray name="rec_basis" >
    <v>       0.07249536       0.04185521       0.00000000 </v>
    <v>       0.00000000       0.08371043       0.00000000 </v>
    <v>       0.00000000       0.00000000       0.03595800 </v>
   </varray>
  </crystal>
  <varray name="positions" >
   <v>       0.08294882       0.17170109       0.54847912 </v>
   <v>       0.08255662       0.41428962       0.54501504 </v>
   <v>       0.08521638       0.66004073       0.53806245 </v>
   <v>       0.07719185       0.90224934       0.54179684 </v>
   <v>       0.33148535       0.17079664       0.54904951 </v>
   <v>       0.33244588       0.42519637       0.54658672 </v>
   <v>       0.33011093       0.65937652       0.54726434 </v>
   <v>       0.32053936       0.91336565       0.54384484 </v>
   <v>       0.58005522       0.16990421       0.54174725 </v>
   <v>       0.58525215       0.41485234       0.54396125 </v>
   <v>       0.58379761       0.66694181       0.54376784 </v>
   <v>       0.59392139       0.91059274       0.54546682 </v>
   <v>       0.83014120       0.16809755       0.54382410 </v>
   <v>       0.83192597       0.41800575       0.54870979 </v>
   <v>       0.83202239       0.66803356       0.53972283 </v>
   <v>       0.83786471       0.92127669       0.54617445 </v>
   <v>       0.16584820       0.08754219       0.45603451 </v>
   <v>       0.17254052       0.33824005       0.45763414 </v>
   <v>       0.17242456       0.57957872       0.46103412 </v>
   <v>       0.16138722       0.82431872       0.44920847 </v>
   <v>       0.40874125       0.08424378       0.45551239 </v>
   <v>       0.41389528       0.33119775       0.45623430 </v>
   <v>       0.41962532       0.58329475       0.45570614 </v>
   <v>       0.43474800       0.84630590       0.45741531 </v>
   <v>       0.66848272       0.08702241       0.45548287 </v>
   <v>       0.67806316       0.32921656       0.45390371 </v>
   <v>       0.66273245       0.58166813       0.45493864 </v>
   <v>       0.67491751       0.83220672       0.45604753 </v>
   <v>       0.91750808       0.08555807       0.45710133 </v>
   <v>       0.91878795       0.33415249       0.45686461 </v>
   <v>       0.90124065       0.57664657       0.45420857 </v>
   <v>       0.92639784       0.84988583       0.44855145 </v>
   <v>       0.08889716       0.16546182       0.39442563 </v>
   <v>       0.08823327       0.42247997       0.39444690 </v>
   <v>       0.08248510       0.65612534       0.39719286 </v>
   <v>       0.09366912       0.92130955       0.39240393 </v>
   <v>       0.33221470       0.16869751       0.39376608 </v>
   <v>       0.33626372       0.41527397       0.39662719 </v>
   <v>       0.33454427       0.67760061       0.39762405 </v>
   <v>       0.32652084       0.91773508       0.39510547 </v>
   <v>       0.58784830       0.17560474       0.39473553 </v>
   <v>       0.58938782       0.41955278       0.39256410 </v>
   <v>       0.58441000       0.67758909       0.39353925 </v>
   <v>       0.58460399       0.91968585       0.39135541 </v>
   <v>       0.83041967       0.15999867       0.39077581 </v>
   <v>       0.83931629       0.41894819       0.39943211 </v>
   <v>       0.82749127       0.66473531       0.39314850 </v>
   <v>       0.83246189       0.91677170       0.39251672 </v>
   <v>       0.15767422       0.08091526       0.60432883 </v>
   <v>       0.17741902       0.33589381       0.60889548 </v>
   <v>       0.15711810       0.58072707       0.60511177 </v>
   <v>       0.16473799       0.83913619       0.60331815 </v>
   <v>       0.41097882       0.07972647       0.60788166 </v>
   <v>       0.42345931       0.33541875       0.60314651 </v>
   <v>       0.41697122       0.57594663       0.61080750 </v>
   <v>       0.41444210       0.82834014       0.60528923 </v>
   <v>       0.65787578       0.09014521       0.60106375 </v>
   <v>       0.65199975       0.32538462       0.60481613 </v>
   <v>       0.67372566       0.58520267       0.59750320 </v>
   <v>       0.66874173       0.83352259       0.61325936 </v>
   <v>       0.90484458       0.07868804       0.60799764 </v>
   <v>       0.91088366       0.31870555       0.60725986 </v>
   <v>       0.91208333       0.57040191       0.60851938 </v>
   <v>       0.92148638       0.83528479       0.60331089 </v>
   <v>       0.99667276       0.00529205       0.49641709 </v>
   <v>       0.99567343       0.24691122       0.49951255 </v>
   <v>       0.99165606       0.49397647       0.50155888 </v>
   <v>       0.99729510       0.74337698       0.49351826 </v>
   <v>       0.24642194       0.00395795       0.50113353 </v>
   <v>       0.24504038       0.26189829       0.50233895 </v>
   <v>       0.25630987       0.50235562       0.50308636 </v>
   <v>       0.25047680       0.74057070       0.50061739 </v>
   <v>       0.49089724       0.00418967       0.50011410 </v>
   <v>       0.50069074       0.25030557       0.49837997 </v>
   <v>       0.50650306       0.49740091       0.49839884 </v>
   <v>       0.50849416       0.75300735       0.49513567 </v>
   <v>       0.74792464       0.99637869       0.50302678 </v>
   <v>       0.75467199       0.24653109       0.49772315 </v>
   <v>       0.74639102       0.49684949       0.50011947 </v>
   <v>       0.75898117       0.76182598       0.50494569 </v>
  </varray>
  <varray name="velocities" >
   <v>       0.00000000       0.00000000       0.00000000 </v>
   <v>       0.00000000       0.00000000       0.00000000 </v>
   <v>       0.00000000       0.00000000       0.00000000 </v>
   <v>       0.00000000       0.00000000       0.00000000 </v>
   <v>       0.00000000       0.00000000       0.00000000 </v>
   <v>       0.00000000       0.00000000       0.00000000 </v>
   <v>       0.00000000       0.00000000       0.00000000 </v>
   <v>       0.00000000       0.00000000       0.00000000 </v>
   <v>       0.00000000       0.00000000       0.00000000 </v>
   <v>       0.00000000       0.00000000       0.00000000 </v>
   <v>       0.00000000       0.00000000       0.00000000 </v>
   <v>       0.00000000       0.00000000       0.00000000 </v>
   <v>       0.00000000       0.00000000       0.00000000 </v>
   <v>       0.00000000       0.00000000       0.00000000 </v>
   <v>       0.00000000       0.00000000       0.00000000 </v>
   <v>       0.00000000       0.00000000       0.00000000 </v>
   <v>       0.00000000       0.00000000       0.00000000 </v>
   <v>       0.00000000       0.00000000       0.00000000 </v>
   <v>       0.00000000       0.00000000       0.00000000 </v>
   <v>       0.00000000       0.00000000       0.00000000 </v>
   <v>       0.00000000       0.00000000       0.00000000 </v>
   <v>       0.00000000       0.00000000       0.00000000 </v>
   <v>       0.00000000       0.00000000       0.00000000 </v>
   <v>       0.00000000       0.00000000       0.00000000 </v>
   <v>       0.00000000       0.00000000       0.00000000 </v>
   <v>       0.00000000       0.00000000       0.00000000 </v>
   <v>       0.00000000       0.00000000       0.00000000 </v>
   <v>       0.00000000       0.00000000       0.00000000 </v>
   <v>       0.00000000       0.00000000       0.00000000 </v>
   <v>       0.00000000       0.00000000       0.00000000 </v>
   <v>       0.00000000       0.00000000       0.00000000 </v>
   <v>       0.00000000       0.00000000       0.00000000 </v>
   <v>       0.00000000       0.00000000       0.00000000 </v>
   <v>       0.00000000       0.00000000       0.00000000 </v>
   <v>       0.00000000       0.00000000       0.00000000 </v>
   <v>       0.00000000       0.00000000       0.00000000 </v>
   <v>       0.00000000       0.00000000       0.00000000 </v>
   <v>       0.00000000       0.00000000       0.00000000 </v>
   <v>       0.00000000       0.00000000       0.00000000 </v>
   <v>       0.00000000       0.00000000       0.00000000 </v>
   <v>       0.00000000       0.00000000       0.00000000 </v>
   <v>       0.00000000       0.00000000       0.00000000 </v>
   <v>       0.00000000       0.00000000       0.00000000 </v>
   <v>       0.00000000       0.00000000       0.00000000 </v>
   <v>       0.00000000       0.00000000       0.00000000 </v>
   <v>       0.00000000       0.00000000       0.00000000 </v>
   <v>       0.00000000       0.00000000       0.00000000 </v>
   <v>       0.00000000       0.00000000       0.00000000 </v>
   <v>       0.00000000       0.00000000       0.00000000 </v>
   <v>       0.00000000       0.00000000       0.00000000 </v>
   <v>       0.00000000       0.00000000       0.00000000 </v>
   <v>       0.00000000       0.00000000       0.00000000 </v>
   <v>       0.00000000       0.00000000       0.00000000 </v>
   <v>       0.00000000       0.00000000       0.00000000 </v>
   <v>       0.00000000       0.00000000       0.00000000 </v>
   <v>       0.00000000       0.00000000       0.00000000 </v>
   <v>       0.00000000       0.00000000       0.00000000 </v>
   <v>       0.00000000       0.00000000       0.00000000 </v>
   <v>       0.00000000       0.00000000       0.00000000 </v>
   <v>       0.00000000       0.00000000       0.00000000 </v>
   <v>       0.00000000       0.00000000       0.00000000 </v>
   <v>       0.00000000       0.00000000       0.00000000 </v>
   <v>       0.00000000       0.00000000       0.00000000 </v>
   <v>       0.00000000       0.00000000       0.00000000 </v>
   <v>       0.00000000       0.00000000       0.00000000 </v>
   <v>       0.00000000       0.00000000       0.00000000 </v>
   <v>       0.00000000       0.00000000       0.00000000 </v>
   <v>       0.00000000       0.00000000       0.00000000 </v>
   <v>       0.00000000       0.00000000       0.00000000 </v>
   <v>       0.00000000       0.00000000       0.00000000 </v>
   <v>       0.00000000       0.00000000       0.00000000 </v>
   <v>       0.00000000       0.00000000       0.00000000 </v>
   <v>       0.00000000       0.00000000       0.00000000 </v>
   <v>       0.00000000       0.00000000       0.00000000 </v>
   <v>       0.00000000       0.00000000       0.00000000 </v>
   <v>       0.00000000       0.00000000       0.00000000 </v>
   <v>       0.00000000       0.00000000       0.00000000 </v>
   <v>       0.00000000       0.00000000       0.00000000 </v>
   <v>       0.00000000       0.00000000       0.00000000 </v>
   <v>       0.00000000       0.00000000       0.00000000 </v>
  </varray>
 </structure>
 <calculation>
  <scstep>
   <time name="dav">  136.40  136.40</time>
   <time name="total">  138.73  138.73</time>
   <energy>
    <i name="alphaZ">    784.57699423 </i>
    <i name="ewald"> 251832.76900685 </i>
    <i name="hartreedc">-299497.94141438 </i>
    <i name="XCdc">   2502.23587900 </i>
    <i name="pawpsdc">  43679.68029659 </i>
    <i name="pawaedc"> -43417.33247688 </i>
    <i name="eentropy">     -0.06463297 </i>
    <i name="bandstr">     83.32610433 </i>
    <i name="atom">  56210.72393729 </i>
    <i name="e_fr_energy">  12177.97369405 </i>
    <i name="e_wo_entrp">  12178.03832703 </i>
    <i name="e_0_energy">  12178.00601054 </i>
   </energy>
  </scstep>
  <scstep>
   <time name="dav">  158.31  158.32</time>
   <time name="total">  158.31  158.32</time>
   <energy>
    <i name="e_fr_energy">   1723.45028047 </i>
    <i name="e_wo_entrp">   1723.49350624 </i>
    <i name="e_0_energy">   1723.47189336 </i>
   </energy>
  </scstep>
  <scstep>
   <time name="dav">  198.43  198.43</time>
   <time name="total">  198.43  198.44</time>
   <energy>
    <i name="e_fr_energy">   -410.68110786 </i>
    <i name="e_wo_entrp">   -410.68110785 </i>
    <i name="e_0_energy">   -410.68110785 </i>
   </energy>
  </scstep>
  <scstep>
   <time name="dav">  180.75  180.76</time>
   <time name="total">  180.75  180.76</time>
   <energy>
    <i name="e_fr_energy">   -644.46911470 </i>
    <i name="e_wo_entrp">   -644.46911470 </i>
    <i name="e_0_energy">   -644.46911470 </i>
   </energy>
  </scstep>
  <scstep>
   <time name="dav">  180.58  180.59</time>
   <time name="total">  192.61  192.62</time>
   <energy>
    <i name="e_fr_energy">   -654.68060450 </i>
    <i name="e_wo_entrp">   -654.68060450 </i>
    <i name="e_0_energy">   -654.68060450 </i>
   </energy>
  </scstep>
  <scstep>
   <time name="dav">  173.53  173.53</time>
   <time name="total">  187.38  187.39</time>
   <energy>
    <i name="e_fr_energy">   -524.35324819 </i>
    <i name="e_wo_entrp">   -524.35324819 </i>
    <i name="e_0_energy">   -524.35324819 </i>
   </energy>
  </scstep>
  <scstep>
   <time name="dav">  175.54  175.58</time>
   <time name="total">  189.35  189.40</time>
   <energy>
    <i name="e_fr_energy">   -529.00174205 </i>
    <i name="e_wo_entrp">   -529.00174205 </i>
    <i name="e_0_energy">   -529.00174205 </i>
   </energy>
  </scstep>
  <scstep>
   <time name="dav">  174.83  174.84</time>
   <time name="total">  188.63  188.64</time>
   <energy>
    <i name="e_fr_energy">   -526.81533889 </i>
    <i name="e_wo_entrp">   -526.81533889 </i>
    <i name="e_0_energy">   -526.81533889 </i>
   </energy>
  </scstep>
  <scstep>
   <time name="dav">  162.49  162.49</time>
   <time name="total">  176.31  176.33</time>
   <energy>
    <i name="e_fr_energy">   -526.30860332 </i>
    <i name="e_wo_entrp">   -526.30860332 </i>
    <i name="e_0_energy">   -526.30860332 </i>
   </energy>
  </scstep>
  <scstep>
   <time name="dav">  170.76  170.77</time>
   <time name="total">  184.60  184.61</time>
   <energy>
    <i name="e_fr_energy">   -526.18446755 </i>
    <i name="e_wo_entrp">   -526.18446755 </i>
    <i name="e_0_energy">   -526.18446755 </i>
   </energy>
  </scstep>
  <scstep>
   <time name="dav">  167.21  167.22</time>
   <time name="total">  181.31  181.32</time>
   <energy>
    <i name="e_fr_energy">   -526.16462835 </i>
    <i name="e_wo_entrp">   -526.16462835 </i>
    <i name="e_0_energy">   -526.16462835 </i>
   </energy>
  </scstep>
  <scstep>
   <time name="dav">  179.70  179.70</time>
   <time name="total">  193.95  193.96</time>
   <energy>
    <i name="e_fr_energy">   -526.15178896 </i>
    <i name="e_wo_entrp">   -526.15178896 </i>
    <i name="e_0_energy">   -526.15178896 </i>
   </energy>
  </scstep>
  <scstep>
   <time name="dav">  162.34  162.35</time>
   <time name="total">  176.50  176.52</time>
   <energy>
    <i name="e_fr_energy">   -526.14905223 </i>
    <i name="e_wo_entrp">   -526.14905223 </i>
    <i name="e_0_energy">   -526.14905223 </i>
   </energy>
  </scstep>
  <scstep>
   <time name="dav">  160.40  160.41</time>
   <time name="total">  174.36  174.38</time>
   <energy>
    <i name="e_fr_energy">   -526.14740366 </i>
    <i name="e_wo_entrp">   -526.14740366 </i>
    <i name="e_0_energy">   -526.14740366 </i>
   </energy>
  </scstep>
  <scstep>
   <time name="dav">  166.06  166.07</time>
   <time name="total">  179.68  179.70</time>
   <energy>
    <i name="e_fr_energy">   -526.14892991 </i>
    <i name="e_wo_entrp">   -526.14892991 </i>
    <i name="e_0_energy">   -526.14892991 </i>
   </energy>
  </scstep>
  <scstep>
   <time name="dav">  164.81  164.82</time>
   <time name="total">  178.78  178.80</time>
   <energy>
    <i name="e_fr_energy">   -526.15100184 </i>
    <i name="e_wo_entrp">   -526.15100184 </i>
    <i name="e_0_energy">   -526.15100184 </i>
   </energy>
  </scstep>
  <scstep>
   <time name="dav">  149.38  149.38</time>
   <time name="total">  163.44  163.45</time>
   <energy>
    <i name="e_fr_energy">   -526.15442913 </i>
    <i name="e_wo_entrp">   -526.15442913 </i>
    <i name="e_0_energy">   -526.15442913 </i>
   </energy>
  </scstep>
  <scstep>
   <time name="dav">  149.13  149.14</time>
   <time name="total">  163.49  163.50</time>
   <energy>
    <i name="e_fr_energy">   -526.15640317 </i>
    <i name="e_wo_entrp">   -526.15640317 </i>
    <i name="e_0_energy">   -526.15640317 </i>
   </energy>
  </scstep>
  <scstep>
   <time name="dav">  151.41  151.42</time>
   <time name="total">  165.52  165.54</time>
   <energy>
    <i name="e_fr_energy">   -526.15754499 </i>
    <i name="e_wo_entrp">   -526.15754499 </i>
    <i name="e_0_energy">   -526.15754499 </i>
   </energy>
  </scstep>
  <scstep>
   <time name="dav">  133.78  133.78</time>
   <time name="total">  147.96  147.97</time>
   <energy>
    <i name="e_fr_energy">   -526.15864356 </i>
    <i name="e_wo_entrp">   -526.15864356 </i>
    <i name="e_0_energy">   -526.15864356 </i>
   </energy>
  </scstep>
  <scstep>
   <time name="dav">  128.85  128.85</time>
   <time name="total">  142.16  142.17</time>
   <energy>
    <i name="e_fr_energy">   -526.15908935 </i>
    <i name="e_wo_entrp">   -526.15908935 </i>
    <i name="e_0_energy">   -526.15908935 </i>
   </energy>
  </scstep>
  <scstep>
   <time name="dav">  116.03  116.04</time>
   <time name="total">  129.50  129.51</time>
   <energy>
    <i name="e_fr_energy">   -526.15947307 </i>
    <i name="e_wo_entrp">   -526.15947307 </i>
    <i name="e_0_energy">   -526.15947307 </i>
   </energy>
  </scstep>
  <scstep>
   <time name="dav">  109.61  109.61</time>
   <time name="total">  123.07  123.08</time>
   <energy>
    <i name="e_fr_energy">   -526.16006017 </i>
    <i name="e_wo_entrp">   -526.16006017 </i>
    <i name="e_0_energy">   -526.16006017 </i>
   </energy>
  </scstep>
  <scstep>
   <time name="dav">  111.28  111.29</time>
   <time name="total">  125.09  125.10</time>
   <energy>
    <i name="e_fr_energy">   -526.16017405 </i>
    <i name="e_wo_entrp">   -526.16017405 </i>
    <i name="e_0_energy">   -526.16017405 </i>
   </energy>
  </scstep>
  <scstep>
   <time name="dav">  100.47  100.48</time>
   <time name="total">  114.13  114.14</time>
   <energy>
    <i name="e_fr_energy">   -526.16025991 </i>
    <i name="e_wo_entrp">   -526.16025991 </i>
    <i name="e_0_energy">   -526.16025991 </i>
   </energy>
  </scstep>
  <scstep>
   <time name="dav">  106.21  106.21</time>
   <time name="total">  119.61  119.62</time>
   <energy>
    <i name="e_fr_energy">   -526.16034241 </i>
    <i name="e_wo_entrp">   -526.16034241 </i>
    <i name="e_0_energy">   -526.16034241 </i>
   </energy>
  </scstep>
  <scstep>
   <time name="dav">   89.26   89.26</time>
   <time name="total">  102.35  102.36</time>
   <energy>
    <i name="e_fr_energy">   -526.16035488 </i>
    <i name="e_wo_entrp">   -526.16035488 </i>
    <i name="e_0_energy">   -526.16035488 </i>
   </energy>
  </scstep>
  <scstep>
   <time name="dav">   88.73   88.73</time>
   <time name="total">  102.12  102.13</time>
   <energy>
    <i name="e_fr_energy">   -526.16036708 </i>
    <i name="e_wo_entrp">   -526.16036708 </i>
    <i name="e_0_energy">   -526.16036708 </i>
   </energy>
  </scstep>
  <scstep>
   <time name="dav">   85.47   85.48</time>
   <time name="total">   98.87   98.89</time>
   <energy>
    <i name="e_fr_energy">   -526.16037304 </i>
    <i name="e_wo_entrp">   -526.16037304 </i>
    <i name="e_0_energy">   -526.16037304 </i>
   </energy>
  </scstep>
  <scstep>
   <time name="dav">   92.18   92.18</time>
   <time name="total">  105.44  105.45</time>
   <energy>
    <i name="e_fr_energy">   -526.16038501 </i>
    <i name="e_wo_entrp">   -526.16038501 </i>
    <i name="e_0_energy">   -526.16038501 </i>
   </energy>
  </scstep>
  <scstep>
   <time name="dav">   93.96   93.96</time>
   <time name="total">  105.42  105.43</time>
   <energy>
    <i name="e_fr_energy">   -526.16038953 </i>
    <i name="e_wo_entrp">   -526.16038953 </i>
    <i name="e_0_energy">   -526.16038953 </i>
   </energy>
  </scstep>
  <scstep>
   <time name="dav">   88.50   88.50</time>
   <time name="total">   99.47   99.48</time>
   <energy>
    <i name="e_fr_energy">   -526.16039146 </i>
    <i name="e_wo_entrp">   -526.16039146 </i>
    <i name="e_0_energy">   -526.16039146 </i>
   </energy>
  </scstep>
  <scstep>
   <time name="dav">   88.46   88.46</time>
   <time name="total">   90.65   90.66</time>
   <energy>
    <i name="alphaZ">    784.57699423 </i>
    <i name="ewald"> 251832.76900685 </i>
    <i name="hartreedc">-299798.48394371 </i>
    <i name="XCdc">   2489.26947427 </i>
    <i name="pawpsdc">  59280.60056641 </i>
    <i name="pawaedc"> -59112.77382405 </i>
    <i name="eentropy">     -0.00000000 </i>
    <i name="bandstr"> -12212.84260349 </i>
    <i name="atom">  56210.72393729 </i>
    <i name="e_fr_energy">   -526.16039219 </i>
    <i name="e_wo_entrp">   -526.16039219 </i>
    <i name="e_0_energy">   -526.16039219 </i>
   </energy>
  </scstep>
  <structure>
   <crystal>
    <varray name="basis" >
     <v>      13.79398668       0.00000000       0.00000000 </v>
     <v>      -6.89699334      11.94594288       0.00000000 </v>
     <v>       0.00000000       0.00000000      27.81022107 </v>
    </varray>
    <i name="volume">   4582.62876984 </i>
    <varray name="rec_basis" >
     <v>       0.07249536       0.04185521       0.00000000 </v>
     <v>       0.00000000       0.08371043       0.00000000 </v>
     <v>       0.00000000       0.00000000       0.03595800 </v>
    </varray>
   </crystal>
   <varray name="positions" >
    <v>       0.08294882       0.17170109       0.54847912 </v>
    <v>       0.08255662       0.41428962       0.54501504 </v>
    <v>       0.08521638       0.66004073       0.53806245 </v>
    <v>       0.07719185       0.90224934       0.54179684 </v>
    <v>       0.33148535       0.17079664       0.54904951 </v>
    <v>       0.33244588       0.42519637       0.54658672 </v>
    <v>       0.33011093       0.65937652       0.54726434 </v>
    <v>       0.32053936       0.91336565       0.54384484 </v>
    <v>       0.58005522       0.16990421       0.54174725 </v>
    <v>       0.58525215       0.41485234       0.54396125 </v>
    <v>       0.58379761       0.66694181       0.54376784 </v>
    <v>       0.59392139       0.91059274       0.54546682 </v>
    <v>       0.83014120       0.16809755       0.54382410 </v>
    <v>       0.83192597       0.41800575       0.54870979 </v>
    <v>       0.83202239       0.66803356       0.53972283 </v>
    <v>       0.83786471       0.92127669       0.54617445 </v>
    <v>       0.16584820       0.08754219       0.45603451 </v>
    <v>       0.17254052       0.33824005       0.45763414 </v>
    <v>       0.17242456       0.57957872       0.46103412 </v>
    <v>       0.16138722       0.82431872       0.44920847 </v>
    <v>       0.40874125       0.08424378       0.45551239 </v>
    <v>       0.41389528       0.33119775       0.45623430 </v>
    <v>       0.41962532       0.58329475       0.45570614 </v>
    <v>       0.43474800       0.84630590       0.45741531 </v>
    <v>       0.66848272       0.08702241       0.45548287 </v>
    <v>       0.67806316       0.32921656       0.45390371 </v>
    <v>       0.66273245       0.58166813       0.45493864 </v>
    <v>       0.67491751       0.83220672       0.45604753 </v>
    <v>       0.91750808       0.08555807       0.45710133 </v>
    <v>       0.91878795       0.33415249       0.45686461 </v>
    <v>       0.90124065       0.57664657       0.45420857 </v>
    <v>       0.92639784       0.84988583       0.44855145 </v>
    <v>       0.08889716       0.16546182       0.39442563 </v>
    <v>       0.08823327       0.42247997       0.39444690 </v>
    <v>       0.08248510       0.65612534       0.39719286 </v>
    <v>       0.09366912       0.92130955       0.39240393 </v>
    <v>       0.33221470       0.16869751       0.39376608 </v>
    <v>       0.33626372       0.41527397       0.39662719 </v>
    <v>       0.33454427       0.67760061       0.39762405 </v>
    <v>       0.32652084       0.91773508       0.39510547 </v>
    <v>       0.58784830       0.17560474       0.39473553 </v>
    <v>       0.58938782       0.41955278       0.39256410 </v>
    <v>       0.58441000       0.67758909       0.39353925 </v>
    <v>       0.58460399       0.91968585       0.39135541 </v>
    <v>       0.83041967       0.15999867       0.39077581 </v>
    <v>       0.83931629       0.41894819       0.39943211 </v>
    <v>       0.82749127       0.66473531       0.39314850 </v>
    <v>       0.83246189       0.91677170       0.39251672 </v>
    <v>       0.15767422       0.08091526       0.60432883 </v>
    <v>       0.17741902       0.33589381       0.60889548 </v>
    <v>       0.15711810       0.58072707       0.60511177 </v>
    <v>       0.16473799       0.83913619       0.60331815 </v>
    <v>       0.41097882       0.07972647       0.60788166 </v>
    <v>       0.42345931       0.33541875       0.60314651 </v>
    <v>       0.41697122       0.57594663       0.61080750 </v>
    <v>       0.41444210       0.82834014       0.60528923 </v>
    <v>       0.65787578       0.09014521       0.60106375 </v>
    <v>       0.65199975       0.32538462       0.60481613 </v>
    <v>       0.67372566       0.58520267       0.59750320 </v>
    <v>       0.66874173       0.83352259       0.61325936 </v>
    <v>       0.90484458       0.07868804       0.60799764 </v>
    <v>       0.91088366       0.31870555       0.60725986 </v>
    <v>       0.91208333       0.57040191       0.60851938 </v>
    <v>       0.92148638       0.83528479       0.60331089 </v>
    <v>       0.99667276       0.00529205       0.49641709 </v>
    <v>       0.99567343       0.24691122       0.49951255 </v>
    <v>       0.99165606       0.49397647       0.50155888 </v>
    <v>       0.99729510       0.74337698       0.49351826 </v>
    <v>       0.24642194       0.00395795       0.50113353 </v>
    <v>       0.24504038       0.26189829       0.50233895 </v>
    <v>       0.25630987       0.50235562       0.50308636 </v>
    <v>       0.25047680       0.74057070       0.50061739 </v>
    <v>       0.49089724       0.00418967       0.50011410 </v>
    <v>       0.50069074       0.25030557       0.49837997 </v>
    <v>       0.50650306       0.49740091       0.49839884 </v>
    <v>       0.50849416       0.75300735       0.49513567 </v>
    <v>       0.74792464       0.99637869       0.50302678 </v>
    <v>       0.75467199       0.24653109       0.49772315 </v>
    <v>       0.74639102       0.49684949       0.50011947 </v>
    <v>       0.75898117       0.76182598       0.50494569 </v>
   </varray>
  </structure>
  <varray name="forces" >
   <v>      -0.08444568      -0.24334466      -0.70525747 </v>
   <v>      -0.60997948      -0.28597264       0.59649742 </v>
   <v>      -1.02635813       0.32045713       1.27372523 </v>
   <v>      -0.11342493       1.08355253      -0.50882298 </v>
   <v>       0.21482867      -0.68460826      -0.79622197 </v>
   <v>       1.09208118      -0.95926798       0.02882238 </v>
   <v>      -0.11455745       1.28346173       0.12264535 </v>
   <v>       1.34349303       0.48308231      -0.15119048 </v>
   <v>      -0.20540492      -0.82833687       0.23778389 </v>
   <v>      -0.20394772      -0.13840392      -0.77467180 </v>
   <v>       0.42266145       0.17631326       0.20887128 </v>
   <v>      -1.08205423       0.46054955       0.56217376 </v>
   <v>       0.28482299      -0.50081103       0.36608230 </v>
   <v>       0.27788405      -0.05955722      -0.58882035 </v>
   <v>       0.47332864       0.30128384       0.57208922 </v>
   <v>       0.00702230      -0.25806476      -0.14573110 </v>
   <v>       0.03640419       0.01693341       0.48304938 </v>
   <v>      -0.52515857      -0.61964352      -0.63554346 </v>
   <v>      -0.35433999       0.38739024      -2.00980411 </v>
   <v>       0.09221180       0.00242168       0.83783228 </v>
   <v>       0.57252835      -0.05422097       0.23870895 </v>
   <v>       0.58919383       0.33531164       0.07205673 </v>
   <v>       0.03417951       0.59573256      -0.39360076 </v>
   <v>      -1.05795415      -0.78695016      -0.48069341 </v>
   <v>       0.02827110      -0.56255702      -0.33690397 </v>
   <v>      -1.80503600       0.24488809       0.53452846 </v>
   <v>       0.17796457      -0.37356425      -0.44346664 </v>
   <v>      -0.61180903       0.44321472      -0.01484214 </v>
   <v>      -0.10438504       0.25319354      -0.66373675 </v>
   <v>       0.42667161      -0.25052636      -0.33973940 </v>
   <v>       1.02447380       0.85821967       0.24710722 </v>
   <v>      -0.04422947      -1.06568654       1.12282705 </v>
   <v>      -0.43865659       0.28218218       0.19593921 </v>
   <v>       0.10630126      -0.26884255       0.49759680 </v>
   <v>      -0.18176312       0.03122754      -0.21469922 </v>
   <v>      -0.43956152      -0.00151395      -0.08357393 </v>
   <v>      -0.02203187       0.07828899       0.22673218 </v>
   <v>      -0.23910857       0.25718561      -0.13575126 </v>
   <v>       0.27499987      -0.49125904       0.21280141 </v>
   <v>       0.59296427       0.12405032      -0.08310204 </v>
   <v>       0.01282083      -0.53487368      -0.11413694 </v>
   <v>      -0.21171833      -0.03765956       0.50340734 </v>
   <v>       0.27280297      -0.58417559       0.20985752 </v>
   <v>      -0.01718768       0.16635500       0.63250294 </v>
   <v>       0.04201150       0.27455832       0.70702621 </v>
   <v>       0.12386889      -0.32770886      -1.25180224 </v>
   <v>       0.09183748       0.22307429       0.11154392 </v>
   <v>      -0.00555326       0.20222880      -0.03046771 </v>
   <v>       0.21669968      -0.01583317       0.03160845 </v>
   <v>      -0.65052788      -0.05975480      -0.18959921 </v>
   <v>       0.36110786      -0.04831677      -0.13242732 </v>
   <v>      -0.00995332      -0.68369986       0.14070498 </v>
   <v>      -0.11674033       0.06579889      -0.52682439 </v>
   <v>      -0.38865594       0.14921783       0.46889638 </v>
   <v>      -0.00723909       0.49871642      -0.57750722 </v>
   <v>       0.00092169       0.05912042      -0.35137616 </v>
   <v>       0.49692811      -0.49231770       0.23260685 </v>
   <v>       0.58941951       0.30008008       0.12329375 </v>
   <v>      -0.29409209      -0.00264181       0.99730728 </v>
   <v>      -0.14150789      -0.14709636      -0.96449757 </v>
   <v>       0.40027243       0.32742681      -0.22566997 </v>
   <v>      -0.00997029       0.63236324      -0.21938355 </v>
   <v>      -0.10623943       0.56767483      -0.43704200 </v>
   <v>      -0.02722814      -0.31781800       0.04659696 </v>
   <v>       0.72741085      -0.39687043       0.46127821 </v>
   <v>       0.32907447       0.70110101       0.59981206 </v>
   <v>       0.84090246      -0.07650748       0.19734146 </v>
   <v>      -0.01873566       0.71370135       0.67561968 </v>
   <v>      -0.07542242      -0.29327485      -0.14508805 </v>
   <v>       1.03952667      -0.87277694       0.11968153 </v>
   <v>      -0.46451331      -0.15645799      -0.14134947 </v>
   <v>      -0.42247970       0.45773930       0.25613351 </v>
   <v>       0.78588981      -0.23555397      -0.39430891 </v>
   <v>      -0.46143406       0.06422747       0.30719704 </v>
   <v>      -1.02586447       0.72594208       0.19129353 </v>
   <v>       0.10914155      -0.37781372       1.50489313 </v>
   <v>       0.05852866       0.42664183      -0.61065252 </v>
   <v>      -0.82891287       0.25402361       0.25981775 </v>
   <v>       0.42512308       0.22118865      -0.23491876 </v>
   <v>      -0.44839235      -0.95583752      -1.36306577 </v>
  </varray>
  <varray name="stress" >
   <v>       1.99387256      -0.16122066       1.34717336 </v>
   <v>      -0.16122068       2.02723714       1.72707166 </v>
   <v>       1.34717335       1.72707167      -3.35350979 </v>
  </varray>
  <energy>
   <i name="e_fr_energy">   -526.16039219 </i>
   <i name="e_wo_entrp">   -526.16039219 </i>
   <i name="e_0_energy">     -0.00000000 </i>
  </energy>
  <time name="totalsc"> 5152.77 5153.22</time>
  <eigenvalues>
   <array>
    <dimension dim="1">band</dimension>
    <dimension dim="2">kpoint</dimension>
    <dimension dim="3">spin</dimension>
    <field>eigene</field>
    <field>occ</field>
    <set>
     <set comment="spin 1">
      <set comment="kpoint 1">
       <r>  -51.8083    1.0000 </r>
       <r>  -51.7780    1.0000 </r>
       <r>  -51.7704    1.0000 </r>
       <r>  -51.7557    1.0000 </r>
       <r>  -51.7073    1.0000 </r>
       <r>  -51.6932    1.0000 </r>
       <r>  -51.6644    1.0000 </r>
       <r>  -51.6359    1.0000 </r>
       <r>  -51.6131    1.0000 </r>
       <r>  -51.6122    1.0000 </r>
       <r>  -51.5438    1.0000 </r>
       <r>  -51.5209    1.0000 </r>
       <r>  -51.5107    1.0000 </r>
       <r>  -51.4992    1.0000 </r>
       <r>  -51.4581    1.0000 </r>
       <r>  -51.4441    1.0000 </r>
       <r>  -51.4310    1.0000 </r>
       <r>  -51.4068    1.0000 </r>
       <r>  -51.3792    1.0000 </r>
       <r>  -51.3048    1.0000 </r>
       <r>  -51.2986    1.0000 </r>
       <r>  -51.2964    1.0000 </r>
       <r>  -51.2775    1.0000 </r>
       <r>  -51.2694    1.0000 </r>
       <r>  -51.2593    1.0000 </r>
       <r>  -51.2446    1.0000 </r>
       <r>  -51.2335    1.0000 </r>
       <r>  -51.2281    1.0000 </r>
       <r>  -51.2172    1.0000 </r>
       <r>  -51.2111    1.0000 </r>
       <r>  -51.1910    1.0000 </r>
       <r>  -51.1876    1.0000 </r>
       <r>  -30.5102    1.0000 </r>
       <r>  -30.4970    1.0000 </r>
       <r>  -30.4741    1.0000 </r>
       <r>  -30.4667    1.0000 </r>
       <r>  -30.4611    1.0000 </r>
       <r>  -30.4531    1.0000 </r>
       <r>  -30.4446    1.0000 </r>
       <r>  -30.4391    1.0000 </r>
       <r>  -30.4365    1.0000 </r>
       <r>  -30.4305    1.0000 </r>
       <r>  -30.4067    1.0000 </r>
       <r>  -30.4043    1.0000 </r>
       <r>  -30.3941    1.0000 </r>
       <r>  -30.3910    1.0000 </r>
       <r>  -30.3732    1.0000 </r>
       <r>  -30.3730    1.0000 </r>
       <r>  -30.3657    1.0000 </r>
       <r>  -30.3576    1.0000 </r>
       <r>  -30.3467    1.0000 </r>
       <r>  -30.3419    1.0000 </r>
       <r>  -30.3283    1.0000 </r>
       <r>  -30.3262    1.0000 </r>
       <r>  -30.3177    1.0000 </r>
       <r>  -30.3118    1.0000 </r>
       <r>  -30.2966    1.0000 </r>
       <r>  -30.2892    1.0000 </r>
       <r>  -30.2739    1.0000 </r>
       <r>  -30.2686    1.0000 </r>
       <r>  -30.2449    1.0000 </r>
       <r>  -30.2339    1.0000 </r>
       <r>  -30.2296    1.0000 </r>
       <r>  -30.2254    1.0000 </r>
       <r>  -30.2088    1.0000 </r>
       <r>  -30.2044    1.0000 </r>
       <r>  -30.1949    1.0000 </r>
       <r>  -30.1909    1.0000 </r>
       <r>  -30.1885    1.0000 </r>
       <r>  -30.1809    1.0000 </r>
       <r>  -30.1744    1.0000 </r>
       <r>  -30.1617    1.0000 </r>
       <r>  -30.1481    1.0000 </r>
       <r>  -30.1371    1.0000 </r>
       <r>  -30.1306    1.0000 </r>
       <r>  -30.1282    1.0000 </r>
       <r>  -30.1187    1.0000 </r>
       <r>  -30.1101    1.0000 </r>
       <r>  -30.1032    1.0000 </r>
       <r>  -30.0992    1.0000 </r>
       <r>  -30.0905    1.0000 </r>
       <r>  -30.0851    1.0000 </r>
       <r>  -30.0799    1.0000 </r>
       <r>  -30.0723    1.0000 </r>
       <r>  -30.0649    1.0000 </r>
       <r>  -30.0570    1.0000 </r>
       <r>  -30.0517    1.0000 </r>
       <r>  -30.0392    1.0000 </r>
       <r>  -30.0314    1.0000 </r>
       <r>  -30.0289    1.0000 </r>
       <r>  -30.0262    1.0000 </r>
       <r>  -30.0088    1.0000 </r>
       <r>  -29.9995    1.0000 </r>
       <r>  -29.9919    1.0000 </r>
       <r>  -29.9723    1.0000 </r>
       <r>  -29.9690    1.0000 </r>
       <r>  -29.9526    1.0000 </r>
       <r>  -29.9497    1.0000 </r>
       <r>  -29.9462    1.0000 </r>
       <r>  -29.9437    1.0000 </r>
       <r>  -29.9405    1.0000 </r>
       <r>  -29.9314    1.0000 </r>
       <r>  -29.9304    1.0000 </r>
       <r>  -29.9266    1.0000 </r>
       <r>  -29.9169    1.0000 </r>
       <r>  -29.9150    1.0000 </r>
       <r>  -29.9119    1.0000 </r>
       <r>  -29.8991    1.0000 </r>
       <r>  -29.8930    1.0000 </r>
       <r>  -29.8837    1.0000 </r>
       <r>  -29.8812    1.0000 </r>
       <r>  -29.8774    1.0000 </r>
       <r>  -29.8736    1.0000 </r>
       <r>  -29.8710    1.0000 </r>
       <r>  -29.8645    1.0000 </r>
       <r>  -29.8540    1.0000 </r>
       <r>  -29.8491    1.0000 </r>
       <r>  -29.8420    1.0000 </r>
       <r>  -29.8367    1.0000 </r>
       <r>  -29.8340    1.0000 </r>
       <r>  -29.8309    1.0000 </r>
       <r>  -29.8235    1.0000 </r>
       <r>  -29.8213    1.0000 </r>
       <r>  -29.8117    1.0000 </r>
       <r>  -29.8037    1.0000 </r>
       <r>  -29.7968    1.0000 </r>
       <r>  -29.7906    1.0000 </r>
       <r>  -29.7725    1.0000 </r>
       <r>  -18.6531    1.0000 </r>
       <r>  -18.5241    1.0000 </r>
       <r>  -18.4689    1.0000 </r>
       <r>  -18.3403    1.0000 </r>
       <r>  -18.3052    1.0000 </r>
       <r>  -18.2958    1.0000 </r>
       <r>  -18.2725    1.0000 </r>
       <r>  -18.2449    1.0000 </r>
       <r>  -18.2179    1.0000 </r>
       <r>  -18.1650    1.0000 </r>
       <r>  -18.1005    1.0000 </r>
       <r>  -18.0863    1.0000 </r>
       <r>  -18.0482    1.0000 </r>
       <r>  -18.0421    1.0000 </r>
       <r>  -18.0358    1.0000 </r>
       <r>  -18.0014    1.0000 </r>
       <r>  -17.9884    1.0000 </r>
       <r>  -17.9686    1.0000 </r>
       <r>  -17.9328    1.0000 </r>
       <r>  -17.9084    1.0000 </r>
       <r>  -17.8970    1.0000 </r>
       <r>  -17.8456    1.0000 </r>
       <r>  -17.8374    1.0000 </r>
       <r>  -17.7407    1.0000 </r>
       <r>  -17.7031    1.0000 </r>
       <r>  -17.7017    1.0000 </r>
       <r>  -17.6547    1.0000 </r>
       <r>  -17.6493    1.0000 </r>
       <r>  -17.6452    1.0000 </r>
       <r>  -17.5982    1.0000 </r>
       <r>  -17.5902    1.0000 </r>
       <r>  -17.5563    1.0000 </r>
       <r>  -11.8525    1.0000 </r>
       <r>  -11.5652    1.0000 </r>
       <r>  -11.4317    1.0000 </r>
       <r>  -11.4247    1.0000 </r>
       <r>  -11.3745    1.0000 </r>
       <r>  -11.3580    1.0000 </r>
       <r>  -11.2840    1.0000 </r>
       <r>  -11.0677    1.0000 </r>
       <r>  -10.9602    1.0000 </r>
       <r>  -10.9473    1.0000 </r>
       <r>  -10.9124    1.0000 </r>
       <r>  -10.9098    1.0000 </r>
       <r>  -10.8859    1.0000 </r>
       <r>  -10.8640    1.0000 </r>
       <r>  -10.8169    1.0000 </r>
       <r>  -10.7017    1.0000 </r>
       <r>   -8.0043    1.0000 </r>
       <r>   -7.9667    1.0000 </r>
       <r>   -7.9030    1.0000 </r>
       <r>   -7.8179    1.0000 </r>
       <r>   -7.7688    1.0000 </r>
       <r>   -7.7025    1.0000 </r>
       <r>   -7.6025    1.0000 </r>
       <r>   -7.5613    1.0000 </r>
       <r>   -7.5395    1.0000 </r>
       <r>   -7.5161    1.0000 </r>
       <r>   -7.4965    1.0000 </r>
       <r>   -7.3974    1.0000 </r>
       <r>   -7.3945    1.0000 </r>
       <r>   -7.3818    1.0000 </r>
       <r>   -7.3565    1.0000 </r>
       <r>   -7.3219    1.0000 </r>
       <r>   -7.2917    1.0000 </r>
       <r>   -7.2704    1.0000 </r>
       <r>   -7.2463    1.0000 </r>
       <r>   -7.1983    1.0000 </r>
       <r>   -7.1112    1.0000 </r>
       <r>   -7.0755    1.0000 </r>
       <r>   -7.0420    1.0000 </r>
       <r>   -6.9976    1.0000 </r>
       <r>   -6.9940    1.0000 </r>
       <r>   -6.9546    1.0000 </r>
       <r>   -6.9274    1.0000 </r>
       <r>   -6.9034    1.0000 </r>
       <r>   -6.8779    1.0000 </r>
       <r>   -6.8476    1.0000 </r>
       <r>   -6.8390    1.0000 </r>
       <r>   -6.8244    1.0000 </r>
       <r>   -6.8193    1.0000 </r>
       <r>   -6.7924    1.0000 </r>
       <r>   -6.7746    1.0000 </r>
       <r>   -6.7530    1.0000 </r>
       <r>   -6.7482    1.0000 </r>
       <r>   -6.7104    1.0000 </r>
       <r>   -6.6872    1.0000 </r>
       <r>   -6.6751    1.0000 </r>
       <r>   -6.6587    1.0000 </r>
       <r>   -6.6543    1.0000 </r>
       <r>   -6.6396    1.0000 </r>
       <r>   -6.6193    1.0000 </r>
       <r>   -6.6039    1.0000 </r>
       <r>   -6.5904    1.0000 </r>
       <r>   -6.5706    1.0000 </r>
       <r>   -6.5669    1.0000 </r>
       <r>   -6.5537    1.0000 </r>
       <r>   -6.5461    1.0000 </r>
       <r>   -6.4969    1.0000 </r>
       <r>   -6.4937    1.0000 </r>
       <r>   -6.4869    1.0000 </r>
       <r>   -6.4654    1.0000 </r>
       <r>   -6.4505    1.0000 </r>
       <r>   -6.4399    1.0000 </r>
       <r>   -6.4161    1.0000 </r>
       <r>   -6.4150    1.0000 </r>
       <r>   -6.3961    1.0000 </r>
       <r>   -6.3726    1.0000 </r>
       <r>   -6.3650    1.0000 </r>
       <r>   -6.3462    1.0000 </r>
       <r>   -6.3448    1.0000 </r>
       <r>   -6.3243    1.0000 </r>
       <r>   -6.3183    1.0000 </r>
       <r>   -6.2948    1.0000 </r>
       <r>   -6.2795    1.0000 </r>
       <r>   -6.2680    1.0000 </r>
       <r>   -6.2565    1.0000 </r>
       <r>   -6.2428    1.0000 </r>
       <r>   -6.2368    1.0000 </r>
       <r>   -6.2271    1.0000 </r>
       <r>   -6.1835    1.0000 </r>
       <r>   -6.1114    1.0000 </r>
       <r>   -5.8821    1.0000 </r>
       <r>   -5.8446    1.0000 </r>
       <r>   -5.8144    1.0000 </r>
       <r>   -5.7806    1.0000 </r>
       <r>   -5.7320    1.0000 </r>
       <r>   -5.6922    1.0000 </r>
       <r>   -5.6555    1.0000 </r>
       <r>   -5.6269    1.0000 </r>
       <r>   -5.5405    1.0000 </r>
       <r>   -5.5320    1.0000 </r>
       <r>   -5.5133    1.0000 </r>
       <r>   -5.4941    1.0000 </r>
       <r>   -5.4671    1.0000 </r>
       <r>   -5.4151    1.0000 </r>
       <r>   -5.3943    1.0000 </r>
       <r>   -5.3582    1.0000 </r>
       <r>   -5.3255    1.0000 </r>
       <r>   -5.3067    1.0000 </r>
       <r>   -5.2903    1.0000 </r>
       <r>   -5.2267    1.0000 </r>
       <r>   -5.1391    1.0000 </r>
       <r>   -5.0884    1.0000 </r>
       <r>   -4.9503    1.0000 </r>
       <r>   -4.8942    1.0000 </r>
       <r>   -4.8386    1.0000 </r>
       <r>   -4.6847    1.0000 </r>
       <r>   -4.6606    1.0000 </r>
       <r>   -4.6310    1.0000 </r>
       <r>   -4.5834    1.0000 </r>
       <r>   -4.5625    1.0000 </r>
       <r>   -4.5438    1.0000 </r>
       <r>   -4.3269    1.0000 </r>
       <r>   -4.2522    1.0000 </r>
       <r>   -4.2073    1.0000 </r>
       <r>   -4.1752    1.0000 </r>
       <r>   -4.1470    1.0000 </r>
       <r>   -4.1277    1.0000 </r>
       <r>   -4.1199    1.0000 </r>
       <r>   -4.0772    1.0000 </r>
       <r>   -4.0498    1.0000 </r>
       <r>   -4.0271    1.0000 </r>
       <r>   -4.0038    1.0000 </r>
       <r>   -3.9674    1.0000 </r>
       <r>   -3.9607    1.0000 </r>
       <r>   -3.9290    1.0000 </r>
       <r>   -3.8827    1.0000 </r>
       <r>   -3.8401    1.0000 </r>
       <r>   -3.8271    1.0000 </r>
       <r>   -3.8127    1.0000 </r>
       <r>   -3.7840    1.0000 </r>
       <r>   -3.7594    1.0000 </r>
       <r>   -3.7306    1.0000 </r>
       <r>   -3.6888    1.0000 </r>
       <r>   -3.6797    1.0000 </r>
       <r>   -3.6545    1.0000 </r>
       <r>   -3.6297    1.0000 </r>
       <r>   -3.5828    1.0000 </r>
       <r>   -3.5195    1.0000 </r>
       <r>   -3.4243    1.0000 </r>
       <r>   -3.4012    1.0000 </r>
       <r>   -3.3628    1.0000 </r>
       <r>   -3.3435    1.0000 </r>
       <r>   -3.2991    1.0000 </r>
       <r>   -3.2831    1.0000 </r>
       <r>   -3.2553    1.0000 </r>
       <r>   -3.2111    1.0000 </r>
       <r>   -3.1780    1.0000 </r>
       <r>   -3.1681    1.0000 </r>
       <r>   -3.0070    1.0000 </r>
       <r>   -2.9876    1.0000 </r>
       <r>   -2.1503    0.0000 </r>
       <r>   -2.1303    0.0000 </r>
       <r>   -2.0940    0.0000 </r>
       <r>   -1.5507    0.0000 </r>
       <r>   -1.5239    0.0000 </r>
       <r>   -1.4985    0.0000 </r>
       <r>   -1.4336    0.0000 </r>
       <r>   -1.4024    0.0000 </r>
       <r>   -1.3750    0.0000 </r>
       <r>   -0.7587    0.0000 </r>
       <r>   -0.7267    0.0000 </r>
       <r>   -0.6881    0.0000 </r>
       <r>   -0.6645    0.0000 </r>
       <r>   -0.6424    0.0000 </r>
       <r>   -0.5926    0.0000 </r>
       <r>   -0.5795    0.0000 </r>
       <r>   -0.5553    0.0000 </r>
       <r>   -0.5338    0.0000 </r>
       <r>   -0.5055    0.0000 </r>
       <r>   -0.4580    0.0000 </r>
       <r>   -0.4442    0.0000 </r>
       <r>   -0.4048    0.0000 </r>
       <r>   -0.3501    0.0000 </r>
       <r>   -0.3131    0.0000 </r>
       <r>   -0.0375    0.0000 </r>
       <r>    0.0359    0.0000 </r>
       <r>    0.0649    0.0000 </r>
       <r>    0.0748    0.0000 </r>
       <r>    0.0907    0.0000 </r>
       <r>    0.1174    0.0000 </r>
       <r>    0.1355    0.0000 </r>
       <r>    0.1894    0.0000 </r>
       <r>    0.2172    0.0000 </r>
       <r>    0.2375    0.0000 </r>
       <r>    0.2751    0.0000 </r>
       <r>    0.3095    0.0000 </r>
       <r>    0.4939    0.0000 </r>
       <r>    0.5424    0.0000 </r>
       <r>    0.5680    0.0000 </r>
       <r>    0.5778    0.0000 </r>
       <r>    0.6139    0.0000 </r>
       <r>    0.6369    0.0000 </r>
       <r>    0.6476    0.0000 </r>
       <r>    0.6628    0.0000 </r>
       <r>    0.6747    0.0000 </r>
       <r>    0.7061    0.0000 </r>
       <r>    0.7258    0.0000 </r>
       <r>    0.7383    0.0000 </r>
       <r>    0.7561    0.0000 </r>
       <r>    0.7789    0.0000 </r>
       <r>    0.7797    0.0000 </r>
       <r>    0.8009    0.0000 </r>
       <r>    0.8144    0.0000 </r>
       <r>    0.8379    0.0000 </r>
       <r>    0.8416    0.0000 </r>
       <r>    0.8498    0.0000 </r>
       <r>    0.8661    0.0000 </r>
       <r>    0.8815    0.0000 </r>
       <r>    0.8853    0.0000 </r>
       <r>    0.9146    0.0000 </r>
       <r>    0.9287    0.0000 </r>
       <r>    0.9363    0.0000 </r>
       <r>    0.9816    0.0000 </r>
       <r>    0.9955    0.0000 </r>
      </set>
      <set comment="kpoint 2">
       <r>  -51.8083    1.0000 </r>
       <r>  -51.7780    1.0000 </r>
       <r>  -51.7704    1.0000 </r>
       <r>  -51.7557    1.0000 </r>
       <r>  -51.7073    1.0000 </r>
       <r>  -51.6932    1.0000 </r>
       <r>  -51.6644    1.0000 </r>
       <r>  -51.6359    1.0000 </r>
       <r>  -51.6131    1.0000 </r>
       <r>  -51.6122    1.0000 </r>
       <r>  -51.5438    1.0000 </r>
       <r>  -51.5209    1.0000 </r>
       <r>  -51.5107    1.0000 </r>
       <r>  -51.4992    1.0000 </r>
       <r>  -51.4581    1.0000 </r>
       <r>  -51.4441    1.0000 </r>
       <r>  -51.4310    1.0000 </r>
       <r>  -51.4068    1.0000 </r>
       <r>  -51.3792    1.0000 </r>
       <r>  -51.3048    1.0000 </r>
       <r>  -51.2986    1.0000 </r>
       <r>  -51.2964    1.0000 </r>
       <r>  -51.2775    1.0000 </r>
       <r>  -51.2694    1.0000 </r>
       <r>  -51.2593    1.0000 </r>
       <r>  -51.2446    1.0000 </r>
       <r>  -51.2335    1.0000 </r>
       <r>  -51.2281    1.0000 </r>
       <r>  -51.2172    1.0000 </r>
       <r>  -51.2111    1.0000 </r>
       <r>  -51.1910    1.0000 </r>
       <r>  -51.1876    1.0000 </r>
       <r>  -30.5100    1.0000 </r>
       <r>  -30.4967    1.0000 </r>
       <r>  -30.4742    1.0000 </r>
       <r>  -30.4666    1.0000 </r>
       <r>  -30.4604    1.0000 </r>
       <r>  -30.4528    1.0000 </r>
       <r>  -30.4448    1.0000 </r>
       <r>  -30.4390    1.0000 </r>
       <r>  -30.4363    1.0000 </r>
       <r>  -30.4304    1.0000 </r>
       <r>  -30.4067    1.0000 </r>
       <r>  -30.4040    1.0000 </r>
       <r>  -30.3937    1.0000 </r>
       <r>  -30.3913    1.0000 </r>
       <r>  -30.3753    1.0000 </r>
       <r>  -30.3730    1.0000 </r>
       <r>  -30.3646    1.0000 </r>
       <r>  -30.3573    1.0000 </r>
       <r>  -30.3459    1.0000 </r>
       <r>  -30.3422    1.0000 </r>
       <r>  -30.3298    1.0000 </r>
       <r>  -30.3281    1.0000 </r>
       <r>  -30.3167    1.0000 </r>
       <r>  -30.3126    1.0000 </r>
       <r>  -30.2968    1.0000 </r>
       <r>  -30.2890    1.0000 </r>
       <r>  -30.2749    1.0000 </r>
       <r>  -30.2685    1.0000 </r>
       <r>  -30.2450    1.0000 </r>
       <r>  -30.2322    1.0000 </r>
       <r>  -30.2295    1.0000 </r>
       <r>  -30.2253    1.0000 </r>
       <r>  -30.2106    1.0000 </r>
       <r>  -30.2026    1.0000 </r>
       <r>  -30.1939    1.0000 </r>
       <r>  -30.1914    1.0000 </r>
       <r>  -30.1892    1.0000 </r>
       <r>  -30.1796    1.0000 </r>
       <r>  -30.1755    1.0000 </r>
       <r>  -30.1615    1.0000 </r>
       <r>  -30.1482    1.0000 </r>
       <r>  -30.1370    1.0000 </r>
       <r>  -30.1313    1.0000 </r>
       <r>  -30.1277    1.0000 </r>
       <r>  -30.1196    1.0000 </r>
       <r>  -30.1109    1.0000 </r>
       <r>  -30.1042    1.0000 </r>
       <r>  -30.0987    1.0000 </r>
       <r>  -30.0911    1.0000 </r>
       <r>  -30.0840    1.0000 </r>
       <r>  -30.0797    1.0000 </r>
       <r>  -30.0723    1.0000 </r>
       <r>  -30.0641    1.0000 </r>
       <r>  -30.0618    1.0000 </r>
       <r>  -30.0514    1.0000 </r>
       <r>  -30.0401    1.0000 </r>
       <r>  -30.0311    1.0000 </r>
       <r>  -30.0255    1.0000 </r>
       <r>  -30.0227    1.0000 </r>
       <r>  -30.0081    1.0000 </r>
       <r>  -29.9995    1.0000 </r>
       <r>  -29.9907    1.0000 </r>
       <r>  -29.9786    1.0000 </r>
       <r>  -29.9644    1.0000 </r>
       <r>  -29.9524    1.0000 </r>
       <r>  -29.9504    1.0000 </r>
       <r>  -29.9451    1.0000 </r>
       <r>  -29.9431    1.0000 </r>
       <r>  -29.9397    1.0000 </r>
       <r>  -29.9314    1.0000 </r>
       <r>  -29.9303    1.0000 </r>
       <r>  -29.9275    1.0000 </r>
       <r>  -29.9168    1.0000 </r>
       <r>  -29.9149    1.0000 </r>
       <r>  -29.9115    1.0000 </r>
       <r>  -29.8994    1.0000 </r>
       <r>  -29.8935    1.0000 </r>
       <r>  -29.8829    1.0000 </r>
       <r>  -29.8810    1.0000 </r>
       <r>  -29.8791    1.0000 </r>
       <r>  -29.8734    1.0000 </r>
       <r>  -29.8708    1.0000 </r>
       <r>  -29.8649    1.0000 </r>
       <r>  -29.8541    1.0000 </r>
       <r>  -29.8479    1.0000 </r>
       <r>  -29.8423    1.0000 </r>
       <r>  -29.8389    1.0000 </r>
       <r>  -29.8326    1.0000 </r>
       <r>  -29.8312    1.0000 </r>
       <r>  -29.8233    1.0000 </r>
       <r>  -29.8207    1.0000 </r>
       <r>  -29.8127    1.0000 </r>
       <r>  -29.8040    1.0000 </r>
       <r>  -29.7967    1.0000 </r>
       <r>  -29.7908    1.0000 </r>
       <r>  -29.7728    1.0000 </r>
       <r>  -18.6507    1.0000 </r>
       <r>  -18.5062    1.0000 </r>
       <r>  -18.4653    1.0000 </r>
       <r>  -18.3939    1.0000 </r>
       <r>  -18.3266    1.0000 </r>
       <r>  -18.2917    1.0000 </r>
       <r>  -18.2607    1.0000 </r>
       <r>  -18.2529    1.0000 </r>
       <r>  -18.1883    1.0000 </r>
       <r>  -18.1404    1.0000 </r>
       <r>  -18.0962    1.0000 </r>
       <r>  -18.0746    1.0000 </r>
       <r>  -18.0732    1.0000 </r>
       <r>  -18.0483    1.0000 </r>
       <r>  -18.0301    1.0000 </r>
       <r>  -17.9961    1.0000 </r>
       <r>  -17.9785    1.0000 </r>
       <r>  -17.9637    1.0000 </r>
       <r>  -17.9329    1.0000 </r>
       <r>  -17.9123    1.0000 </r>
       <r>  -17.9025    1.0000 </r>
       <r>  -17.8465    1.0000 </r>
       <r>  -17.8418    1.0000 </r>
       <r>  -17.7393    1.0000 </r>
       <r>  -17.7216    1.0000 </r>
       <r>  -17.7031    1.0000 </r>
       <r>  -17.6613    1.0000 </r>
       <r>  -17.6461    1.0000 </r>
       <r>  -17.6346    1.0000 </r>
[...]
       <r>   -32.3684     0.0000    64.0000 </r>
       <r>   -32.1747     0.0000    64.0000 </r>
       <r>   -31.9810     0.0000    64.0000 </r>
       <r>   -31.7873     0.0000    64.0000 </r>
       <r>   -31.5936     0.0000    64.0000 </r>
       <r>   -31.3999     0.0000    64.0000 </r>
       <r>   -31.2062     0.0000    64.0000 </r>
       <r>   -31.0125     0.0000    64.0000 </r>
       <r>   -30.8188     0.0000    64.0000 </r>
       <r>   -30.6251     0.0074    64.0014 </r>
       <r>   -30.4314    86.5677    80.7692 </r>
       <r>   -30.2377   224.1313   124.1823 </r>
       <r>   -30.0440   257.3200   174.0239 </r>
       <r>   -29.8503   303.0456   232.7224 </r>
       <r>   -29.6567   120.1699   255.9987 </r>
       <r>   -29.4630     0.0067   256.0000 </r>
       <r>   -29.2693     0.0000   256.0000 </r>
       <r>   -29.0756     0.0000   256.0000 </r>
       <r>   -28.8819     0.0000   256.0000 </r>
       <r>   -28.6882     0.0000   256.0000 </r>
       <r>   -28.4945     0.0000   256.0000 </r>
       <r>   -28.3008     0.0000   256.0000 </r>
       <r>   -28.1071     0.0000   256.0000 </r>
       <r>   -27.9134     0.0000   256.0000 </r>
       <r>   -27.7197     0.0000   256.0000 </r>
       <r>   -27.5260     0.0000   256.0000 </r>
       <r>   -27.3323     0.0000   256.0000 </r>
       <r>   -27.1386     0.0000   256.0000 </r>
       <r>   -26.9449     0.0000   256.0000 </r>
       <r>   -26.7512     0.0000   256.0000 </r>
       <r>   -26.5575     0.0000   256.0000 </r>
       <r>   -26.3638     0.0000   256.0000 </r>
       <r>   -26.1701     0.0000   256.0000 </r>
       <r>   -25.9764     0.0000   256.0000 </r>
       <r>   -25.7828     0.0000   256.0000 </r>
       <r>   -25.5891     0.0000   256.0000 </r>
       <r>   -25.3954     0.0000   256.0000 </r>
       <r>   -25.2017     0.0000   256.0000 </r>
       <r>   -25.0080     0.0000   256.0000 </r>
       <r>   -24.8143     0.0000   256.0000 </r>
       <r>   -24.6206     0.0000   256.0000 </r>
       <r>   -24.4269     0.0000   256.0000 </r>
       <r>   -24.2332     0.0000   256.0000 </r>
       <r>   -24.0395     0.0000   256.0000 </r>
       <r>   -23.8458     0.0000   256.0000 </r>
       <r>   -23.6521     0.0000   256.0000 </r>
       <r>   -23.4584     0.0000   256.0000 </r>
       <r>   -23.2647     0.0000   256.0000 </r>
       <r>   -23.0710     0.0000   256.0000 </r>
       <r>   -22.8773     0.0000   256.0000 </r>
       <r>   -22.6836     0.0000   256.0000 </r>
       <r>   -22.4899     0.0000   256.0000 </r>
       <r>   -22.2962     0.0000   256.0000 </r>
       <r>   -22.1025     0.0000   256.0000 </r>
       <r>   -21.9088     0.0000   256.0000 </r>
       <r>   -21.7152     0.0000   256.0000 </r>
       <r>   -21.5215     0.0000   256.0000 </r>
       <r>   -21.3278     0.0000   256.0000 </r>
       <r>   -21.1341     0.0000   256.0000 </r>
       <r>   -20.9404     0.0000   256.0000 </r>
       <r>   -20.7467     0.0000   256.0000 </r>
       <r>   -20.5530     0.0000   256.0000 </r>
       <r>   -20.3593     0.0000   256.0000 </r>
       <r>   -20.1656     0.0000   256.0000 </r>
       <r>   -19.9719     0.0000   256.0000 </r>
       <r>   -19.7782     0.0000   256.0000 </r>
       <r>   -19.5845     0.0000   256.0000 </r>
       <r>   -19.3908     0.0000   256.0000 </r>
       <r>   -19.1971     0.0000   256.0000 </r>
       <r>   -19.0034     0.0000   256.0000 </r>
       <r>   -18.8097     0.0000   256.0000 </r>
       <r>   -18.6160     8.6461   257.6747 </r>
       <r>   -18.4223    22.4167   262.0167 </r>
       <r>   -18.2286    49.3587   271.5773 </r>
       <r>   -18.0349    63.7173   283.9190 </r>
       <r>   -17.8413    83.0666   300.0086 </r>
       <r>   -17.6476    57.5935   311.1642 </r>
       <r>   -17.4539    45.5980   319.9963 </r>
       <r>   -17.2602     0.0193   320.0000 </r>
       <r>   -17.0665     0.0000   320.0000 </r>
       <r>   -16.8728     0.0000   320.0000 </r>
       <r>   -16.6791     0.0000   320.0000 </r>
       <r>   -16.4854     0.0000   320.0000 </r>
       <r>   -16.2917     0.0000   320.0000 </r>
       <r>   -16.0980     0.0000   320.0000 </r>
       <r>   -15.9043     0.0000   320.0000 </r>
       <r>   -15.7106     0.0000   320.0000 </r>
       <r>   -15.5169     0.0000   320.0000 </r>
       <r>   -15.3232     0.0000   320.0000 </r>
       <r>   -15.1295     0.0000   320.0000 </r>
       <r>   -14.9358     0.0000   320.0000 </r>
       <r>   -14.7421     0.0000   320.0000 </r>
       <r>   -14.5484     0.0000   320.0000 </r>
       <r>   -14.3547     0.0000   320.0000 </r>
       <r>   -14.1610     0.0000   320.0000 </r>
       <r>   -13.9674     0.0000   320.0000 </r>
       <r>   -13.7737     0.0000   320.0000 </r>
       <r>   -13.5800     0.0000   320.0000 </r>
       <r>   -13.3863     0.0000   320.0000 </r>
       <r>   -13.1926     0.0000   320.0000 </r>
       <r>   -12.9989     0.0000   320.0000 </r>
       <r>   -12.8052     0.0000   320.0000 </r>
       <r>   -12.6115     0.0000   320.0000 </r>
       <r>   -12.4178     0.0000   320.0000 </r>
       <r>   -12.2241     0.0000   320.0000 </r>
       <r>   -12.0304     0.0000   320.0000 </r>
       <r>   -11.8367     2.6332   320.5100 </r>
       <r>   -11.6430    13.1825   323.0634 </r>
       <r>   -11.4493    17.3651   326.4270 </r>
       <r>   -11.2556    23.9438   331.0648 </r>
       <r>   -11.0619    28.1378   336.5149 </r>
       <r>   -10.8682    47.3373   345.6839 </r>
       <r>   -10.6745    29.0778   351.3162 </r>
       <r>   -10.4808     3.5305   352.0000 </r>
       <r>   -10.2871     0.0000   352.0000 </r>
       <r>   -10.0934     0.0000   352.0000 </r>
       <r>    -9.8998     0.0000   352.0000 </r>
       <r>    -9.7061     0.0000   352.0000 </r>
       <r>    -9.5124     0.0000   352.0000 </r>
       <r>    -9.3187     0.0000   352.0000 </r>
       <r>    -9.1250     0.0000   352.0000 </r>
       <r>    -8.9313     0.0000   352.0000 </r>
       <r>    -8.7376     0.0000   352.0000 </r>
       <r>    -8.5439     0.0000   352.0000 </r>
       <r>    -8.3502     0.0000   352.0000 </r>
       <r>    -8.1565     0.0000   352.0000 </r>
       <r>    -7.9628     2.2301   352.4320 </r>
       <r>    -7.7691    30.5461   358.3486 </r>
       <r>    -7.5754    49.0641   367.8521 </r>
       <r>    -7.3817    66.1671   380.6683 </r>
       <r>    -7.1880    66.1723   393.4856 </r>
       <r>    -6.9943    58.5587   404.8281 </r>
       <r>    -6.8006    87.1677   421.7121 </r>
       <r>    -6.6069   114.0779   443.8084 </r>
       <r>    -6.4132    93.0555   461.8328 </r>
       <r>    -6.2195   110.1526   483.1688 </r>
       <r>    -6.0259    49.3473   492.7271 </r>
       <r>    -5.8322    62.1920   504.7734 </r>
       <r>    -5.6385    61.4232   516.6708 </r>
       <r>    -5.4448    61.7065   528.6230 </r>
       <r>    -5.2511    57.5294   539.7662 </r>
       <r>    -5.0574    21.3931   543.9099 </r>
       <r>    -4.8637    12.9818   546.4245 </r>
       <r>    -4.6700    36.9042   553.5726 </r>
       <r>    -4.4763    42.2208   561.7506 </r>
       <r>    -4.2826    27.4554   567.0685 </r>
       <r>    -4.0889    38.4215   574.5106 </r>
       <r>    -3.8952    53.7489   584.9215 </r>
       <r>    -3.7015    94.4615   603.2182 </r>
       <r>    -3.5078    75.5745   617.8566 </r>
       <r>    -3.3141    59.3870   629.3596 </r>
       <r>    -3.1204    41.6717   637.4312 </r>
       <r>    -2.9267    13.1911   639.9863 </r>
       <r>    -2.7330     0.0710   640.0000 </r>
       <r>    -2.5393     0.0000   640.0000 </r>
       <r>    -2.3456     0.0000   640.0000 </r>
       <r>    -2.1520     0.9585   640.1857 </r>
       <r>    -1.9583     9.4052   642.0074 </r>
       <r>    -1.7646    22.2692   646.3208 </r>
       <r>    -1.5709    12.1803   648.6801 </r>
       <r>    -1.3772    19.6935   652.4946 </r>
       <r>    -1.1835    23.6539   657.0763 </r>
       <r>    -0.9898    33.2130   663.5095 </r>
       <r>    -0.7961    11.0959   665.6587 </r>
       <r>    -0.6024    29.7401   671.4192 </r>
       <r>    -0.4087    38.4348   678.8639 </r>
       <r>    -0.2150    29.4905   684.5760 </r>
       <r>    -0.0213    33.6821   691.1001 </r>
       <r>     0.1724    37.3481   698.3342 </r>
       <r>     0.3661    35.5314   705.2165 </r>
       <r>     0.5598    58.0495   716.4604 </r>
       <r>     0.7535   108.7119   737.5173 </r>
       <r>     0.9472   123.8311   761.5028 </r>
       <r>     1.1409    33.5424   767.9998 </r>
       <r>     1.3346     0.0011   768.0000 </r>
       <r>     1.5283     0.0000   768.0000 </r>
       <r>     1.7220     0.0000   768.0000 </r>
       <r>     1.9156     0.0000   768.0000 </r>
       <r>     2.1093     0.0000   768.0000 </r>
       <r>     2.3030     0.0000   768.0000 </r>
       <r>     2.4967     0.0000   768.0000 </r>
       <r>     2.6904     0.0000   768.0000 </r>
       <r>     2.8841     0.0000   768.0000 </r>
       <r>     3.0778     0.0000   768.0000 </r>
       <r>     3.2715     0.0000   768.0000 </r>
       <r>     3.4652     0.0000   768.0000 </r>
       <r>     3.6589     0.0000   768.0000 </r>
      </set>
     </set>
    </array>
   </total>
  </dos>
 </calculation>
 <structure name="finalpos" >
  <crystal>
   <varray name="basis" >
    <v>      13.79398668       0.00000000       0.00000000 </v>
    <v>      -6.89699334      11.94594288       0.00000000 </v>
    <v>       0.00000000       0.00000000      27.81022107 </v>
   </varray>
   <i name="volume">   4582.62876984 </i>
   <varray name="rec_basis" >
    <v>       0.07249536       0.04185521       0.00000000 </v>
    <v>       0.00000000       0.08371043       0.00000000 </v>
    <v>       0.00000000       0.00000000       0.03595800 </v>
   </varray>
  </crystal>
  <varray name="positions" >
   <v>       0.08294882       0.17170109       0.54847912 </v>
   <v>       0.08255662       0.41428962       0.54501504 </v>
   <v>       0.08521638       0.66004073       0.53806245 </v>
   <v>       0.07719185       0.90224934       0.54179684 </v>
   <v>       0.33148535       0.17079664       0.54904951 </v>
   <v>       0.33244588       0.42519637       0.54658672 </v>
   <v>       0.33011093       0.65937652       0.54726434 </v>
   <v>       0.32053936       0.91336565       0.54384484 </v>
   <v>       0.58005522       0.16990421       0.54174725 </v>
   <v>       0.58525215       0.41485234       0.54396125 </v>
   <v>       0.58379761       0.66694181       0.54376784 </v>
   <v>       0.59392139       0.91059274       0.54546682 </v>
   <v>       0.83014120       0.16809755       0.54382410 </v>
   <v>       0.83192597       0.41800575       0.54870979 </v>
   <v>       0.83202239       0.66803356       0.53972283 </v>
   <v>       0.83786471       0.92127669       0.54617445 </v>
   <v>       0.16584820       0.08754219       0.45603451 </v>
   <v>       0.17254052       0.33824005       0.45763414 </v>
   <v>       0.17242456       0.57957872       0.46103412 </v>
   <v>       0.16138722       0.82431872       0.44920847 </v>
   <v>       0.40874125       0.08424378       0.45551239 </v>
   <v>       0.41389528       0.33119775       0.45623430 </v>
   <v>       0.41962532       0.58329475       0.45570614 </v>
   <v>       0.43474800       0.84630590       0.45741531 </v>
   <v>       0.66848272       0.08702241       0.45548287 </v>
   <v>       0.67806316       0.32921656       0.45390371 </v>
   <v>       0.66273245       0.58166813       0.45493864 </v>
   <v>       0.67491751       0.83220672       0.45604753 </v>
   <v>       0.91750808       0.08555807       0.45710133 </v>
   <v>       0.91878795       0.33415249       0.45686461 </v>
   <v>       0.90124065       0.57664657       0.45420857 </v>
   <v>       0.92639784       0.84988583       0.44855145 </v>
   <v>       0.08889716       0.16546182       0.39442563 </v>
   <v>       0.08823327       0.42247997       0.39444690 </v>
   <v>       0.08248510       0.65612534       0.39719286 </v>
   <v>       0.09366912       0.92130955       0.39240393 </v>
   <v>       0.33221470       0.16869751       0.39376608 </v>
   <v>       0.33626372       0.41527397       0.39662719 </v>
   <v>       0.33454427       0.67760061       0.39762405 </v>
   <v>       0.32652084       0.91773508       0.39510547 </v>
   <v>       0.58784830       0.17560474       0.39473553 </v>
   <v>       0.58938782       0.41955278       0.39256410 </v>
   <v>       0.58441000       0.67758909       0.39353925 </v>
   <v>       0.58460399       0.91968585       0.39135541 </v>
   <v>       0.83041967       0.15999867       0.39077581 </v>
   <v>       0.83931629       0.41894819       0.39943211 </v>
   <v>       0.82749127       0.66473531       0.39314850 </v>
   <v>       0.83246189       0.91677170       0.39251672 </v>
   <v>       0.15767422       0.08091526       0.60432883 </v>
   <v>       0.17741902       0.33589381       0.60889548 </v>
   <v>       0.15711810       0.58072707       0.60511177 </v>
   <v>       0.16473799       0.83913619       0.60331815 </v>
   <v>       0.41097882       0.07972647       0.60788166 </v>
   <v>       0.42345931       0.33541875       0.60314651 </v>
   <v>       0.41697122       0.57594663       0.61080750 </v>
   <v>       0.41444210       0.82834014       0.60528923 </v>
   <v>       0.65787578       0.09014521       0.60106375 </v>
   <v>       0.65199975       0.32538462       0.60481613 </v>
   <v>       0.67372566       0.58520267       0.59750320 </v>
   <v>       0.66874173       0.83352259       0.61325936 </v>
   <v>       0.90484458       0.07868804       0.60799764 </v>
   <v>       0.91088366       0.31870555       0.60725986 </v>
   <v>       0.91208333       0.57040191       0.60851938 </v>
   <v>       0.92148638       0.83528479       0.60331089 </v>
   <v>       0.99667276       0.00529205       0.49641709 </v>
   <v>       0.99567343       0.24691122       0.49951255 </v>
   <v>       0.99165606       0.49397647       0.50155888 </v>
   <v>       0.99729510       0.74337698       0.49351826 </v>
   <v>       0.24642194       0.00395795       0.50113353 </v>
   <v>       0.24504038       0.26189829       0.50233895 </v>
   <v>       0.25630987       0.50235562       0.50308636 </v>
   <v>       0.25047680       0.74057070       0.50061739 </v>
   <v>       0.49089724       0.00418967       0.50011410 </v>
   <v>       0.50069074       0.25030557       0.49837997 </v>
   <v>       0.50650306       0.49740091       0.49839884 </v>
   <v>       0.50849416       0.75300735       0.49513567 </v>
   <v>       0.74792464       0.99637869       0.50302678 </v>
   <v>       0.75467199       0.24653109       0.49772315 </v>
   <v>       0.74639102       0.49684949       0.50011947 </v>
   <v>       0.75898117       0.76182598       0.50494569 </v>
  </varray>
  <varray name="velocities" >
   <v>       0.00000000       0.00000000       0.00000000 </v>
   <v>       0.00000000       0.00000000       0.00000000 </v>
   <v>       0.00000000       0.00000000       0.00000000 </v>
   <v>       0.00000000       0.00000000       0.00000000 </v>
   <v>       0.00000000       0.00000000       0.00000000 </v>
   <v>       0.00000000       0.00000000       0.00000000 </v>
   <v>       0.00000000       0.00000000       0.00000000 </v>
   <v>       0.00000000       0.00000000       0.00000000 </v>
   <v>       0.00000000       0.00000000       0.00000000 </v>
   <v>       0.00000000       0.00000000       0.00000000 </v>
   <v>       0.00000000       0.00000000       0.00000000 </v>
   <v>       0.00000000       0.00000000       0.00000000 </v>
   <v>       0.00000000       0.00000000       0.00000000 </v>
   <v>       0.00000000       0.00000000       0.00000000 </v>
   <v>       0.00000000       0.00000000       0.00000000 </v>
   <v>       0.00000000       0.00000000       0.00000000 </v>
   <v>       0.00000000       0.00000000       0.00000000 </v>
   <v>       0.00000000       0.00000000       0.00000000 </v>
   <v>       0.00000000       0.00000000       0.00000000 </v>
   <v>       0.00000000       0.00000000       0.00000000 </v>
   <v>       0.00000000       0.00000000       0.00000000 </v>
   <v>       0.00000000       0.00000000       0.00000000 </v>
   <v>       0.00000000       0.00000000       0.00000000 </v>
   <v>       0.00000000       0.00000000       0.00000000 </v>
   <v>       0.00000000       0.00000000       0.00000000 </v>
   <v>       0.00000000       0.00000000       0.00000000 </v>
   <v>       0.00000000       0.00000000       0.00000000 </v>
   <v>       0.00000000       0.00000000       0.00000000 </v>
   <v>       0.00000000       0.00000000       0.00000000 </v>
   <v>       0.00000000       0.00000000       0.00000000 </v>
   <v>       0.00000000       0.00000000       0.00000000 </v>
   <v>       0.00000000       0.00000000       0.00000000 </v>
   <v>       0.00000000       0.00000000       0.00000000 </v>
   <v>       0.00000000       0.00000000       0.00000000 </v>
   <v>       0.00000000       0.00000000       0.00000000 </v>
   <v>       0.00000000       0.00000000       0.00000000 </v>
   <v>       0.00000000       0.00000000       0.00000000 </v>
   <v>       0.00000000       0.00000000       0.00000000 </v>
   <v>       0.00000000       0.00000000       0.00000000 </v>
   <v>       0.00000000       0.00000000       0.00000000 </v>
   <v>       0.00000000       0.00000000       0.00000000 </v>
   <v>       0.00000000       0.00000000       0.00000000 </v>
   <v>       0.00000000       0.00000000       0.00000000 </v>
   <v>       0.00000000       0.00000000       0.00000000 </v>
   <v>       0.00000000       0.00000000       0.00000000 </v>
   <v>       0.00000000       0.00000000       0.00000000 </v>
   <v>       0.00000000       0.00000000       0.00000000 </v>
   <v>       0.00000000       0.00000000       0.00000000 </v>
   <v>       0.00000000       0.00000000       0.00000000 </v>
   <v>       0.00000000       0.00000000       0.00000000 </v>
   <v>       0.00000000       0.00000000       0.00000000 </v>
   <v>       0.00000000       0.00000000       0.00000000 </v>
   <v>       0.00000000       0.00000000       0.00000000 </v>
   <v>       0.00000000       0.00000000       0.00000000 </v>
   <v>       0.00000000       0.00000000       0.00000000 </v>
   <v>       0.00000000       0.00000000       0.00000000 </v>
   <v>       0.00000000       0.00000000       0.00000000 </v>
   <v>       0.00000000       0.00000000       0.00000000 </v>
   <v>       0.00000000       0.00000000       0.00000000 </v>
   <v>       0.00000000       0.00000000       0.00000000 </v>
   <v>       0.00000000       0.00000000       0.00000000 </v>
   <v>       0.00000000       0.00000000       0.00000000 </v>
   <v>       0.00000000       0.00000000       0.00000000 </v>
   <v>       0.00000000       0.00000000       0.00000000 </v>
   <v>       0.00000000       0.00000000       0.00000000 </v>
   <v>       0.00000000       0.00000000       0.00000000 </v>
   <v>       0.00000000       0.00000000       0.00000000 </v>
   <v>       0.00000000       0.00000000       0.00000000 </v>
   <v>       0.00000000       0.00000000       0.00000000 </v>
   <v>       0.00000000       0.00000000       0.00000000 </v>
   <v>       0.00000000       0.00000000       0.00000000 </v>
   <v>       0.00000000       0.00000000       0.00000000 </v>
   <v>       0.00000000       0.00000000       0.00000000 </v>
   <v>       0.00000000       0.00000000       0.00000000 </v>
   <v>       0.00000000       0.00000000       0.00000000 </v>
   <v>       0.00000000       0.00000000       0.00000000 </v>
   <v>       0.00000000       0.00000000       0.00000000 </v>
   <v>       0.00000000       0.00000000       0.00000000 </v>
   <v>       0.00000000       0.00000000       0.00000000 </v>
   <v>       0.00000000       0.00000000       0.00000000 </v>
  </varray>
 </structure>
</modeling>
