<?xml version="1.0" encoding="ISO-8859-1"?>
<modeling>
 <generator>
  <i name="program" type="string">vasp </i>
  <i name="version" type="string">5.4.4.18Apr17-6-g9f103f2a35  </i>
  <i name="subversion" type="string">(build Oct 31 2019 15:01:46) complex            parallel </i>
  <i name="platform" type="string">LinuxIFC </i>
  <i name="date" type="string">2024 04 30 </i>
  <i name="time" type="string">01:24:33 </i>
 </generator>
 <incar>
  <i type="int" name="ISTART">     0</i>
  <i type="string" name="PREC">a</i>
  <i type="logical" name="ADDGRID"> T  </i>
  <i type="int" name="IBRION">    -1</i>
  <i name="EDIFF">      0.00000100</i>
  <i name="EDIFFG">     -0.01000000</i>
  <i type="int" name="NSW">     1</i>
  <i type="int" name="ISIF">     2</i>
  <i type="int" name="ISYM">     0</i>
  <i name="ENCUT">    600.00000000</i>
  <i name="POTIM">      1.00000000</i>
  <i type="string" name="LREAL">  Auto</i>
  <i type="int" name="ISMEAR">     0</i>
  <i name="SIGMA">      0.05000000</i>
  <i name="KSPACING">      0.30000000</i>
  <i type="logical" name="KGAMMA"> T  </i>
  <i type="logical" name="LWAVE"> F  </i>
  <i type="logical" name="LCHARG"> F  </i>
  <i type="logical" name="LSCALAPACK"> F  </i>
  <v type="int" name="KPOINT_BSE">    -1     0     0     0</v>
 </incar>
 <structure name="primitive_cell" >
  <crystal>
   <varray name="basis" >
    <v>      12.09378762       0.00000000       0.00000000 </v>
    <v>       0.00000000      12.09378762       0.00000000 </v>
    <v>       0.00000000       0.00000000      12.09378762 </v>
   </varray>
   <i name="volume">   1768.83373704 </i>
   <varray name="rec_basis" >
    <v>       0.08268708       0.00000000       0.00000000 </v>
    <v>       0.00000000       0.08268708       0.00000000 </v>
    <v>       0.00000000       0.00000000       0.08268708 </v>
   </varray>
  </crystal>
  <varray name="positions" >
   <v>      -0.42924148       0.13382458      -0.46153238 </v>
   <v>      -0.49241851      -0.01942375      -0.46219884 </v>
   <v>      -0.28187414       0.04707066       0.49336177 </v>
   <v>      -0.39969190       0.14287852      -0.27328836 </v>
   <v>       0.46203488       0.25031212       0.41230370 </v>
   <v>       0.39675444       0.00531964      -0.43406215 </v>
   <v>      -0.24317385       0.25646132      -0.47157868 </v>
   <v>       0.49285362       0.30906623      -0.34536716 </v>
   <v>      -0.43038651       0.27881314       0.34847771 </v>
   <v>       0.36661632       0.09454623      -0.33212922 </v>
   <v>       0.41981444       0.21594802      -0.27793306 </v>
   <v>      -0.17740745       0.13299769      -0.45630542 </v>
   <v>      -0.31400535       0.30477172      -0.31508936 </v>
   <v>      -0.20455498       0.05823222      -0.34954013 </v>
   <v>      -0.41485973       0.05001018       0.28623167 </v>
   <v>       0.29982229       0.07862433       0.46487856 </v>
   <v>      -0.40630283       0.40649960       0.43418393 </v>
   <v>      -0.37176387      -0.15183915       0.47109321 </v>
   <v>       0.33068027       0.19194729       0.36842505 </v>
   <v>      -0.43040305       0.08773366      -0.15662835 </v>
   <v>      -0.39117788       0.24301030       0.24724138 </v>
   <v>      -0.21779753       0.27580601       0.34492496 </v>
   <v>       0.37608266       0.09877156       0.27022505 </v>
   <v>      -0.25898930      -0.15314642      -0.34890678 </v>
   <v>      -0.32820630       0.12720568       0.19637885 </v>
   <v>       0.34902081       0.42232344      -0.43790859 </v>
   <v>      -0.07108898       0.05502694      -0.47817739 </v>
   <v>       0.28464722      -0.08897571      -0.38541488 </v>
   <v>      -0.25325768       0.01557964      -0.15723162 </v>
   <v>       0.43470255       0.27575696      -0.14407506 </v>
   <v>      -0.49397420      -0.20637613      -0.30900215 </v>
   <v>       0.27047649       0.30067861       0.37114662 </v>
   <v>      -0.13459166      -0.02835713       0.35175746 </v>
   <v>      -0.19301579       0.09108073       0.23775906 </v>
   <v>      -0.41252868       0.17798093      -0.07781864 </v>
   <v>      -0.42226880      -0.47714014       0.49077397 </v>
   <v>       0.45489367      -0.18404221       0.33914663 </v>
   <v>      -0.12089742       0.04256562      -0.23486994 </v>
   <v>       0.19378112       0.25657328      -0.44957795 </v>
   <v>       0.42442117      -0.23470079      -0.42914421 </v>
   <v>      -0.28494482      -0.12973443      -0.19904256 </v>
   <v>       0.45873360       0.01960970      -0.09454051 </v>
   <v>       0.44677485       0.33753607       0.21338197 </v>
   <v>       0.37548338       0.45019870      -0.26770261 </v>
   <v>       0.16980669       0.11247895      -0.33670819 </v>
   <v>      -0.43298695      -0.13704084      -0.13608238 </v>
   <v>      -0.08257018      -0.11616148      -0.44196703 </v>
   <v>       0.46259663      -0.45306801      -0.42736832 </v>
   <v>       0.28622561      -0.13807432       0.36411110 </v>
   <v>      -0.18131784      -0.16680208       0.34504786 </v>
   <v>      -0.33481097      -0.14951154       0.21746244 </v>
   <v>      -0.01616648       0.15060903      -0.29113150 </v>
   <v>      -0.13085068       0.11320798      -0.12053669 </v>
   <v>      -0.20876442       0.36703259       0.21653328 </v>
   <v>      -0.07756205      -0.07386367      -0.23873780 </v>
   <v>       0.32255928      -0.07167159       0.20281865 </v>
   <v>      -0.09305998       0.34564484      -0.21749405 </v>
   <v>       0.18821612       0.17995330       0.26550464 </v>
   <v>      -0.32679449      -0.41294307       0.45370235 </v>
   <v>      -0.24739529       0.25139573      -0.03901999 </v>
   <v>      -0.01089663       0.33823795       0.44204321 </v>
   <v>       0.47269343      -0.24076951      -0.18029017 </v>
   <v>       0.32078896       0.44576040       0.27442314 </v>
   <v>      -0.47768436      -0.44211546      -0.24193244 </v>
   <v>       0.17986271      -0.12382888       0.42831422 </v>
   <v>      -0.36693536      -0.49471306       0.23774548 </v>
   <v>      -0.10234966       0.48051801       0.46412013 </v>
   <v>       0.27982673       0.19068424      -0.07688541 </v>
   <v>       0.34111684       0.20503996       0.11515957 </v>
   <v>      -0.25502134       0.45476343      -0.13547268 </v>
   <v>      -0.28592384       0.11349300       0.06614253 </v>
   <v>       0.08885111       0.19144562       0.44108183 </v>
   <v>       0.43580883      -0.43376878       0.33272666 </v>
   <v>      -0.33802639      -0.39291710      -0.32446694 </v>
   <v>       0.47187824      -0.29500330       0.29394146 </v>
   <v>       0.32807740       0.40370706      -0.11064292 </v>
   <v>      -0.14737537       0.46081777      -0.19770272 </v>
   <v>      -0.12938828      -0.47591209      -0.33586437 </v>
   <v>      -0.23215101      -0.22684766       0.22347721 </v>
   <v>       0.35209472      -0.19939273      -0.12969542 </v>
   <v>      -0.42769114      -0.06493343       0.05682720 </v>
   <v>       0.07456890      -0.01327229      -0.39346902 </v>
   <v>      -0.04174397       0.23771285      -0.12561613 </v>
   <v>      -0.00029891       0.14544867       0.23619998 </v>
   <v>      -0.23610081      -0.21670404      -0.12116223 </v>
   <v>       0.47371439       0.38632967       0.08805025 </v>
   <v>      -0.39254491       0.38194145       0.00740870 </v>
   <v>      -0.22818174      -0.37353397      -0.41069209 </v>
   <v>       0.16667185      -0.10515837      -0.20274894 </v>
   <v>       0.15968294       0.47439341       0.48931949 </v>
   <v>       0.13545768      -0.17947474      -0.46127039 </v>
   <v>       0.10997758      -0.12983317      -0.32873268 </v>
   <v>       0.09820226       0.37199146      -0.31822974 </v>
   <v>       0.28798702      -0.43750869      -0.25144801 </v>
   <v>       0.28799754      -0.04821078      -0.01789452 </v>
   <v>      -0.05815896       0.33618649       0.16778446 </v>
   <v>       0.37237010      -0.24367356       0.16880740 </v>
   <v>       0.06839845      -0.09090237       0.39565424 </v>
   <v>       0.49625641      -0.48806406       0.12141191 </v>
   <v>       0.27007247      -0.34016925      -0.33872310 </v>
   <v>       0.10034293       0.09497490       0.20823040 </v>
   <v>      -0.03260316       0.45897886       0.27591896 </v>
   <v>       0.16064090       0.37394393       0.21225306 </v>
   <v>       0.19482118       0.08149551      -0.02757627 </v>
   <v>       0.09979670       0.41277034       0.35685205 </v>
   <v>      -0.12359840      -0.35366107       0.48929202 </v>
   <v>      -0.18902955      -0.17250482       0.10527286 </v>
   <v>       0.08902608       0.26451094      -0.15800033 </v>
   <v>      -0.08963219       0.25408340       0.01529852 </v>
   <v>       0.22524144      -0.17448224      -0.08148067 </v>
   <v>       0.16981441      -0.48708037      -0.22339748 </v>
   <v>      -0.10711975       0.00224937       0.03319415 </v>
   <v>      -0.28872773      -0.35145115       0.20436833 </v>
   <v>      -0.47872432      -0.33979391      -0.08547056 </v>
   <v>       0.13183646      -0.06758205       0.17085668 </v>
   <v>       0.35059009      -0.39570011      -0.13903114 </v>
   <v>       0.32053781       0.40911641       0.04442452 </v>
   <v>       0.03165028      -0.25398679      -0.31682838 </v>
   <v>       0.08260217       0.03653565      -0.09210911 </v>
   <v>       0.15058230       0.17402288       0.08035600 </v>
   <v>      -0.33982039      -0.42608041      -0.00615929 </v>
   <v>      -0.00283462       0.49202628      -0.14272021 </v>
   <v>      -0.06127648      -0.33185798       0.24681971 </v>
   <v>       0.11624933      -0.35540194      -0.47606450 </v>
   <v>       0.12277183      -0.41528547       0.29780529 </v>
   <v>       0.04889855      -0.19822519       0.17142528 </v>
   <v>      -0.13209150      -0.30563896       0.08800070 </v>
   <v>       0.09975247       0.41765257      -0.03379245 </v>
   <v>      -0.17872351      -0.41256559       0.07188437 </v>
   <v>       0.02939207      -0.43886539       0.21081335 </v>
   <v>       0.13908609      -0.48125698       0.12008548 </v>
   <v>       0.18739978      -0.23040270       0.02385473 </v>
   <v>       0.40256485      -0.37002297       0.03368846 </v>
   <v>       0.01775217      -0.32037561      -0.08819753 </v>
   <v>       0.01652517      -0.32129357       0.08319069 </v>
  </varray>
 </structure>
 <varray name="primitive_index" >
  <v type="int" >        1 </v>
  <v type="int" >       80 </v>
  <v type="int" >       64 </v>
  <v type="int" >      112 </v>
  <v type="int" >       93 </v>
  <v type="int" >       30 </v>
  <v type="int" >      101 </v>
  <v type="int" >      129 </v>
  <v type="int" >       43 </v>
  <v type="int" >       68 </v>
  <v type="int" >       47 </v>
  <v type="int" >       34 </v>
  <v type="int" >       13 </v>
  <v type="int" >       91 </v>
  <v type="int" >       95 </v>
  <v type="int" >       86 </v>
  <v type="int" >       71 </v>
  <v type="int" >       12 </v>
  <v type="int" >       41 </v>
  <v type="int" >       44 </v>
  <v type="int" >       75 </v>
  <v type="int" >        2 </v>
  <v type="int" >      123 </v>
  <v type="int" >      113 </v>
  <v type="int" >       33 </v>
  <v type="int" >        6 </v>
  <v type="int" >       70 </v>
  <v type="int" >       81 </v>
  <v type="int" >       97 </v>
  <v type="int" >       59 </v>
  <v type="int" >      105 </v>
  <v type="int" >       90 </v>
  <v type="int" >       51 </v>
  <v type="int" >      116 </v>
  <v type="int" >       99 </v>
  <v type="int" >       37 </v>
  <v type="int" >      103 </v>
  <v type="int" >       35 </v>
  <v type="int" >       79 </v>
  <v type="int" >        3 </v>
  <v type="int" >       29 </v>
  <v type="int" >       60 </v>
  <v type="int" >      127 </v>
  <v type="int" >       72 </v>
  <v type="int" >        4 </v>
  <v type="int" >      104 </v>
  <v type="int" >       11 </v>
  <v type="int" >       92 </v>
  <v type="int" >       56 </v>
  <v type="int" >      130 </v>
  <v type="int" >       96 </v>
  <v type="int" >       94 </v>
  <v type="int" >      111 </v>
  <v type="int" >       62 </v>
  <v type="int" >      135 </v>
  <v type="int" >       16 </v>
  <v type="int" >       73 </v>
  <v type="int" >      102 </v>
  <v type="int" >       67 </v>
  <v type="int" >        8 </v>
  <v type="int" >       87 </v>
  <v type="int" >       53 </v>
  <v type="int" >       14 </v>
  <v type="int" >       22 </v>
  <v type="int" >       45 </v>
  <v type="int" >        5 </v>
  <v type="int" >       15 </v>
  <v type="int" >       65 </v>
  <v type="int" >       26 </v>
  <v type="int" >      118 </v>
  <v type="int" >      120 </v>
  <v type="int" >        7 </v>
  <v type="int" >      119 </v>
  <v type="int" >      133 </v>
  <v type="int" >       54 </v>
  <v type="int" >       25 </v>
  <v type="int" >       28 </v>
  <v type="int" >      125 </v>
  <v type="int" >       40 </v>
  <v type="int" >      117 </v>
  <v type="int" >       27 </v>
  <v type="int" >       83 </v>
  <v type="int" >       46 </v>
  <v type="int" >       55 </v>
  <v type="int" >       61 </v>
  <v type="int" >       52 </v>
  <v type="int" >      134 </v>
  <v type="int" >       31 </v>
  <v type="int" >      110 </v>
  <v type="int" >      131 </v>
  <v type="int" >      108 </v>
  <v type="int" >       39 </v>
  <v type="int" >       24 </v>
  <v type="int" >       38 </v>
  <v type="int" >       69 </v>
  <v type="int" >        9 </v>
  <v type="int" >      121 </v>
  <v type="int" >       88 </v>
  <v type="int" >      100 </v>
  <v type="int" >       74 </v>
  <v type="int" >       36 </v>
  <v type="int" >       66 </v>
  <v type="int" >       85 </v>
  <v type="int" >       42 </v>
  <v type="int" >       50 </v>
  <v type="int" >       63 </v>
  <v type="int" >      128 </v>
  <v type="int" >      122 </v>
  <v type="int" >      107 </v>
  <v type="int" >       48 </v>
  <v type="int" >      115 </v>
  <v type="int" >       18 </v>
  <v type="int" >       89 </v>
  <v type="int" >      132 </v>
  <v type="int" >      109 </v>
  <v type="int" >       84 </v>
  <v type="int" >       77 </v>
  <v type="int" >       98 </v>
  <v type="int" >       57 </v>
  <v type="int" >      106 </v>
  <v type="int" >       20 </v>
  <v type="int" >       78 </v>
  <v type="int" >       82 </v>
  <v type="int" >       23 </v>
  <v type="int" >      114 </v>
  <v type="int" >       21 </v>
  <v type="int" >       32 </v>
  <v type="int" >       17 </v>
  <v type="int" >      126 </v>
  <v type="int" >       49 </v>
  <v type="int" >      124 </v>
  <v type="int" >       58 </v>
  <v type="int" >       10 </v>
  <v type="int" >       19 </v>
  <v type="int" >       76 </v>
 </varray>
 <kpoints>
  <generation param="Gamma">
   <v type="int" name="divisions">       2        2        2 </v>
   <v name="usershift">      0.00000000       0.00000000       0.00000000 </v>
   <v name="genvec1">      0.50000000       0.00000000       0.00000000 </v>
   <v name="genvec2">      0.00000000       0.50000000       0.00000000 </v>
   <v name="genvec3">      0.00000000       0.00000000       0.50000000 </v>
   <v name="shift">      0.00000000       0.00000000       0.00000000 </v>
  </generation>
  <varray name="kpointlist" >
   <v>       0.00000000       0.00000000       0.00000000 </v>
   <v>       0.50000000       0.00000000       0.00000000 </v>
   <v>       0.00000000       0.50000000       0.00000000 </v>
   <v>       0.50000000       0.50000000       0.00000000 </v>
   <v>       0.00000000       0.00000000       0.50000000 </v>
   <v>       0.50000000       0.00000000       0.50000000 </v>
   <v>       0.00000000       0.50000000       0.50000000 </v>
   <v>       0.50000000       0.50000000       0.50000000 </v>
  </varray>
  <varray name="weights" >
   <v>       0.12500000 </v>
   <v>       0.12500000 </v>
   <v>       0.12500000 </v>
   <v>       0.12500000 </v>
   <v>       0.12500000 </v>
   <v>       0.12500000 </v>
   <v>       0.12500000 </v>
   <v>       0.12500000 </v>
  </varray>
 </kpoints>
 <parameters>
  <separator name="general" >
   <i type="string" name="SYSTEM">unknown system</i>
   <i type="logical" name="LCOMPAT"> F  </i>
  </separator>
  <separator name="electronic" >
   <i type="string" name="PREC">a</i>
   <i name="ENMAX">    600.00000000</i>
   <i name="ENAUG">    605.39200000</i>
   <i name="EDIFF">      0.00000100</i>
   <i type="int" name="IALGO">    38</i>
   <i type="int" name="IWAVPR">    10</i>
   <i type="int" name="NBANDS">   520</i>
   <i name="NELECT">    864.00000000</i>
   <i type="int" name="TURBO">     0</i>
   <i type="int" name="IRESTART">     0</i>
   <i type="int" name="NREBOOT">     0</i>
   <i type="int" name="NMIN">     0</i>
   <i name="EREF">      0.00000000</i>
   <separator name="electronic smearing" >
    <i type="int" name="ISMEAR">     0</i>
    <i name="SIGMA">      0.05000000</i>
    <i name="KSPACING">      0.30000000</i>
    <i type="logical" name="KGAMMA"> T  </i>
   </separator>
   <separator name="electronic projectors" >
    <i type="logical" name="LREAL"> T  </i>
    <v name="ROPT">     -0.00025000     -0.00025000     -0.00025000</v>
    <i type="int" name="LMAXPAW">  -100</i>
    <i type="int" name="LMAXMIX">     2</i>
    <i type="logical" name="NLSPLINE"> F  </i>
   </separator>
   <separator name="electronic startup" >
    <i type="int" name="ISTART">     0</i>
    <i type="int" name="ICHARG">     2</i>
    <i type="int" name="INIWAV">     1</i>
   </separator>
   <separator name="electronic spin" >
    <i type="int" name="ISPIN">     1</i>
    <i type="logical" name="LNONCOLLINEAR"> F  </i>
    <v name="MAGMOM">      1.00000000      1.00000000      1.00000000      1.00000000      1.00000000      1.00000000      1.00000000      1.00000000      1.00000000      1.00000000      1.00000000      1.00000000      1.00000000      1.00000000      1.00000000      1.00000000      1.00000000      1.00000000      1.00000000      1.00000000
      1.00000000      1.00000000      1.00000000      1.00000000      1.00000000      1.00000000      1.00000000      1.00000000      1.00000000      1.00000000      1.00000000      1.00000000      1.00000000      1.00000000      1.00000000      1.00000000      1.00000000      1.00000000      1.00000000      1.00000000
      1.00000000      1.00000000      1.00000000      1.00000000      1.00000000      1.00000000      1.00000000      1.00000000      1.00000000      1.00000000      1.00000000      1.00000000      1.00000000      1.00000000      1.00000000      1.00000000      1.00000000      1.00000000      1.00000000      1.00000000
      1.00000000      1.00000000      1.00000000      1.00000000      1.00000000      1.00000000      1.00000000      1.00000000      1.00000000      1.00000000      1.00000000      1.00000000      1.00000000      1.00000000      1.00000000      1.00000000      1.00000000      1.00000000      1.00000000      1.00000000
      1.00000000      1.00000000      1.00000000      1.00000000      1.00000000      1.00000000      1.00000000      1.00000000      1.00000000      1.00000000      1.00000000      1.00000000      1.00000000      1.00000000      1.00000000      1.00000000      1.00000000      1.00000000      1.00000000      1.00000000
      1.00000000      1.00000000      1.00000000      1.00000000      1.00000000      1.00000000      1.00000000      1.00000000      1.00000000      1.00000000      1.00000000      1.00000000      1.00000000      1.00000000      1.00000000      1.00000000      1.00000000      1.00000000      1.00000000      1.00000000
      1.00000000      1.00000000      1.00000000      1.00000000      1.00000000      1.00000000      1.00000000      1.00000000      1.00000000      1.00000000      1.00000000      1.00000000      1.00000000      1.00000000      1.00000000</v>
    <i name="NUPDOWN">     -1.00000000</i>
    <i type="logical" name="LSORBIT"> F  </i>
    <v name="SAXIS">      0.00000000      0.00000000      1.00000000</v>
    <i type="logical" name="LSPIRAL"> F  </i>
    <v name="QSPIRAL">      0.00000000      0.00000000      0.00000000</v>
    <i type="logical" name="LZEROZ"> F  </i>
   </separator>
   <separator name="electronic exchange-correlation" >
    <i type="logical" name="LASPH"> F  </i>
    <i type="logical" name="LMETAGGA"> F  </i>
   </separator>
   <separator name="electronic convergence" >
    <i type="int" name="NELM">    60</i>
    <i type="int" name="NELMDL">    -5</i>
    <i type="int" name="NELMIN">     2</i>
    <i name="ENINI">    600.00000000</i>
    <separator name="electronic convergence detail" >
     <i type="logical" name="LDIAG"> T  </i>
     <i type="logical" name="LSUBROT"> F  </i>
     <i name="WEIMIN">      0.00000000</i>
     <i name="EBREAK">      0.00000000</i>
     <i name="DEPER">      0.30000000</i>
     <i type="int" name="NRMM">     4</i>
     <i name="TIME">      0.40000000</i>
    </separator>
   </separator>
   <separator name="electronic mixer" >
    <i name="AMIX">      0.40000000</i>
    <i name="BMIX">      1.00000000</i>
    <i name="AMIN">      0.10000000</i>
    <i name="AMIX_MAG">      1.60000000</i>
    <i name="BMIX_MAG">      1.00000000</i>
    <separator name="electronic mixer details" >
     <i type="int" name="IMIX">     4</i>
     <i type="logical" name="MIXFIRST"> F  </i>
     <i type="int" name="MAXMIX">   -45</i>
     <i name="WC">    100.00000000</i>
     <i type="int" name="INIMIX">     1</i>
     <i type="int" name="MIXPRE">     1</i>
     <i type="int" name="MREMOVE">     5</i>
    </separator>
   </separator>
   <separator name="electronic dipolcorrection" >
    <i type="logical" name="LDIPOL"> F  </i>
    <i type="logical" name="LMONO"> F  </i>
    <i type="int" name="IDIPOL">     0</i>
    <i name="EPSILON">      1.00000000</i>
    <v name="DIPOL">   -100.00000000   -100.00000000   -100.00000000</v>
    <i name="EFIELD">      0.00000000</i>
   </separator>
  </separator>
  <separator name="grids" >
   <i type="int" name="NGX">    98</i>
   <i type="int" name="NGY">    98</i>
   <i type="int" name="NGZ">    98</i>
   <i type="int" name="NGXF">   196</i>
   <i type="int" name="NGYF">   196</i>
   <i type="int" name="NGZF">   196</i>
   <i type="logical" name="ADDGRID"> T  </i>
  </separator>
  <separator name="ionic" >
   <i type="int" name="NSW">     1</i>
   <i type="int" name="IBRION">    -1</i>
   <i type="int" name="MDALGO">     0</i>
   <i type="int" name="ISIF">     2</i>
   <i name="PSTRESS">      0.00000000</i>
   <i name="EDIFFG">     -0.01000000</i>
   <i type="int" name="NFREE">     0</i>
   <i name="POTIM">      1.00000000</i>
   <i name="SMASS">     -3.00000000</i>
   <i name="SCALEE">      1.00000000</i>
  </separator>
  <separator name="ionic md" >
   <i name="TEBEG">      0.00010000</i>
   <i name="TEEND">      0.00010000</i>
   <i type="int" name="NBLOCK">     1</i>
   <i type="int" name="KBLOCK">     1</i>
   <i type="int" name="NPACO">   256</i>
   <i name="APACO">     16.00000000</i>
  </separator>
  <separator name="symmetry" >
   <i type="int" name="ISYM">     0</i>
   <i name="SYMPREC">      0.00001000</i>
  </separator>
  <separator name="dos" >
   <i type="int" name="LORBIT">     0</i>
   <v name="RWIGS">     -1.00000000     -1.00000000     -1.00000000</v>
   <i type="int" name="NEDOS">   301</i>
   <i name="EMIN">     10.00000000</i>
   <i name="EMAX">    -10.00000000</i>
   <i name="EFERMI">      0.00000000</i>
  </separator>
  <separator name="writing" >
   <i type="int" name="NWRITE">     2</i>
   <i type="logical" name="LWAVE"> F  </i>
   <i type="logical" name="LDOWNSAMPLE"> F  </i>
   <i type="logical" name="LCHARG"> F  </i>
   <i type="logical" name="LPARD"> F  </i>
   <i type="logical" name="LVTOT"> F  </i>
   <i type="logical" name="LVHAR"> F  </i>
   <i type="logical" name="LELF"> F  </i>
   <i type="logical" name="LOPTICS"> F  </i>
   <v name="STM">      0.00000000      0.00000000      0.00000000      0.00000000      0.00000000      0.00000000      0.00000000</v>
  </separator>
  <separator name="performance" >
   <i type="int" name="NPAR">     4</i>
   <i type="int" name="NSIM">     4</i>
   <i type="int" name="NBLK">    -1</i>
   <i type="logical" name="LPLANE"> T  </i>
   <i type="logical" name="LSCALAPACK"> F  </i>
   <i type="logical" name="LSCAAWARE"> F  </i>
   <i type="logical" name="LSCALU"> F  </i>
   <i type="logical" name="LASYNC"> F  </i>
   <i type="logical" name="LORBITALREAL"> F  </i>
  </separator>
  <separator name="miscellaneous" >
   <i type="int" name="IDIOT">     3</i>
   <i type="int" name="ISPECIAL">     0</i>
   <i type="logical" name="LMUSIC"> F  </i>
   <v name="POMASS">     40.07800000     28.08500000     16.00000000</v>
   <v name="DARWINR">      0.00000000      0.00000000      0.00000000</v>
   <v name="DARWINV">      1.00000000      1.00000000      1.00000000</v>
   <i type="logical" name="LCORR"> T  </i>
  </separator>
  <i type="logical" name="GGA_COMPAT"> T  </i>
  <i type="logical" name="LBERRY"> F  </i>
  <i type="int" name="ICORELEVEL">     0</i>
  <i type="logical" name="LDAU"> F  </i>
  <i type="int" name="I_CONSTRAINED_M">     0</i>
  <separator name="electronic exchange-correlation" >
   <i type="string" name="GGA">--</i>
   <i type="int" name="VOSKOWN">     0</i>
   <i type="logical" name="LHFCALC"> F  </i>
   <i type="string" name="PRECFOCK"></i>
   <i type="logical" name="LSYMGRAD"> F  </i>
   <i type="logical" name="LHFONE"> F  </i>
   <i type="logical" name="LRHFCALC"> F  </i>
   <i type="logical" name="LTHOMAS"> F  </i>
   <i type="logical" name="LMODELHF"> F  </i>
   <i name="ENCUT4O">     -1.00000000</i>
   <i type="int" name="EXXOEP">     0</i>
   <i type="int" name="FOURORBIT">     0</i>
   <i name="AEXX">      0.00000000</i>
   <i name="HFALPHA">      0.00000000</i>
   <i name="MCALPHA">      0.00000000</i>
   <i name="ALDAX">      1.00000000</i>
   <i name="AGGAX">      1.00000000</i>
   <i name="ALDAC">      1.00000000</i>
   <i name="AGGAC">      1.00000000</i>
   <i type="int" name="NKREDX">     1</i>
   <i type="int" name="NKREDY">     1</i>
   <i type="int" name="NKREDZ">     1</i>
   <i type="logical" name="SHIFTRED"> F  </i>
   <i type="logical" name="ODDONLY"> F  </i>
   <i type="logical" name="EVENONLY"> F  </i>
   <i type="int" name="LMAXFOCK">     0</i>
   <i type="int" name="NMAXFOCKAE">     0</i>
   <i type="logical" name="LFOCKAEDFT"> F  </i>
   <i name="HFSCREEN">      0.00000000</i>
   <i name="HFSCREENC">      0.00000000</i>
   <i type="int" name="NBANDSGWLOW">     0</i>
  </separator>
  <separator name="vdW DFT" >
   <i type="logical" name="LUSE_VDW"> F  </i>
   <i name="Zab_VDW">     -0.84910000</i>
   <i name="PARAM1">      0.12340000</i>
   <i name="PARAM2">      1.00000000</i>
   <i name="PARAM3">      0.00000000</i>
  </separator>
  <separator name="model GW" >
   <i type="int" name="MODEL_GW">     0</i>
   <i name="MODEL_EPS0">      7.86148328</i>
   <i name="MODEL_ALPHA">      1.00000000</i>
  </separator>
  <separator name="linear response parameters" >
   <i type="logical" name="LEPSILON"> F  </i>
   <i type="logical" name="LRPA"> F  </i>
   <i type="logical" name="LNABLA"> F  </i>
   <i type="logical" name="LVEL"> F  </i>
   <i type="int" name="KINTER">     0</i>
   <i name="CSHIFT">      0.10000000</i>
   <i name="OMEGAMAX">     -1.00000000</i>
   <i name="DEG_THRESHOLD">      0.00200000</i>
   <i name="RTIME">     -0.10000000</i>
   <i name="WPLASMAI">      0.00000000</i>
   <v name="DFIELD">      0.00000000      0.00000000      0.00000000</v>
   <v name="WPLASMA">      0.00000000      0.00000000      0.00000000      0.00000000      0.00000000      0.00000000      0.00000000      0.00000000      0.00000000</v>
  </separator>
  <separator name="orbital magnetization" >
   <i type="logical" name="NUCIND"> F  </i>
   <v name="MAGPOS">      0.00000000      0.00000000      0.00000000</v>
   <i type="logical" name="LNICSALL"> T  </i>
   <i type="logical" name="ORBITALMAG"> F  </i>
   <i type="logical" name="LMAGBLOCH"> F  </i>
   <i type="logical" name="LCHIMAG"> F  </i>
   <i type="logical" name="LGAUGE"> T  </i>
   <i type="int" name="MAGATOM">     0</i>
   <v name="MAGDIPOL">      0.00000000      0.00000000      0.00000000</v>
   <v name="AVECCONST">      0.00000000      0.00000000      0.00000000</v>
  </separator>
  <separator name="response functions" >
   <i type="logical" name="LADDER"> F  </i>
   <i type="logical" name="LRPAFORCE"> F  </i>
   <i type="logical" name="LFXC"> F  </i>
   <i type="logical" name="LHARTREE"> T  </i>
   <i type="int" name="IBSE">     0</i>
   <v type="int" name="KPOINT">    -1     0     0     0</v>
   <i type="logical" name="LTCTE"> F  </i>
   <i type="logical" name="LTETE"> F  </i>
   <i type="logical" name="LTRIPLET"> F  </i>
   <i type="logical" name="LFXCEPS"> F  </i>
   <i type="logical" name="LFXHEG"> F  </i>
   <i type="int" name="NATURALO">     2</i>
   <i type="logical" name="L2ORDER"> F  </i>
   <i type="logical" name="LMP2LT"> F  </i>
   <i type="logical" name="LUSEW"> F  </i>
   <i name="ENCUTGW">     -2.00000000</i>
   <i name="ENCUTGWSOFT">     -2.00000000</i>
   <i name="ENCUTLF">     -1.00000000</i>
   <i type="int" name="LMAXMP2">    -1</i>
   <i name="SCISSOR">      0.00000000</i>
   <i type="int" name="NOMEGA">     0</i>
   <i type="int" name="NOMEGAR">     0</i>
   <i type="int" name="NBANDSGW">    -1</i>
   <i type="int" name="NBANDSO">    -1</i>
   <i type="int" name="NBANDSV">    -1</i>
   <i type="int" name="NELM">     1</i>
   <i type="int" name="NELMHF">     1</i>
   <i type="int" name="DIM">     3</i>
   <i type="int" name="ANTIRES">     0</i>
   <i name="OMEGAMAX">    -30.00000000</i>
   <i name="OMEGAMIN">    -30.00000000</i>
   <i name="OMEGATL">   -200.00000000</i>
   <i type="int" name="OMEGAGRID">   140</i>
   <i name="CSHIFT">     -0.10000000</i>
   <i type="logical" name="SELFENERGY"> F  </i>
   <i type="logical" name="LSPECTRAL"> F  </i>
   <i type="logical" name="LSPECTRALGW"> F  </i>
   <i type="logical" name="LSINGLES"> F  </i>
   <i type="logical" name="LFERMIGW"> F  </i>
   <i type="logical" name="ODDONLYGW"> F  </i>
   <i type="logical" name="EVENONLYGW"> F  </i>
   <i type="int" name="NKREDLFX">     1</i>
   <i type="int" name="NKREDLFY">     1</i>
   <i type="int" name="NKREDLFZ">     1</i>
   <i type="int" name="MAXMEM">  2800</i>
   <i type="int" name="TELESCOPE">     0</i>
   <i type="int" name="TAUPAR">     1</i>
   <i type="int" name="OMEGAPAR">    -1</i>
   <i name="LAMBDA">      1.00000000</i>
  </separator>
  <separator name="External order field" >
   <i name="OFIELD_KAPPA">      0.00000000</i>
   <v name="OFIELD_K">      0.00000000      0.00000000      0.00000000</v>
   <i name="OFIELD_Q6_NEAR">      0.00000000</i>
   <i name="OFIELD_Q6_FAR">      0.00000000</i>
   <i name="OFIELD_A">      0.00000000</i>
  </separator>
 </parameters>
 <atominfo>
  <atoms>     135 </atoms>
  <types>       3 </types>
  <array name="atoms" >
   <dimension dim="1">ion</dimension>
   <field type="string">element</field>
   <field type="int">atomtype</field>
   <set>
    <rc><c>Ca</c><c>   1</c></rc>
    <rc><c>Ca</c><c>   1</c></rc>
    <rc><c>Ca</c><c>   1</c></rc>
    <rc><c>Ca</c><c>   1</c></rc>
    <rc><c>Ca</c><c>   1</c></rc>
    <rc><c>Ca</c><c>   1</c></rc>
    <rc><c>Ca</c><c>   1</c></rc>
    <rc><c>Ca</c><c>   1</c></rc>
    <rc><c>Ca</c><c>   1</c></rc>
    <rc><c>Ca</c><c>   1</c></rc>
    <rc><c>Ca</c><c>   1</c></rc>
    <rc><c>Ca</c><c>   1</c></rc>
    <rc><c>Ca</c><c>   1</c></rc>
    <rc><c>Ca</c><c>   1</c></rc>
    <rc><c>Ca</c><c>   1</c></rc>
    <rc><c>Ca</c><c>   1</c></rc>
    <rc><c>Ca</c><c>   1</c></rc>
    <rc><c>Ca</c><c>   1</c></rc>
    <rc><c>Ca</c><c>   1</c></rc>
    <rc><c>Ca</c><c>   1</c></rc>
    <rc><c>Ca</c><c>   1</c></rc>
    <rc><c>Ca</c><c>   1</c></rc>
    <rc><c>Ca</c><c>   1</c></rc>
    <rc><c>Ca</c><c>   1</c></rc>
    <rc><c>Ca</c><c>   1</c></rc>
    <rc><c>Ca</c><c>   1</c></rc>
    <rc><c>Ca</c><c>   1</c></rc>
    <rc><c>Si</c><c>   2</c></rc>
    <rc><c>Si</c><c>   2</c></rc>
    <rc><c>Si</c><c>   2</c></rc>
    <rc><c>Si</c><c>   2</c></rc>
    <rc><c>Si</c><c>   2</c></rc>
    <rc><c>Si</c><c>   2</c></rc>
    <rc><c>Si</c><c>   2</c></rc>
    <rc><c>Si</c><c>   2</c></rc>
    <rc><c>Si</c><c>   2</c></rc>
    <rc><c>Si</c><c>   2</c></rc>
    <rc><c>Si</c><c>   2</c></rc>
    <rc><c>Si</c><c>   2</c></rc>
    <rc><c>Si</c><c>   2</c></rc>
    <rc><c>Si</c><c>   2</c></rc>
    <rc><c>Si</c><c>   2</c></rc>
    <rc><c>Si</c><c>   2</c></rc>
    <rc><c>Si</c><c>   2</c></rc>
    <rc><c>Si</c><c>   2</c></rc>
    <rc><c>Si</c><c>   2</c></rc>
    <rc><c>Si</c><c>   2</c></rc>
    <rc><c>Si</c><c>   2</c></rc>
    <rc><c>Si</c><c>   2</c></rc>
    <rc><c>Si</c><c>   2</c></rc>
    <rc><c>Si</c><c>   2</c></rc>
    <rc><c>Si</c><c>   2</c></rc>
    <rc><c>Si</c><c>   2</c></rc>
    <rc><c>Si</c><c>   2</c></rc>
    <rc><c>O </c><c>   3</c></rc>
    <rc><c>O </c><c>   3</c></rc>
    <rc><c>O </c><c>   3</c></rc>
    <rc><c>O </c><c>   3</c></rc>
    <rc><c>O </c><c>   3</c></rc>
    <rc><c>O </c><c>   3</c></rc>
    <rc><c>O </c><c>   3</c></rc>
    <rc><c>O </c><c>   3</c></rc>
    <rc><c>O </c><c>   3</c></rc>
    <rc><c>O </c><c>   3</c></rc>
    <rc><c>O </c><c>   3</c></rc>
    <rc><c>O </c><c>   3</c></rc>
    <rc><c>O </c><c>   3</c></rc>
    <rc><c>O </c><c>   3</c></rc>
    <rc><c>O </c><c>   3</c></rc>
    <rc><c>O </c><c>   3</c></rc>
    <rc><c>O </c><c>   3</c></rc>
    <rc><c>O </c><c>   3</c></rc>
    <rc><c>O </c><c>   3</c></rc>
    <rc><c>O </c><c>   3</c></rc>
    <rc><c>O </c><c>   3</c></rc>
    <rc><c>O </c><c>   3</c></rc>
    <rc><c>O </c><c>   3</c></rc>
    <rc><c>O </c><c>   3</c></rc>
    <rc><c>O </c><c>   3</c></rc>
    <rc><c>O </c><c>   3</c></rc>
    <rc><c>O </c><c>   3</c></rc>
    <rc><c>O </c><c>   3</c></rc>
    <rc><c>O </c><c>   3</c></rc>
    <rc><c>O </c><c>   3</c></rc>
    <rc><c>O </c><c>   3</c></rc>
    <rc><c>O </c><c>   3</c></rc>
    <rc><c>O </c><c>   3</c></rc>
    <rc><c>O </c><c>   3</c></rc>
    <rc><c>O </c><c>   3</c></rc>
    <rc><c>O </c><c>   3</c></rc>
    <rc><c>O </c><c>   3</c></rc>
    <rc><c>O </c><c>   3</c></rc>
    <rc><c>O </c><c>   3</c></rc>
    <rc><c>O </c><c>   3</c></rc>
    <rc><c>O </c><c>   3</c></rc>
    <rc><c>O </c><c>   3</c></rc>
    <rc><c>O </c><c>   3</c></rc>
    <rc><c>O </c><c>   3</c></rc>
    <rc><c>O </c><c>   3</c></rc>
    <rc><c>O </c><c>   3</c></rc>
    <rc><c>O </c><c>   3</c></rc>
    <rc><c>O </c><c>   3</c></rc>
    <rc><c>O </c><c>   3</c></rc>
    <rc><c>O </c><c>   3</c></rc>
    <rc><c>O </c><c>   3</c></rc>
    <rc><c>O </c><c>   3</c></rc>
    <rc><c>O </c><c>   3</c></rc>
    <rc><c>O </c><c>   3</c></rc>
    <rc><c>O </c><c>   3</c></rc>
    <rc><c>O </c><c>   3</c></rc>
    <rc><c>O </c><c>   3</c></rc>
    <rc><c>O </c><c>   3</c></rc>
    <rc><c>O </c><c>   3</c></rc>
    <rc><c>O </c><c>   3</c></rc>
    <rc><c>O </c><c>   3</c></rc>
    <rc><c>O </c><c>   3</c></rc>
    <rc><c>O </c><c>   3</c></rc>
    <rc><c>O </c><c>   3</c></rc>
    <rc><c>O </c><c>   3</c></rc>
    <rc><c>O </c><c>   3</c></rc>
    <rc><c>O </c><c>   3</c></rc>
    <rc><c>O </c><c>   3</c></rc>
    <rc><c>O </c><c>   3</c></rc>
    <rc><c>O </c><c>   3</c></rc>
    <rc><c>O </c><c>   3</c></rc>
    <rc><c>O </c><c>   3</c></rc>
    <rc><c>O </c><c>   3</c></rc>
    <rc><c>O </c><c>   3</c></rc>
    <rc><c>O </c><c>   3</c></rc>
    <rc><c>O </c><c>   3</c></rc>
    <rc><c>O </c><c>   3</c></rc>
    <rc><c>O </c><c>   3</c></rc>
    <rc><c>O </c><c>   3</c></rc>
    <rc><c>O </c><c>   3</c></rc>
    <rc><c>O </c><c>   3</c></rc>
   </set>
  </array>
  <array name="atomtypes" >
   <dimension dim="1">type</dimension>
   <field type="int">atomspertype</field>
   <field type="string">element</field>
   <field>mass</field>
   <field>valence</field>
   <field type="string">pseudopotential</field>
   <set>
    <rc><c>  27</c><c>Ca</c><c>     40.07800000</c><c>     10.00000000</c><c>  PAW_PBE Ca_sv 06Sep2000               </c></rc>
    <rc><c>  27</c><c>Si</c><c>     28.08500000</c><c>      4.00000000</c><c>  PAW_PBE Si 05Jan2001                  </c></rc>
    <rc><c>  81</c><c>O </c><c>     16.00000000</c><c>      6.00000000</c><c>  PAW_PBE O 08Apr2002                   </c></rc>
   </set>
  </array>
 </atominfo>
 <structure name="initialpos" >
  <crystal>
   <varray name="basis" >
    <v>      12.09378762       0.00000000       0.00000000 </v>
    <v>       0.00000000      12.09378762       0.00000000 </v>
    <v>       0.00000000       0.00000000      12.09378762 </v>
   </varray>
   <i name="volume">   1768.83373704 </i>
   <varray name="rec_basis" >
    <v>       0.08268708       0.00000000       0.00000000 </v>
    <v>       0.00000000       0.08268708       0.00000000 </v>
    <v>       0.00000000       0.00000000       0.08268708 </v>
   </varray>
  </crystal>
  <varray name="positions" >
   <v>       0.57075852       0.13382458       0.53846762 </v>
   <v>       0.78220247       0.27580601       0.34492496 </v>
   <v>       0.42442117       0.76529921       0.57085579 </v>
   <v>       0.16980669       0.11247895       0.66329181 </v>
   <v>       0.63306464       0.50528694       0.23774548 </v>
   <v>       0.34902081       0.42232344       0.56209141 </v>
   <v>       0.08885111       0.19144562       0.44108183 </v>
   <v>       0.75260471       0.25139573       0.96098001 </v>
   <v>       0.94184104       0.33618649       0.16778446 </v>
   <v>       0.40256485       0.62997703       0.03368846 </v>
   <v>       0.91742982       0.88383852       0.55803297 </v>
   <v>       0.62823613       0.84816085       0.47109321 </v>
   <v>       0.68599465       0.30477172       0.68491064 </v>
   <v>       0.32078896       0.44576040       0.27442314 </v>
   <v>       0.89765034       0.48051801       0.46412013 </v>
   <v>       0.32255928       0.92832841       0.20281865 </v>
   <v>       0.09975247       0.41765257       0.96620755 </v>
   <v>       0.89288025       0.00224937       0.03319415 </v>
   <v>       0.01775217       0.67962439       0.91180247 </v>
   <v>       0.66017961       0.57391959       0.99384071 </v>
   <v>       0.04889855       0.80177481       0.17142528 </v>
   <v>       0.52231564       0.55788454       0.75806756 </v>
   <v>       0.11624933       0.64459806       0.52393550 </v>
   <v>       0.09820226       0.37199146       0.68177026 </v>
   <v>       0.32807740       0.40370706       0.88935708 </v>
   <v>       0.34111684       0.20503996       0.11515957 </v>
   <v>       0.57230886       0.93506657       0.05682720 </v>
   <v>       0.85262463       0.46081777       0.80229728 </v>
   <v>       0.71505518       0.87026557       0.80095744 </v>
   <v>       0.39675444       0.00531964       0.56593785 </v>
   <v>       0.77181826       0.62646603       0.58930791 </v>
   <v>       0.86790850       0.69436104       0.08800070 </v>
   <v>       0.67179370       0.12720568       0.19637885 </v>
   <v>       0.82259255       0.13299769       0.54369458 </v>
   <v>       0.87910258       0.04256562       0.76513006 </v>
   <v>       0.10034293       0.09497490       0.20823040 </v>
   <v>       0.57773120       0.52285986       0.49077397 </v>
   <v>       0.28798702       0.56249131       0.74855199 </v>
   <v>       0.10997758       0.87016683       0.67126732 </v>
   <v>       0.76784899       0.77315234       0.22347721 </v>
   <v>       0.33068027       0.19194729       0.36842505 </v>
   <v>       0.19482118       0.08149551       0.97242373 </v>
   <v>       0.56961349       0.27881314       0.34847771 </v>
   <v>       0.56959695       0.08773366       0.84337165 </v>
   <v>       0.17986271       0.87617112       0.42831422 </v>
   <v>       0.95825603       0.23771285       0.87438387 </v>
   <v>       0.41981444       0.21594802       0.72206694 </v>
   <v>       0.22524144       0.82551776       0.91851933 </v>
   <v>       0.02939207       0.56113461       0.21081335 </v>
   <v>       0.09979670       0.41277034       0.35685205 </v>
   <v>       0.86540834       0.97164287       0.35175746 </v>
   <v>       0.47371439       0.38632967       0.08805025 </v>
   <v>       0.47269343       0.75923049       0.81970983 </v>
   <v>       0.47187824       0.70499670       0.29394146 </v>
   <v>       0.99970109       0.14544867       0.23619998 </v>
   <v>       0.28622561       0.86192568       0.36411110 </v>
   <v>       0.08260217       0.03653565       0.90789089 </v>
   <v>       0.18739978       0.76959730       0.02385473 </v>
   <v>       0.43470255       0.27575696       0.85592494 </v>
   <v>       0.45873360       0.01960970       0.90545949 </v>
   <v>       0.76389919       0.78329596       0.87883777 </v>
   <v>       0.79123558       0.36703259       0.21653328 </v>
   <v>       0.87640160       0.64633893       0.48929202 </v>
   <v>       0.71812586       0.04707066       0.49336177 </v>
   <v>       0.27982673       0.19068424       0.92311459 </v>
   <v>       0.96739684       0.45897886       0.27591896 </v>
   <v>       0.67320551       0.58705693       0.45370235 </v>
   <v>       0.36661632       0.09454623       0.66787078 </v>
   <v>       0.28799754       0.95178922       0.98210548 </v>
   <v>       0.92891102       0.05502694       0.52182261 </v>
   <v>       0.59369717       0.40649960       0.43418393 </v>
   <v>       0.37548338       0.45019870       0.73229739 </v>
   <v>       0.90694002       0.34564484       0.78250595 </v>
   <v>       0.27007247       0.65983075       0.66127690 </v>
   <v>       0.60882212       0.24301030       0.24724138 </v>
   <v>       0.01652517       0.67870643       0.08319069 </v>
   <v>       0.32053781       0.40911641       0.04442452 </v>
   <v>       0.99716538       0.49202628       0.85727979 </v>
   <v>       0.19378112       0.25657328       0.55042205 </v>
   <v>       0.50758149       0.98057625       0.53780116 </v>
   <v>       0.28464722       0.91102429       0.61458512 </v>
   <v>       0.93872352       0.66814202       0.24681971 </v>
   <v>       0.07456890       0.98672771       0.60653098 </v>
   <v>       0.35059009       0.60429989       0.86096886 </v>
   <v>       0.16064090       0.37394393       0.21225306 </v>
   <v>       0.29982229       0.07862433       0.46487856 </v>
   <v>       0.98910337       0.33823795       0.44204321 </v>
   <v>       0.06839845       0.90909763       0.39565424 </v>
   <v>       0.71127227       0.64854885       0.20436833 </v>
   <v>       0.27047649       0.30067861       0.37114662 </v>
   <v>       0.79544502       0.05823222       0.65045987 </v>
   <v>       0.46259663       0.54693199       0.57263168 </v>
   <v>       0.46203488       0.25031212       0.41230370 </v>
   <v>       0.98383352       0.15060903       0.70886850 </v>
   <v>       0.58514027       0.05001018       0.28623167 </v>
   <v>       0.66518903       0.85048846       0.21746244 </v>
   <v>       0.74674232       0.01557964       0.84276838 </v>
   <v>       0.03165028       0.74601321       0.68317162 </v>
   <v>       0.58747132       0.17798093       0.92218136 </v>
   <v>       0.49625641       0.51193594       0.12141191 </v>
   <v>       0.75682615       0.25646132       0.52842132 </v>
   <v>       0.18821612       0.17995330       0.26550464 </v>
   <v>       0.45489367       0.81595779       0.33914663 </v>
   <v>       0.56701305       0.86295916       0.86391762 </v>
   <v>       0.50602580       0.79362387       0.69099785 </v>
   <v>       0.15058230       0.17402288       0.08035600 </v>
   <v>       0.91036781       0.25408340       0.01529852 </v>
   <v>       0.13545768       0.82052526       0.53872961 </v>
   <v>       0.13183646       0.93241795       0.17085668 </v>
   <v>       0.16667185       0.89484163       0.79725106 </v>
   <v>       0.86914932       0.11320798       0.87946331 </v>
   <v>       0.60030810       0.14287852       0.72671164 </v>
   <v>       0.74101070       0.84685358       0.65109322 </v>
   <v>       0.12277183       0.58471453       0.29780529 </v>
   <v>       0.16981441       0.51291963       0.77660252 </v>
   <v>       0.80698421       0.09108073       0.23775906 </v>
   <v>       0.35209472       0.80060727       0.87030458 </v>
   <v>       0.74497866       0.45476343       0.86452732 </v>
   <v>       0.43580883       0.56623122       0.33272666 </v>
   <v>       0.71407616       0.11349300       0.06614253 </v>
   <v>       0.37237010       0.75632644       0.16880740 </v>
   <v>       0.08902608       0.26451094       0.84199967 </v>
   <v>       0.37608266       0.09877156       0.27022505 </v>
   <v>       0.13908609       0.51874302       0.12008548 </v>
   <v>       0.87061172       0.52408791       0.66413563 </v>
   <v>       0.82127649       0.58743441       0.07188437 </v>
   <v>       0.44677485       0.33753607       0.21338197 </v>
   <v>       0.81097045       0.82749518       0.10527286 </v>
   <v>       0.49285362       0.30906623       0.65463284 </v>
   <v>       0.81868216       0.83319792       0.34504786 </v>
   <v>       0.15968294       0.47439341       0.48931949 </v>
   <v>       0.52127568       0.66020609       0.91452944 </v>
   <v>       0.66197361       0.60708290       0.67553306 </v>
   <v>       0.60745509       0.38194145       0.00740870 </v>
   <v>       0.92243795       0.92613633       0.76126220 </v>
  </varray>
  <varray name="velocities" >
   <v>       0.00000000       0.00000000       0.00000000 </v>
   <v>       0.00000000       0.00000000       0.00000000 </v>
   <v>       0.00000000       0.00000000       0.00000000 </v>
   <v>       0.00000000       0.00000000       0.00000000 </v>
   <v>       0.00000000       0.00000000       0.00000000 </v>
   <v>       0.00000000       0.00000000       0.00000000 </v>
   <v>       0.00000000       0.00000000       0.00000000 </v>
   <v>       0.00000000       0.00000000       0.00000000 </v>
   <v>       0.00000000       0.00000000       0.00000000 </v>
   <v>       0.00000000       0.00000000       0.00000000 </v>
   <v>       0.00000000       0.00000000       0.00000000 </v>
   <v>       0.00000000       0.00000000       0.00000000 </v>
   <v>       0.00000000       0.00000000       0.00000000 </v>
   <v>       0.00000000       0.00000000       0.00000000 </v>
   <v>       0.00000000       0.00000000       0.00000000 </v>
   <v>       0.00000000       0.00000000       0.00000000 </v>
   <v>       0.00000000       0.00000000       0.00000000 </v>
   <v>       0.00000000       0.00000000       0.00000000 </v>
   <v>       0.00000000       0.00000000       0.00000000 </v>
   <v>       0.00000000       0.00000000       0.00000000 </v>
   <v>       0.00000000       0.00000000       0.00000000 </v>
   <v>       0.00000000       0.00000000       0.00000000 </v>
   <v>       0.00000000       0.00000000       0.00000000 </v>
   <v>       0.00000000       0.00000000       0.00000000 </v>
   <v>       0.00000000       0.00000000       0.00000000 </v>
   <v>       0.00000000       0.00000000       0.00000000 </v>
   <v>       0.00000000       0.00000000       0.00000000 </v>
   <v>       0.00000000       0.00000000       0.00000000 </v>
   <v>       0.00000000       0.00000000       0.00000000 </v>
   <v>       0.00000000       0.00000000       0.00000000 </v>
   <v>       0.00000000       0.00000000       0.00000000 </v>
   <v>       0.00000000       0.00000000       0.00000000 </v>
   <v>       0.00000000       0.00000000       0.00000000 </v>
   <v>       0.00000000       0.00000000       0.00000000 </v>
   <v>       0.00000000       0.00000000       0.00000000 </v>
   <v>       0.00000000       0.00000000       0.00000000 </v>
   <v>       0.00000000       0.00000000       0.00000000 </v>
   <v>       0.00000000       0.00000000       0.00000000 </v>
   <v>       0.00000000       0.00000000       0.00000000 </v>
   <v>       0.00000000       0.00000000       0.00000000 </v>
   <v>       0.00000000       0.00000000       0.00000000 </v>
   <v>       0.00000000       0.00000000       0.00000000 </v>
   <v>       0.00000000       0.00000000       0.00000000 </v>
   <v>       0.00000000       0.00000000       0.00000000 </v>
   <v>       0.00000000       0.00000000       0.00000000 </v>
   <v>       0.00000000       0.00000000       0.00000000 </v>
   <v>       0.00000000       0.00000000       0.00000000 </v>
   <v>       0.00000000       0.00000000       0.00000000 </v>
   <v>       0.00000000       0.00000000       0.00000000 </v>
   <v>       0.00000000       0.00000000       0.00000000 </v>
   <v>       0.00000000       0.00000000       0.00000000 </v>
   <v>       0.00000000       0.00000000       0.00000000 </v>
   <v>       0.00000000       0.00000000       0.00000000 </v>
   <v>       0.00000000       0.00000000       0.00000000 </v>
   <v>       0.00000000       0.00000000       0.00000000 </v>
   <v>       0.00000000       0.00000000       0.00000000 </v>
   <v>       0.00000000       0.00000000       0.00000000 </v>
   <v>       0.00000000       0.00000000       0.00000000 </v>
   <v>       0.00000000       0.00000000       0.00000000 </v>
   <v>       0.00000000       0.00000000       0.00000000 </v>
   <v>       0.00000000       0.00000000       0.00000000 </v>
   <v>       0.00000000       0.00000000       0.00000000 </v>
   <v>       0.00000000       0.00000000       0.00000000 </v>
   <v>       0.00000000       0.00000000       0.00000000 </v>
   <v>       0.00000000       0.00000000       0.00000000 </v>
   <v>       0.00000000       0.00000000       0.00000000 </v>
   <v>       0.00000000       0.00000000       0.00000000 </v>
   <v>       0.00000000       0.00000000       0.00000000 </v>
   <v>       0.00000000       0.00000000       0.00000000 </v>
   <v>       0.00000000       0.00000000       0.00000000 </v>
   <v>       0.00000000       0.00000000       0.00000000 </v>
   <v>       0.00000000       0.00000000       0.00000000 </v>
   <v>       0.00000000       0.00000000       0.00000000 </v>
   <v>       0.00000000       0.00000000       0.00000000 </v>
   <v>       0.00000000       0.00000000       0.00000000 </v>
   <v>       0.00000000       0.00000000       0.00000000 </v>
   <v>       0.00000000       0.00000000       0.00000000 </v>
   <v>       0.00000000       0.00000000       0.00000000 </v>
   <v>       0.00000000       0.00000000       0.00000000 </v>
   <v>       0.00000000       0.00000000       0.00000000 </v>
   <v>       0.00000000       0.00000000       0.00000000 </v>
   <v>       0.00000000       0.00000000       0.00000000 </v>
   <v>       0.00000000       0.00000000       0.00000000 </v>
   <v>       0.00000000       0.00000000       0.00000000 </v>
   <v>       0.00000000       0.00000000       0.00000000 </v>
   <v>       0.00000000       0.00000000       0.00000000 </v>
   <v>       0.00000000       0.00000000       0.00000000 </v>
   <v>       0.00000000       0.00000000       0.00000000 </v>
   <v>       0.00000000       0.00000000       0.00000000 </v>
   <v>       0.00000000       0.00000000       0.00000000 </v>
   <v>       0.00000000       0.00000000       0.00000000 </v>
   <v>       0.00000000       0.00000000       0.00000000 </v>
   <v>       0.00000000       0.00000000       0.00000000 </v>
   <v>       0.00000000       0.00000000       0.00000000 </v>
   <v>       0.00000000       0.00000000       0.00000000 </v>
   <v>       0.00000000       0.00000000       0.00000000 </v>
   <v>       0.00000000       0.00000000       0.00000000 </v>
   <v>       0.00000000       0.00000000       0.00000000 </v>
   <v>       0.00000000       0.00000000       0.00000000 </v>
   <v>       0.00000000       0.00000000       0.00000000 </v>
   <v>       0.00000000       0.00000000       0.00000000 </v>
   <v>       0.00000000       0.00000000       0.00000000 </v>
   <v>       0.00000000       0.00000000       0.00000000 </v>
   <v>       0.00000000       0.00000000       0.00000000 </v>
   <v>       0.00000000       0.00000000       0.00000000 </v>
   <v>       0.00000000       0.00000000       0.00000000 </v>
   <v>       0.00000000       0.00000000       0.00000000 </v>
   <v>       0.00000000       0.00000000       0.00000000 </v>
   <v>       0.00000000       0.00000000       0.00000000 </v>
   <v>       0.00000000       0.00000000       0.00000000 </v>
   <v>       0.00000000       0.00000000       0.00000000 </v>
   <v>       0.00000000       0.00000000       0.00000000 </v>
   <v>       0.00000000       0.00000000       0.00000000 </v>
   <v>       0.00000000       0.00000000       0.00000000 </v>
   <v>       0.00000000       0.00000000       0.00000000 </v>
   <v>       0.00000000       0.00000000       0.00000000 </v>
   <v>       0.00000000       0.00000000       0.00000000 </v>
   <v>       0.00000000       0.00000000       0.00000000 </v>
   <v>       0.00000000       0.00000000       0.00000000 </v>
   <v>       0.00000000       0.00000000       0.00000000 </v>
   <v>       0.00000000       0.00000000       0.00000000 </v>
   <v>       0.00000000       0.00000000       0.00000000 </v>
   <v>       0.00000000       0.00000000       0.00000000 </v>
   <v>       0.00000000       0.00000000       0.00000000 </v>
   <v>       0.00000000       0.00000000       0.00000000 </v>
   <v>       0.00000000       0.00000000       0.00000000 </v>
   <v>       0.00000000       0.00000000       0.00000000 </v>
   <v>       0.00000000       0.00000000       0.00000000 </v>
   <v>       0.00000000       0.00000000       0.00000000 </v>
   <v>       0.00000000       0.00000000       0.00000000 </v>
   <v>       0.00000000       0.00000000       0.00000000 </v>
   <v>       0.00000000       0.00000000       0.00000000 </v>
   <v>       0.00000000       0.00000000       0.00000000 </v>
   <v>       0.00000000       0.00000000       0.00000000 </v>
   <v>       0.00000000       0.00000000       0.00000000 </v>
  </varray>
 </structure>
 <calculation>
  <scstep>
   <time name="dav">   35.93   35.93</time>
   <time name="total">   36.42   36.43</time>
   <energy>
    <i name="alphaZ">   2701.53174423 </i>
    <i name="ewald"> -45507.93220887 </i>
    <i name="hartreedc"> -18008.32800088 </i>
    <i name="XCdc">   3163.39985808 </i>
    <i name="pawpsdc">  50594.51003143 </i>
    <i name="pawaedc"> -49994.65612350 </i>
    <i name="eentropy">     -0.02785198 </i>
    <i name="bandstr">   1581.94483142 </i>
    <i name="atom">  64968.54023382 </i>
    <i name="e_fr_energy">   9498.98251376 </i>
    <i name="e_wo_entrp">   9499.01036574 </i>
    <i name="e_0_energy">   9498.99643975 </i>
   </energy>
  </scstep>
  <scstep>
   <time name="dav">   40.89   40.89</time>
   <time name="total">   40.89   40.89</time>
   <energy>
    <i name="e_fr_energy">    106.99379723 </i>
    <i name="e_wo_entrp">    107.00165807 </i>
    <i name="e_0_energy">    106.99772765 </i>
   </energy>
  </scstep>
  <scstep>
   <time name="dav">   42.15   42.16</time>
   <time name="total">   42.15   42.16</time>
   <energy>
    <i name="e_fr_energy">   -959.29449978 </i>
    <i name="e_wo_entrp">   -959.29449978 </i>
    <i name="e_0_energy">   -959.29449978 </i>
   </energy>
  </scstep>
  <scstep>
   <time name="dav">   45.43   45.43</time>
   <time name="total">   45.43   45.43</time>
   <energy>
    <i name="e_fr_energy">  -1012.38193025 </i>
    <i name="e_wo_entrp">  -1012.38193025 </i>
    <i name="e_0_energy">  -1012.38193025 </i>
   </energy>
  </scstep>
  <scstep>
   <time name="dav">   55.54   55.56</time>
   <time name="total">   56.97   56.98</time>
   <energy>
    <i name="e_fr_energy">  -1017.95279703 </i>
    <i name="e_wo_entrp">  -1017.95279703 </i>
    <i name="e_0_energy">  -1017.95279703 </i>
   </energy>
  </scstep>
  <scstep>
   <time name="dav">   41.00   41.00</time>
   <time name="total">   42.89   42.89</time>
   <energy>
    <i name="e_fr_energy">   -864.79892273 </i>
    <i name="e_wo_entrp">   -864.78489988 </i>
    <i name="e_0_energy">   -864.79191131 </i>
   </energy>
  </scstep>
  <scstep>
   <time name="dav">   43.22   43.22</time>
   <time name="total">   45.13   45.15</time>
   <energy>
    <i name="e_fr_energy">   -865.75249255 </i>
    <i name="e_wo_entrp">   -865.74520266 </i>
    <i name="e_0_energy">   -865.74884760 </i>
   </energy>
  </scstep>
  <scstep>
   <time name="dav">   48.04   48.04</time>
   <time name="total">   49.90   49.91</time>
   <energy>
    <i name="e_fr_energy">   -861.05674166 </i>
    <i name="e_wo_entrp">   -861.02535358 </i>
    <i name="e_0_energy">   -861.04104762 </i>
   </energy>
  </scstep>
  <scstep>
   <time name="dav">   44.03   44.03</time>
   <time name="total">   45.95   45.96</time>
   <energy>
    <i name="e_fr_energy">   -862.38257385 </i>
    <i name="e_wo_entrp">   -862.35038332 </i>
    <i name="e_0_energy">   -862.36647858 </i>
   </energy>
  </scstep>
  <scstep>
   <time name="dav">   43.32   43.32</time>
   <time name="total">   45.19   45.19</time>
   <energy>
    <i name="e_fr_energy">   -859.82182739 </i>
    <i name="e_wo_entrp">   -859.80249433 </i>
    <i name="e_0_energy">   -859.81216086 </i>
   </energy>
  </scstep>
  <scstep>
   <time name="dav">   45.68   45.68</time>
   <time name="total">   47.57   47.58</time>
   <energy>
    <i name="e_fr_energy">   -858.79605825 </i>
    <i name="e_wo_entrp">   -858.74123369 </i>
    <i name="e_0_energy">   -858.76864597 </i>
   </energy>
  </scstep>
  <scstep>
   <time name="dav">   43.86   43.86</time>
   <time name="total">   45.70   45.71</time>
   <energy>
    <i name="e_fr_energy">   -858.54067980 </i>
    <i name="e_wo_entrp">   -858.49923386 </i>
    <i name="e_0_energy">   -858.51995683 </i>
   </energy>
  </scstep>
  <scstep>
   <time name="dav">   43.54   43.54</time>
   <time name="total">   45.38   45.40</time>
   <energy>
    <i name="e_fr_energy">   -858.38534003 </i>
    <i name="e_wo_entrp">   -858.34899231 </i>
    <i name="e_0_energy">   -858.36716617 </i>
   </energy>
  </scstep>
  <scstep>
   <time name="dav">   42.38   42.39</time>
   <time name="total">   44.23   44.24</time>
   <energy>
    <i name="e_fr_energy">   -858.37201440 </i>
    <i name="e_wo_entrp">   -858.32944205 </i>
    <i name="e_0_energy">   -858.35072822 </i>
   </energy>
  </scstep>
  <scstep>
   <time name="dav">   45.48   45.48</time>
   <time name="total">   47.34   47.36</time>
   <energy>
    <i name="e_fr_energy">   -858.17723129 </i>
    <i name="e_wo_entrp">   -858.10836545 </i>
    <i name="e_0_energy">   -858.14279837 </i>
   </energy>
  </scstep>
  <scstep>
   <time name="dav">   43.28   43.28</time>
   <time name="total">   45.16   45.16</time>
   <energy>
    <i name="e_fr_energy">   -858.23639306 </i>
    <i name="e_wo_entrp">   -858.18889097 </i>
    <i name="e_0_energy">   -858.21264202 </i>
   </energy>
  </scstep>
  <scstep>
   <time name="dav">   43.24   43.24</time>
   <time name="total">   45.12   45.13</time>
   <energy>
    <i name="e_fr_energy">   -858.18573209 </i>
    <i name="e_wo_entrp">   -858.12364715 </i>
    <i name="e_0_energy">   -858.15468962 </i>
   </energy>
  </scstep>
  <scstep>
   <time name="dav">   43.79   43.78</time>
   <time name="total">   45.63   45.63</time>
   <energy>
    <i name="e_fr_energy">   -858.18490522 </i>
    <i name="e_wo_entrp">   -858.11102382 </i>
    <i name="e_0_energy">   -858.14796452 </i>
   </energy>
  </scstep>
  <scstep>
   <time name="dav">   44.36   44.36</time>
   <time name="total">   46.23   46.25</time>
   <energy>
    <i name="e_fr_energy">   -858.18186359 </i>
    <i name="e_wo_entrp">   -858.11988687 </i>
    <i name="e_0_energy">   -858.15087523 </i>
   </energy>
  </scstep>
  <scstep>
   <time name="dav">   43.68   43.68</time>
   <time name="total">   45.55   45.55</time>
   <energy>
    <i name="e_fr_energy">   -858.17940468 </i>
    <i name="e_wo_entrp">   -858.11160230 </i>
    <i name="e_0_energy">   -858.14550349 </i>
   </energy>
  </scstep>
  <scstep>
   <time name="dav">   43.40   43.40</time>
   <time name="total">   45.30   45.32</time>
   <energy>
    <i name="e_fr_energy">   -858.18061646 </i>
    <i name="e_wo_entrp">   -858.11644376 </i>
    <i name="e_0_energy">   -858.14853011 </i>
   </energy>
  </scstep>
  <scstep>
   <time name="dav">   42.88   42.88</time>
   <time name="total">   44.77   44.77</time>
   <energy>
    <i name="e_fr_energy">   -858.17937449 </i>
    <i name="e_wo_entrp">   -858.11255777 </i>
    <i name="e_0_energy">   -858.14596613 </i>
   </energy>
  </scstep>
  <scstep>
   <time name="dav">   41.30   41.30</time>
   <time name="total">   43.15   43.16</time>
   <energy>
    <i name="e_fr_energy">   -858.17911832 </i>
    <i name="e_wo_entrp">   -858.11174788 </i>
    <i name="e_0_energy">   -858.14543310 </i>
   </energy>
  </scstep>
  <scstep>
   <time name="dav">   42.19   42.20</time>
   <time name="total">   44.01   44.01</time>
   <energy>
    <i name="e_fr_energy">   -858.17924216 </i>
    <i name="e_wo_entrp">   -858.11169520 </i>
    <i name="e_0_energy">   -858.14546868 </i>
   </energy>
  </scstep>
  <scstep>
   <time name="dav">   41.33   41.33</time>
   <time name="total">   43.19   43.20</time>
   <energy>
    <i name="e_fr_energy">   -858.17927963 </i>
    <i name="e_wo_entrp">   -858.11177394 </i>
    <i name="e_0_energy">   -858.14552679 </i>
   </energy>
  </scstep>
  <scstep>
   <time name="dav">   40.85   40.85</time>
   <time name="total">   42.77   42.77</time>
   <energy>
    <i name="e_fr_energy">   -858.17930111 </i>
    <i name="e_wo_entrp">   -858.11160418 </i>
    <i name="e_0_energy">   -858.14545264 </i>
   </energy>
  </scstep>
  <scstep>
   <time name="dav">   38.37   38.37</time>
   <time name="total">   40.28   40.29</time>
   <energy>
    <i name="e_fr_energy">   -858.17929724 </i>
    <i name="e_wo_entrp">   -858.11186027 </i>
    <i name="e_0_energy">   -858.14557876 </i>
   </energy>
  </scstep>
  <scstep>
   <time name="dav">   36.89   36.89</time>
   <time name="total">   38.77   38.77</time>
   <energy>
    <i name="e_fr_energy">   -858.17929986 </i>
    <i name="e_wo_entrp">   -858.11179876 </i>
    <i name="e_0_energy">   -858.14554931 </i>
   </energy>
  </scstep>
  <scstep>
   <time name="dav">   28.01   28.01</time>
   <time name="total">   28.49   28.50</time>
   <energy>
    <i name="alphaZ">   2701.53174423 </i>
    <i name="ewald"> -45507.93220887 </i>
    <i name="hartreedc"> -19577.20366404 </i>
    <i name="XCdc">   3259.41994384 </i>
    <i name="pawpsdc">  88495.54776461 </i>
    <i name="pawaedc"> -88147.36638009 </i>
    <i name="eentropy">     -0.06744574 </i>
    <i name="bandstr">  -7050.64928835 </i>
    <i name="atom">  64968.54023382 </i>
    <i name="e_fr_energy">   -858.17930059 </i>
    <i name="e_wo_entrp">   -858.11185485 </i>
    <i name="e_0_energy">   -858.14557772 </i>
   </energy>
  </scstep>
  <structure>
   <crystal>
    <varray name="basis" >
     <v>      12.09378762       0.00000000       0.00000000 </v>
     <v>       0.00000000      12.09378762       0.00000000 </v>
     <v>       0.00000000       0.00000000      12.09378762 </v>
    </varray>
    <i name="volume">   1768.83373704 </i>
    <varray name="rec_basis" >
     <v>       0.08268708       0.00000000       0.00000000 </v>
     <v>       0.00000000       0.08268708       0.00000000 </v>
     <v>       0.00000000       0.00000000       0.08268708 </v>
    </varray>
   </crystal>
   <varray name="positions" >
    <v>       0.57075852       0.13382458       0.53846762 </v>
    <v>       0.78220247       0.27580601       0.34492496 </v>
    <v>       0.42442117       0.76529921       0.57085579 </v>
    <v>       0.16980669       0.11247895       0.66329181 </v>
    <v>       0.63306464       0.50528694       0.23774548 </v>
    <v>       0.34902081       0.42232344       0.56209141 </v>
    <v>       0.08885111       0.19144562       0.44108183 </v>
    <v>       0.75260471       0.25139573       0.96098001 </v>
    <v>       0.94184104       0.33618649       0.16778446 </v>
    <v>       0.40256485       0.62997703       0.03368846 </v>
    <v>       0.91742982       0.88383852       0.55803297 </v>
    <v>       0.62823613       0.84816085       0.47109321 </v>
    <v>       0.68599465       0.30477172       0.68491064 </v>
    <v>       0.32078896       0.44576040       0.27442314 </v>
    <v>       0.89765034       0.48051801       0.46412013 </v>
    <v>       0.32255928       0.92832841       0.20281865 </v>
    <v>       0.09975247       0.41765257       0.96620755 </v>
    <v>       0.89288025       0.00224937       0.03319415 </v>
    <v>       0.01775217       0.67962439       0.91180247 </v>
    <v>       0.66017961       0.57391959       0.99384071 </v>
    <v>       0.04889855       0.80177481       0.17142528 </v>
    <v>       0.52231564       0.55788454       0.75806756 </v>
    <v>       0.11624933       0.64459806       0.52393550 </v>
    <v>       0.09820226       0.37199146       0.68177026 </v>
    <v>       0.32807740       0.40370706       0.88935708 </v>
    <v>       0.34111684       0.20503996       0.11515957 </v>
    <v>       0.57230886       0.93506657       0.05682720 </v>
    <v>       0.85262463       0.46081777       0.80229728 </v>
    <v>       0.71505518       0.87026557       0.80095744 </v>
    <v>       0.39675444       0.00531964       0.56593785 </v>
    <v>       0.77181826       0.62646603       0.58930791 </v>
    <v>       0.86790850       0.69436104       0.08800070 </v>
    <v>       0.67179370       0.12720568       0.19637885 </v>
    <v>       0.82259255       0.13299769       0.54369458 </v>
    <v>       0.87910258       0.04256562       0.76513006 </v>
    <v>       0.10034293       0.09497490       0.20823040 </v>
    <v>       0.57773120       0.52285986       0.49077397 </v>
    <v>       0.28798702       0.56249131       0.74855199 </v>
    <v>       0.10997758       0.87016683       0.67126732 </v>
    <v>       0.76784899       0.77315234       0.22347721 </v>
    <v>       0.33068027       0.19194729       0.36842505 </v>
    <v>       0.19482118       0.08149551       0.97242373 </v>
    <v>       0.56961349       0.27881314       0.34847771 </v>
    <v>       0.56959695       0.08773366       0.84337165 </v>
    <v>       0.17986271       0.87617112       0.42831422 </v>
    <v>       0.95825603       0.23771285       0.87438387 </v>
    <v>       0.41981444       0.21594802       0.72206694 </v>
    <v>       0.22524144       0.82551776       0.91851933 </v>
    <v>       0.02939207       0.56113461       0.21081335 </v>
    <v>       0.09979670       0.41277034       0.35685205 </v>
    <v>       0.86540834       0.97164287       0.35175746 </v>
    <v>       0.47371439       0.38632967       0.08805025 </v>
    <v>       0.47269343       0.75923049       0.81970983 </v>
    <v>       0.47187824       0.70499670       0.29394146 </v>
    <v>       0.99970109       0.14544867       0.23619998 </v>
    <v>       0.28622561       0.86192568       0.36411110 </v>
    <v>       0.08260217       0.03653565       0.90789089 </v>
    <v>       0.18739978       0.76959730       0.02385473 </v>
    <v>       0.43470255       0.27575696       0.85592494 </v>
    <v>       0.45873360       0.01960970       0.90545949 </v>
    <v>       0.76389919       0.78329596       0.87883777 </v>
    <v>       0.79123558       0.36703259       0.21653328 </v>
    <v>       0.87640160       0.64633893       0.48929202 </v>
    <v>       0.71812586       0.04707066       0.49336177 </v>
    <v>       0.27982673       0.19068424       0.92311459 </v>
    <v>       0.96739684       0.45897886       0.27591896 </v>
    <v>       0.67320551       0.58705693       0.45370235 </v>
    <v>       0.36661632       0.09454623       0.66787078 </v>
    <v>       0.28799754       0.95178922       0.98210548 </v>
    <v>       0.92891102       0.05502694       0.52182261 </v>
    <v>       0.59369717       0.40649960       0.43418393 </v>
    <v>       0.37548338       0.45019870       0.73229739 </v>
    <v>       0.90694002       0.34564484       0.78250595 </v>
    <v>       0.27007247       0.65983075       0.66127690 </v>
    <v>       0.60882212       0.24301030       0.24724138 </v>
    <v>       0.01652517       0.67870643       0.08319069 </v>
    <v>       0.32053781       0.40911641       0.04442452 </v>
    <v>       0.99716538       0.49202628       0.85727979 </v>
    <v>       0.19378112       0.25657328       0.55042205 </v>
    <v>       0.50758149       0.98057625       0.53780116 </v>
    <v>       0.28464722       0.91102429       0.61458512 </v>
    <v>       0.93872352       0.66814202       0.24681971 </v>
    <v>       0.07456890       0.98672771       0.60653098 </v>
    <v>       0.35059009       0.60429989       0.86096886 </v>
    <v>       0.16064090       0.37394393       0.21225306 </v>
    <v>       0.29982229       0.07862433       0.46487856 </v>
    <v>       0.98910337       0.33823795       0.44204321 </v>
    <v>       0.06839845       0.90909763       0.39565424 </v>
    <v>       0.71127227       0.64854885       0.20436833 </v>
    <v>       0.27047649       0.30067861       0.37114662 </v>
    <v>       0.79544502       0.05823222       0.65045987 </v>
    <v>       0.46259663       0.54693199       0.57263168 </v>
    <v>       0.46203488       0.25031212       0.41230370 </v>
    <v>       0.98383352       0.15060903       0.70886850 </v>
    <v>       0.58514027       0.05001018       0.28623167 </v>
    <v>       0.66518903       0.85048846       0.21746244 </v>
    <v>       0.74674232       0.01557964       0.84276838 </v>
    <v>       0.03165028       0.74601321       0.68317162 </v>
    <v>       0.58747132       0.17798093       0.92218136 </v>
    <v>       0.49625641       0.51193594       0.12141191 </v>
    <v>       0.75682615       0.25646132       0.52842132 </v>
    <v>       0.18821612       0.17995330       0.26550464 </v>
    <v>       0.45489367       0.81595779       0.33914663 </v>
    <v>       0.56701305       0.86295916       0.86391762 </v>
    <v>       0.50602580       0.79362387       0.69099785 </v>
    <v>       0.15058230       0.17402288       0.08035600 </v>
    <v>       0.91036781       0.25408340       0.01529852 </v>
    <v>       0.13545768       0.82052526       0.53872961 </v>
    <v>       0.13183646       0.93241795       0.17085668 </v>
    <v>       0.16667185       0.89484163       0.79725106 </v>
    <v>       0.86914932       0.11320798       0.87946331 </v>
    <v>       0.60030810       0.14287852       0.72671164 </v>
    <v>       0.74101070       0.84685358       0.65109322 </v>
    <v>       0.12277183       0.58471453       0.29780529 </v>
    <v>       0.16981441       0.51291963       0.77660252 </v>
    <v>       0.80698421       0.09108073       0.23775906 </v>
    <v>       0.35209472       0.80060727       0.87030458 </v>
    <v>       0.74497866       0.45476343       0.86452732 </v>
    <v>       0.43580883       0.56623122       0.33272666 </v>
    <v>       0.71407616       0.11349300       0.06614253 </v>
    <v>       0.37237010       0.75632644       0.16880740 </v>
    <v>       0.08902608       0.26451094       0.84199967 </v>
    <v>       0.37608266       0.09877156       0.27022505 </v>
    <v>       0.13908609       0.51874302       0.12008548 </v>
    <v>       0.87061172       0.52408791       0.66413563 </v>
    <v>       0.82127649       0.58743441       0.07188437 </v>
    <v>       0.44677485       0.33753607       0.21338197 </v>
    <v>       0.81097045       0.82749518       0.10527286 </v>
    <v>       0.49285362       0.30906623       0.65463284 </v>
    <v>       0.81868216       0.83319792       0.34504786 </v>
    <v>       0.15968294       0.47439341       0.48931949 </v>
    <v>       0.52127568       0.66020609       0.91452944 </v>
    <v>       0.66197361       0.60708290       0.67553306 </v>
    <v>       0.60745509       0.38194145       0.00740870 </v>
    <v>       0.92243795       0.92613633       0.76126220 </v>
   </varray>
  </structure>
  <varray name="forces" >
   <v>       1.94560935       2.26178020      -0.41085680 </v>
   <v>       2.23285326      -2.62003372       1.54874850 </v>
   <v>      -6.83412038      -1.92069449      -5.19120372 </v>
   <v>       0.42119738       0.11650696       2.06324532 </v>
   <v>       0.80465464      -1.79053727       0.84970162 </v>
   <v>      -2.04516093      -2.96461401      -1.66096327 </v>
   <v>      -0.58772085      -2.73339432      -0.89935399 </v>
   <v>      -4.52239872       0.98358962       0.03328495 </v>
   <v>       2.21531366      -3.50147211      -2.06416477 </v>
   <v>      -3.54098702       1.35475804       1.07544524 </v>
   <v>      -0.09383045      -1.68617627       1.87220829 </v>
   <v>       1.80089331       2.16167692      -0.74036064 </v>
   <v>      -0.62745217       0.10152454       1.38406173 </v>
   <v>      -1.67434787       1.08542233      -1.25237643 </v>
   <v>      -0.80674058      -0.36637900      -0.49493491 </v>
   <v>      -0.34688397       0.05797091      -0.31764067 </v>
   <v>       1.33627435      -1.03153476       0.76613149 </v>
   <v>      -0.21766477       1.60228363      -0.81242154 </v>
   <v>       0.79009725      -0.25116333      -4.16114471 </v>
   <v>       0.27581205      -0.72784566      -0.48458824 </v>
   <v>       1.15172414       1.32480284       4.78556357 </v>
   <v>      -0.26131244      -2.25949019       0.13631333 </v>
   <v>      -0.44014858       0.55507455       1.32215514 </v>
   <v>      -0.93327090      -0.54576302      -0.35785571 </v>
   <v>      -1.29892791      -2.04273506      -3.38890584 </v>
   <v>      -1.60412220      -0.42890936      -0.35396500 </v>
   <v>       0.27203609      -0.19008895      -0.47402680 </v>
   <v>       7.59406223       4.29551766      -2.07102287 </v>
   <v>      -0.73056723       2.36841594      -2.26538337 </v>
   <v>     -18.74492291       0.68907193       2.27477289 </v>
   <v>       1.77657466       0.06555557       1.61188328 </v>
   <v>       6.54196713       5.31507355       2.27807012 </v>
   <v>       1.03488538      -5.06238264       1.75833228 </v>
   <v>      -2.23628366      -3.43431582       0.89898296 </v>
   <v>      -0.74371049       4.17580425      -3.19079591 </v>
   <v>      11.83143701      -4.68368536      -5.74261711 </v>
   <v>      -9.22740581      -1.87151937       3.99059297 </v>
   <v>      -0.19045834       1.42878368       0.55547277 </v>
   <v>      -0.11827983      -1.99153487       1.17933078 </v>
   <v>      -3.47343111       0.50798640       5.08535594 </v>
   <v>       1.88259967      -8.48323419      -0.66155886 </v>
   <v>      -0.05798878       0.20900674      -1.93647065 </v>
   <v>      -6.24663305       5.14928256      11.35676427 </v>
   <v>      -1.56126798      -5.15300113      -0.35676029 </v>
   <v>       3.03607974       0.44792743       3.31165005 </v>
   <v>       1.73840924      -2.54361024      -1.56355662 </v>
   <v>       2.37960050       1.75881506       3.93425584 </v>
   <v>       4.35742975       7.66253372      -4.04877856 </v>
   <v>       1.27227109       2.71267929      -1.71444246 </v>
   <v>       0.31966054       1.65474098       0.23803392 </v>
   <v>      -0.94105516       1.48166952      -1.56613316 </v>
   <v>       1.69465801       1.69175146      -2.14650249 </v>
   <v>       0.31557718       5.02401697       3.89966162 </v>
   <v>      -3.52076525      -5.92106728      -5.68470096 </v>
   <v>     -11.03584421       3.95199009       2.91645226 </v>
   <v>       0.18188101      -0.63604833      -0.15481353 </v>
   <v>       0.47002257       1.01342499       2.27705200 </v>
   <v>      -2.05210376      -2.75674169       0.70900748 </v>
   <v>       0.16253768      -2.41651731      -4.55902306 </v>
   <v>       2.85022042       1.30080763      -1.48692753 </v>
   <v>       1.83457761      -2.83690966       2.36811989 </v>
   <v>      -3.20844433       2.16507801      -0.72847446 </v>
   <v>      -2.49673033       1.75489226       2.90004633 </v>
   <v>       0.40915540       0.03878651      -3.62667751 </v>
   <v>      -1.59994325      -2.71913456       1.12397833 </v>
   <v>       1.21405357       1.18416621       2.63662489 </v>
   <v>       6.22746122       5.31302288      -1.06169837 </v>
   <v>       2.18961866       3.20798510       1.66602244 </v>
   <v>      -3.11539347       2.22147021       0.73561370 </v>
   <v>       1.34958906       3.56704841      -4.82943149 </v>
   <v>       0.26857714      -2.55569523      -1.86539775 </v>
   <v>      -1.53305462       2.11676302      -1.89463047 </v>
   <v>      -1.45036695      -5.72133789      -0.58521644 </v>
   <v>       1.29719624      -0.13944504      -1.87231976 </v>
   <v>       6.68976205      -3.75336693     -12.96198451 </v>
   <v>      -3.69039489      -3.92074138      -5.21095158 </v>
   <v>       3.59525051      -0.72884028       5.97826873 </v>
   <v>      -5.17754189       2.71894513       0.21421015 </v>
   <v>       0.41328532       1.13140840       3.97096052 </v>
   <v>       8.14778735      -4.83950964      -2.43313572 </v>
   <v>       5.23757395       1.88810745      -2.03509059 </v>
   <v>      -2.53459574       0.34493027      -0.17424716 </v>
   <v>       0.39355231      -2.32074511       1.56872551 </v>
   <v>      -0.96143765      -1.45339280      -0.96091755 </v>
   <v>      -2.10546146      -0.04413517       3.58698211 </v>
   <v>       2.34156047       0.87921968       0.59455407 </v>
   <v>       1.96883493       0.03294445      -1.97080056 </v>
   <v>      -7.15717253       2.97523036      -4.70423226 </v>
   <v>       0.16728365       2.28125809       1.20634271 </v>
   <v>      -0.69498156       5.93862727       1.41195106 </v>
   <v>      -0.08441948       1.94569052       4.95546221 </v>
   <v>       4.99512134       1.71486959      -2.80095379 </v>
   <v>      -2.51802529      -1.61337278       1.62156697 </v>
   <v>      -2.19225580      -0.12453428       1.14101722 </v>
   <v>       1.79820524       1.28960072      -2.99622810 </v>
   <v>      -3.90444773       1.68174928      -0.25013660 </v>
   <v>      -5.32754003      -5.93613356      -0.99072332 </v>
   <v>       0.84143091       1.80921736       0.31933504 </v>
   <v>       1.98917814       4.54567667       4.61436651 </v>
   <v>       0.94054105       2.37348939       0.26450010 </v>
   <v>       1.61653896      -0.43988314       0.63996810 </v>
   <v>       1.19926897      -2.61109913       2.29802431 </v>
   <v>       2.84135337       4.42252791       5.75914588 </v>
   <v>       1.84694032      -0.57633282      -0.41814908 </v>
   <v>       2.27466926      -1.68197346       5.45553390 </v>
   <v>      -0.06017985      -3.98052085      -0.73589834 </v>
   <v>       3.90803772       1.14580343      -3.31539085 </v>
   <v>       1.51757946      -3.31912586       0.66767725 </v>
   <v>       1.20919977       8.85395194       0.64777301 </v>
   <v>       0.42913655      -2.90157827       1.07078997 </v>
   <v>       3.85433795       5.76641372       1.70082625 </v>
   <v>      -1.65296895      -0.56282069      -2.20465807 </v>
   <v>      -1.26084520      -1.11626978       0.90758126 </v>
   <v>       2.14891956       0.43315259       4.64897223 </v>
   <v>      -0.01460253      -1.61291599       0.57748766 </v>
   <v>      -1.63699812       0.11808797       1.85441892 </v>
   <v>       0.92489577      -0.50848358      -0.58735571 </v>
   <v>      -3.66715020       0.31635951       0.91262795 </v>
   <v>       2.87100842       4.02735542       0.73942623 </v>
   <v>      -1.67228510      -1.10882816       2.18771380 </v>
   <v>       3.02576259      -2.45599193       0.84809452 </v>
[...]
       <r>     4.0042    46.3258   865.9249 </r>
       <r>     4.1763    18.4197   869.0963 </r>
       <r>     4.3485     5.2490   870.0000 </r>
       <r>     4.5207     0.0000   870.0000 </r>
       <r>     4.6929     0.9485   870.1633 </r>
       <r>     4.8650    10.6401   871.9952 </r>
       <r>     5.0372     3.4767   872.5938 </r>
       <r>     5.2094    19.7394   875.9924 </r>
       <r>     5.3816    11.5207   877.9759 </r>
       <r>     5.5537     9.9267   879.6850 </r>
       <r>     5.7259    12.9167   881.9089 </r>
       <r>     5.8981    29.8685   887.0515 </r>
       <r>     6.0702     5.9118   888.0693 </r>
       <r>     6.2424    20.7495   891.6418 </r>
       <r>     6.4146     9.1277   893.2134 </r>
       <r>     6.5868    34.5826   899.1675 </r>
       <r>     6.7589    28.0647   903.9995 </r>
       <r>     6.9311    34.6870   909.9716 </r>
       <r>     7.1033    33.7172   915.7768 </r>
       <r>     7.2755    47.8855   924.0214 </r>
       <r>     7.4476    42.2034   931.2876 </r>
       <r>     7.6198    54.2399   940.6263 </r>
       <r>     7.7920    56.2190   950.3056 </r>
       <r>     7.9641    57.2583   960.1639 </r>
       <r>     8.1363    59.3817   970.3878 </r>
       <r>     8.3085    60.1804   980.7492 </r>
       <r>     8.4807    53.9357   990.0354 </r>
       <r>     8.6528    60.8534  1000.5127 </r>
       <r>     8.8250    70.7176  1012.6883 </r>
       <r>     8.9972    69.1968  1024.6021 </r>
       <r>     9.1693    71.3281  1036.8828 </r>
       <r>     9.3415    18.1018  1039.9995 </r>
       <r>     9.5137     0.0030  1040.0000 </r>
       <r>     9.6859     0.0000  1040.0000 </r>
       <r>     9.8580     0.0000  1040.0000 </r>
       <r>    10.0302     0.0000  1040.0000 </r>
       <r>    10.2024     0.0000  1040.0000 </r>
       <r>    10.3746     0.0000  1040.0000 </r>
       <r>    10.5467     0.0000  1040.0000 </r>
       <r>    10.7189     0.0000  1040.0000 </r>
       <r>    10.8911     0.0000  1040.0000 </r>
       <r>    11.0632     0.0000  1040.0000 </r>
       <r>    11.2354     0.0000  1040.0000 </r>
       <r>    11.4076     0.0000  1040.0000 </r>
       <r>    11.5798     0.0000  1040.0000 </r>
      </set>
     </set>
    </array>
   </total>
  </dos>
 </calculation>
 <structure name="finalpos" >
  <crystal>
   <varray name="basis" >
    <v>      12.09378762       0.00000000       0.00000000 </v>
    <v>       0.00000000      12.09378762       0.00000000 </v>
    <v>       0.00000000       0.00000000      12.09378762 </v>
   </varray>
   <i name="volume">   1768.83373704 </i>
   <varray name="rec_basis" >
    <v>       0.08268708       0.00000000       0.00000000 </v>
    <v>       0.00000000       0.08268708       0.00000000 </v>
    <v>       0.00000000       0.00000000       0.08268708 </v>
   </varray>
  </crystal>
  <varray name="positions" >
   <v>       0.57075852       0.13382458       0.53846762 </v>
   <v>       0.78220247       0.27580601       0.34492496 </v>
   <v>       0.42442117       0.76529921       0.57085579 </v>
   <v>       0.16980669       0.11247895       0.66329181 </v>
   <v>       0.63306464       0.50528694       0.23774548 </v>
   <v>       0.34902081       0.42232344       0.56209141 </v>
   <v>       0.08885111       0.19144562       0.44108183 </v>
   <v>       0.75260471       0.25139573       0.96098001 </v>
   <v>       0.94184104       0.33618649       0.16778446 </v>
   <v>       0.40256485       0.62997703       0.03368846 </v>
   <v>       0.91742982       0.88383852       0.55803297 </v>
   <v>       0.62823613       0.84816085       0.47109321 </v>
   <v>       0.68599465       0.30477172       0.68491064 </v>
   <v>       0.32078896       0.44576040       0.27442314 </v>
   <v>       0.89765034       0.48051801       0.46412013 </v>
   <v>       0.32255928       0.92832841       0.20281865 </v>
   <v>       0.09975247       0.41765257       0.96620755 </v>
   <v>       0.89288025       0.00224937       0.03319415 </v>
   <v>       0.01775217       0.67962439       0.91180247 </v>
   <v>       0.66017961       0.57391959       0.99384071 </v>
   <v>       0.04889855       0.80177481       0.17142528 </v>
   <v>       0.52231564       0.55788454       0.75806756 </v>
   <v>       0.11624933       0.64459806       0.52393550 </v>
   <v>       0.09820226       0.37199146       0.68177026 </v>
   <v>       0.32807740       0.40370706       0.88935708 </v>
   <v>       0.34111684       0.20503996       0.11515957 </v>
   <v>       0.57230886       0.93506657       0.05682720 </v>
   <v>       0.85262463       0.46081777       0.80229728 </v>
   <v>       0.71505518       0.87026557       0.80095744 </v>
   <v>       0.39675444       0.00531964       0.56593785 </v>
   <v>       0.77181826       0.62646603       0.58930791 </v>
   <v>       0.86790850       0.69436104       0.08800070 </v>
   <v>       0.67179370       0.12720568       0.19637885 </v>
   <v>       0.82259255       0.13299769       0.54369458 </v>
   <v>       0.87910258       0.04256562       0.76513006 </v>
   <v>       0.10034293       0.09497490       0.20823040 </v>
   <v>       0.57773120       0.52285986       0.49077397 </v>
   <v>       0.28798702       0.56249131       0.74855199 </v>
   <v>       0.10997758       0.87016683       0.67126732 </v>
   <v>       0.76784899       0.77315234       0.22347721 </v>
   <v>       0.33068027       0.19194729       0.36842505 </v>
   <v>       0.19482118       0.08149551       0.97242373 </v>
   <v>       0.56961349       0.27881314       0.34847771 </v>
   <v>       0.56959695       0.08773366       0.84337165 </v>
   <v>       0.17986271       0.87617112       0.42831422 </v>
   <v>       0.95825603       0.23771285       0.87438387 </v>
   <v>       0.41981444       0.21594802       0.72206694 </v>
   <v>       0.22524144       0.82551776       0.91851933 </v>
   <v>       0.02939207       0.56113461       0.21081335 </v>
   <v>       0.09979670       0.41277034       0.35685205 </v>
   <v>       0.86540834       0.97164287       0.35175746 </v>
   <v>       0.47371439       0.38632967       0.08805025 </v>
   <v>       0.47269343       0.75923049       0.81970983 </v>
   <v>       0.47187824       0.70499670       0.29394146 </v>
   <v>       0.99970109       0.14544867       0.23619998 </v>
   <v>       0.28622561       0.86192568       0.36411110 </v>
   <v>       0.08260217       0.03653565       0.90789089 </v>
   <v>       0.18739978       0.76959730       0.02385473 </v>
   <v>       0.43470255       0.27575696       0.85592494 </v>
   <v>       0.45873360       0.01960970       0.90545949 </v>
   <v>       0.76389919       0.78329596       0.87883777 </v>
   <v>       0.79123558       0.36703259       0.21653328 </v>
   <v>       0.87640160       0.64633893       0.48929202 </v>
   <v>       0.71812586       0.04707066       0.49336177 </v>
   <v>       0.27982673       0.19068424       0.92311459 </v>
   <v>       0.96739684       0.45897886       0.27591896 </v>
   <v>       0.67320551       0.58705693       0.45370235 </v>
   <v>       0.36661632       0.09454623       0.66787078 </v>
   <v>       0.28799754       0.95178922       0.98210548 </v>
   <v>       0.92891102       0.05502694       0.52182261 </v>
   <v>       0.59369717       0.40649960       0.43418393 </v>
   <v>       0.37548338       0.45019870       0.73229739 </v>
   <v>       0.90694002       0.34564484       0.78250595 </v>
   <v>       0.27007247       0.65983075       0.66127690 </v>
   <v>       0.60882212       0.24301030       0.24724138 </v>
   <v>       0.01652517       0.67870643       0.08319069 </v>
   <v>       0.32053781       0.40911641       0.04442452 </v>
   <v>       0.99716538       0.49202628       0.85727979 </v>
   <v>       0.19378112       0.25657328       0.55042205 </v>
   <v>       0.50758149       0.98057625       0.53780116 </v>
   <v>       0.28464722       0.91102429       0.61458512 </v>
   <v>       0.93872352       0.66814202       0.24681971 </v>
   <v>       0.07456890       0.98672771       0.60653098 </v>
   <v>       0.35059009       0.60429989       0.86096886 </v>
   <v>       0.16064090       0.37394393       0.21225306 </v>
   <v>       0.29982229       0.07862433       0.46487856 </v>
   <v>       0.98910337       0.33823795       0.44204321 </v>
   <v>       0.06839845       0.90909763       0.39565424 </v>
   <v>       0.71127227       0.64854885       0.20436833 </v>
   <v>       0.27047649       0.30067861       0.37114662 </v>
   <v>       0.79544502       0.05823222       0.65045987 </v>
   <v>       0.46259663       0.54693199       0.57263168 </v>
   <v>       0.46203488       0.25031212       0.41230370 </v>
   <v>       0.98383352       0.15060903       0.70886850 </v>
   <v>       0.58514027       0.05001018       0.28623167 </v>
   <v>       0.66518903       0.85048846       0.21746244 </v>
   <v>       0.74674232       0.01557964       0.84276838 </v>
   <v>       0.03165028       0.74601321       0.68317162 </v>
   <v>       0.58747132       0.17798093       0.92218136 </v>
   <v>       0.49625641       0.51193594       0.12141191 </v>
   <v>       0.75682615       0.25646132       0.52842132 </v>
   <v>       0.18821612       0.17995330       0.26550464 </v>
   <v>       0.45489367       0.81595779       0.33914663 </v>
   <v>       0.56701305       0.86295916       0.86391762 </v>
   <v>       0.50602580       0.79362387       0.69099785 </v>
   <v>       0.15058230       0.17402288       0.08035600 </v>
   <v>       0.91036781       0.25408340       0.01529852 </v>
   <v>       0.13545768       0.82052526       0.53872961 </v>
   <v>       0.13183646       0.93241795       0.17085668 </v>
   <v>       0.16667185       0.89484163       0.79725106 </v>
   <v>       0.86914932       0.11320798       0.87946331 </v>
   <v>       0.60030810       0.14287852       0.72671164 </v>
   <v>       0.74101070       0.84685358       0.65109322 </v>
   <v>       0.12277183       0.58471453       0.29780529 </v>
   <v>       0.16981441       0.51291963       0.77660252 </v>
   <v>       0.80698421       0.09108073       0.23775906 </v>
   <v>       0.35209472       0.80060727       0.87030458 </v>
   <v>       0.74497866       0.45476343       0.86452732 </v>
   <v>       0.43580883       0.56623122       0.33272666 </v>
   <v>       0.71407616       0.11349300       0.06614253 </v>
   <v>       0.37237010       0.75632644       0.16880740 </v>
   <v>       0.08902608       0.26451094       0.84199967 </v>
   <v>       0.37608266       0.09877156       0.27022505 </v>
   <v>       0.13908609       0.51874302       0.12008548 </v>
   <v>       0.87061172       0.52408791       0.66413563 </v>
   <v>       0.82127649       0.58743441       0.07188437 </v>
   <v>       0.44677485       0.33753607       0.21338197 </v>
   <v>       0.81097045       0.82749518       0.10527286 </v>
   <v>       0.49285362       0.30906623       0.65463284 </v>
   <v>       0.81868216       0.83319792       0.34504786 </v>
   <v>       0.15968294       0.47439341       0.48931949 </v>
   <v>       0.52127568       0.66020609       0.91452944 </v>
   <v>       0.66197361       0.60708290       0.67553306 </v>
   <v>       0.60745509       0.38194145       0.00740870 </v>
   <v>       0.92243795       0.92613633       0.76126220 </v>
  </varray>
  <varray name="velocities" >
   <v>       0.00000000       0.00000000       0.00000000 </v>
   <v>       0.00000000       0.00000000       0.00000000 </v>
   <v>       0.00000000       0.00000000       0.00000000 </v>
   <v>       0.00000000       0.00000000       0.00000000 </v>
   <v>       0.00000000       0.00000000       0.00000000 </v>
   <v>       0.00000000       0.00000000       0.00000000 </v>
   <v>       0.00000000       0.00000000       0.00000000 </v>
   <v>       0.00000000       0.00000000       0.00000000 </v>
   <v>       0.00000000       0.00000000       0.00000000 </v>
   <v>       0.00000000       0.00000000       0.00000000 </v>
   <v>       0.00000000       0.00000000       0.00000000 </v>
   <v>       0.00000000       0.00000000       0.00000000 </v>
   <v>       0.00000000       0.00000000       0.00000000 </v>
   <v>       0.00000000       0.00000000       0.00000000 </v>
   <v>       0.00000000       0.00000000       0.00000000 </v>
   <v>       0.00000000       0.00000000       0.00000000 </v>
   <v>       0.00000000       0.00000000       0.00000000 </v>
   <v>       0.00000000       0.00000000       0.00000000 </v>
   <v>       0.00000000       0.00000000       0.00000000 </v>
   <v>       0.00000000       0.00000000       0.00000000 </v>
   <v>       0.00000000       0.00000000       0.00000000 </v>
   <v>       0.00000000       0.00000000       0.00000000 </v>
   <v>       0.00000000       0.00000000       0.00000000 </v>
   <v>       0.00000000       0.00000000       0.00000000 </v>
   <v>       0.00000000       0.00000000       0.00000000 </v>
   <v>       0.00000000       0.00000000       0.00000000 </v>
   <v>       0.00000000       0.00000000       0.00000000 </v>
   <v>       0.00000000       0.00000000       0.00000000 </v>
   <v>       0.00000000       0.00000000       0.00000000 </v>
   <v>       0.00000000       0.00000000       0.00000000 </v>
   <v>       0.00000000       0.00000000       0.00000000 </v>
   <v>       0.00000000       0.00000000       0.00000000 </v>
   <v>       0.00000000       0.00000000       0.00000000 </v>
   <v>       0.00000000       0.00000000       0.00000000 </v>
   <v>       0.00000000       0.00000000       0.00000000 </v>
   <v>       0.00000000       0.00000000       0.00000000 </v>
   <v>       0.00000000       0.00000000       0.00000000 </v>
   <v>       0.00000000       0.00000000       0.00000000 </v>
   <v>       0.00000000       0.00000000       0.00000000 </v>
   <v>       0.00000000       0.00000000       0.00000000 </v>
   <v>       0.00000000       0.00000000       0.00000000 </v>
   <v>       0.00000000       0.00000000       0.00000000 </v>
   <v>       0.00000000       0.00000000       0.00000000 </v>
   <v>       0.00000000       0.00000000       0.00000000 </v>
   <v>       0.00000000       0.00000000       0.00000000 </v>
   <v>       0.00000000       0.00000000       0.00000000 </v>
   <v>       0.00000000       0.00000000       0.00000000 </v>
   <v>       0.00000000       0.00000000       0.00000000 </v>
   <v>       0.00000000       0.00000000       0.00000000 </v>
   <v>       0.00000000       0.00000000       0.00000000 </v>
   <v>       0.00000000       0.00000000       0.00000000 </v>
   <v>       0.00000000       0.00000000       0.00000000 </v>
   <v>       0.00000000       0.00000000       0.00000000 </v>
   <v>       0.00000000       0.00000000       0.00000000 </v>
   <v>       0.00000000       0.00000000       0.00000000 </v>
   <v>       0.00000000       0.00000000       0.00000000 </v>
   <v>       0.00000000       0.00000000       0.00000000 </v>
   <v>       0.00000000       0.00000000       0.00000000 </v>
   <v>       0.00000000       0.00000000       0.00000000 </v>
   <v>       0.00000000       0.00000000       0.00000000 </v>
   <v>       0.00000000       0.00000000       0.00000000 </v>
   <v>       0.00000000       0.00000000       0.00000000 </v>
   <v>       0.00000000       0.00000000       0.00000000 </v>
   <v>       0.00000000       0.00000000       0.00000000 </v>
   <v>       0.00000000       0.00000000       0.00000000 </v>
   <v>       0.00000000       0.00000000       0.00000000 </v>
   <v>       0.00000000       0.00000000       0.00000000 </v>
   <v>       0.00000000       0.00000000       0.00000000 </v>
   <v>       0.00000000       0.00000000       0.00000000 </v>
   <v>       0.00000000       0.00000000       0.00000000 </v>
   <v>       0.00000000       0.00000000       0.00000000 </v>
   <v>       0.00000000       0.00000000       0.00000000 </v>
   <v>       0.00000000       0.00000000       0.00000000 </v>
   <v>       0.00000000       0.00000000       0.00000000 </v>
   <v>       0.00000000       0.00000000       0.00000000 </v>
   <v>       0.00000000       0.00000000       0.00000000 </v>
   <v>       0.00000000       0.00000000       0.00000000 </v>
   <v>       0.00000000       0.00000000       0.00000000 </v>
   <v>       0.00000000       0.00000000       0.00000000 </v>
   <v>       0.00000000       0.00000000       0.00000000 </v>
   <v>       0.00000000       0.00000000       0.00000000 </v>
   <v>       0.00000000       0.00000000       0.00000000 </v>
   <v>       0.00000000       0.00000000       0.00000000 </v>
   <v>       0.00000000       0.00000000       0.00000000 </v>
   <v>       0.00000000       0.00000000       0.00000000 </v>
   <v>       0.00000000       0.00000000       0.00000000 </v>
   <v>       0.00000000       0.00000000       0.00000000 </v>
   <v>       0.00000000       0.00000000       0.00000000 </v>
   <v>       0.00000000       0.00000000       0.00000000 </v>
   <v>       0.00000000       0.00000000       0.00000000 </v>
   <v>       0.00000000       0.00000000       0.00000000 </v>
   <v>       0.00000000       0.00000000       0.00000000 </v>
   <v>       0.00000000       0.00000000       0.00000000 </v>
   <v>       0.00000000       0.00000000       0.00000000 </v>
   <v>       0.00000000       0.00000000       0.00000000 </v>
   <v>       0.00000000       0.00000000       0.00000000 </v>
   <v>       0.00000000       0.00000000       0.00000000 </v>
   <v>       0.00000000       0.00000000       0.00000000 </v>
   <v>       0.00000000       0.00000000       0.00000000 </v>
   <v>       0.00000000       0.00000000       0.00000000 </v>
   <v>       0.00000000       0.00000000       0.00000000 </v>
   <v>       0.00000000       0.00000000       0.00000000 </v>
   <v>       0.00000000       0.00000000       0.00000000 </v>
   <v>       0.00000000       0.00000000       0.00000000 </v>
   <v>       0.00000000       0.00000000       0.00000000 </v>
   <v>       0.00000000       0.00000000       0.00000000 </v>
   <v>       0.00000000       0.00000000       0.00000000 </v>
   <v>       0.00000000       0.00000000       0.00000000 </v>
   <v>       0.00000000       0.00000000       0.00000000 </v>
   <v>       0.00000000       0.00000000       0.00000000 </v>
   <v>       0.00000000       0.00000000       0.00000000 </v>
   <v>       0.00000000       0.00000000       0.00000000 </v>
   <v>       0.00000000       0.00000000       0.00000000 </v>
   <v>       0.00000000       0.00000000       0.00000000 </v>
   <v>       0.00000000       0.00000000       0.00000000 </v>
   <v>       0.00000000       0.00000000       0.00000000 </v>
   <v>       0.00000000       0.00000000       0.00000000 </v>
   <v>       0.00000000       0.00000000       0.00000000 </v>
   <v>       0.00000000       0.00000000       0.00000000 </v>
   <v>       0.00000000       0.00000000       0.00000000 </v>
   <v>       0.00000000       0.00000000       0.00000000 </v>
   <v>       0.00000000       0.00000000       0.00000000 </v>
   <v>       0.00000000       0.00000000       0.00000000 </v>
   <v>       0.00000000       0.00000000       0.00000000 </v>
   <v>       0.00000000       0.00000000       0.00000000 </v>
   <v>       0.00000000       0.00000000       0.00000000 </v>
   <v>       0.00000000       0.00000000       0.00000000 </v>
   <v>       0.00000000       0.00000000       0.00000000 </v>
   <v>       0.00000000       0.00000000       0.00000000 </v>
   <v>       0.00000000       0.00000000       0.00000000 </v>
   <v>       0.00000000       0.00000000       0.00000000 </v>
   <v>       0.00000000       0.00000000       0.00000000 </v>
   <v>       0.00000000       0.00000000       0.00000000 </v>
   <v>       0.00000000       0.00000000       0.00000000 </v>
   <v>       0.00000000       0.00000000       0.00000000 </v>
  </varray>
 </structure>
</modeling>
