<?xml version="1.0" encoding="ISO-8859-1"?>
<modeling>
 <generator>
  <i name="program" type="string">vasp </i>
  <i name="version" type="string">5.4.4.18Apr17-6-g9f103f2a35  </i>
  <i name="subversion" type="string">(build Mar 16 2023 09:39:13) complex            parallel </i>
  <i name="platform" type="string">LinuxIFC </i>
  <i name="date" type="string">2024 04 29 </i>
  <i name="time" type="string">19:47:17 </i>
 </generator>
 <incar>
  <i type="int" name="ISTART">     0</i>
  <i type="string" name="PREC">a</i>
  <i type="logical" name="ADDGRID"> T  </i>
  <i type="int" name="IBRION">    -1</i>
  <i name="EDIFF">      0.00000100</i>
  <i name="EDIFFG">     -0.01000000</i>
  <i type="int" name="NSW">     1</i>
  <i type="int" name="ISIF">     2</i>
  <i type="int" name="ISYM">     0</i>
  <i name="ENCUT">    600.00000000</i>
  <i name="POTIM">      1.00000000</i>
  <i type="string" name="LREAL">  A</i>
  <i type="int" name="ISMEAR">     0</i>
  <i name="SIGMA">      0.05000000</i>
  <i name="KSPACING">      0.30000000</i>
  <i type="logical" name="KGAMMA"> T  </i>
  <i type="logical" name="LWAVE"> F  </i>
  <i type="logical" name="LCHARG"> F  </i>
  <i type="logical" name="LSCALAPACK"> F  </i>
  <v type="int" name="KPOINT_BSE">    -1     0     0     0</v>
 </incar>
 <structure name="primitive_cell" >
  <crystal>
   <varray name="basis" >
    <v>      11.62817333       0.00000000       0.00000000 </v>
    <v>       0.00000000      11.62817333       0.00000000 </v>
    <v>       0.00000000       0.00000000      11.62817333 </v>
   </varray>
   <i name="volume">   1572.29665425 </i>
   <varray name="rec_basis" >
    <v>       0.08599803       0.00000000       0.00000000 </v>
    <v>       0.00000000       0.08599803       0.00000000 </v>
    <v>       0.00000000       0.00000000       0.08599803 </v>
   </varray>
  </crystal>
  <varray name="positions" >
   <v>      -0.14161236      -0.37156977       0.39567307 </v>
   <v>      -0.26525800      -0.49464737       0.38362623 </v>
   <v>      -0.05045234      -0.30359450       0.24828231 </v>
   <v>      -0.10949413      -0.23193205      -0.46372083 </v>
   <v>      -0.11584503      -0.17542314       0.35063417 </v>
   <v>      -0.30405162      -0.23623179       0.41792486 </v>
   <v>      -0.09792761       0.40836758       0.37859577 </v>
   <v>       0.07828437      -0.40674644       0.42891021 </v>
   <v>       0.00644735      -0.49229567       0.27183380 </v>
   <v>      -0.22709665      -0.40810831       0.17893897 </v>
   <v>      -0.19563157      -0.12586549       0.46710629 </v>
   <v>      -0.10655985      -0.35398527       0.12544042 </v>
   <v>       0.00275401      -0.16531069       0.28696364 </v>
   <v>      -0.30294479      -0.44356891      -0.37835933 </v>
   <v>      -0.14662357       0.42248935      -0.40200257 </v>
   <v>       0.05093256      -0.22312901      -0.44304316 </v>
   <v>      -0.15838129       0.34391148       0.48109273 </v>
   <v>      -0.41145058      -0.38046581       0.27026691 </v>
   <v>      -0.12330905      -0.38624324      -0.30551803 </v>
   <v>      -0.36492778       0.39133831       0.40345315 </v>
   <v>      -0.43975923      -0.25313577       0.48517369 </v>
   <v>      -0.05003443       0.49845336      -0.31048857 </v>
   <v>       0.07308036       0.48330781      -0.39179688 </v>
   <v>       0.16199981      -0.46868656      -0.49066603 </v>
   <v>      -0.08148224       0.37361257       0.17943565 </v>
   <v>      -0.39135608      -0.28004224      -0.39205723 </v>
   <v>      -0.26281480       0.29997955       0.39508834 </v>
   <v>       0.12954917      -0.16279965       0.29240496 </v>
   <v>      -0.49966892      -0.36811960       0.41954703 </v>
   <v>       0.01328545      -0.41698200       0.07218335 </v>
   <v>      -0.22147336      -0.10600560       0.16128553 </v>
   <v>      -0.06556673      -0.02717558       0.49473761 </v>
   <v>      -0.38492639       0.39317078      -0.45860092 </v>
   <v>      -0.21025129       0.41899107       0.10004431 </v>
   <v>      -0.18315385      -0.14693574      -0.30893081 </v>
   <v>      -0.43963067      -0.21230079       0.21448974 </v>
   <v>      -0.31446494      -0.02607353       0.34746256 </v>
   <v>      -0.28778060      -0.05132286      -0.43774214 </v>
   <v>       0.22868195      -0.39388399       0.26507993 </v>
   <v>       0.09351081       0.32115819       0.30872171 </v>
   <v>      -0.15295533      -0.26327930       0.01341412 </v>
   <v>      -0.34971214       0.40110174       0.13795337 </v>
   <v>       0.23895137      -0.35395655      -0.43881368 </v>
   <v>       0.01450103      -0.00880989       0.26520654 </v>
   <v>      -0.02184274      -0.10187390       0.10140473 </v>
   <v>      -0.07144093       0.22703368       0.28300165 </v>
   <v>       0.49687675       0.41033046       0.36139517 </v>
   <v>       0.12890106       0.30423376       0.49360366 </v>
   <v>      -0.25935526       0.00496632       0.20892426 </v>
   <v>      -0.09783273       0.20282862       0.49075970 </v>
   <v>       0.16913681      -0.22452316       0.12252643 </v>
   <v>       0.25006846       0.43975576       0.46382625 </v>
   <v>      -0.28449475      -0.31422538      -0.18502184 </v>
   <v>       0.21653824      -0.13104293      -0.48314414 </v>
   <v>      -0.25035148       0.40588220      -0.22451211 </v>
   <v>      -0.20517681       0.46850724      -0.02672725 </v>
   <v>      -0.00005610       0.46836705      -0.19465293 </v>
   <v>       0.44765230      -0.17117449      -0.49529476 </v>
   <v>       0.14476306      -0.21014488      -0.26170039 </v>
   <v>       0.32264339      -0.25868455       0.41274070 </v>
   <v>       0.20984683       0.44029813       0.11490239 </v>
   <v>       0.27140510      -0.45200264       0.14663388 </v>
   <v>      -0.15473531      -0.39215973      -0.11573854 </v>
   <v>       0.20482138       0.33133109       0.21638191 </v>
   <v>      -0.07154956      -0.15662133      -0.04005438 </v>
   <v>       0.04228317       0.00670049       0.13487512 </v>
   <v>       0.40557432       0.48558436      -0.46466340 </v>
   <v>       0.45245085      -0.14447003       0.21899296 </v>
   <v>       0.17681309       0.01038334       0.36191180 </v>
   <v>      -0.41097102      -0.30573012      -0.17885735 </v>
   <v>      -0.39109271       0.49825617      -0.02756010 </v>
   <v>      -0.35790223      -0.12888912       0.00361713 </v>
   <v>      -0.28055162       0.14509949       0.47630650 </v>
   <v>      -0.05724812       0.03437460      -0.30456827 </v>
   <v>       0.47254264      -0.04306761       0.32120365 </v>
   <v>      -0.22495947       0.15445060       0.21970050 </v>
   <v>      -0.03461465       0.10158821      -0.43863579 </v>
   <v>      -0.44971716       0.03959045       0.36999004 </v>
   <v>       0.09199201       0.07977461      -0.49695277 </v>
   <v>       0.31689307      -0.18434188       0.23585996 </v>
   <v>       0.40537356       0.49084985       0.17635513 </v>
   <v>      -0.45046743       0.30173304      -0.33503035 </v>
   <v>      -0.48452264      -0.45124932      -0.21362125 </v>
   <v>      -0.41550424      -0.03933458      -0.29974197 </v>
   <v>       0.02619917       0.34690087      -0.02036783 </v>
   <v>       0.42216935       0.36955816       0.24076802 </v>
   <v>      -0.26046387       0.19328647      -0.32401025 </v>
   <v>       0.04504708      -0.24467072      -0.09006033 </v>
   <v>      -0.38419087       0.21871755       0.14293047 </v>
   <v>       0.49061077      -0.21395502      -0.23620205 </v>
   <v>       0.13494221      -0.01444820      -0.30133809 </v>
   <v>      -0.36023216       0.03742576       0.11105594 </v>
   <v>      -0.42929930       0.17002778       0.31974323 </v>
   <v>      -0.44816548      -0.29809525      -0.05095700 </v>
   <v>       0.17508160      -0.02630350       0.11300672 </v>
   <v>      -0.46333270       0.05853979      -0.49546872 </v>
   <v>       0.08015407       0.23003101      -0.29937476 </v>
   <v>       0.21593668      -0.00055795      -0.41079297 </v>
   <v>      -0.23843745       0.27582406      -0.19168071 </v>
   <v>      -0.16497113      -0.09577754      -0.12594947 </v>
   <v>       0.30980980       0.31465036       0.29471137 </v>
   <v>       0.11089035      -0.14571932      -0.15621182 </v>
   <v>       0.47298504       0.31635507       0.13071198 </v>
   <v>       0.32030208      -0.35292350       0.07043304 </v>
   <v>       0.15535713      -0.41100097      -0.12026614 </v>
   <v>       0.42930051       0.26772602      -0.46681868 </v>
   <v>       0.44201372      -0.10401047       0.09319525 </v>
   <v>      -0.03674266       0.12079216       0.08374996 </v>
   <v>       0.20123091       0.22989942       0.11923879 </v>
   <v>       0.34557869      -0.19390143      -0.31090941 </v>
   <v>       0.18169967       0.28078910      -0.23166451 </v>
   <v>       0.17092429       0.39397012      -0.13993561 </v>
   <v>       0.37223114       0.42748585      -0.28270244 </v>
   <v>      -0.17842252       0.07848180      -0.02445014 </v>
   <v>       0.32142918      -0.35216311      -0.19478509 </v>
   <v>       0.03406831      -0.03216897      -0.11133559 </v>
   <v>      -0.36969992      -0.01126138      -0.13467892 </v>
   <v>      -0.11703366       0.20200626      -0.13065233 </v>
   <v>       0.02934769       0.08776392      -0.19202358 </v>
   <v>       0.40653626       0.48465850      -0.05175056 </v>
   <v>       0.30690233       0.10668962       0.43864595 </v>
   <v>       0.23461847      -0.10593090      -0.07486415 </v>
   <v>       0.38301433      -0.22006951      -0.03782171 </v>
   <v>       0.35952924      -0.48331533      -0.17815616 </v>
   <v>      -0.33663730       0.20311821      -0.07972990 </v>
   <v>       0.41462709       0.12780525      -0.47169983 </v>
   <v>       0.34341901       0.05935919      -0.35856582 </v>
   <v>      -0.47894886       0.13506914      -0.24263331 </v>
   <v>       0.34433730       0.09944541       0.18149614 </v>
   <v>       0.11894304       0.16604527      -0.11840280 </v>
   <v>       0.35564766       0.30817129      -0.02751351 </v>
   <v>       0.31423122       0.21463623      -0.20117458 </v>
   <v>      -0.44191512       0.10959975      -0.10869227 </v>
   <v>       0.45213219       0.12069089      -0.02122512 </v>
   <v>       0.28198228       0.06651075      -0.12452780 </v>
  </varray>
 </structure>
 <varray name="primitive_index" >
  <v type="int" >        1 </v>
  <v type="int" >      131 </v>
  <v type="int" >      124 </v>
  <v type="int" >      104 </v>
  <v type="int" >       65 </v>
  <v type="int" >       74 </v>
  <v type="int" >      125 </v>
  <v type="int" >      114 </v>
  <v type="int" >       24 </v>
  <v type="int" >      129 </v>
  <v type="int" >       37 </v>
  <v type="int" >       44 </v>
  <v type="int" >       53 </v>
  <v type="int" >       17 </v>
  <v type="int" >       93 </v>
  <v type="int" >        7 </v>
  <v type="int" >       48 </v>
  <v type="int" >       16 </v>
  <v type="int" >      135 </v>
  <v type="int" >       28 </v>
  <v type="int" >       29 </v>
  <v type="int" >       30 </v>
  <v type="int" >      101 </v>
  <v type="int" >       47 </v>
  <v type="int" >       64 </v>
  <v type="int" >      132 </v>
  <v type="int" >       68 </v>
  <v type="int" >       58 </v>
  <v type="int" >      122 </v>
  <v type="int" >       78 </v>
  <v type="int" >       76 </v>
  <v type="int" >      123 </v>
  <v type="int" >       73 </v>
  <v type="int" >       33 </v>
  <v type="int" >       22 </v>
  <v type="int" >      120 </v>
  <v type="int" >       71 </v>
  <v type="int" >      126 </v>
  <v type="int" >       70 </v>
  <v type="int" >       62 </v>
  <v type="int" >       91 </v>
  <v type="int" >       56 </v>
  <v type="int" >       85 </v>
  <v type="int" >       81 </v>
  <v type="int" >       75 </v>
  <v type="int" >       10 </v>
  <v type="int" >       77 </v>
  <v type="int" >       21 </v>
  <v type="int" >       51 </v>
  <v type="int" >       99 </v>
  <v type="int" >        6 </v>
  <v type="int" >       66 </v>
  <v type="int" >      121 </v>
  <v type="int" >       72 </v>
  <v type="int" >       69 </v>
  <v type="int" >       57 </v>
  <v type="int" >      127 </v>
  <v type="int" >       80 </v>
  <v type="int" >       59 </v>
  <v type="int" >       13 </v>
  <v type="int" >      128 </v>
  <v type="int" >       38 </v>
  <v type="int" >        9 </v>
  <v type="int" >       32 </v>
  <v type="int" >       45 </v>
  <v type="int" >       41 </v>
  <v type="int" >        5 </v>
  <v type="int" >       31 </v>
  <v type="int" >       14 </v>
  <v type="int" >       54 </v>
  <v type="int" >        4 </v>
  <v type="int" >       18 </v>
  <v type="int" >       26 </v>
  <v type="int" >      130 </v>
  <v type="int" >      115 </v>
  <v type="int" >      119 </v>
  <v type="int" >       46 </v>
  <v type="int" >       36 </v>
  <v type="int" >      102 </v>
  <v type="int" >      106 </v>
  <v type="int" >       86 </v>
  <v type="int" >       19 </v>
  <v type="int" >       92 </v>
  <v type="int" >       27 </v>
  <v type="int" >       11 </v>
  <v type="int" >       42 </v>
  <v type="int" >       97 </v>
  <v type="int" >      112 </v>
  <v type="int" >       12 </v>
  <v type="int" >      113 </v>
  <v type="int" >       60 </v>
  <v type="int" >      108 </v>
  <v type="int" >       63 </v>
  <v type="int" >      118 </v>
  <v type="int" >       61 </v>
  <v type="int" >       55 </v>
  <v type="int" >      100 </v>
  <v type="int" >       35 </v>
  <v type="int" >       52 </v>
  <v type="int" >       94 </v>
  <v type="int" >      105 </v>
  <v type="int" >       40 </v>
  <v type="int" >      107 </v>
  <v type="int" >       98 </v>
  <v type="int" >       25 </v>
  <v type="int" >      134 </v>
  <v type="int" >      109 </v>
  <v type="int" >       79 </v>
  <v type="int" >       67 </v>
  <v type="int" >        3 </v>
  <v type="int" >       34 </v>
  <v type="int" >       96 </v>
  <v type="int" >      117 </v>
  <v type="int" >       15 </v>
  <v type="int" >       82 </v>
  <v type="int" >       83 </v>
  <v type="int" >      116 </v>
  <v type="int" >       90 </v>
  <v type="int" >       49 </v>
  <v type="int" >       88 </v>
  <v type="int" >      110 </v>
  <v type="int" >      103 </v>
  <v type="int" >       23 </v>
  <v type="int" >       50 </v>
  <v type="int" >       95 </v>
  <v type="int" >       43 </v>
  <v type="int" >       89 </v>
  <v type="int" >      133 </v>
  <v type="int" >        8 </v>
  <v type="int" >       87 </v>
  <v type="int" >       20 </v>
  <v type="int" >       84 </v>
  <v type="int" >       39 </v>
  <v type="int" >      111 </v>
  <v type="int" >        2 </v>
 </varray>
 <kpoints>
  <generation param="Gamma">
   <v type="int" name="divisions">       2        2        2 </v>
   <v name="usershift">      0.00000000       0.00000000       0.00000000 </v>
   <v name="genvec1">      0.50000000       0.00000000       0.00000000 </v>
   <v name="genvec2">      0.00000000       0.50000000       0.00000000 </v>
   <v name="genvec3">      0.00000000       0.00000000       0.50000000 </v>
   <v name="shift">      0.00000000       0.00000000       0.00000000 </v>
  </generation>
  <varray name="kpointlist" >
   <v>       0.00000000       0.00000000       0.00000000 </v>
   <v>       0.50000000       0.00000000       0.00000000 </v>
   <v>       0.00000000       0.50000000       0.00000000 </v>
   <v>       0.50000000       0.50000000       0.00000000 </v>
   <v>       0.00000000       0.00000000       0.50000000 </v>
   <v>       0.50000000       0.00000000       0.50000000 </v>
   <v>       0.00000000       0.50000000       0.50000000 </v>
   <v>       0.50000000       0.50000000       0.50000000 </v>
  </varray>
  <varray name="weights" >
   <v>       0.12500000 </v>
   <v>       0.12500000 </v>
   <v>       0.12500000 </v>
   <v>       0.12500000 </v>
   <v>       0.12500000 </v>
   <v>       0.12500000 </v>
   <v>       0.12500000 </v>
   <v>       0.12500000 </v>
  </varray>
 </kpoints>
 <parameters>
  <separator name="general" >
   <i type="string" name="SYSTEM">unknown system</i>
   <i type="logical" name="LCOMPAT"> F  </i>
  </separator>
  <separator name="electronic" >
   <i type="string" name="PREC">a</i>
   <i name="ENMAX">    600.00000000</i>
   <i name="ENAUG">    605.39200000</i>
   <i name="EDIFF">      0.00000100</i>
   <i type="int" name="IALGO">    38</i>
   <i type="int" name="IWAVPR">    10</i>
   <i type="int" name="NBANDS">   520</i>
   <i name="NELECT">    864.00000000</i>
   <i type="int" name="TURBO">     0</i>
   <i type="int" name="IRESTART">     0</i>
   <i type="int" name="NREBOOT">     0</i>
   <i type="int" name="NMIN">     0</i>
   <i name="EREF">      0.00000000</i>
   <separator name="electronic smearing" >
    <i type="int" name="ISMEAR">     0</i>
    <i name="SIGMA">      0.05000000</i>
    <i name="KSPACING">      0.30000000</i>
    <i type="logical" name="KGAMMA"> T  </i>
   </separator>
   <separator name="electronic projectors" >
    <i type="logical" name="LREAL"> T  </i>
    <v name="ROPT">     -0.00025000     -0.00025000     -0.00025000</v>
    <i type="int" name="LMAXPAW">  -100</i>
    <i type="int" name="LMAXMIX">     2</i>
    <i type="logical" name="NLSPLINE"> F  </i>
   </separator>
   <separator name="electronic startup" >
    <i type="int" name="ISTART">     0</i>
    <i type="int" name="ICHARG">     2</i>
    <i type="int" name="INIWAV">     1</i>
   </separator>
   <separator name="electronic spin" >
    <i type="int" name="ISPIN">     1</i>
    <i type="logical" name="LNONCOLLINEAR"> F  </i>
    <v name="MAGMOM">      1.00000000      1.00000000      1.00000000      1.00000000      1.00000000      1.00000000      1.00000000      1.00000000      1.00000000      1.00000000      1.00000000      1.00000000      1.00000000      1.00000000      1.00000000      1.00000000      1.00000000      1.00000000      1.00000000      1.00000000
      1.00000000      1.00000000      1.00000000      1.00000000      1.00000000      1.00000000      1.00000000      1.00000000      1.00000000      1.00000000      1.00000000      1.00000000      1.00000000      1.00000000      1.00000000      1.00000000      1.00000000      1.00000000      1.00000000      1.00000000
      1.00000000      1.00000000      1.00000000      1.00000000      1.00000000      1.00000000      1.00000000      1.00000000      1.00000000      1.00000000      1.00000000      1.00000000      1.00000000      1.00000000      1.00000000      1.00000000      1.00000000      1.00000000      1.00000000      1.00000000
      1.00000000      1.00000000      1.00000000      1.00000000      1.00000000      1.00000000      1.00000000      1.00000000      1.00000000      1.00000000      1.00000000      1.00000000      1.00000000      1.00000000      1.00000000      1.00000000      1.00000000      1.00000000      1.00000000      1.00000000
      1.00000000      1.00000000      1.00000000      1.00000000      1.00000000      1.00000000      1.00000000      1.00000000      1.00000000      1.00000000      1.00000000      1.00000000      1.00000000      1.00000000      1.00000000      1.00000000      1.00000000      1.00000000      1.00000000      1.00000000
      1.00000000      1.00000000      1.00000000      1.00000000      1.00000000      1.00000000      1.00000000      1.00000000      1.00000000      1.00000000      1.00000000      1.00000000      1.00000000      1.00000000      1.00000000      1.00000000      1.00000000      1.00000000      1.00000000      1.00000000
      1.00000000      1.00000000      1.00000000      1.00000000      1.00000000      1.00000000      1.00000000      1.00000000      1.00000000      1.00000000      1.00000000      1.00000000      1.00000000      1.00000000      1.00000000</v>
    <i name="NUPDOWN">     -1.00000000</i>
    <i type="logical" name="LSORBIT"> F  </i>
    <v name="SAXIS">      0.00000000      0.00000000      1.00000000</v>
    <i type="logical" name="LSPIRAL"> F  </i>
    <v name="QSPIRAL">      0.00000000      0.00000000      0.00000000</v>
    <i type="logical" name="LZEROZ"> F  </i>
   </separator>
   <separator name="electronic exchange-correlation" >
    <i type="logical" name="LASPH"> F  </i>
    <i type="logical" name="LMETAGGA"> F  </i>
   </separator>
   <separator name="electronic convergence" >
    <i type="int" name="NELM">    60</i>
    <i type="int" name="NELMDL">    -5</i>
    <i type="int" name="NELMIN">     2</i>
    <i name="ENINI">    600.00000000</i>
    <separator name="electronic convergence detail" >
     <i type="logical" name="LDIAG"> T  </i>
     <i type="logical" name="LSUBROT"> F  </i>
     <i name="WEIMIN">      0.00000000</i>
     <i name="EBREAK">      0.00000000</i>
     <i name="DEPER">      0.30000000</i>
     <i type="int" name="NRMM">     4</i>
     <i name="TIME">      0.40000000</i>
    </separator>
   </separator>
   <separator name="electronic mixer" >
    <i name="AMIX">      0.40000000</i>
    <i name="BMIX">      1.00000000</i>
    <i name="AMIN">      0.10000000</i>
    <i name="AMIX_MAG">      1.60000000</i>
    <i name="BMIX_MAG">      1.00000000</i>
    <separator name="electronic mixer details" >
     <i type="int" name="IMIX">     4</i>
     <i type="logical" name="MIXFIRST"> F  </i>
     <i type="int" name="MAXMIX">   -45</i>
     <i name="WC">    100.00000000</i>
     <i type="int" name="INIMIX">     1</i>
     <i type="int" name="MIXPRE">     1</i>
     <i type="int" name="MREMOVE">     5</i>
    </separator>
   </separator>
   <separator name="electronic dipolcorrection" >
    <i type="logical" name="LDIPOL"> F  </i>
    <i type="logical" name="LMONO"> F  </i>
    <i type="int" name="IDIPOL">     0</i>
    <i name="EPSILON">      1.00000000</i>
    <v name="DIPOL">   -100.00000000   -100.00000000   -100.00000000</v>
    <i name="EFIELD">      0.00000000</i>
   </separator>
  </separator>
  <separator name="grids" >
   <i type="int" name="NGX">    96</i>
   <i type="int" name="NGY">    96</i>
   <i type="int" name="NGZ">    96</i>
   <i type="int" name="NGXF">   192</i>
   <i type="int" name="NGYF">   192</i>
   <i type="int" name="NGZF">   192</i>
   <i type="logical" name="ADDGRID"> T  </i>
  </separator>
  <separator name="ionic" >
   <i type="int" name="NSW">     1</i>
   <i type="int" name="IBRION">    -1</i>
   <i type="int" name="MDALGO">     0</i>
   <i type="int" name="ISIF">     2</i>
   <i name="PSTRESS">      0.00000000</i>
   <i name="EDIFFG">     -0.01000000</i>
   <i type="int" name="NFREE">     0</i>
   <i name="POTIM">      1.00000000</i>
   <i name="SMASS">     -3.00000000</i>
   <i name="SCALEE">      1.00000000</i>
  </separator>
  <separator name="ionic md" >
   <i name="TEBEG">      0.00010000</i>
   <i name="TEEND">      0.00010000</i>
   <i type="int" name="NBLOCK">     1</i>
   <i type="int" name="KBLOCK">     1</i>
   <i type="int" name="NPACO">   256</i>
   <i name="APACO">     16.00000000</i>
  </separator>
  <separator name="symmetry" >
   <i type="int" name="ISYM">     0</i>
   <i name="SYMPREC">      0.00001000</i>
  </separator>
  <separator name="dos" >
   <i type="int" name="LORBIT">     0</i>
   <v name="RWIGS">     -1.00000000     -1.00000000     -1.00000000</v>
   <i type="int" name="NEDOS">   301</i>
   <i name="EMIN">     10.00000000</i>
   <i name="EMAX">    -10.00000000</i>
   <i name="EFERMI">      0.00000000</i>
  </separator>
  <separator name="writing" >
   <i type="int" name="NWRITE">     2</i>
   <i type="logical" name="LWAVE"> F  </i>
   <i type="logical" name="LDOWNSAMPLE"> F  </i>
   <i type="logical" name="LCHARG"> F  </i>
   <i type="logical" name="LPARD"> F  </i>
   <i type="logical" name="LVTOT"> F  </i>
   <i type="logical" name="LVHAR"> F  </i>
   <i type="logical" name="LELF"> F  </i>
   <i type="logical" name="LOPTICS"> F  </i>
   <v name="STM">      0.00000000      0.00000000      0.00000000      0.00000000      0.00000000      0.00000000      0.00000000</v>
  </separator>
  <separator name="performance" >
   <i type="int" name="NPAR">     4</i>
   <i type="int" name="NSIM">     4</i>
   <i type="int" name="NBLK">    -1</i>
   <i type="logical" name="LPLANE"> T  </i>
   <i type="logical" name="LSCALAPACK"> F  </i>
   <i type="logical" name="LSCAAWARE"> F  </i>
   <i type="logical" name="LSCALU"> F  </i>
   <i type="logical" name="LASYNC"> F  </i>
   <i type="logical" name="LORBITALREAL"> F  </i>
  </separator>
  <separator name="miscellaneous" >
   <i type="int" name="IDIOT">     3</i>
   <i type="int" name="ISPECIAL">     0</i>
   <i type="logical" name="LMUSIC"> F  </i>
   <v name="POMASS">     40.07800000     28.08500000     16.00000000</v>
   <v name="DARWINR">      0.00000000      0.00000000      0.00000000</v>
   <v name="DARWINV">      1.00000000      1.00000000      1.00000000</v>
   <i type="logical" name="LCORR"> T  </i>
  </separator>
  <i type="logical" name="GGA_COMPAT"> T  </i>
  <i type="logical" name="LBERRY"> F  </i>
  <i type="int" name="ICORELEVEL">     0</i>
  <i type="logical" name="LDAU"> F  </i>
  <i type="int" name="I_CONSTRAINED_M">     0</i>
  <separator name="electronic exchange-correlation" >
   <i type="string" name="GGA">--</i>
   <i type="int" name="VOSKOWN">     0</i>
   <i type="logical" name="LHFCALC"> F  </i>
   <i type="string" name="PRECFOCK"></i>
   <i type="logical" name="LSYMGRAD"> F  </i>
   <i type="logical" name="LHFONE"> F  </i>
   <i type="logical" name="LRHFCALC"> F  </i>
   <i type="logical" name="LTHOMAS"> F  </i>
   <i type="logical" name="LMODELHF"> F  </i>
   <i name="ENCUT4O">     -1.00000000</i>
   <i type="int" name="EXXOEP">     0</i>
   <i type="int" name="FOURORBIT">     0</i>
   <i name="AEXX">      0.00000000</i>
   <i name="HFALPHA">      0.00000000</i>
   <i name="MCALPHA">      0.00000000</i>
   <i name="ALDAX">      1.00000000</i>
   <i name="AGGAX">      1.00000000</i>
   <i name="ALDAC">      1.00000000</i>
   <i name="AGGAC">      1.00000000</i>
   <i type="int" name="NKREDX">     1</i>
   <i type="int" name="NKREDY">     1</i>
   <i type="int" name="NKREDZ">     1</i>
   <i type="logical" name="SHIFTRED"> F  </i>
   <i type="logical" name="ODDONLY"> F  </i>
   <i type="logical" name="EVENONLY"> F  </i>
   <i type="int" name="LMAXFOCK">     0</i>
   <i type="int" name="NMAXFOCKAE">     0</i>
   <i type="logical" name="LFOCKAEDFT"> F  </i>
   <i name="HFSCREEN">      0.00000000</i>
   <i name="HFSCREENC">      0.00000000</i>
   <i type="int" name="NBANDSGWLOW">     0</i>
  </separator>
  <separator name="vdW DFT" >
   <i type="logical" name="LUSE_VDW"> F  </i>
   <i name="Zab_VDW">     -0.84910000</i>
   <i name="PARAM1">      0.12340000</i>
   <i name="PARAM2">      1.00000000</i>
   <i name="PARAM3">      0.00000000</i>
  </separator>
  <separator name="model GW" >
   <i type="int" name="MODEL_GW">     0</i>
   <i name="MODEL_EPS0">      6.98798513</i>
   <i name="MODEL_ALPHA">      1.00000000</i>
  </separator>
  <separator name="linear response parameters" >
   <i type="logical" name="LEPSILON"> F  </i>
   <i type="logical" name="LRPA"> F  </i>
   <i type="logical" name="LNABLA"> F  </i>
   <i type="logical" name="LVEL"> F  </i>
   <i type="int" name="KINTER">     0</i>
   <i name="CSHIFT">      0.10000000</i>
   <i name="OMEGAMAX">     -1.00000000</i>
   <i name="DEG_THRESHOLD">      0.00200000</i>
   <i name="RTIME">     -0.10000000</i>
   <i name="WPLASMAI">      0.00000000</i>
   <v name="DFIELD">      0.00000000      0.00000000      0.00000000</v>
   <v name="WPLASMA">      0.00000000      0.00000000      0.00000000      0.00000000      0.00000000      0.00000000      0.00000000      0.00000000      0.00000000</v>
  </separator>
  <separator name="orbital magnetization" >
   <i type="logical" name="NUCIND"> F  </i>
   <v name="MAGPOS">      0.00000000      0.00000000      0.00000000</v>
   <i type="logical" name="LNICSALL"> T  </i>
   <i type="logical" name="ORBITALMAG"> F  </i>
   <i type="logical" name="LMAGBLOCH"> F  </i>
   <i type="logical" name="LCHIMAG"> F  </i>
   <i type="logical" name="LGAUGE"> T  </i>
   <i type="int" name="MAGATOM">     0</i>
   <v name="MAGDIPOL">      0.00000000      0.00000000      0.00000000</v>
   <v name="AVECCONST">      0.00000000      0.00000000      0.00000000</v>
  </separator>
  <separator name="response functions" >
   <i type="logical" name="LADDER"> F  </i>
   <i type="logical" name="LRPAFORCE"> F  </i>
   <i type="logical" name="LFXC"> F  </i>
   <i type="logical" name="LHARTREE"> T  </i>
   <i type="int" name="IBSE">     0</i>
   <v type="int" name="KPOINT">    -1     0     0     0</v>
   <i type="logical" name="LTCTE"> F  </i>
   <i type="logical" name="LTETE"> F  </i>
   <i type="logical" name="LTRIPLET"> F  </i>
   <i type="logical" name="LFXCEPS"> F  </i>
   <i type="logical" name="LFXHEG"> F  </i>
   <i type="int" name="NATURALO">     2</i>
   <i type="logical" name="L2ORDER"> F  </i>
   <i type="logical" name="LMP2LT"> F  </i>
   <i type="logical" name="LUSEW"> F  </i>
   <i name="ENCUTGW">     -2.00000000</i>
   <i name="ENCUTGWSOFT">     -2.00000000</i>
   <i name="ENCUTLF">     -1.00000000</i>
   <i type="int" name="LMAXMP2">    -1</i>
   <i name="SCISSOR">      0.00000000</i>
   <i type="int" name="NOMEGA">     0</i>
   <i type="int" name="NOMEGAR">     0</i>
   <i type="int" name="NBANDSGW">    -1</i>
   <i type="int" name="NBANDSO">    -1</i>
   <i type="int" name="NBANDSV">    -1</i>
   <i type="int" name="NELM">     1</i>
   <i type="int" name="NELMHF">     1</i>
   <i type="int" name="DIM">     3</i>
   <i type="int" name="ANTIRES">     0</i>
   <i name="OMEGAMAX">    -30.00000000</i>
   <i name="OMEGAMIN">    -30.00000000</i>
   <i name="OMEGATL">   -200.00000000</i>
   <i type="int" name="OMEGAGRID">   140</i>
   <i name="CSHIFT">     -0.10000000</i>
   <i type="logical" name="SELFENERGY"> F  </i>
   <i type="logical" name="LSPECTRAL"> F  </i>
   <i type="logical" name="LSPECTRALGW"> F  </i>
   <i type="logical" name="LSINGLES"> F  </i>
   <i type="logical" name="LFERMIGW"> F  </i>
   <i type="logical" name="ODDONLYGW"> F  </i>
   <i type="logical" name="EVENONLYGW"> F  </i>
   <i type="int" name="NKREDLFX">     1</i>
   <i type="int" name="NKREDLFY">     1</i>
   <i type="int" name="NKREDLFZ">     1</i>
   <i type="int" name="MAXMEM">  2800</i>
   <i type="int" name="TELESCOPE">     0</i>
   <i type="int" name="TAUPAR">     1</i>
   <i type="int" name="OMEGAPAR">    -1</i>
   <i name="LAMBDA">      1.00000000</i>
  </separator>
  <separator name="External order field" >
   <i name="OFIELD_KAPPA">      0.00000000</i>
   <v name="OFIELD_K">      0.00000000      0.00000000      0.00000000</v>
   <i name="OFIELD_Q6_NEAR">      0.00000000</i>
   <i name="OFIELD_Q6_FAR">      0.00000000</i>
   <i name="OFIELD_A">      0.00000000</i>
  </separator>
 </parameters>
 <atominfo>
  <atoms>     135 </atoms>
  <types>       3 </types>
  <array name="atoms" >
   <dimension dim="1">ion</dimension>
   <field type="string">element</field>
   <field type="int">atomtype</field>
   <set>
    <rc><c>Ca</c><c>   1</c></rc>
    <rc><c>Ca</c><c>   1</c></rc>
    <rc><c>Ca</c><c>   1</c></rc>
    <rc><c>Ca</c><c>   1</c></rc>
    <rc><c>Ca</c><c>   1</c></rc>
    <rc><c>Ca</c><c>   1</c></rc>
    <rc><c>Ca</c><c>   1</c></rc>
    <rc><c>Ca</c><c>   1</c></rc>
    <rc><c>Ca</c><c>   1</c></rc>
    <rc><c>Ca</c><c>   1</c></rc>
    <rc><c>Ca</c><c>   1</c></rc>
    <rc><c>Ca</c><c>   1</c></rc>
    <rc><c>Ca</c><c>   1</c></rc>
    <rc><c>Ca</c><c>   1</c></rc>
    <rc><c>Ca</c><c>   1</c></rc>
    <rc><c>Ca</c><c>   1</c></rc>
    <rc><c>Ca</c><c>   1</c></rc>
    <rc><c>Ca</c><c>   1</c></rc>
    <rc><c>Ca</c><c>   1</c></rc>
    <rc><c>Ca</c><c>   1</c></rc>
    <rc><c>Ca</c><c>   1</c></rc>
    <rc><c>Ca</c><c>   1</c></rc>
    <rc><c>Ca</c><c>   1</c></rc>
    <rc><c>Ca</c><c>   1</c></rc>
    <rc><c>Ca</c><c>   1</c></rc>
    <rc><c>Ca</c><c>   1</c></rc>
    <rc><c>Ca</c><c>   1</c></rc>
    <rc><c>Si</c><c>   2</c></rc>
    <rc><c>Si</c><c>   2</c></rc>
    <rc><c>Si</c><c>   2</c></rc>
    <rc><c>Si</c><c>   2</c></rc>
    <rc><c>Si</c><c>   2</c></rc>
    <rc><c>Si</c><c>   2</c></rc>
    <rc><c>Si</c><c>   2</c></rc>
    <rc><c>Si</c><c>   2</c></rc>
    <rc><c>Si</c><c>   2</c></rc>
    <rc><c>Si</c><c>   2</c></rc>
    <rc><c>Si</c><c>   2</c></rc>
    <rc><c>Si</c><c>   2</c></rc>
    <rc><c>Si</c><c>   2</c></rc>
    <rc><c>Si</c><c>   2</c></rc>
    <rc><c>Si</c><c>   2</c></rc>
    <rc><c>Si</c><c>   2</c></rc>
    <rc><c>Si</c><c>   2</c></rc>
    <rc><c>Si</c><c>   2</c></rc>
    <rc><c>Si</c><c>   2</c></rc>
    <rc><c>Si</c><c>   2</c></rc>
    <rc><c>Si</c><c>   2</c></rc>
    <rc><c>Si</c><c>   2</c></rc>
    <rc><c>Si</c><c>   2</c></rc>
    <rc><c>Si</c><c>   2</c></rc>
    <rc><c>Si</c><c>   2</c></rc>
    <rc><c>Si</c><c>   2</c></rc>
    <rc><c>Si</c><c>   2</c></rc>
    <rc><c>O </c><c>   3</c></rc>
    <rc><c>O </c><c>   3</c></rc>
    <rc><c>O </c><c>   3</c></rc>
    <rc><c>O </c><c>   3</c></rc>
    <rc><c>O </c><c>   3</c></rc>
    <rc><c>O </c><c>   3</c></rc>
    <rc><c>O </c><c>   3</c></rc>
    <rc><c>O </c><c>   3</c></rc>
    <rc><c>O </c><c>   3</c></rc>
    <rc><c>O </c><c>   3</c></rc>
    <rc><c>O </c><c>   3</c></rc>
    <rc><c>O </c><c>   3</c></rc>
    <rc><c>O </c><c>   3</c></rc>
    <rc><c>O </c><c>   3</c></rc>
    <rc><c>O </c><c>   3</c></rc>
    <rc><c>O </c><c>   3</c></rc>
    <rc><c>O </c><c>   3</c></rc>
    <rc><c>O </c><c>   3</c></rc>
    <rc><c>O </c><c>   3</c></rc>
    <rc><c>O </c><c>   3</c></rc>
    <rc><c>O </c><c>   3</c></rc>
    <rc><c>O </c><c>   3</c></rc>
    <rc><c>O </c><c>   3</c></rc>
    <rc><c>O </c><c>   3</c></rc>
    <rc><c>O </c><c>   3</c></rc>
    <rc><c>O </c><c>   3</c></rc>
    <rc><c>O </c><c>   3</c></rc>
    <rc><c>O </c><c>   3</c></rc>
    <rc><c>O </c><c>   3</c></rc>
    <rc><c>O </c><c>   3</c></rc>
    <rc><c>O </c><c>   3</c></rc>
    <rc><c>O </c><c>   3</c></rc>
    <rc><c>O </c><c>   3</c></rc>
    <rc><c>O </c><c>   3</c></rc>
    <rc><c>O </c><c>   3</c></rc>
    <rc><c>O </c><c>   3</c></rc>
    <rc><c>O </c><c>   3</c></rc>
    <rc><c>O </c><c>   3</c></rc>
    <rc><c>O </c><c>   3</c></rc>
    <rc><c>O </c><c>   3</c></rc>
    <rc><c>O </c><c>   3</c></rc>
    <rc><c>O </c><c>   3</c></rc>
    <rc><c>O </c><c>   3</c></rc>
    <rc><c>O </c><c>   3</c></rc>
    <rc><c>O </c><c>   3</c></rc>
    <rc><c>O </c><c>   3</c></rc>
    <rc><c>O </c><c>   3</c></rc>
    <rc><c>O </c><c>   3</c></rc>
    <rc><c>O </c><c>   3</c></rc>
    <rc><c>O </c><c>   3</c></rc>
    <rc><c>O </c><c>   3</c></rc>
    <rc><c>O </c><c>   3</c></rc>
    <rc><c>O </c><c>   3</c></rc>
    <rc><c>O </c><c>   3</c></rc>
    <rc><c>O </c><c>   3</c></rc>
    <rc><c>O </c><c>   3</c></rc>
    <rc><c>O </c><c>   3</c></rc>
    <rc><c>O </c><c>   3</c></rc>
    <rc><c>O </c><c>   3</c></rc>
    <rc><c>O </c><c>   3</c></rc>
    <rc><c>O </c><c>   3</c></rc>
    <rc><c>O </c><c>   3</c></rc>
    <rc><c>O </c><c>   3</c></rc>
    <rc><c>O </c><c>   3</c></rc>
    <rc><c>O </c><c>   3</c></rc>
    <rc><c>O </c><c>   3</c></rc>
    <rc><c>O </c><c>   3</c></rc>
    <rc><c>O </c><c>   3</c></rc>
    <rc><c>O </c><c>   3</c></rc>
    <rc><c>O </c><c>   3</c></rc>
    <rc><c>O </c><c>   3</c></rc>
    <rc><c>O </c><c>   3</c></rc>
    <rc><c>O </c><c>   3</c></rc>
    <rc><c>O </c><c>   3</c></rc>
    <rc><c>O </c><c>   3</c></rc>
    <rc><c>O </c><c>   3</c></rc>
    <rc><c>O </c><c>   3</c></rc>
    <rc><c>O </c><c>   3</c></rc>
    <rc><c>O </c><c>   3</c></rc>
    <rc><c>O </c><c>   3</c></rc>
    <rc><c>O </c><c>   3</c></rc>
   </set>
  </array>
  <array name="atomtypes" >
   <dimension dim="1">type</dimension>
   <field type="int">atomspertype</field>
   <field type="string">element</field>
   <field>mass</field>
   <field>valence</field>
   <field type="string">pseudopotential</field>
   <set>
    <rc><c>  27</c><c>Ca</c><c>     40.07800000</c><c>     10.00000000</c><c>  PAW_PBE Ca_sv 06Sep2000               </c></rc>
    <rc><c>  27</c><c>Si</c><c>     28.08500000</c><c>      4.00000000</c><c>  PAW_PBE Si 05Jan2001                  </c></rc>
    <rc><c>  81</c><c>O </c><c>     16.00000000</c><c>      6.00000000</c><c>  PAW_PBE O 08Apr2002                   </c></rc>
   </set>
  </array>
 </atominfo>
 <structure name="initialpos" >
  <crystal>
   <varray name="basis" >
    <v>      11.62817333       0.00000000       0.00000000 </v>
    <v>       0.00000000      11.62817333       0.00000000 </v>
    <v>       0.00000000       0.00000000      11.62817333 </v>
   </varray>
   <i name="volume">   1572.29665425 </i>
   <varray name="rec_basis" >
    <v>       0.08599803       0.00000000       0.00000000 </v>
    <v>       0.00000000       0.08599803       0.00000000 </v>
    <v>       0.00000000       0.00000000       0.08599803 </v>
   </varray>
  </crystal>
  <varray name="positions" >
   <v>       0.85838764       0.62843023       0.39567307 </v>
   <v>       0.28198228       0.06651075       0.87547220 </v>
   <v>       0.34557869       0.80609857       0.68909059 </v>
   <v>       0.60890729       0.49825617       0.97243990 </v>
   <v>       0.40557432       0.48558436       0.53533660 </v>
   <v>       0.16913681       0.77547684       0.12252643 </v>
   <v>       0.05093256       0.77687099       0.55695684 </v>
   <v>       0.34433730       0.09944541       0.18149614 </v>
   <v>       0.84526469       0.60784027       0.88426146 </v>
   <v>       0.92855907       0.22703368       0.28300165 </v>
   <v>       0.02619917       0.34690087       0.97963217 </v>
   <v>       0.61580913       0.21871755       0.14293047 </v>
   <v>       0.32264339       0.74131545       0.41274070 </v>
   <v>       0.17681309       0.01038334       0.36191180 </v>
   <v>       0.82157748       0.07848180       0.97554986 </v>
   <v>       0.58854942       0.61953419       0.27026691 </v>
   <v>       0.69705521       0.55643109       0.62164067 </v>
   <v>       0.64209777       0.87111088       0.00361713 </v>
   <v>       0.54953257       0.30173304       0.66496965 </v>
   <v>       0.35564766       0.30817129       0.97248649 </v>
   <v>       0.12890106       0.30423376       0.49360366 </v>
   <v>       0.81684615       0.85306426       0.69106919 </v>
   <v>       0.38301433       0.77993049       0.96217829 </v>
   <v>       0.00644735       0.50770433       0.27183380 </v>
   <v>       0.15535713       0.58899903       0.87973386 </v>
   <v>       0.71944838       0.14509949       0.47630650 </v>
   <v>       0.58449576       0.96066542       0.70025803 </v>
   <v>       0.63507222       0.39133831       0.40345315 </v>
   <v>       0.56024077       0.74686423       0.48517369 </v>
   <v>       0.94996557       0.49845336       0.68951143 </v>
   <v>       0.45245085       0.85552997       0.21899296 </v>
   <v>       0.20482138       0.33133109       0.21638191 </v>
   <v>       0.78974871       0.41899107       0.10004431 </v>
   <v>       0.18169967       0.28078910       0.76833549 </v>
   <v>       0.21593668       0.99944205       0.58920703 </v>
   <v>       0.55028284       0.03959045       0.36999004 </v>
   <v>       0.80436843       0.87413451       0.46710629 </v>
   <v>       0.27140510       0.54799736       0.14663388 </v>
   <v>       0.55808488       0.10959975       0.89130773 </v>
   <v>       0.11089035       0.85428068       0.84378818 </v>
   <v>       0.04228317       0.00670049       0.13487512 </v>
   <v>       0.42216935       0.36955816       0.24076802 </v>
   <v>       0.41462709       0.12780525       0.52830017 </v>
   <v>       0.89344015       0.64601473       0.12544042 </v>
   <v>       0.92845044       0.84337867       0.95994562 </v>
   <v>       0.96538535       0.10158821       0.56136421 </v>
   <v>       0.16199981       0.53131344       0.50933397 </v>
   <v>       0.84161871       0.34391148       0.48109273 </v>
   <v>       0.02934769       0.08776392       0.80797642 </v>
   <v>       0.35952924       0.51668467       0.82184384 </v>
   <v>       0.74064474       0.00496632       0.20892426 </v>
   <v>       0.76156255       0.27582406       0.80831929 </v>
   <v>       0.00275401       0.83468931       0.28696364 </v>
   <v>       0.58902898       0.69426988       0.82114265 </v>
   <v>       0.53666730       0.05853979       0.50453128 </v>
   <v>       0.65028786       0.40110174       0.13795337 </v>
   <v>       0.79482319       0.46850724       0.97327275 </v>
   <v>       0.12954917       0.83720035       0.29240496 </v>
   <v>       0.14476306       0.78985512       0.73829961 </v>
   <v>       0.13494221       0.98555180       0.69866191 </v>
   <v>       0.17508160       0.97369650       0.11300672 </v>
   <v>       0.09351081       0.32115819       0.30872171 </v>
   <v>       0.57070070       0.17002778       0.31974323 </v>
   <v>       0.91851776       0.37361257       0.17943565 </v>
   <v>       0.88415497       0.82457686       0.35063417 </v>
   <v>       0.25006846       0.43975576       0.46382625 </v>
   <v>       0.20123091       0.22989942       0.11923879 </v>
   <v>       0.73718520       0.29997955       0.39508834 </v>
   <v>       0.74964852       0.40588220       0.77548789 </v>
   <v>       0.22868195       0.60611601       0.26507993 </v>
   <v>       0.68553506       0.97392647       0.34746256 </v>
   <v>       0.21653824       0.86895707       0.51685586 </v>
   <v>       0.61507361       0.39317078       0.54139908 </v>
   <v>       0.69594838       0.76376821       0.41792486 </v>
   <v>       0.97815726       0.89812610       0.10140473 </v>
   <v>       0.77852664       0.89399440       0.16128553 </v>
   <v>       0.49687675       0.41033046       0.36139517 </v>
   <v>       0.01328545       0.58301800       0.07218335 </v>
   <v>       0.96325734       0.12079216       0.08374996 </v>
   <v>       0.44765230       0.82882551       0.50470524 </v>
   <v>       0.01450103       0.99119011       0.26520654 </v>
   <v>       0.32142918       0.64783689       0.80521491 </v>
   <v>       0.03406831       0.96783103       0.88866441 </v>
   <v>       0.31423122       0.21463623       0.79882542 </v>
   <v>       0.23895137       0.64604345       0.56118632 </v>
   <v>       0.40537356       0.49084985       0.17635513 </v>
   <v>       0.11894304       0.16604527       0.88159720 </v>
   <v>       0.40653626       0.48465850       0.94824944 </v>
   <v>       0.34341901       0.05935919       0.64143418 </v>
   <v>       0.88296634       0.20200626       0.86934767 </v>
   <v>       0.84704467       0.73672070       0.01341412 </v>
   <v>       0.51547736       0.54875068       0.78637875 </v>
   <v>       0.85337643       0.42248935       0.59799743 </v>
   <v>       0.83502887       0.90422246       0.87405053 </v>
   <v>       0.66336270       0.20311821       0.92027010 </v>
   <v>       0.17092429       0.39397012       0.86006439 </v>
   <v>       0.73953613       0.19328647       0.67598975 </v>
   <v>       0.32030208       0.64707650       0.07043304 </v>
   <v>       0.90216727       0.20282862       0.49075970 </v>
   <v>       0.08015407       0.23003101       0.70062524 </v>
   <v>       0.07308036       0.48330781       0.60820312 </v>
   <v>       0.09199201       0.07977461       0.50304723 </v>
   <v>       0.23461847       0.89406910       0.92513585 </v>
   <v>       0.89050587       0.76806795       0.53627917 </v>
   <v>       0.30980980       0.31465036       0.29471137 </v>
   <v>       0.31689307       0.81565812       0.23585996 </v>
   <v>       0.47298504       0.31635507       0.13071198 </v>
   <v>       0.63976784       0.03742576       0.11105594 </v>
   <v>       0.44201372       0.89598953       0.09319525 </v>
   <v>       0.30690233       0.10668962       0.43864595 </v>
   <v>       0.45213219       0.12069089       0.97877488 </v>
   <v>       0.04504708       0.75532928       0.90993967 </v>
   <v>       0.49061077       0.78604498       0.76379795 </v>
   <v>       0.07828437       0.59325356       0.42891021 </v>
   <v>       0.47254264       0.95693239       0.32120365 </v>
   <v>       0.63030008       0.98873862       0.86532108 </v>
   <v>       0.37223114       0.42748585       0.71729756 </v>
   <v>       0.55183452       0.70190475       0.94904300 </v>
   <v>       0.77504053       0.15445060       0.21970050 </v>
   <v>       0.56036933       0.78769921       0.21448974 </v>
   <v>       0.71550525       0.68577462       0.81497816 </v>
   <v>       0.50033108       0.63188040       0.41954703 </v>
   <v>       0.93443327       0.97282442       0.49473761 </v>
   <v>       0.94954766       0.69640550       0.24828231 </v>
   <v>       0.90207239       0.40836758       0.37859577 </v>
   <v>       0.71221940       0.94867714       0.56225786 </v>
   <v>       0.99994390       0.46836705       0.80534707 </v>
   <v>       0.20984683       0.44029813       0.11490239 </v>
   <v>       0.77290335       0.59189169       0.17893897 </v>
   <v>       0.94275188       0.03437460       0.69543173 </v>
   <v>       0.73474200       0.50535263       0.38362623 </v>
   <v>       0.60864392       0.71995776       0.60794277 </v>
   <v>       0.52105114       0.13506914       0.75736669 </v>
   <v>       0.42930051       0.26772602       0.53318132 </v>
   <v>       0.87669095       0.61375676       0.69448197 </v>
  </varray>
  <varray name="velocities" >
   <v>       0.00000000       0.00000000       0.00000000 </v>
   <v>       0.00000000       0.00000000       0.00000000 </v>
   <v>       0.00000000       0.00000000       0.00000000 </v>
   <v>       0.00000000       0.00000000       0.00000000 </v>
   <v>       0.00000000       0.00000000       0.00000000 </v>
   <v>       0.00000000       0.00000000       0.00000000 </v>
   <v>       0.00000000       0.00000000       0.00000000 </v>
   <v>       0.00000000       0.00000000       0.00000000 </v>
   <v>       0.00000000       0.00000000       0.00000000 </v>
   <v>       0.00000000       0.00000000       0.00000000 </v>
   <v>       0.00000000       0.00000000       0.00000000 </v>
   <v>       0.00000000       0.00000000       0.00000000 </v>
   <v>       0.00000000       0.00000000       0.00000000 </v>
   <v>       0.00000000       0.00000000       0.00000000 </v>
   <v>       0.00000000       0.00000000       0.00000000 </v>
   <v>       0.00000000       0.00000000       0.00000000 </v>
   <v>       0.00000000       0.00000000       0.00000000 </v>
   <v>       0.00000000       0.00000000       0.00000000 </v>
   <v>       0.00000000       0.00000000       0.00000000 </v>
   <v>       0.00000000       0.00000000       0.00000000 </v>
   <v>       0.00000000       0.00000000       0.00000000 </v>
   <v>       0.00000000       0.00000000       0.00000000 </v>
   <v>       0.00000000       0.00000000       0.00000000 </v>
   <v>       0.00000000       0.00000000       0.00000000 </v>
   <v>       0.00000000       0.00000000       0.00000000 </v>
   <v>       0.00000000       0.00000000       0.00000000 </v>
   <v>       0.00000000       0.00000000       0.00000000 </v>
   <v>       0.00000000       0.00000000       0.00000000 </v>
   <v>       0.00000000       0.00000000       0.00000000 </v>
   <v>       0.00000000       0.00000000       0.00000000 </v>
   <v>       0.00000000       0.00000000       0.00000000 </v>
   <v>       0.00000000       0.00000000       0.00000000 </v>
   <v>       0.00000000       0.00000000       0.00000000 </v>
   <v>       0.00000000       0.00000000       0.00000000 </v>
   <v>       0.00000000       0.00000000       0.00000000 </v>
   <v>       0.00000000       0.00000000       0.00000000 </v>
   <v>       0.00000000       0.00000000       0.00000000 </v>
   <v>       0.00000000       0.00000000       0.00000000 </v>
   <v>       0.00000000       0.00000000       0.00000000 </v>
   <v>       0.00000000       0.00000000       0.00000000 </v>
   <v>       0.00000000       0.00000000       0.00000000 </v>
   <v>       0.00000000       0.00000000       0.00000000 </v>
   <v>       0.00000000       0.00000000       0.00000000 </v>
   <v>       0.00000000       0.00000000       0.00000000 </v>
   <v>       0.00000000       0.00000000       0.00000000 </v>
   <v>       0.00000000       0.00000000       0.00000000 </v>
   <v>       0.00000000       0.00000000       0.00000000 </v>
   <v>       0.00000000       0.00000000       0.00000000 </v>
   <v>       0.00000000       0.00000000       0.00000000 </v>
   <v>       0.00000000       0.00000000       0.00000000 </v>
   <v>       0.00000000       0.00000000       0.00000000 </v>
   <v>       0.00000000       0.00000000       0.00000000 </v>
   <v>       0.00000000       0.00000000       0.00000000 </v>
   <v>       0.00000000       0.00000000       0.00000000 </v>
   <v>       0.00000000       0.00000000       0.00000000 </v>
   <v>       0.00000000       0.00000000       0.00000000 </v>
   <v>       0.00000000       0.00000000       0.00000000 </v>
   <v>       0.00000000       0.00000000       0.00000000 </v>
   <v>       0.00000000       0.00000000       0.00000000 </v>
   <v>       0.00000000       0.00000000       0.00000000 </v>
   <v>       0.00000000       0.00000000       0.00000000 </v>
   <v>       0.00000000       0.00000000       0.00000000 </v>
   <v>       0.00000000       0.00000000       0.00000000 </v>
   <v>       0.00000000       0.00000000       0.00000000 </v>
   <v>       0.00000000       0.00000000       0.00000000 </v>
   <v>       0.00000000       0.00000000       0.00000000 </v>
   <v>       0.00000000       0.00000000       0.00000000 </v>
   <v>       0.00000000       0.00000000       0.00000000 </v>
   <v>       0.00000000       0.00000000       0.00000000 </v>
   <v>       0.00000000       0.00000000       0.00000000 </v>
   <v>       0.00000000       0.00000000       0.00000000 </v>
   <v>       0.00000000       0.00000000       0.00000000 </v>
   <v>       0.00000000       0.00000000       0.00000000 </v>
   <v>       0.00000000       0.00000000       0.00000000 </v>
   <v>       0.00000000       0.00000000       0.00000000 </v>
   <v>       0.00000000       0.00000000       0.00000000 </v>
   <v>       0.00000000       0.00000000       0.00000000 </v>
   <v>       0.00000000       0.00000000       0.00000000 </v>
   <v>       0.00000000       0.00000000       0.00000000 </v>
   <v>       0.00000000       0.00000000       0.00000000 </v>
   <v>       0.00000000       0.00000000       0.00000000 </v>
   <v>       0.00000000       0.00000000       0.00000000 </v>
   <v>       0.00000000       0.00000000       0.00000000 </v>
   <v>       0.00000000       0.00000000       0.00000000 </v>
   <v>       0.00000000       0.00000000       0.00000000 </v>
   <v>       0.00000000       0.00000000       0.00000000 </v>
   <v>       0.00000000       0.00000000       0.00000000 </v>
   <v>       0.00000000       0.00000000       0.00000000 </v>
   <v>       0.00000000       0.00000000       0.00000000 </v>
   <v>       0.00000000       0.00000000       0.00000000 </v>
   <v>       0.00000000       0.00000000       0.00000000 </v>
   <v>       0.00000000       0.00000000       0.00000000 </v>
   <v>       0.00000000       0.00000000       0.00000000 </v>
   <v>       0.00000000       0.00000000       0.00000000 </v>
   <v>       0.00000000       0.00000000       0.00000000 </v>
   <v>       0.00000000       0.00000000       0.00000000 </v>
   <v>       0.00000000       0.00000000       0.00000000 </v>
   <v>       0.00000000       0.00000000       0.00000000 </v>
   <v>       0.00000000       0.00000000       0.00000000 </v>
   <v>       0.00000000       0.00000000       0.00000000 </v>
   <v>       0.00000000       0.00000000       0.00000000 </v>
   <v>       0.00000000       0.00000000       0.00000000 </v>
   <v>       0.00000000       0.00000000       0.00000000 </v>
   <v>       0.00000000       0.00000000       0.00000000 </v>
   <v>       0.00000000       0.00000000       0.00000000 </v>
   <v>       0.00000000       0.00000000       0.00000000 </v>
   <v>       0.00000000       0.00000000       0.00000000 </v>
   <v>       0.00000000       0.00000000       0.00000000 </v>
   <v>       0.00000000       0.00000000       0.00000000 </v>
   <v>       0.00000000       0.00000000       0.00000000 </v>
   <v>       0.00000000       0.00000000       0.00000000 </v>
   <v>       0.00000000       0.00000000       0.00000000 </v>
   <v>       0.00000000       0.00000000       0.00000000 </v>
   <v>       0.00000000       0.00000000       0.00000000 </v>
   <v>       0.00000000       0.00000000       0.00000000 </v>
   <v>       0.00000000       0.00000000       0.00000000 </v>
   <v>       0.00000000       0.00000000       0.00000000 </v>
   <v>       0.00000000       0.00000000       0.00000000 </v>
   <v>       0.00000000       0.00000000       0.00000000 </v>
   <v>       0.00000000       0.00000000       0.00000000 </v>
   <v>       0.00000000       0.00000000       0.00000000 </v>
   <v>       0.00000000       0.00000000       0.00000000 </v>
   <v>       0.00000000       0.00000000       0.00000000 </v>
   <v>       0.00000000       0.00000000       0.00000000 </v>
   <v>       0.00000000       0.00000000       0.00000000 </v>
   <v>       0.00000000       0.00000000       0.00000000 </v>
   <v>       0.00000000       0.00000000       0.00000000 </v>
   <v>       0.00000000       0.00000000       0.00000000 </v>
   <v>       0.00000000       0.00000000       0.00000000 </v>
   <v>       0.00000000       0.00000000       0.00000000 </v>
   <v>       0.00000000       0.00000000       0.00000000 </v>
   <v>       0.00000000       0.00000000       0.00000000 </v>
   <v>       0.00000000       0.00000000       0.00000000 </v>
   <v>       0.00000000       0.00000000       0.00000000 </v>
   <v>       0.00000000       0.00000000       0.00000000 </v>
  </varray>
 </structure>
 <calculation>
  <scstep>
   <time name="dav">   34.43   34.54</time>
   <time name="total">   34.85   34.97</time>
   <energy>
    <i name="alphaZ">   3039.22321400 </i>
    <i name="ewald"> -49022.18715732 </i>
    <i name="hartreedc"> -15653.71046263 </i>
    <i name="XCdc">   3192.73594297 </i>
    <i name="pawpsdc">  50594.51003143 </i>
    <i name="pawaedc"> -49994.65612350 </i>
    <i name="eentropy">     -0.02420495 </i>
    <i name="bandstr">   2627.33765994 </i>
    <i name="atom">  64968.54023382 </i>
    <i name="e_fr_energy">   9751.76913377 </i>
    <i name="e_wo_entrp">   9751.79333872 </i>
    <i name="e_0_energy">   9751.78123625 </i>
   </energy>
  </scstep>
  <scstep>
   <time name="dav">   38.41   38.53</time>
   <time name="total">   38.41   38.53</time>
   <energy>
    <i name="e_fr_energy">     37.38893297 </i>
    <i name="e_wo_entrp">     37.38893297 </i>
    <i name="e_0_energy">     37.38893297 </i>
   </energy>
  </scstep>
  <scstep>
   <time name="dav">   40.12   40.27</time>
   <time name="total">   40.12   40.27</time>
   <energy>
    <i name="e_fr_energy">  -1011.02367124 </i>
    <i name="e_wo_entrp">  -1011.02367124 </i>
    <i name="e_0_energy">  -1011.02367124 </i>
   </energy>
  </scstep>
  <scstep>
   <time name="dav">   44.09   44.28</time>
   <time name="total">   44.09   44.28</time>
   <energy>
    <i name="e_fr_energy">  -1061.45215864 </i>
    <i name="e_wo_entrp">  -1061.45215864 </i>
    <i name="e_0_energy">  -1061.45215864 </i>
   </energy>
  </scstep>
  <scstep>
   <time name="dav">   52.24   52.44</time>
   <time name="total">   53.53   53.74</time>
   <energy>
    <i name="e_fr_energy">  -1066.21254743 </i>
    <i name="e_wo_entrp">  -1066.21254743 </i>
    <i name="e_0_energy">  -1066.21254743 </i>
   </energy>
  </scstep>
  <scstep>
   <time name="dav">   38.44   38.62</time>
   <time name="total">   40.16   40.35</time>
   <energy>
    <i name="e_fr_energy">   -919.39666389 </i>
    <i name="e_wo_entrp">   -919.39666389 </i>
    <i name="e_0_energy">   -919.39666389 </i>
   </energy>
  </scstep>
  <scstep>
   <time name="dav">   42.34   42.52</time>
   <time name="total">   44.05   44.25</time>
   <energy>
    <i name="e_fr_energy">   -921.25904856 </i>
    <i name="e_wo_entrp">   -921.25904856 </i>
    <i name="e_0_energy">   -921.25904856 </i>
   </energy>
  </scstep>
  <scstep>
   <time name="dav">   39.44   40.51</time>
   <time name="total">   41.11   42.23</time>
   <energy>
    <i name="e_fr_energy">   -919.95782292 </i>
    <i name="e_wo_entrp">   -919.95782292 </i>
    <i name="e_0_energy">   -919.95782292 </i>
   </energy>
  </scstep>
  <scstep>
   <time name="dav">   40.77   41.00</time>
   <time name="total">   42.50   42.75</time>
   <energy>
    <i name="e_fr_energy">   -919.60441116 </i>
    <i name="e_wo_entrp">   -919.60441116 </i>
    <i name="e_0_energy">   -919.60441116 </i>
   </energy>
  </scstep>
  <scstep>
   <time name="dav">   43.33   43.54</time>
   <time name="total">   45.07   45.29</time>
   <energy>
    <i name="e_fr_energy">   -919.69126479 </i>
    <i name="e_wo_entrp">   -919.69126479 </i>
    <i name="e_0_energy">   -919.69126479 </i>
   </energy>
  </scstep>
  <scstep>
   <time name="dav">   41.91   42.74</time>
   <time name="total">   43.66   44.50</time>
   <energy>
    <i name="e_fr_energy">   -919.69026335 </i>
    <i name="e_wo_entrp">   -919.69026335 </i>
    <i name="e_0_energy">   -919.69026335 </i>
   </energy>
  </scstep>
  <scstep>
   <time name="dav">   40.19   40.32</time>
   <time name="total">   41.90   42.04</time>
   <energy>
    <i name="e_fr_energy">   -919.69381838 </i>
    <i name="e_wo_entrp">   -919.69381838 </i>
    <i name="e_0_energy">   -919.69381838 </i>
   </energy>
  </scstep>
  <scstep>
   <time name="dav">   45.68   45.87</time>
   <time name="total">   47.40   47.60</time>
   <energy>
    <i name="e_fr_energy">   -919.69531712 </i>
    <i name="e_wo_entrp">   -919.69531712 </i>
    <i name="e_0_energy">   -919.69531712 </i>
   </energy>
  </scstep>
  <scstep>
   <time name="dav">   42.72   42.89</time>
   <time name="total">   44.42   44.61</time>
   <energy>
    <i name="e_fr_energy">   -919.69545737 </i>
    <i name="e_wo_entrp">   -919.69545737 </i>
    <i name="e_0_energy">   -919.69545737 </i>
   </energy>
  </scstep>
  <scstep>
   <time name="dav">   40.70   40.90</time>
   <time name="total">   42.38   42.62</time>
   <energy>
    <i name="e_fr_energy">   -919.69544525 </i>
    <i name="e_wo_entrp">   -919.69544525 </i>
    <i name="e_0_energy">   -919.69544525 </i>
   </energy>
  </scstep>
  <scstep>
   <time name="dav">   40.36   40.54</time>
   <time name="total">   42.05   42.25</time>
   <energy>
    <i name="e_fr_energy">   -919.69542518 </i>
    <i name="e_wo_entrp">   -919.69542518 </i>
    <i name="e_0_energy">   -919.69542518 </i>
   </energy>
  </scstep>
  <scstep>
   <time name="dav">   44.65   44.81</time>
   <time name="total">   46.36   46.53</time>
   <energy>
    <i name="e_fr_energy">   -919.69542833 </i>
    <i name="e_wo_entrp">   -919.69542833 </i>
    <i name="e_0_energy">   -919.69542833 </i>
   </energy>
  </scstep>
  <scstep>
   <time name="dav">   49.46   51.26</time>
   <time name="total">   51.12   52.96</time>
   <energy>
    <i name="e_fr_energy">   -919.69542693 </i>
    <i name="e_wo_entrp">   -919.69542693 </i>
    <i name="e_0_energy">   -919.69542693 </i>
   </energy>
  </scstep>
  <scstep>
   <time name="dav">   35.86   36.04</time>
   <time name="total">   36.26   36.46</time>
   <energy>
    <i name="alphaZ">   3039.22321400 </i>
    <i name="ewald"> -49022.18715732 </i>
    <i name="hartreedc"> -17153.83080209 </i>
    <i name="XCdc">   3292.18203048 </i>
    <i name="pawpsdc">  97961.58082017 </i>
    <i name="pawaedc"> -97618.95042501 </i>
    <i name="eentropy">     -0.00000000 </i>
    <i name="bandstr">  -6386.25334016 </i>
    <i name="atom">  64968.54023382 </i>
    <i name="e_fr_energy">   -919.69542610 </i>
    <i name="e_wo_entrp">   -919.69542610 </i>
    <i name="e_0_energy">   -919.69542610 </i>
   </energy>
  </scstep>
  <structure>
   <crystal>
    <varray name="basis" >
     <v>      11.62817333       0.00000000       0.00000000 </v>
     <v>       0.00000000      11.62817333       0.00000000 </v>
     <v>       0.00000000       0.00000000      11.62817333 </v>
    </varray>
    <i name="volume">   1572.29665425 </i>
    <varray name="rec_basis" >
     <v>       0.08599803       0.00000000       0.00000000 </v>
     <v>       0.00000000       0.08599803       0.00000000 </v>
     <v>       0.00000000       0.00000000       0.08599803 </v>
    </varray>
   </crystal>
   <varray name="positions" >
    <v>       0.85838764       0.62843023       0.39567307 </v>
    <v>       0.28198228       0.06651075       0.87547220 </v>
    <v>       0.34557869       0.80609857       0.68909059 </v>
    <v>       0.60890729       0.49825617       0.97243990 </v>
    <v>       0.40557432       0.48558436       0.53533660 </v>
    <v>       0.16913681       0.77547684       0.12252643 </v>
    <v>       0.05093256       0.77687099       0.55695684 </v>
    <v>       0.34433730       0.09944541       0.18149614 </v>
    <v>       0.84526469       0.60784027       0.88426146 </v>
    <v>       0.92855907       0.22703368       0.28300165 </v>
    <v>       0.02619917       0.34690087       0.97963217 </v>
    <v>       0.61580913       0.21871755       0.14293047 </v>
    <v>       0.32264339       0.74131545       0.41274070 </v>
    <v>       0.17681309       0.01038334       0.36191180 </v>
    <v>       0.82157748       0.07848180       0.97554986 </v>
    <v>       0.58854942       0.61953419       0.27026691 </v>
    <v>       0.69705521       0.55643109       0.62164067 </v>
    <v>       0.64209777       0.87111088       0.00361713 </v>
    <v>       0.54953257       0.30173304       0.66496965 </v>
    <v>       0.35564766       0.30817129       0.97248649 </v>
    <v>       0.12890106       0.30423376       0.49360366 </v>
    <v>       0.81684615       0.85306426       0.69106919 </v>
    <v>       0.38301433       0.77993049       0.96217829 </v>
    <v>       0.00644735       0.50770433       0.27183380 </v>
    <v>       0.15535713       0.58899903       0.87973386 </v>
    <v>       0.71944838       0.14509949       0.47630650 </v>
    <v>       0.58449576       0.96066542       0.70025803 </v>
    <v>       0.63507222       0.39133831       0.40345315 </v>
    <v>       0.56024077       0.74686423       0.48517369 </v>
    <v>       0.94996557       0.49845336       0.68951143 </v>
    <v>       0.45245085       0.85552997       0.21899296 </v>
    <v>       0.20482138       0.33133109       0.21638191 </v>
    <v>       0.78974871       0.41899107       0.10004431 </v>
    <v>       0.18169967       0.28078910       0.76833549 </v>
    <v>       0.21593668       0.99944205       0.58920703 </v>
    <v>       0.55028284       0.03959045       0.36999004 </v>
    <v>       0.80436843       0.87413451       0.46710629 </v>
    <v>       0.27140510       0.54799736       0.14663388 </v>
    <v>       0.55808488       0.10959975       0.89130773 </v>
    <v>       0.11089035       0.85428068       0.84378818 </v>
    <v>       0.04228317       0.00670049       0.13487512 </v>
    <v>       0.42216935       0.36955816       0.24076802 </v>
    <v>       0.41462709       0.12780525       0.52830017 </v>
    <v>       0.89344015       0.64601473       0.12544042 </v>
    <v>       0.92845044       0.84337867       0.95994562 </v>
    <v>       0.96538535       0.10158821       0.56136421 </v>
    <v>       0.16199981       0.53131344       0.50933397 </v>
    <v>       0.84161871       0.34391148       0.48109273 </v>
    <v>       0.02934769       0.08776392       0.80797642 </v>
    <v>       0.35952924       0.51668467       0.82184384 </v>
    <v>       0.74064474       0.00496632       0.20892426 </v>
    <v>       0.76156255       0.27582406       0.80831929 </v>
    <v>       0.00275401       0.83468931       0.28696364 </v>
    <v>       0.58902898       0.69426988       0.82114265 </v>
    <v>       0.53666730       0.05853979       0.50453128 </v>
    <v>       0.65028786       0.40110174       0.13795337 </v>
    <v>       0.79482319       0.46850724       0.97327275 </v>
    <v>       0.12954917       0.83720035       0.29240496 </v>
    <v>       0.14476306       0.78985512       0.73829961 </v>
    <v>       0.13494221       0.98555180       0.69866191 </v>
    <v>       0.17508160       0.97369650       0.11300672 </v>
    <v>       0.09351081       0.32115819       0.30872171 </v>
    <v>       0.57070070       0.17002778       0.31974323 </v>
    <v>       0.91851776       0.37361257       0.17943565 </v>
    <v>       0.88415497       0.82457686       0.35063417 </v>
    <v>       0.25006846       0.43975576       0.46382625 </v>
    <v>       0.20123091       0.22989942       0.11923879 </v>
    <v>       0.73718520       0.29997955       0.39508834 </v>
    <v>       0.74964852       0.40588220       0.77548789 </v>
    <v>       0.22868195       0.60611601       0.26507993 </v>
    <v>       0.68553506       0.97392647       0.34746256 </v>
    <v>       0.21653824       0.86895707       0.51685586 </v>
    <v>       0.61507361       0.39317078       0.54139908 </v>
    <v>       0.69594838       0.76376821       0.41792486 </v>
    <v>       0.97815726       0.89812610       0.10140473 </v>
    <v>       0.77852664       0.89399440       0.16128553 </v>
    <v>       0.49687675       0.41033046       0.36139517 </v>
    <v>       0.01328545       0.58301800       0.07218335 </v>
    <v>       0.96325734       0.12079216       0.08374996 </v>
    <v>       0.44765230       0.82882551       0.50470524 </v>
    <v>       0.01450103       0.99119011       0.26520654 </v>
    <v>       0.32142918       0.64783689       0.80521491 </v>
    <v>       0.03406831       0.96783103       0.88866441 </v>
    <v>       0.31423122       0.21463623       0.79882542 </v>
    <v>       0.23895137       0.64604345       0.56118632 </v>
    <v>       0.40537356       0.49084985       0.17635513 </v>
    <v>       0.11894304       0.16604527       0.88159720 </v>
    <v>       0.40653626       0.48465850       0.94824944 </v>
    <v>       0.34341901       0.05935919       0.64143418 </v>
    <v>       0.88296634       0.20200626       0.86934767 </v>
    <v>       0.84704467       0.73672070       0.01341412 </v>
    <v>       0.51547736       0.54875068       0.78637875 </v>
    <v>       0.85337643       0.42248935       0.59799743 </v>
    <v>       0.83502887       0.90422246       0.87405053 </v>
    <v>       0.66336270       0.20311821       0.92027010 </v>
    <v>       0.17092429       0.39397012       0.86006439 </v>
    <v>       0.73953613       0.19328647       0.67598975 </v>
    <v>       0.32030208       0.64707650       0.07043304 </v>
    <v>       0.90216727       0.20282862       0.49075970 </v>
    <v>       0.08015407       0.23003101       0.70062524 </v>
    <v>       0.07308036       0.48330781       0.60820312 </v>
    <v>       0.09199201       0.07977461       0.50304723 </v>
    <v>       0.23461847       0.89406910       0.92513585 </v>
    <v>       0.89050587       0.76806795       0.53627917 </v>
    <v>       0.30980980       0.31465036       0.29471137 </v>
    <v>       0.31689307       0.81565812       0.23585996 </v>
    <v>       0.47298504       0.31635507       0.13071198 </v>
    <v>       0.63976784       0.03742576       0.11105594 </v>
    <v>       0.44201372       0.89598953       0.09319525 </v>
    <v>       0.30690233       0.10668962       0.43864595 </v>
    <v>       0.45213219       0.12069089       0.97877488 </v>
    <v>       0.04504708       0.75532928       0.90993967 </v>
    <v>       0.49061077       0.78604498       0.76379795 </v>
    <v>       0.07828437       0.59325356       0.42891021 </v>
    <v>       0.47254264       0.95693239       0.32120365 </v>
    <v>       0.63030008       0.98873862       0.86532108 </v>
    <v>       0.37223114       0.42748585       0.71729756 </v>
    <v>       0.55183452       0.70190475       0.94904300 </v>
    <v>       0.77504053       0.15445060       0.21970050 </v>
    <v>       0.56036933       0.78769921       0.21448974 </v>
    <v>       0.71550525       0.68577462       0.81497816 </v>
    <v>       0.50033108       0.63188040       0.41954703 </v>
    <v>       0.93443327       0.97282442       0.49473761 </v>
    <v>       0.94954766       0.69640550       0.24828231 </v>
    <v>       0.90207239       0.40836758       0.37859577 </v>
    <v>       0.71221940       0.94867714       0.56225786 </v>
    <v>       0.99994390       0.46836705       0.80534707 </v>
    <v>       0.20984683       0.44029813       0.11490239 </v>
    <v>       0.77290335       0.59189169       0.17893897 </v>
    <v>       0.94275188       0.03437460       0.69543173 </v>
    <v>       0.73474200       0.50535263       0.38362623 </v>
    <v>       0.60864392       0.71995776       0.60794277 </v>
    <v>       0.52105114       0.13506914       0.75736669 </v>
    <v>       0.42930051       0.26772602       0.53318132 </v>
    <v>       0.87669095       0.61375676       0.69448197 </v>
   </varray>
  </structure>
  <varray name="forces" >
   <v>      -0.60828710       1.41167939       1.85350426 </v>
   <v>       0.91960697      -2.25502831       1.19290885 </v>
   <v>      -3.52584084      -1.22325270      -2.59457612 </v>
   <v>      -3.54819661       0.72451862      -1.12537399 </v>
   <v>       1.33140639       0.47844644       0.53695674 </v>
   <v>       1.64817441      -0.21051304      -0.04153297 </v>
   <v>       5.42669878      -0.85856228       0.72644582 </v>
   <v>       0.51709209      -1.05076407      -1.60460779 </v>
   <v>       4.05380439      -1.35055083      -1.78738705 </v>
   <v>       0.41622239      -1.66524326      -1.11933598 </v>
   <v>      -0.35366476      -1.07546311       0.08659379 </v>
   <v>       1.42821892      -2.12722288      -0.79425433 </v>
   <v>      -2.25342168      -1.54470628      -1.86461588 </v>
   <v>       0.09267402      -2.35098924      -2.45958550 </v>
   <v>      -2.10780597      -1.20882976       1.61731431 </v>
   <v>       1.18737425      -1.05764088      -2.00617797 </v>
   <v>      -0.08671352      -0.26271427       0.77974643 </v>
   <v>       0.00529234      -0.90471164       2.99352212 </v>
   <v>      -1.26227387      -1.22974098       4.54227096 </v>
   <v>      -0.52530200      -0.18590557       0.03581670 </v>
   <v>       0.42481927      -1.24642978       0.28881812 </v>
   <v>       0.12603702      -0.90880275       1.14857172 </v>
   <v>       0.37160331      -0.17198382      -0.36966682 </v>
   <v>       3.99808714      -0.25129287      -0.24567552 </v>
   <v>      -1.85018737       0.47766439      -0.00613804 </v>
   <v>      -1.20824096      -3.69819984       1.86437299 </v>
   <v>      -1.64140833      -0.12243641      -2.60190264 </v>
   <v>      -0.84365119       5.20552577       0.67745463 </v>
   <v>       0.82027079      -0.11418256      -0.67105182 </v>
   <v>      -0.37522552      -0.53045460      -5.24813666 </v>
   <v>      -5.19614419       0.87972344       0.00251729 </v>
   <v>      -5.82415977      -1.56329944      -2.54562939 </v>
   <v>       0.70718929       1.11190701       5.67478703 </v>
   <v>       5.26852246       0.07371827       6.30074590 </v>
   <v>       0.32638737      -0.19105608      -1.34280725 </v>
   <v>       7.49385652       4.28772115      -0.90253293 </v>
   <v>      -0.38427218      -0.93640045      -1.51950409 </v>
   <v>       6.75002170       6.45120248       5.44953703 </v>
   <v>       0.41844317      -0.20730427      -2.29737202 </v>
   <v>       6.15935265       4.67699974       2.41972952 </v>
   <v>       2.01615747       7.50214231      -2.88007560 </v>
   <v>       2.96586272       3.86683012       1.71478296 </v>
   <v>      -2.93830096       2.72567137       1.02821924 </v>
   <v>       0.05058721       2.01603987      -0.84485307 </v>
   <v>      -0.03619645       0.28045401       2.57737610 </v>
   <v>      -0.11837873      -6.71631385       1.56186387 </v>
   <v>       1.95065570       5.62208905       2.71350210 </v>
   <v>       1.90567341       3.13931065       1.07321298 </v>
   <v>      -0.71646052       0.69752432      -2.89056341 </v>
   <v>       7.56789934       0.49617204      -2.05285993 </v>
   <v>      -3.98050530       6.41235558       1.68122924 </v>
   <v>       0.94499898      -5.64875347      -2.35431329 </v>
   <v>      -6.70085407       1.60415088      -1.34615736 </v>
   <v>     -10.39322094      -1.88973045      -3.91101189 </v>
   <v>      -0.98471690       0.51132715       2.58229815 </v>
   <v>       4.46553023       0.93045940      -0.54864113 </v>
   <v>       0.80651446      -2.54155658       1.91357937 </v>
   <v>       3.81634859      -2.34884894       2.44925677 </v>
   <v>       0.26582449      -3.56348716      -4.36428629 </v>
   <v>       0.98209111       1.99329310       2.31226425 </v>
   <v>       0.98873720       2.56186770       0.97891195 </v>
   <v>       2.36540420       0.41168278      -1.71001338 </v>
   <v>      -1.81238748      -1.07824443       1.12485539 </v>
   <v>      -4.44037504       1.18318431      -6.27744440 </v>
   <v>      -2.04997357       3.08510181       1.82314437 </v>
   <v>      -1.00387854      -1.81054649      -0.21394679 </v>
   <v>       0.84937846      -0.24227516       0.37781519 </v>
   <v>       0.00719152      -1.85466961      -0.43579627 </v>
   <v>      -1.33779102       0.29709932       1.21030272 </v>
   <v>      -1.36054898      -1.11557747      -0.85190173 </v>
   <v>       0.43212230       2.06990621      -0.05237242 </v>
   <v>       0.18177474       4.92800280       1.24067238 </v>
   <v>       1.07679432       2.24903345      -1.99873409 </v>
   <v>      -0.91532659       0.58789365       0.62882431 </v>
   <v>      -3.20022331      -7.74235373      -5.58843154 </v>
   <v>       2.87917641      -4.61879388      -2.36031585 </v>
   <v>       1.98446443      -1.38485226      -1.95172374 </v>
   <v>      -1.96183679       0.05901459      -0.14526820 </v>
   <v>       2.68549360      -1.22060081       1.15136705 </v>
   <v>       1.80581300       1.06360446       0.95652837 </v>
   <v>      -2.41498923       1.50394697       4.12666495 </v>
   <v>      -2.36189929      -0.65324237       0.88997012 </v>
   <v>      -1.13782821      -0.37767528       0.23177118 </v>
   <v>      -2.97592083       4.46838166      -2.13057324 </v>
   <v>       0.14787774      -2.15491844      -0.00667411 </v>
   <v>      -0.83135363       1.98701082       1.48305972 </v>
   <v>      -0.46619334       0.54549598       0.59385757 </v>
   <v>      -1.35904139      -1.58231525       0.31241823 </v>
   <v>      -1.01287783      -1.67690256      -1.26486565 </v>
   <v>       0.35459937       2.85131785      -2.06807243 </v>
   <v>       0.88657737      -0.21413332       2.20429190 </v>
   <v>       3.65994699       2.38361021      -0.39220840 </v>
   <v>       1.19439782      -0.96605076      -0.54467997 </v>
   <v>       0.88031025      -1.08318469       1.59853341 </v>
   <v>       1.51411938       2.62484924      -0.48000254 </v>
   <v>       2.32358045      -1.43757428      -0.49603689 </v>
   <v>       0.05160542       1.98221434       1.73122632 </v>
   <v>      -2.54836405       1.41649744      -2.81367166 </v>
   <v>       0.34790876       2.42728535       0.18880183 </v>
   <v>      -2.71241697      -0.53549387      -4.71033761 </v>
   <v>      -0.62642500      -1.54874740       0.95905963 </v>
   <v>       2.65107921       2.82890564       2.24270914 </v>
   <v>      -2.13611772      -2.48563553      -2.58280934 </v>
   <v>      -5.88767607       0.68294254       1.12170978 </v>
   <v>       2.20832627      -1.38081164       2.18562792 </v>
   <v>       2.63282923       0.86707156       1.61615476 </v>
   <v>      -2.17112879      -3.58684990      -1.42214686 </v>
   <v>      -0.19365842      -0.25824096      -0.42078012 </v>
   <v>      -0.18992675       3.56423531      -4.07290377 </v>
   <v>       0.84742864      -0.20465824      -0.25964654 </v>
   <v>      -0.88147264       0.48482458       0.68229866 </v>
   <v>      -4.19007082      -0.26804959       3.15727233 </v>
   <v>       3.89360337       1.20832791       2.74901716 </v>
   <v>      -4.14642714       1.81157417      -2.34039915 </v>
   <v>      -6.64305829      -4.24916491      -4.21028410 </v>
   <v>      -0.02288275       0.79816361       2.15482039 </v>
   <v>      -2.12601653      -1.06077469      -0.63593171 </v>
   <v>       0.94657701      -0.45826767       3.93205913 </v>
   <v>       0.94705059      -3.10060942       0.74556530 </v>
   <v>       4.57129228      -3.74565416       0.84763134 </v>
   <v>       3.38727771       1.67775738      -2.29725118 </v>
   <v>      -0.64758719       0.89013986       2.26748026 </v>
   <v>      -3.30687096       0.70309073      -0.03938016 </v>
   <v>       2.28327301      -0.52503693      -3.91806528 </v>
   <v>       2.81896859      -1.02999679       2.08438901 </v>
   <v>       2.79855360      -1.36223971      -0.67038720 </v>
   <v>      -0.69918590      -0.34454980       4.49424156 </v>
   <v>      -4.81999716      -6.53204161      -1.39861708 </v>
   <v>       2.26671215      -1.36647942      -1.98721889 </v>
   <v>       0.00346029       3.47063744       0.24696542 </v>
   <v>      -5.95543985      -1.53486759       0.72910577 </v>
   <v>       1.59872464      -1.04324298       2.14298660 </v>
   <v>      -0.30934547      -0.30062493       0.58628029 </v>
   <v>      -0.47388681      -2.54252051       0.13280129 </v>
   <v>       0.69210047       0.63924327      -0.64087292 </v>
  </varray>
  <varray name="stress" >
   <v>     172.77411933       2.44578327     -11.21808151 </v>
   <v>       2.44578329     132.64679261     -13.81225003 </v>
   <v>     -11.21808157     -13.81225007     164.17488277 </v>
  </varray>
  <energy>
   <i name="e_fr_energy">   -919.69542610 </i>
   <i name="e_wo_entrp">   -919.69542610 </i>
   <i name="e_0_energy">     -0.00000000 </i>
  </energy>
  <time name="totalsc">  860.34  867.30</time>
  <eigenvalues>
   <array>
    <dimension dim="1">band</dimension>
    <dimension dim="2">kpoint</dimension>
    <dimension dim="3">spin</dimension>
    <field>eigene</field>
    <field>occ</field>
    <set>
     <set comment="spin 1">
      <set comment="kpoint 1">
       <r>  -36.3724    1.0000 </r>
       <r>  -35.8949    1.0000 </r>
       <r>  -35.7807    1.0000 </r>
       <r>  -35.6053    1.0000 </r>
       <r>  -35.1881    1.0000 </r>
       <r>  -35.1774    1.0000 </r>
       <r>  -35.1686    1.0000 </r>
       <r>  -34.6360    1.0000 </r>
       <r>  -34.4879    1.0000 </r>
       <r>  -34.3909    1.0000 </r>
       <r>  -34.3643    1.0000 </r>
       <r>  -34.1651    1.0000 </r>
       <r>  -34.1594    1.0000 </r>
       <r>  -34.1352    1.0000 </r>
       <r>  -34.1135    1.0000 </r>
       <r>  -34.0741    1.0000 </r>
       <r>  -34.0694    1.0000 </r>
       <r>  -34.0652    1.0000 </r>
       <r>  -34.0535    1.0000 </r>
       <r>  -33.9666    1.0000 </r>
       <r>  -33.9441    1.0000 </r>
       <r>  -33.6289    1.0000 </r>
       <r>  -33.5736    1.0000 </r>
       <r>  -33.4887    1.0000 </r>
       <r>  -32.9821    1.0000 </r>
       <r>  -32.9179    1.0000 </r>
       <r>  -32.6956    1.0000 </r>
       <r>  -18.7111    1.0000 </r>
       <r>  -18.0424    1.0000 </r>
       <r>  -17.9355    1.0000 </r>
       <r>  -17.8926    1.0000 </r>
       <r>  -17.6179    1.0000 </r>
       <r>  -17.5341    1.0000 </r>
       <r>  -17.4098    1.0000 </r>
       <r>  -17.3694    1.0000 </r>
[...]
       <r>     5.7349     0.0000   864.0000 </r>
       <r>     5.9086     0.0000   864.0000 </r>
       <r>     6.0824     0.0000   864.0000 </r>
       <r>     6.2561     1.1139   864.1935 </r>
       <r>     6.4298     7.7778   865.5448 </r>
       <r>     6.6036     7.9207   866.9209 </r>
       <r>     6.7773     6.2108   868.0000 </r>
       <r>     6.9510     0.0002   868.0000 </r>
       <r>     7.1248     1.2109   868.2104 </r>
       <r>     7.2985     9.8137   869.9154 </r>
       <r>     7.4722     5.1732   870.8142 </r>
       <r>     7.6460    23.5261   874.9015 </r>
       <r>     7.8197    21.1540   878.5767 </r>
       <r>     7.9935    18.2374   881.7452 </r>
       <r>     8.1672    17.5395   884.7924 </r>
       <r>     8.3409    26.3549   889.3712 </r>
       <r>     8.5147    37.8389   895.9452 </r>
       <r>     8.6884    31.0645   901.3422 </r>
       <r>     8.8621    43.6394   908.9240 </r>
       <r>     9.0359    50.9998   917.7845 </r>
       <r>     9.2096    50.7859   926.6078 </r>
       <r>     9.3833    53.1700   935.8454 </r>
       <r>     9.5571    53.6104   945.1594 </r>
       <r>     9.7308    59.6239   955.5182 </r>
       <r>     9.9046    67.9760   967.3281 </r>
       <r>    10.0783    62.0032   978.1003 </r>
       <r>    10.2520    62.1772   988.9027 </r>
       <r>    10.4258    69.0476  1000.8988 </r>
       <r>    10.5995    73.7305  1013.7084 </r>
       <r>    10.7732    76.1073  1026.9310 </r>
       <r>    10.9470    61.8144  1037.6704 </r>
       <r>    11.1207    13.4067  1039.9996 </r>
       <r>    11.2944     0.0021  1040.0000 </r>
       <r>    11.4682     0.0000  1040.0000 </r>
       <r>    11.6419     0.0000  1040.0000 </r>
       <r>    11.8156     0.0000  1040.0000 </r>
       <r>    11.9894     0.0000  1040.0000 </r>
       <r>    12.1631     0.0000  1040.0000 </r>
       <r>    12.3369     0.0000  1040.0000 </r>
       <r>    12.5106     0.0000  1040.0000 </r>
       <r>    12.6843     0.0000  1040.0000 </r>
       <r>    12.8581     0.0000  1040.0000 </r>
       <r>    13.0318     0.0000  1040.0000 </r>
       <r>    13.2055     0.0000  1040.0000 </r>
       <r>    13.3793     0.0000  1040.0000 </r>
      </set>
     </set>
    </array>
   </total>
  </dos>
 </calculation>
 <structure name="finalpos" >
  <crystal>
   <varray name="basis" >
    <v>      11.62817333       0.00000000       0.00000000 </v>
    <v>       0.00000000      11.62817333       0.00000000 </v>
    <v>       0.00000000       0.00000000      11.62817333 </v>
   </varray>
   <i name="volume">   1572.29665425 </i>
   <varray name="rec_basis" >
    <v>       0.08599803       0.00000000       0.00000000 </v>
    <v>       0.00000000       0.08599803       0.00000000 </v>
    <v>       0.00000000       0.00000000       0.08599803 </v>
   </varray>
  </crystal>
  <varray name="positions" >
   <v>       0.85838764       0.62843023       0.39567307 </v>
   <v>       0.28198228       0.06651075       0.87547220 </v>
   <v>       0.34557869       0.80609857       0.68909059 </v>
   <v>       0.60890729       0.49825617       0.97243990 </v>
   <v>       0.40557432       0.48558436       0.53533660 </v>
   <v>       0.16913681       0.77547684       0.12252643 </v>
   <v>       0.05093256       0.77687099       0.55695684 </v>
   <v>       0.34433730       0.09944541       0.18149614 </v>
   <v>       0.84526469       0.60784027       0.88426146 </v>
   <v>       0.92855907       0.22703368       0.28300165 </v>
   <v>       0.02619917       0.34690087       0.97963217 </v>
   <v>       0.61580913       0.21871755       0.14293047 </v>
   <v>       0.32264339       0.74131545       0.41274070 </v>
   <v>       0.17681309       0.01038334       0.36191180 </v>
   <v>       0.82157748       0.07848180       0.97554986 </v>
   <v>       0.58854942       0.61953419       0.27026691 </v>
   <v>       0.69705521       0.55643109       0.62164067 </v>
   <v>       0.64209777       0.87111088       0.00361713 </v>
   <v>       0.54953257       0.30173304       0.66496965 </v>
   <v>       0.35564766       0.30817129       0.97248649 </v>
   <v>       0.12890106       0.30423376       0.49360366 </v>
   <v>       0.81684615       0.85306426       0.69106919 </v>
   <v>       0.38301433       0.77993049       0.96217829 </v>
   <v>       0.00644735       0.50770433       0.27183380 </v>
   <v>       0.15535713       0.58899903       0.87973386 </v>
   <v>       0.71944838       0.14509949       0.47630650 </v>
   <v>       0.58449576       0.96066542       0.70025803 </v>
   <v>       0.63507222       0.39133831       0.40345315 </v>
   <v>       0.56024077       0.74686423       0.48517369 </v>
   <v>       0.94996557       0.49845336       0.68951143 </v>
   <v>       0.45245085       0.85552997       0.21899296 </v>
   <v>       0.20482138       0.33133109       0.21638191 </v>
   <v>       0.78974871       0.41899107       0.10004431 </v>
   <v>       0.18169967       0.28078910       0.76833549 </v>
   <v>       0.21593668       0.99944205       0.58920703 </v>
   <v>       0.55028284       0.03959045       0.36999004 </v>
   <v>       0.80436843       0.87413451       0.46710629 </v>
   <v>       0.27140510       0.54799736       0.14663388 </v>
   <v>       0.55808488       0.10959975       0.89130773 </v>
   <v>       0.11089035       0.85428068       0.84378818 </v>
   <v>       0.04228317       0.00670049       0.13487512 </v>
   <v>       0.42216935       0.36955816       0.24076802 </v>
   <v>       0.41462709       0.12780525       0.52830017 </v>
   <v>       0.89344015       0.64601473       0.12544042 </v>
   <v>       0.92845044       0.84337867       0.95994562 </v>
   <v>       0.96538535       0.10158821       0.56136421 </v>
   <v>       0.16199981       0.53131344       0.50933397 </v>
   <v>       0.84161871       0.34391148       0.48109273 </v>
   <v>       0.02934769       0.08776392       0.80797642 </v>
   <v>       0.35952924       0.51668467       0.82184384 </v>
   <v>       0.74064474       0.00496632       0.20892426 </v>
   <v>       0.76156255       0.27582406       0.80831929 </v>
   <v>       0.00275401       0.83468931       0.28696364 </v>
   <v>       0.58902898       0.69426988       0.82114265 </v>
   <v>       0.53666730       0.05853979       0.50453128 </v>
   <v>       0.65028786       0.40110174       0.13795337 </v>
   <v>       0.79482319       0.46850724       0.97327275 </v>
   <v>       0.12954917       0.83720035       0.29240496 </v>
   <v>       0.14476306       0.78985512       0.73829961 </v>
   <v>       0.13494221       0.98555180       0.69866191 </v>
   <v>       0.17508160       0.97369650       0.11300672 </v>
   <v>       0.09351081       0.32115819       0.30872171 </v>
   <v>       0.57070070       0.17002778       0.31974323 </v>
   <v>       0.91851776       0.37361257       0.17943565 </v>
   <v>       0.88415497       0.82457686       0.35063417 </v>
   <v>       0.25006846       0.43975576       0.46382625 </v>
   <v>       0.20123091       0.22989942       0.11923879 </v>
   <v>       0.73718520       0.29997955       0.39508834 </v>
   <v>       0.74964852       0.40588220       0.77548789 </v>
   <v>       0.22868195       0.60611601       0.26507993 </v>
   <v>       0.68553506       0.97392647       0.34746256 </v>
   <v>       0.21653824       0.86895707       0.51685586 </v>
   <v>       0.61507361       0.39317078       0.54139908 </v>
   <v>       0.69594838       0.76376821       0.41792486 </v>
   <v>       0.97815726       0.89812610       0.10140473 </v>
   <v>       0.77852664       0.89399440       0.16128553 </v>
   <v>       0.49687675       0.41033046       0.36139517 </v>
   <v>       0.01328545       0.58301800       0.07218335 </v>
   <v>       0.96325734       0.12079216       0.08374996 </v>
   <v>       0.44765230       0.82882551       0.50470524 </v>
   <v>       0.01450103       0.99119011       0.26520654 </v>
   <v>       0.32142918       0.64783689       0.80521491 </v>
   <v>       0.03406831       0.96783103       0.88866441 </v>
   <v>       0.31423122       0.21463623       0.79882542 </v>
   <v>       0.23895137       0.64604345       0.56118632 </v>
   <v>       0.40537356       0.49084985       0.17635513 </v>
   <v>       0.11894304       0.16604527       0.88159720 </v>
   <v>       0.40653626       0.48465850       0.94824944 </v>
   <v>       0.34341901       0.05935919       0.64143418 </v>
   <v>       0.88296634       0.20200626       0.86934767 </v>
   <v>       0.84704467       0.73672070       0.01341412 </v>
   <v>       0.51547736       0.54875068       0.78637875 </v>
   <v>       0.85337643       0.42248935       0.59799743 </v>
   <v>       0.83502887       0.90422246       0.87405053 </v>
   <v>       0.66336270       0.20311821       0.92027010 </v>
   <v>       0.17092429       0.39397012       0.86006439 </v>
   <v>       0.73953613       0.19328647       0.67598975 </v>
   <v>       0.32030208       0.64707650       0.07043304 </v>
   <v>       0.90216727       0.20282862       0.49075970 </v>
   <v>       0.08015407       0.23003101       0.70062524 </v>
   <v>       0.07308036       0.48330781       0.60820312 </v>
   <v>       0.09199201       0.07977461       0.50304723 </v>
   <v>       0.23461847       0.89406910       0.92513585 </v>
   <v>       0.89050587       0.76806795       0.53627917 </v>
   <v>       0.30980980       0.31465036       0.29471137 </v>
   <v>       0.31689307       0.81565812       0.23585996 </v>
   <v>       0.47298504       0.31635507       0.13071198 </v>
   <v>       0.63976784       0.03742576       0.11105594 </v>
   <v>       0.44201372       0.89598953       0.09319525 </v>
   <v>       0.30690233       0.10668962       0.43864595 </v>
   <v>       0.45213219       0.12069089       0.97877488 </v>
   <v>       0.04504708       0.75532928       0.90993967 </v>
   <v>       0.49061077       0.78604498       0.76379795 </v>
   <v>       0.07828437       0.59325356       0.42891021 </v>
   <v>       0.47254264       0.95693239       0.32120365 </v>
   <v>       0.63030008       0.98873862       0.86532108 </v>
   <v>       0.37223114       0.42748585       0.71729756 </v>
   <v>       0.55183452       0.70190475       0.94904300 </v>
   <v>       0.77504053       0.15445060       0.21970050 </v>
   <v>       0.56036933       0.78769921       0.21448974 </v>
   <v>       0.71550525       0.68577462       0.81497816 </v>
   <v>       0.50033108       0.63188040       0.41954703 </v>
   <v>       0.93443327       0.97282442       0.49473761 </v>
   <v>       0.94954766       0.69640550       0.24828231 </v>
   <v>       0.90207239       0.40836758       0.37859577 </v>
   <v>       0.71221940       0.94867714       0.56225786 </v>
   <v>       0.99994390       0.46836705       0.80534707 </v>
   <v>       0.20984683       0.44029813       0.11490239 </v>
   <v>       0.77290335       0.59189169       0.17893897 </v>
   <v>       0.94275188       0.03437460       0.69543173 </v>
   <v>       0.73474200       0.50535263       0.38362623 </v>
   <v>       0.60864392       0.71995776       0.60794277 </v>
   <v>       0.52105114       0.13506914       0.75736669 </v>
   <v>       0.42930051       0.26772602       0.53318132 </v>
   <v>       0.87669095       0.61375676       0.69448197 </v>
  </varray>
  <varray name="velocities" >
   <v>       0.00000000       0.00000000       0.00000000 </v>
   <v>       0.00000000       0.00000000       0.00000000 </v>
   <v>       0.00000000       0.00000000       0.00000000 </v>
   <v>       0.00000000       0.00000000       0.00000000 </v>
   <v>       0.00000000       0.00000000       0.00000000 </v>
   <v>       0.00000000       0.00000000       0.00000000 </v>
   <v>       0.00000000       0.00000000       0.00000000 </v>
   <v>       0.00000000       0.00000000       0.00000000 </v>
   <v>       0.00000000       0.00000000       0.00000000 </v>
   <v>       0.00000000       0.00000000       0.00000000 </v>
   <v>       0.00000000       0.00000000       0.00000000 </v>
   <v>       0.00000000       0.00000000       0.00000000 </v>
   <v>       0.00000000       0.00000000       0.00000000 </v>
   <v>       0.00000000       0.00000000       0.00000000 </v>
   <v>       0.00000000       0.00000000       0.00000000 </v>
   <v>       0.00000000       0.00000000       0.00000000 </v>
   <v>       0.00000000       0.00000000       0.00000000 </v>
   <v>       0.00000000       0.00000000       0.00000000 </v>
   <v>       0.00000000       0.00000000       0.00000000 </v>
   <v>       0.00000000       0.00000000       0.00000000 </v>
   <v>       0.00000000       0.00000000       0.00000000 </v>
   <v>       0.00000000       0.00000000       0.00000000 </v>
   <v>       0.00000000       0.00000000       0.00000000 </v>
   <v>       0.00000000       0.00000000       0.00000000 </v>
   <v>       0.00000000       0.00000000       0.00000000 </v>
   <v>       0.00000000       0.00000000       0.00000000 </v>
   <v>       0.00000000       0.00000000       0.00000000 </v>
   <v>       0.00000000       0.00000000       0.00000000 </v>
   <v>       0.00000000       0.00000000       0.00000000 </v>
   <v>       0.00000000       0.00000000       0.00000000 </v>
   <v>       0.00000000       0.00000000       0.00000000 </v>
   <v>       0.00000000       0.00000000       0.00000000 </v>
   <v>       0.00000000       0.00000000       0.00000000 </v>
   <v>       0.00000000       0.00000000       0.00000000 </v>
   <v>       0.00000000       0.00000000       0.00000000 </v>
   <v>       0.00000000       0.00000000       0.00000000 </v>
   <v>       0.00000000       0.00000000       0.00000000 </v>
   <v>       0.00000000       0.00000000       0.00000000 </v>
   <v>       0.00000000       0.00000000       0.00000000 </v>
   <v>       0.00000000       0.00000000       0.00000000 </v>
   <v>       0.00000000       0.00000000       0.00000000 </v>
   <v>       0.00000000       0.00000000       0.00000000 </v>
   <v>       0.00000000       0.00000000       0.00000000 </v>
   <v>       0.00000000       0.00000000       0.00000000 </v>
   <v>       0.00000000       0.00000000       0.00000000 </v>
   <v>       0.00000000       0.00000000       0.00000000 </v>
   <v>       0.00000000       0.00000000       0.00000000 </v>
   <v>       0.00000000       0.00000000       0.00000000 </v>
   <v>       0.00000000       0.00000000       0.00000000 </v>
   <v>       0.00000000       0.00000000       0.00000000 </v>
   <v>       0.00000000       0.00000000       0.00000000 </v>
   <v>       0.00000000       0.00000000       0.00000000 </v>
   <v>       0.00000000       0.00000000       0.00000000 </v>
   <v>       0.00000000       0.00000000       0.00000000 </v>
   <v>       0.00000000       0.00000000       0.00000000 </v>
   <v>       0.00000000       0.00000000       0.00000000 </v>
   <v>       0.00000000       0.00000000       0.00000000 </v>
   <v>       0.00000000       0.00000000       0.00000000 </v>
   <v>       0.00000000       0.00000000       0.00000000 </v>
   <v>       0.00000000       0.00000000       0.00000000 </v>
   <v>       0.00000000       0.00000000       0.00000000 </v>
   <v>       0.00000000       0.00000000       0.00000000 </v>
   <v>       0.00000000       0.00000000       0.00000000 </v>
   <v>       0.00000000       0.00000000       0.00000000 </v>
   <v>       0.00000000       0.00000000       0.00000000 </v>
   <v>       0.00000000       0.00000000       0.00000000 </v>
   <v>       0.00000000       0.00000000       0.00000000 </v>
   <v>       0.00000000       0.00000000       0.00000000 </v>
   <v>       0.00000000       0.00000000       0.00000000 </v>
   <v>       0.00000000       0.00000000       0.00000000 </v>
   <v>       0.00000000       0.00000000       0.00000000 </v>
   <v>       0.00000000       0.00000000       0.00000000 </v>
   <v>       0.00000000       0.00000000       0.00000000 </v>
   <v>       0.00000000       0.00000000       0.00000000 </v>
   <v>       0.00000000       0.00000000       0.00000000 </v>
   <v>       0.00000000       0.00000000       0.00000000 </v>
   <v>       0.00000000       0.00000000       0.00000000 </v>
   <v>       0.00000000       0.00000000       0.00000000 </v>
   <v>       0.00000000       0.00000000       0.00000000 </v>
   <v>       0.00000000       0.00000000       0.00000000 </v>
   <v>       0.00000000       0.00000000       0.00000000 </v>
   <v>       0.00000000       0.00000000       0.00000000 </v>
   <v>       0.00000000       0.00000000       0.00000000 </v>
   <v>       0.00000000       0.00000000       0.00000000 </v>
   <v>       0.00000000       0.00000000       0.00000000 </v>
   <v>       0.00000000       0.00000000       0.00000000 </v>
   <v>       0.00000000       0.00000000       0.00000000 </v>
   <v>       0.00000000       0.00000000       0.00000000 </v>
   <v>       0.00000000       0.00000000       0.00000000 </v>
   <v>       0.00000000       0.00000000       0.00000000 </v>
   <v>       0.00000000       0.00000000       0.00000000 </v>
   <v>       0.00000000       0.00000000       0.00000000 </v>
   <v>       0.00000000       0.00000000       0.00000000 </v>
   <v>       0.00000000       0.00000000       0.00000000 </v>
   <v>       0.00000000       0.00000000       0.00000000 </v>
   <v>       0.00000000       0.00000000       0.00000000 </v>
   <v>       0.00000000       0.00000000       0.00000000 </v>
   <v>       0.00000000       0.00000000       0.00000000 </v>
   <v>       0.00000000       0.00000000       0.00000000 </v>
   <v>       0.00000000       0.00000000       0.00000000 </v>
   <v>       0.00000000       0.00000000       0.00000000 </v>
   <v>       0.00000000       0.00000000       0.00000000 </v>
   <v>       0.00000000       0.00000000       0.00000000 </v>
   <v>       0.00000000       0.00000000       0.00000000 </v>
   <v>       0.00000000       0.00000000       0.00000000 </v>
   <v>       0.00000000       0.00000000       0.00000000 </v>
   <v>       0.00000000       0.00000000       0.00000000 </v>
   <v>       0.00000000       0.00000000       0.00000000 </v>
   <v>       0.00000000       0.00000000       0.00000000 </v>
   <v>       0.00000000       0.00000000       0.00000000 </v>
   <v>       0.00000000       0.00000000       0.00000000 </v>
   <v>       0.00000000       0.00000000       0.00000000 </v>
   <v>       0.00000000       0.00000000       0.00000000 </v>
   <v>       0.00000000       0.00000000       0.00000000 </v>
   <v>       0.00000000       0.00000000       0.00000000 </v>
   <v>       0.00000000       0.00000000       0.00000000 </v>
   <v>       0.00000000       0.00000000       0.00000000 </v>
   <v>       0.00000000       0.00000000       0.00000000 </v>
   <v>       0.00000000       0.00000000       0.00000000 </v>
   <v>       0.00000000       0.00000000       0.00000000 </v>
   <v>       0.00000000       0.00000000       0.00000000 </v>
   <v>       0.00000000       0.00000000       0.00000000 </v>
   <v>       0.00000000       0.00000000       0.00000000 </v>
   <v>       0.00000000       0.00000000       0.00000000 </v>
   <v>       0.00000000       0.00000000       0.00000000 </v>
   <v>       0.00000000       0.00000000       0.00000000 </v>
   <v>       0.00000000       0.00000000       0.00000000 </v>
   <v>       0.00000000       0.00000000       0.00000000 </v>
   <v>       0.00000000       0.00000000       0.00000000 </v>
   <v>       0.00000000       0.00000000       0.00000000 </v>
   <v>       0.00000000       0.00000000       0.00000000 </v>
   <v>       0.00000000       0.00000000       0.00000000 </v>
   <v>       0.00000000       0.00000000       0.00000000 </v>
   <v>       0.00000000       0.00000000       0.00000000 </v>
   <v>       0.00000000       0.00000000       0.00000000 </v>
  </varray>
 </structure>
</modeling>
