 vasp.5.4.4.18Apr17-6-g9f103f2a35 (build Oct 31 2019 15:01:46) complex          
  
 executed on             LinuxIFC date 2024.04.21  00:21:21
 running on   52 total cores
 distrk:  each k-point on   52 cores,    1 groups
 distr:  one band on NCORES_PER_BAND=  13 cores,    4 groups


--------------------------------------------------------------------------------------------------------


 INCAR:
 POTCAR:    PAW_PBE Sc_sv 07Sep2000               
 POTCAR:    PAW_PBE F 08Apr2002                   
 POTCAR:    PAW_PBE C 08Apr2002                   
 POTCAR:    PAW_PBE Sc_sv 07Sep2000               
   VRHFIN =Sc: 3p4s3d                                                           
   LEXCH  = PE                                                                  
   EATOM  =  1273.2868 eV,   93.5839 Ry                                         
                                                                                
   TITEL  = PAW_PBE Sc_sv 07Sep2000                                             
   LULTRA =        F    use ultrasoft PP ?                                      
   IUNSCR =        1    unscreen: 0-lin 1-nonlin 2-no                           
   RPACOR =    2.200    partial core radius                                     
   POMASS =   44.956; ZVAL   =   11.000    mass and valenz                      
   RCORE  =    2.500    outmost cutoff radius                                   
   RWIGS  =    2.700; RWIGS  =    1.429    wigner-seitz radius (au A)           
   ENMAX  =  222.660; ENMIN  =  166.995 eV                                      
   RCLOC  =    1.805    cutoff for local pot                                    
   LCOR   =        T    correct aug charges                                     
   LPAW   =        T    paw PP                                                  
   EAUG   =  443.063                                                            
   RMAX   =    2.551    core radius for proj-oper                               
   RAUG   =    1.300    factor for augmentation sphere                          
   RDEP   =    2.650    radius for radial grids                                 
   RDEPT  =    2.038    core radius for aug-charge                              
                                                                                
   Atomic configuration                                                         
    8 entries                                                                   
     n  l   j            E        occ.                                          
     1  0  0.50     -4394.2533   2.0000                                         
     2  0  0.50      -471.0040   2.0000                                         
     2  1  1.50      -384.9788   6.0000                                         
     3  0  0.50       -52.1410   2.0000                                         
     4  0  0.50        -3.5584   1.0000                                         
     3  1  1.50       -30.8841   6.0000                                         
     3  2  2.50        -1.3655   2.0000                                         
     4  3  2.50        -1.3606   0.0000                                         
   Description                                                                  
     l       E           TYP  RCUT    TYP  RCUT                                 
     0    -52.1409870     23  1.800                                             
     0     -3.5583698     23  2.500                                             
     1    -30.8840697     23  2.300                                             
     1      4.0817478     23  2.300                                             
     2     -1.3655397     23  2.500                                             
     2      0.3564476     23  2.500                                             
  local pseudopotential read in
  partial core-charges read in
  partial kinetic energy density read in
  atomic valenz-charges read in
  non local Contribution for L=           0  read in
    real space projection operators read in
  non local Contribution for L=           0  read in
    real space projection operators read in
  non local Contribution for L=           1  read in
    real space projection operators read in
  non local Contribution for L=           1  read in
    real space projection operators read in
  non local Contribution for L=           2  read in
    real space projection operators read in
  non local Contribution for L=           2  read in
    real space projection operators read in
    PAW grid and wavefunctions read in
 
   number of l-projection  operators is LMAX  =           6
   number of lm-projection operators is LMMAX =          18
 
 POTCAR:    PAW_PBE F 08Apr2002                   
   VRHFIN =F: s2p5                                                              
   LEXCH  = PE                                                                  
   EATOM  =   659.6475 eV,   48.4827 Ry                                         
                                                                                
   TITEL  = PAW_PBE F 08Apr2002                                                 
   LULTRA =        F    use ultrasoft PP ?                                      
   IUNSCR =        1    unscreen: 0-lin 1-nonlin 2-no                           
   RPACOR =    1.200    partial core radius                                     
   POMASS =   18.998; ZVAL   =    7.000    mass and valenz                      
   RCORE  =    1.520    outmost cutoff radius                                   
   RWIGS  =    1.500; RWIGS  =    0.794    wigner-seitz radius (au A)           
   ENMAX  =  400.000; ENMIN  =  300.000 eV                                      
   ICORE  =        2    local potential                                         
   LCOR   =        T    correct aug charges                                     
   LPAW   =        T    paw PP                                                  
   EAUG   =  613.614                                                            
   RMAX   =    1.555    core radius for proj-oper                               
   RAUG   =    1.300    factor for augmentation sphere                          
   RDEP   =    1.539    radius for radial grids                                 
   RDEPT  =    1.299    core radius for aug-charge                              
                                                                                
   Atomic configuration                                                         
    4 entries                                                                   
     n  l   j            E        occ.                                          
     1  0  0.50      -663.3661   2.0000                                         
     2  0  0.50       -29.8995   2.0000                                         
     2  1  0.50       -11.1114   5.0000                                         
     3  2  1.50       -10.8847   0.0000                                         
   Description                                                                  
     l       E           TYP  RCUT    TYP  RCUT                                 
     0    -29.8995018     23  1.200                                             
     0     -9.5240782     23  1.200                                             
     1    -11.1113914     23  1.520                                             
     1      1.3605826     23  1.520                                             
     2    -10.8846608      7  1.500                                             
  local pseudopotential read in
  partial core-charges read in
  partial kinetic energy density read in
  atomic valenz-charges read in
  non local Contribution for L=           0  read in
    real space projection operators read in
  non local Contribution for L=           0  read in
    real space projection operators read in
  non local Contribution for L=           1  read in
    real space projection operators read in
  non local Contribution for L=           1  read in
    real space projection operators read in
    PAW grid and wavefunctions read in
 
   number of l-projection  operators is LMAX  =           4
   number of lm-projection operators is LMMAX =           8
 
 POTCAR:    PAW_PBE C 08Apr2002                   
   VRHFIN =C: s2p2                                                              
   LEXCH  = PE                                                                  
   EATOM  =   147.1560 eV,   10.8157 Ry                                         
                                                                                
   TITEL  = PAW_PBE C 08Apr2002                                                 
   LULTRA =        F    use ultrasoft PP ?                                      
   IUNSCR =        1    unscreen: 0-lin 1-nonlin 2-no                           
   RPACOR =    1.200    partial core radius                                     
   POMASS =   12.011; ZVAL   =    4.000    mass and valenz                      
   RCORE  =    1.500    outmost cutoff radius                                   
   RWIGS  =    1.630; RWIGS  =    0.863    wigner-seitz radius (au A)           
   ENMAX  =  400.000; ENMIN  =  300.000 eV                                      
   ICORE  =        2    local potential                                         
   LCOR   =        T    correct aug charges                                     
   LPAW   =        T    paw PP                                                  
   EAUG   =  644.873                                                            
   DEXC   =    0.000                                                            
   RMAX   =    1.529    core radius for proj-oper                               
   RAUG   =    1.300    factor for augmentation sphere                          
   RDEP   =    1.501    radius for radial grids                                 
   RDEPT  =    1.300    core radius for aug-charge                              
                                                                                
   Atomic configuration                                                         
    4 entries                                                                   
     n  l   j            E        occ.                                          
     1  0  0.50      -273.3789   2.0000                                         
     2  0  0.50       -13.7508   2.0000                                         
     2  1  0.50        -5.2854   2.0000                                         
     3  2  1.50        -5.4423   0.0000                                         
   Description                                                                  
     l       E           TYP  RCUT    TYP  RCUT                                 
     0    -13.7508458     23  1.200                                             
     0     -8.2022199     23  1.200                                             
     1     -5.2854383     23  1.500                                             
     1     34.0145650     23  1.500                                             
     2     -5.4423304      7  1.500                                             
  local pseudopotential read in
  partial core-charges read in
  partial kinetic energy density read in
  atomic valenz-charges read in
  non local Contribution for L=           0  read in
    real space projection operators read in
  non local Contribution for L=           0  read in
    real space projection operators read in
  non local Contribution for L=           1  read in
    real space projection operators read in
  non local Contribution for L=           1  read in
    real space projection operators read in
    PAW grid and wavefunctions read in
 
   number of l-projection  operators is LMAX  =           4
   number of lm-projection operators is LMMAX =           8
 
 Optimization of the real space projectors (new method)

 maximal supplied QI-value         = 15.12
 optimisation between [QCUT,QGAM] = [ 12.55, 25.10] = [ 44.09,176.36] Ry 
 Optimized for a Real-space Cutoff    1.56 Angstroem

   l    n(q)    QCUT    max X(q) W(low)/X(q) W(high)/X(q)  e(spline) 
   0     12    12.548     2.962    0.12E-05    0.11E-06    0.46E-07
   0     12    12.548    26.414    0.30E-04    0.15E-05    0.76E-07
   1     11    12.548     3.969    0.45E-05    0.12E-05    0.60E-07
   1     11    12.548     5.137    0.15E-04    0.18E-04    0.36E-06
   2     11    12.548   143.970    0.20E-03    0.19E-03    0.76E-06
   2     11    12.548   121.201    0.20E-03    0.19E-03    0.76E-06
 Optimization of the real space projectors (new method)

 maximal supplied QI-value         = 24.76
 optimisation between [QCUT,QGAM] = [ 12.38, 25.00] = [ 42.90,175.06] Ry 
 Optimized for a Real-space Cutoff    1.16 Angstroem

   l    n(q)    QCUT    max X(q) W(low)/X(q) W(high)/X(q)  e(spline) 
   0      9    12.378    14.049    0.11E-03    0.38E-05    0.23E-06
   0      9    12.378     8.945    0.15E-03    0.56E-05    0.30E-06
   1      8    12.378     7.086    0.18E-03    0.14E-03    0.29E-06
   1      8    12.378     6.747    0.16E-03    0.13E-03    0.26E-06
 Optimization of the real space projectors (new method)

 maximal supplied QI-value         = 25.13
 optimisation between [QCUT,QGAM] = [ 12.32, 24.88] = [ 42.47,173.37] Ry 
 Optimized for a Real-space Cutoff    1.16 Angstroem

   l    n(q)    QCUT    max X(q) W(low)/X(q) W(high)/X(q)  e(spline) 
   0      9    12.315   115.676    0.19E-03    0.80E-05    0.34E-06
   0      9    12.315    87.132    0.19E-03    0.82E-05    0.34E-06
   1      8    12.315     4.429    0.18E-03    0.13E-03    0.22E-06
   1      8    12.315     2.733    0.14E-03    0.10E-03    0.18E-06
  PAW_PBE Sc_sv 07Sep2000               :
 energy of atom  1       EATOM=-1273.2868
 kinetic energy error for atom=    0.0014 (will be added to EATOM!!)
  PAW_PBE F 08Apr2002                   :
 energy of atom  2       EATOM= -659.6475
 kinetic energy error for atom=    0.0256 (will be added to EATOM!!)
  PAW_PBE C 08Apr2002                   :
 energy of atom  3       EATOM= -147.1560
 kinetic energy error for atom=    0.0057 (will be added to EATOM!!)
 
 
 POSCAR: Sc  F  C                                
  positions in cartesian coordinates
  No initial velocities read in
 exchange correlation table for  LEXCH =        8
   RHO(1)=    0.500       N(1)  =     2000
   RHO(2)=  100.500       N(2)  =     4000
 


--------------------------------------------------------------------------------------------------------


 ion  position               nearest neighbor table
   1  0.070  0.169  0.453-  61 2.11  66 2.15  49 2.16  50 2.18  70 2.24  65 2.41   2 3.06  18 3.09
                            29 3.10  13 3.18  16 3.23   4 3.32  17 3.32   6 3.38
   2  0.098  0.415  0.456-  50 2.02  71 2.07  67 2.26  66 2.30  51 2.47  18 3.02   1 3.06  19 3.09
                             6 3.15   7 3.29  30 3.34  14 3.40
   3  0.090  0.674  0.456-  52 2.12  72 2.27  67 2.38  68 2.40  51 2.43  63 2.50  19 3.15   7 3.18
                            31 3.20   8 3.23  15 3.28  20 3.31  14 3.33   4 3.33
   4  0.098  0.931  0.451-  49 2.17  52 2.17  69 2.19  64 2.38  65 2.47  68 2.53   5 3.11  17 3.15
                             8 3.30   1 3.32  15 3.32   3 3.33  16 3.35  20 3.39  32 3.40
   5  0.334  0.167  0.454-  69 2.15  54 2.20  53 2.25  70 2.32  74 2.36  49 2.57  21 3.06   4 3.11
                            22 3.14   6 3.22  17 3.27   9 3.29   8 3.35  10 3.41
   6  0.338  0.414  0.457-  71 2.17  75 2.18  55 2.19  54 2.26  50 2.30  70 2.35  18 2.99  22 3.07
                            23 3.14   2 3.15  11 3.18   5 3.22  10 3.27   1 3.38
   7  0.334  0.678  0.456-  56 2.14  76 2.20  72 2.22  51 2.40  71 2.45  55 2.62  24 3.07   8 3.08
                             3 3.18  19 3.18  12 3.20  23 3.24   2 3.29  11 3.38
   8  0.340  0.915  0.455-  56 2.13  73 2.15  53 2.22  69 2.22  72 2.25  52 2.28  24 3.04   7 3.08
                            21 3.12   9 3.23   3 3.23  20 3.28   4 3.30  12 3.32   5 3.35
   9  0.583  0.164  0.453-  58 1.99  78 2.08  73 2.25  74 2.37  57 2.45  21 2.99  26 3.16  25 3.17
                            13 3.18   8 3.23   5 3.29  14 3.36  10 3.39  12 3.40
  10  0.593  0.427  0.450-  59 2.09  79 2.12  75 2.19  54 2.19  74 2.32  58 2.50  11 3.10  27 3.12
                            26 3.16   6 3.27  22 3.29  15 3.30  14 3.33   9 3.39   5 3.41
  11  0.580  0.656  0.451-  55 2.18  59 2.20  75 2.28  76 2.39  80 2.40  60 2.45  10 3.10  27 3.14
                             6 3.18  23 3.21  28 3.23  12 3.24  15 3.31  16 3.36   7 3.38
  12  0.589  0.908  0.452-  57 2.10  60 2.16  77 2.20  56 2.22  76 2.30  73 2.39  28 3.03  24 3.18
                            16 3.18  13 3.19   7 3.20  11 3.24  25 3.26   8 3.32   9 3.40
  13  0.823  0.159  0.455-  57 2.12  78 2.14  66 2.17  77 2.21  61 2.21  62 2.41  29 3.08  25 3.11
                            30 3.18   9 3.18   1 3.18  12 3.19  14 3.29  16 3.29
  14  0.841  0.417  0.446-  62 2.12  58 2.19  63 2.25  67 2.38  78 2.38  79 2.48  26 3.28  13 3.29
                            30 3.29  10 3.33   3 3.33  31 3.36   9 3.36   2 3.40
  15  0.843  0.681  0.453-  63 2.04  64 2.10  80 2.11  59 2.26  79 2.32  68 2.43  31 3.09  32 3.10
                            16 3.12  27 3.18   3 3.28  10 3.30  11 3.31   4 3.32
  16  0.834  0.914  0.450-  64 2.11  61 2.14  60 2.14  65 2.23  80 2.26  77 2.48  15 3.12  32 3.14
                            12 3.18  29 3.23   1 3.23  28 3.23  13 3.29   4 3.35  11 3.36
  17  0.159  0.078  0.550-  33 2.13  36 2.16  70 2.24  65 2.35  37 2.39  69 2.46   4 3.15  20 3.18
                            18 3.20  32 3.26   5 3.27  29 3.28   1 3.32  22 3.37
  18  0.176  0.330  0.545-  70 2.10  71 2.18  38 2.27  34 2.30  33 2.32  66 2.51   6 2.99   2 3.02
                             1 3.09  22 3.19  17 3.20  23 3.27  19 3.31  29 3.36
  19  0.160  0.574  0.548-  34 2.05  67 2.18  39 2.28  72 2.38  35 2.38  71 2.39   2 3.09   3 3.15
                             7 3.18  30 3.29  18 3.31  23 3.33  31 3.43
  20  0.177  0.846  0.556-  40 2.08  68 2.28  36 2.35  72 2.35  35 2.35  69 2.45  17 3.18  24 3.27
                             8 3.28  21 3.30   3 3.31   4 3.39
  21  0.428  0.095  0.543-  37 2.07  41 2.19  74 2.21  73 2.27  40 2.29  69 2.32   9 2.99   5 3.06
                             8 3.12  22 3.16  25 3.19  26 3.20  20 3.30  24 3.31
  22  0.419  0.331  0.548-  74 2.19  37 2.19  75 2.24  42 2.26  38 2.38  70 2.49   6 3.07   5 3.14
                            21 3.16  18 3.19  26 3.26  10 3.29  27 3.30  23 3.32  17 3.37
  23  0.419  0.584  0.549-  38 2.12  43 2.15  39 2.22  76 2.23  71 2.36  75 2.44   6 3.14  11 3.21
                            28 3.23   7 3.24  18 3.27  27 3.29  22 3.32  19 3.33  24 3.34
  24  0.423  0.841  0.547-  73 2.21  44 2.22  40 2.23  72 2.24  76 2.27  39 2.29   8 3.04   7 3.07
                            25 3.14  12 3.18  28 3.19  20 3.27  21 3.31  23 3.34
  25  0.663  0.080  0.549-  41 2.13  77 2.19  44 2.20  45 2.22  73 2.30  78 2.37  13 3.11  24 3.14
                             9 3.17  21 3.19  30 3.22  28 3.24  29 3.24  12 3.26  26 3.35
  26  0.671  0.339  0.545-  41 2.13  74 2.18  46 2.26  79 2.29  78 2.35  42 2.39  30 3.16   9 3.16
                            10 3.16  31 3.20  21 3.20  27 3.22  22 3.26  14 3.28  25 3.35
  27  0.669  0.583  0.546-  42 2.10  47 2.12  43 2.14  79 2.21  75 2.28  80 2.31  31 3.09  10 3.12
                            11 3.14  15 3.18  32 3.21  26 3.22  23 3.29  22 3.30  28 3.32
  28  0.662  0.833  0.545-  48 2.18  44 2.19  43 2.22  77 2.23  76 2.26  80 2.42  12 3.03  32 3.18
                            24 3.19  11 3.23  23 3.23  16 3.23  25 3.24  29 3.28  27 3.32
  29  0.911  0.083  0.546-  33 2.16  65 2.18  45 2.22  66 2.23  77 2.27  48 2.35  13 3.08   1 3.10
                            32 3.22  16 3.23  25 3.24  30 3.25  28 3.28  17 3.28  18 3.36
  30  0.905  0.327  0.549-  46 2.04  45 2.11  34 2.13  67 2.30  66 2.35  78 2.41  26 3.16  13 3.18
                            25 3.22  29 3.25  14 3.29  19 3.29   2 3.34  31 3.43
  31  0.907  0.589  0.547-  47 2.15  68 2.18  35 2.27  79 2.30  46 2.37  67 2.57  27 3.09  15 3.09
                            26 3.20   3 3.20  32 3.24  14 3.36  19 3.43  30 3.43
  32  0.905  0.835  0.548-  80 2.14  65 2.18  68 2.26  48 2.31  47 2.39  36 2.57  15 3.10  16 3.14
                            28 3.18  27 3.21  29 3.22  31 3.24  17 3.26   4 3.40
  33  0.073  0.155  0.589-  17 2.13  29 2.16  18 2.32
  34  0.076  0.412  0.582-  19 2.05  30 2.13  18 2.30
  35  0.071  0.662  0.595-  31 2.27  20 2.35  19 2.38
  36  0.091  0.934  0.602-  17 2.16  20 2.35  32 2.57
  37  0.349  0.164  0.588-  21 2.07  22 2.19  17 2.39
  38  0.338  0.429  0.594-  23 2.12  18 2.27  22 2.38
  39  0.334  0.668  0.591-  23 2.22  19 2.28  24 2.29
  40  0.342  0.927  0.590-  20 2.08  24 2.23  21 2.29
  41  0.594  0.177  0.585-  25 2.13  26 2.13  21 2.19
  42  0.587  0.434  0.592-  27 2.10  22 2.26  26 2.39
  43  0.587  0.663  0.586-  27 2.14  23 2.15  28 2.22
  44  0.587  0.916  0.592-  28 2.19  25 2.20  24 2.22
  45  0.832  0.169  0.590-  30 2.11  25 2.22  29 2.22
  46  0.837  0.410  0.591-  30 2.04  26 2.26  31 2.37
  47  0.818  0.654  0.593-  27 2.12  31 2.15  32 2.39
  48  0.814  0.912  0.595-  28 2.18  32 2.31  29 2.35
  49  0.140  0.085  0.406-   1 2.16   4 2.17   5 2.57
  50  0.165  0.336  0.413-   2 2.02   1 2.18   6 2.30
  51  0.169  0.586  0.400-   7 2.40   3 2.43   2 2.47
  52  0.166  0.831  0.414-   3 2.12   4 2.17   8 2.28
  53  0.366  0.053  0.400-   8 2.22   5 2.25
  54  0.424  0.334  0.411-  10 2.19   5 2.20   6 2.26
  55  0.420  0.565  0.407-  11 2.18   6 2.19   7 2.62
  56  0.418  0.836  0.412-   8 2.13   7 2.14  12 2.22
  57  0.672  0.064  0.410-  12 2.10  13 2.12   9 2.45
  58  0.670  0.306  0.411-   9 1.99  14 2.19  10 2.50
  59  0.673  0.584  0.409-  10 2.09  11 2.20  15 2.26
  60  0.678  0.842  0.405-  16 2.14  12 2.16  11 2.45
  61  0.911  0.080  0.413-   1 2.11  16 2.14  13 2.21
  62  0.895  0.323  0.398-  14 2.12  13 2.41
  63  0.900  0.592  0.410-  15 2.04  14 2.25   3 2.50
  64  0.913  0.834  0.409-  15 2.10  16 2.11   4 2.38
  65  0.985  0.994  0.503-  32 2.18  29 2.18  16 2.23  17 2.35   1 2.41   4 2.47
  66  0.986  0.241  0.497-   1 2.15  13 2.17  29 2.23   2 2.30  30 2.35  18 2.51
  67  0.007  0.491  0.500-  19 2.18   2 2.26  30 2.30  14 2.38   3 2.38  31 2.57
  68  0.008  0.760  0.510-  31 2.18  32 2.26  20 2.28   3 2.40  15 2.43   4 2.53
  69  0.259  0.006  0.495-   5 2.15   4 2.19   8 2.22  21 2.32  20 2.45  17 2.46
  70  0.232  0.235  0.500-  18 2.10  17 2.24   1 2.24   5 2.32   6 2.35  22 2.49
  71  0.249  0.488  0.499-   2 2.07   6 2.17  18 2.18  23 2.36  19 2.39   7 2.45
  72  0.254  0.755  0.504-   7 2.22  24 2.24   8 2.25   3 2.27  20 2.35  19 2.38
  73  0.500  0.998  0.498-   8 2.15  24 2.21   9 2.25  21 2.27  25 2.30  12 2.39
  74  0.509  0.263  0.502-  26 2.18  22 2.19  21 2.21  10 2.32   5 2.36   9 2.37
  75  0.503  0.490  0.499-   6 2.18  10 2.19  22 2.24  27 2.28  11 2.28  23 2.44
  76  0.493  0.743  0.501-   7 2.20  23 2.23  28 2.26  24 2.27  12 2.30  11 2.39
  77  0.741  1.000  0.502-  25 2.19  12 2.20  13 2.21  28 2.23  29 2.27  16 2.48
  78  0.740  0.241  0.493-   9 2.08  13 2.14  26 2.35  25 2.37  14 2.38  30 2.41
  79  0.745  0.504  0.496-  10 2.12  27 2.21  26 2.29  31 2.30  15 2.32  14 2.48
  80  0.760  0.751  0.497-  15 2.11  32 2.14  16 2.26  27 2.31  11 2.40  28 2.42
 
  LATTYP: Found a hexagonal cell.
 ALAT       =    13.1286233990
 C/A-ratio  =     2.0434811347
  
  Lattice vectors:
  
 A1 = (  13.1286234000,   0.0000000000,   0.0000000000)
 A2 = (  -6.5643117000,  11.3697213800,   0.0000000000)
 A3 = (   0.0000000000,   0.0000000000,  26.8280942400)


Analysis of symmetry for initial positions (statically):
=====================================================================
 Subroutine PRICEL returns:
 Original cell was already a primitive cell.
 

 Routine SETGRP: Setting up the symmetry group for a 
 hexagonal supercell.


 Subroutine GETGRP returns: Found  1 space group operations
 (whereof  1 operations were pure point group operations)
 out of a pool of 24 trial point group operations.


The static configuration has the point symmetry C_1 .


Analysis of symmetry for dynamics (positions and initial velocities):
=====================================================================
 Subroutine PRICEL returns:
 Original cell was already a primitive cell.
 

 Routine SETGRP: Setting up the symmetry group for a 
 hexagonal supercell.


 Subroutine GETGRP returns: Found  1 space group operations
 (whereof  1 operations were pure point group operations)
 out of a pool of 24 trial point group operations.


The dynamic configuration has the point symmetry C_1 .


 Subroutine INISYM returns: Found  1 space group operations
 (whereof  1 operations are pure point group operations),
 and found     1 'primitive' translations

 
 

Automatic generation of k-mesh.
 generate k-points for:    3    3    1
Space group operators:
 irot       det(A)        alpha          n_x          n_y          n_z        tau_x        tau_y        tau_z
    1     1.000000     0.000000     1.000000     0.000000     0.000000     0.000000     0.000000     0.000000
 
 Subroutine IBZKPT returns following result:
 ===========================================
 
 Found      5 irreducible k-points:
 
 Following reciprocal coordinates:
            Coordinates               Weight
  0.000000  0.000000  0.000000      1.000000
  0.333333 -0.000000  0.000000      2.000000
  0.000000  0.333333  0.000000      2.000000
  0.333333  0.333333  0.000000      2.000000
 -0.333333  0.333333  0.000000      2.000000
 
 Following cartesian coordinates:
            Coordinates               Weight
  0.000000  0.000000  0.000000      1.000000
  0.025390  0.014659  0.000000      2.000000
  0.000000  0.029318  0.000000      2.000000
  0.025390  0.043976  0.000000      2.000000
 -0.025390  0.014659  0.000000      2.000000
 


--------------------------------------------------------------------------------------------------------




 Dimension of arrays:
   k-points           NKPTS =      5   k-points in BZ     NKDIM =      5   number of bands    NBANDS=    384
   number of dos      NEDOS =    301   number of ions     NIONS =     80
   non local maximal  LDIM  =      6   non local SUM 2l+1 LMDIM =     18
   total plane-waves  NPLWV = ******
   max r-space proj   IRMAX =  10060   max aug-charges    IRDMAX= 222480
   dimension x,y,z NGX =   108 NGY =  108 NGZ =  216
   dimension x,y,z NGXF=   216 NGYF=  216 NGZF=  432
   support grid    NGXF=   432 NGYF=  432 NGZF=  864
   ions per type =              32  32  16
   NGX,Y,Z   is equivalent  to a cutoff of  13.68, 13.68, 13.38 a.u.
   NGXF,Y,Z  is equivalent  to a cutoff of  27.35, 27.35, 26.77 a.u.

 SYSTEM =  unknown system                          
 POSCAR =  Sc  F  C                                

 Startparameter for this run:
   NWRITE =      2    write-flag & timer
   PREC   = anorma    normal or accurate (medium, high low for compatibility)
   ISTART =      0    job   : 0-new  1-cont  2-samecut
   ICHARG =      2    charge: 1-file 2-atom 10-const
   ISPIN  =      1    spin polarized calculation?
   LNONCOLLINEAR =      F non collinear calculations
   LSORBIT =      F    spin-orbit coupling
   INIWAV =      1    electr: 0-lowe 1-rand  2-diag
   LASPH  =      F    aspherical Exc in radial PAW
   METAGGA=      F    non-selfconsistent MetaGGA calc.

 Electronic Relaxation 1
   ENCUT  =  600.0 eV  44.10 Ry    6.64 a.u.  26.22 26.22 53.58*2*pi/ulx,y,z
   ENINI  =  600.0     initial cutoff
   ENAUG  =  644.9 eV  augmentation charge cutoff
   NELM   =     60;   NELMIN=  2; NELMDL= -5     # of ELM steps 
   EDIFF  = 0.1E-05   stopping-criterion for ELM
   LREAL  =      T    real-space projection
   NLSPLINE    = F    spline interpolate recip. space projectors
   LCOMPAT=      F    compatible to vasp.4.4
   GGA_COMPAT  = T    GGA compatible to vasp.4.4-vasp.4.6
   LMAXPAW     = -100 max onsite density
   LMAXMIX     =    2 max onsite mixed and CHGCAR
   VOSKOWN=      0    Vosko Wilk Nusair interpolation
   ROPT   =   -0.00025  -0.00025  -0.00025
 Ionic relaxation
   EDIFFG = -.1E-01   stopping-criterion for IOM
   NSW    =      1    number of steps for IOM
   NBLOCK =      1;   KBLOCK =      1    inner block; outer block 
   IBRION =     -1    ionic relax: 0-MD 1-quasi-New 2-CG
   NFREE  =      0    steps in history (QN), initial steepest desc. (CG)
   ISIF   =      2    stress and relaxation
   IWAVPR =     10    prediction:  0-non 1-charg 2-wave 3-comb
   ISYM   =      2    0-nonsym 1-usesym 2-fastsym
   LCORR  =      T    Harris-Foulkes like correction to forces

   POTIM  = 1.0000    time-step for ionic-motion
   TEIN   =    0.0    initial temperature
   TEBEG  =    0.0;   TEEND  =   0.0 temperature during run
   SMASS  =  -3.00    Nose mass-parameter (am)
   estimated Nose-frequenzy (Omega)   =  0.10E-29 period in steps =****** mass=  -0.394E-26a.u.
   SCALEE = 1.0000    scale energy and forces
   NPACO  =    256;   APACO  = 16.0  distance and # of slots for P.C.
   PSTRESS=    0.0 pullay stress

  Mass of Ions in am
   POMASS =  44.96 19.00 12.01
  Ionic Valenz
   ZVAL   =  11.00  7.00  4.00
  Atomic Wigner-Seitz radii
   RWIGS  =  -1.00 -1.00 -1.00
  virtual crystal weights 
   VCA    =   1.00  1.00  1.00
   NELECT =     640.0000    total number of electrons
   NUPDOWN=      -1.0000    fix difference up-down

 DOS related values:
   EMIN   =  10.00;   EMAX   =-10.00  energy-range for DOS
   EFERMI =   0.00
   ISMEAR =     0;   SIGMA  =   0.05  broadening in eV -4-tet -1-fermi 0-gaus

 Electronic relaxation 2 (details)
   IALGO  =     38    algorithm
   LDIAG  =      T    sub-space diagonalisation (order eigenvalues)
   LSUBROT=      F    optimize rotation matrix (better conditioning)
   TURBO    =      0    0=normal 1=particle mesh
   IRESTART =      0    0=no restart 2=restart with 2 vectors
   NREBOOT  =      0    no. of reboots
   NMIN     =      0    reboot dimension
   EREF     =   0.00    reference energy to select bands
   IMIX   =      4    mixing-type and parameters
     AMIX     =   0.40;   BMIX     =  1.00
     AMIX_MAG =   1.60;   BMIX_MAG =  1.00
     AMIN     =   0.10
     WC   =   100.;   INIMIX=   1;  MIXPRE=   1;  MAXMIX= -45

 Intra band minimization:
   WEIMIN = 0.0000     energy-eigenvalue tresh-hold
   EBREAK =  0.65E-09  absolut break condition
   DEPER  =   0.30     relativ break condition  

   TIME   =   0.40     timestep for ELM

  volume/ion in A,a.u.               =      50.06       337.80
  Fermi-wavevector in a.u.,A,eV,Ry     =   0.888414  1.678858 10.738790  0.789279
  Thomas-Fermi vector in A             =   2.009840
 
 Write flags
   LWAVE        =      F    write WAVECAR
   LDOWNSAMPLE  =      F    k-point downsampling of WAVECAR
   LCHARG       =      F    write CHGCAR
   LVTOT        =      F    write LOCPOT, total local potential
   LVHAR        =      F    write LOCPOT, Hartree potential only
   LELF         =      F    write electronic localiz. function (ELF)
   LORBIT       =      0    0 simple, 1 ext, 2 COOP (PROOUT), +10 PAW based schemes


 Dipole corrections
   LMONO  =      F    monopole corrections only (constant potential shift)
   LDIPOL =      F    correct potential (dipole corrections)
   IDIPOL =      0    1-x, 2-y, 3-z, 4-all directions 
   EPSILON=  1.0000000 bulk dielectric constant

 Exchange correlation treatment:
   GGA     =    --    GGA type
   LEXCH   =     8    internal setting for exchange type
   VOSKOWN=      0    Vosko Wilk Nusair interpolation
   LHFCALC =     F    Hartree Fock is set to
   LHFONE  =     F    Hartree Fock one center treatment
   AEXX    =    0.0000 exact exchange contribution

 Linear response parameters
   LEPSILON=     F    determine dielectric tensor
   LRPA    =     F    only Hartree local field effects (RPA)
   LNABLA  =     F    use nabla operator in PAW spheres
   LVEL    =     F    velocity operator in full k-point grid
   LINTERFAST=   F  fast interpolation
   KINTER  =     0    interpolate to denser k-point grid
   CSHIFT  =0.1000    complex shift for real part using Kramers Kronig
   OMEGAMAX=  -1.0    maximum frequency
   DEG_THRESHOLD= 0.2000000E-02 threshold for treating states as degnerate
   RTIME   =   -0.100 relaxation time in fs
  (WPLASMAI=    0.000 imaginary part of plasma frequency in eV, 0.658/RTIME)
   DFIELD  = 0.0000000 0.0000000 0.0000000 field for delta impulse in time
 
 Orbital magnetization related:
   ORBITALMAG=     F  switch on orbital magnetization
   LCHIMAG   =     F  perturbation theory with respect to B field
   DQ        =  0.001000  dq finite difference perturbation B field
   LLRAUG    =     F  two centre corrections for induced B field



--------------------------------------------------------------------------------------------------------


 Static calculation
 charge density and potential will be updated during run
 non-spin polarized calculation
 Variant of blocked Davidson
 Davidson routine will perform the subspace rotation
 perform sub-space diagonalisation
    after iterative eigenvector-optimisation
 modified Broyden-mixing scheme, WC =      100.0
 initial mixing is a Kerker type mixing with AMIX =  0.4000 and BMIX =      1.0000
 Hartree-type preconditioning will be used
 using additional bands           64
 real space projection scheme for non local part
 use partial core corrections
 calculate Harris-corrections to forces 
   (improved forces if not selfconsistent)
 use gradient corrections 
 use of overlap-Matrix (Vanderbilt PP)
 Gauss-broadening in eV      SIGMA  =   0.05


--------------------------------------------------------------------------------------------------------


  energy-cutoff  :      600.00
  volume of cell :     4004.60
      direct lattice vectors                 reciprocal lattice vectors
    13.128623400  0.000000000  0.000000000     0.076169448  0.043976451  0.000000000
    -6.564311700 11.369721380  0.000000000     0.000000000  0.087952903  0.000000000
     0.000000000  0.000000000 26.828094240     0.000000000  0.000000000  0.037274358

  length of vectors
    13.128623400 13.128623399 26.828094240     0.087952903  0.087952903  0.037274358


 
 k-points in units of 2pi/SCALE and weight: read from INCAR                         
   0.00000000  0.00000000  0.00000000       0.111
   0.02538982  0.01465882  0.00000000       0.222
   0.00000000  0.02931763  0.00000000       0.222
   0.02538982  0.04397645  0.00000000       0.222
  -0.02538982  0.01465882  0.00000000       0.222
 
 k-points in reciprocal lattice and weights: read from INCAR                         
   0.00000000  0.00000000  0.00000000       0.111
   0.33333333 -0.00000000  0.00000000       0.222
   0.00000000  0.33333333  0.00000000       0.222
   0.33333333  0.33333333  0.00000000       0.222
  -0.33333333  0.33333333  0.00000000       0.222
 
 position of ions in fractional coordinates (direct lattice) 
   0.07030496  0.16916231  0.45264565
   0.09821818  0.41457506  0.45565676
   0.08970770  0.67381364  0.45634720
   0.09751429  0.93138251  0.45068930
   0.33439437  0.16749292  0.45350264
   0.33812590  0.41417246  0.45734671
   0.33373974  0.67777374  0.45569155
   0.34017010  0.91549936  0.45526325
   0.58338255  0.16412967  0.45321554
   0.59326758  0.42737808  0.45003819
   0.57965122  0.65637571  0.45107436
   0.58938083  0.90812929  0.45180204
   0.82296632  0.15882138  0.45497224
   0.84127535  0.41719971  0.44585011
   0.84308967  0.68055944  0.45292632
   0.83439176  0.91400106  0.44958339
   0.15877680  0.07805048  0.55015525
   0.17578447  0.32967810  0.54487544
   0.16028892  0.57387854  0.54843616
   0.17730510  0.84568137  0.55580444
   0.42836662  0.09501643  0.54301256
   0.41916871  0.33104557  0.54799421
   0.41874672  0.58394485  0.54947386
   0.42349008  0.84061336  0.54679278
   0.66302357  0.07976505  0.54878879
   0.67127092  0.33913304  0.54457424
   0.66924917  0.58324106  0.54572743
   0.66210493  0.83273203  0.54547224
   0.91113205  0.08270268  0.54625049
   0.90529988  0.32728591  0.54939699
   0.90729379  0.58930730  0.54704518
   0.90537716  0.83480234  0.54798280
   0.07258380  0.15512139  0.58876133
   0.07612924  0.41236371  0.58206189
   0.07092635  0.66206515  0.59546007
   0.09089066  0.93380828  0.60245211
   0.34891529  0.16359850  0.58761188
   0.33787468  0.42897034  0.59357520
   0.33355324  0.66756151  0.59075552
   0.34160951  0.92659881  0.58999629
   0.59435588  0.17734016  0.58469349
   0.58736033  0.43391203  0.59163712
   0.58700524  0.66332105  0.58602502
   0.58701708  0.91572133  0.59195094
   0.83170990  0.16863171  0.59019358
   0.83711717  0.40960722  0.59093095
   0.81827530  0.65402676  0.59317232
   0.81377754  0.91219890  0.59534288
   0.13961008  0.08467350  0.40553992
   0.16547811  0.33586828  0.41293393
   0.16896208  0.58585817  0.39971867
   0.16553831  0.83060337  0.41372871
   0.36607875  0.05319466  0.40040103
   0.42391212  0.33355917  0.41130882
   0.41989390  0.56509863  0.40660356
   0.41844139  0.83604878  0.41232867
   0.67190497  0.06376730  0.40969753
   0.66951876  0.30625186  0.41063273
   0.67348850  0.58423906  0.40912817
   0.67799819  0.84212844  0.40511308
   0.91122399  0.08018362  0.41250238
   0.89518332  0.32345218  0.39846438
   0.90045497  0.59215882  0.40950612
   0.91315199  0.83388967  0.40907133
   0.98470542  0.99430327  0.50317842
   0.98574223  0.24088081  0.49744323
   0.00660927  0.49144757  0.49989122
   0.00815544  0.75995449  0.51049852
   0.25898399  0.00596906  0.49495919
   0.23170241  0.23547019  0.50022892
   0.24887918  0.48815370  0.49896850
   0.25362004  0.75512251  0.50443046
   0.49978396  0.99776576  0.49830950
   0.50851878  0.26294454  0.50152582
   0.50278414  0.49037234  0.49880154
   0.49337181  0.74332066  0.50130940
   0.74109730  0.99977720  0.50223609
   0.73975403  0.24109755  0.49315087
   0.74533407  0.50420155  0.49582461
   0.76026451  0.75095547  0.49742557
 
 position of ions in cartesian coordinates  (Angst):
  -0.18742682  1.92332832 12.14362004
  -1.43193042  4.71360290 12.22440258
  -3.24538420  7.66107337 12.24292568
  -4.83365670 10.58955964 12.09113491
   3.29066198  1.90434782 12.16661165
   1.72037055  4.70902546 12.26974060
  -0.06757480  7.70609863 12.22533580
  -1.54365809 10.40897270 12.21384525
   6.58161143  1.86610862 12.15890927
   4.98334365  4.85916972 12.07366690
   3.30136783  7.46280898 12.10146531
   1.77651525 10.32517703 12.12098761
   9.76186177  1.80575487 12.20603811
   8.30615826  4.74344449 11.96130874
   6.60120251  7.73777124 12.15114996
   4.95462740 10.39193738 12.06146567
   1.57217308  0.88741219 14.75961676
   0.14369832  3.74834814 14.61796974
  -1.66274479  6.52483911 14.71349700
  -3.22354421  9.61516161 14.91117391
   5.00014655  1.08031039 14.56799214
   3.33002182  3.76389586 14.70164044
   1.66437204  6.63929020 14.74133643
   0.04179362  9.55753971 14.66940821
   8.18098420  0.90690634 14.72295731
   6.58668813  3.85584814 14.60988910
   4.95774423  6.63128831 14.64082700
   3.22621374  9.46793111 14.63398072
  11.41902342  0.94030642 14.65485974
   9.73693448  3.72114959 14.73927430
   8.04312170  6.70025977 14.67617970
   6.40645301  9.49147005 14.70133420
  -0.06533972  1.76368697 15.79534438
  -1.70741182  4.68846050 15.61561117
  -3.41483662  7.52749631 15.97505882
  -4.93653939 10.61714001 16.16264206
   3.50686593  1.86006937 15.76450687
   1.61993443  4.87727321 15.92449143
  -0.00298701  7.58998835 15.84884473
  -1.59762077 10.53517025 15.82847600
   6.63895850  2.01630817 15.68621216
   4.86289878  4.93345887 15.87249642
   3.35232457  7.54177557 15.72193435
   1.69564591 10.41149633 15.88091567
   9.81225501  1.91729553 15.83376886
   8.30140662  4.65711994 15.85355130
   6.44959273  7.43610204 15.91368279
   4.69582102 10.37144730 15.97191485
   1.27706494  0.96271405 10.87986320
  -0.03224435  3.81872877 11.07823052
  -1.62751609  6.66104420 10.72369021
  -3.27904926  9.44372892 11.09955293
   4.45692377  0.60480844 10.74199652
   3.37579618  3.79247488 11.03463178
   1.80314540  6.42501395 10.90839875
   0.00547461  9.50564169 11.06199231
   8.40259891  0.72501647 10.99140389
   6.77952700  3.48199836 11.01649365
   5.00684961  6.64263529 10.97612897
   3.37318931  9.57476572 10.86841200
  11.43676629  0.91166542 11.06665262
   9.62928377  3.67756114 10.69003988
   7.93461910  6.73268077 10.98626889
   6.51451688  9.48109322 10.97460406
   6.40091005 11.30495115 13.49931809
  11.36022178  2.73874767 13.34545380
  -3.13924446  5.58762196 13.41112883
  -4.88150839  8.64047077 13.69570239
   3.36092052  0.06786653 13.27881168
   1.49623401  2.67723042 13.42018856
   0.06304799  5.55017153 13.38637392
  -1.62717754  8.58553258 13.53290795
   0.01182992 11.34431870 13.36869412
   4.95010167  2.98960617 13.45498187
   3.38190679  5.57539688 13.38189469
   1.59790422  8.45134877 13.44917573
   3.16673828 11.36718815 13.47403704
   8.12931258  2.74121197 13.23029792
   6.47547416  5.73263110 13.30202942
   5.05172072  8.53815444 13.34498009
 


--------------------------------------------------------------------------------------------------------


 k-point  1 :   0.0000 0.0000 0.0000  plane waves:  133769
 k-point  2 :   0.3333-0.0000 0.0000  plane waves:  133588
 k-point  3 :   0.0000 0.3333 0.0000  plane waves:  133588
 k-point  4 :   0.3333 0.3333 0.0000  plane waves:  133608
 k-point  5 :  -0.3333 0.3333 0.0000  plane waves:  133588

 maximum and minimum number of plane-waves per node :     10323    10242

 maximum number of plane-waves:    133769
 maximum index in each direction: 
   IXMAX=   26   IYMAX=   26   IZMAX=   53
   IXMIN=  -26   IYMIN=  -26   IZMIN=  -53


 real space projection operators:
  total allocation   :      55704.30 KBytes
  max/ min on nodes  :       4658.41       4088.91


 parallel 3D FFT for wavefunctions:
    minimum data exchange during FFTs selected (reduces bandwidth)
 parallel 3D FFT for charge:
    minimum data exchange during FFTs selected (reduces bandwidth)


 total amount of memory used by VASP MPI-rank0   234586. kBytes
=======================================================================

   base      :      30000. kBytes
   nonlr-proj:      19318. kBytes
   fftplans  :      66973. kBytes
   grid      :      38377. kBytes
   one-center:        108. kBytes
   wavefun   :      79810. kBytes
 
     INWAV:  cpu time    0.0000: real time    0.0000
 Broyden mixing: mesh for mixing (old mesh)
   NGX = 53   NGY = 53   NGZ =107
  (NGX  =216   NGY  =216   NGZ  =432)
  gives a total of 300563 points

 initial charge density was supplied:
 charge density of overlapping atoms calculated
 number of electron     640.0000000 magnetization 
 keeping initial charge density in first step


--------------------------------------------------------------------------------------------------------


 Maximum index for non-local projection operator         1083
 Maximum index for augmentation-charges         5180 (set IRDMAX)


--------------------------------------------------------------------------------------------------------


 First call to EWALD:  gamma=   0.112
 Maximum number of real-space cells 4x 4x 2
 Maximum number of reciprocal cells 2x 2x 4

    FEWALD:  cpu time    0.0075: real time    0.0075


--------------------------------------- Iteration      1(   1)  ---------------------------------------


    POTLOK:  cpu time    0.4183: real time    0.4318
    SETDIJ:  cpu time    0.4194: real time    0.4214
     EDDAV:  cpu time   46.0988: real time   46.1077
       DOS:  cpu time    0.0013: real time    0.0013
    --------------------------------------------
      LOOP:  cpu time   46.9379: real time   46.9622

 eigenvalue-minimisations  :  4224
 total energy-change (2. order) : 0.1368209E+05  (-0.2786721E+05)
 number of electron     640.0000000 magnetization 
 augmentation part      640.0000000 magnetization 

 Free energy of the ion-electron system (eV)
  ---------------------------------------------------
  alpha Z        PSCENC =       871.83850952
  Ewald energy   TEWEN  =    285996.93578006
  -Hartree energ DENC   =   -340342.51402293
  -exchange      EXHF   =         0.00000000
  -V(xc)+E(xc)   XCENC  =      3043.32239045
  PAW double counting   =     50525.51240023   -50422.77561733
  entropy T*S    EENTRO =        -0.06498707
  eigenvalues    EBANDS =      -197.59988386
  atomic energy  EATOM  =     64207.43592568
  Solvation  Ediel_sol  =         0.00000000
  ---------------------------------------------------
  free energy    TOTEN  =     13682.09049475 eV

  energy without entropy =    13682.15548183  energy(sigma->0) =    13682.12298829


--------------------------------------------------------------------------------------------------------




--------------------------------------- Iteration      1(   2)  ---------------------------------------


     EDDAV:  cpu time   49.5252: real time   49.5468
       DOS:  cpu time    0.0012: real time    0.0012
    --------------------------------------------
      LOOP:  cpu time   49.5264: real time   49.5480

 eigenvalue-minimisations  :  4656
 total energy-change (2. order) :-0.1118675E+05  (-0.1088713E+05)
 number of electron     640.0000000 magnetization 
 augmentation part      640.0000000 magnetization 

 Free energy of the ion-electron system (eV)
  ---------------------------------------------------
  alpha Z        PSCENC =       871.83850952
  Ewald energy   TEWEN  =    285996.93578006
  -Hartree energ DENC   =   -340342.51402293
  -exchange      EXHF   =         0.00000000
  -V(xc)+E(xc)   XCENC  =      3043.32239045
  PAW double counting   =     50525.51240023   -50422.77561733
  entropy T*S    EENTRO =        -0.04871807
  eigenvalues    EBANDS =    -11384.36859594
  atomic energy  EATOM  =     64207.43592568
  Solvation  Ediel_sol  =         0.00000000
  ---------------------------------------------------
  free energy    TOTEN  =      2495.33805167 eV

  energy without entropy =     2495.38676975  energy(sigma->0) =     2495.36241071


--------------------------------------------------------------------------------------------------------




--------------------------------------- Iteration      1(   3)  ---------------------------------------


     EDDAV:  cpu time   67.6640: real time   67.6690
       DOS:  cpu time    0.0005: real time    0.0005
    --------------------------------------------
      LOOP:  cpu time   67.6645: real time   67.6695

 eigenvalue-minimisations  :  6792
 total energy-change (2. order) :-0.2868555E+04  (-0.2751801E+04)
 number of electron     640.0000000 magnetization 
 augmentation part      640.0000000 magnetization 

 Free energy of the ion-electron system (eV)
  ---------------------------------------------------
  alpha Z        PSCENC =       871.83850952
  Ewald energy   TEWEN  =    285996.93578006
  -Hartree energ DENC   =   -340342.51402293
  -exchange      EXHF   =         0.00000000
  -V(xc)+E(xc)   XCENC  =      3043.32239045
  PAW double counting   =     50525.51240023   -50422.77561733
  entropy T*S    EENTRO =        -0.00000000
  eigenvalues    EBANDS =    -14252.97253859
  atomic energy  EATOM  =     64207.43592568
  Solvation  Ediel_sol  =         0.00000000
  ---------------------------------------------------
  free energy    TOTEN  =      -373.21717291 eV

  energy without entropy =     -373.21717291  energy(sigma->0) =     -373.21717291


--------------------------------------------------------------------------------------------------------




--------------------------------------- Iteration      1(   4)  ---------------------------------------


     EDDAV:  cpu time   61.5577: real time   61.5670
       DOS:  cpu time    0.0004: real time    0.0004
    --------------------------------------------
      LOOP:  cpu time   61.5581: real time   61.5674

 eigenvalue-minimisations  :  6056
 total energy-change (2. order) :-0.3630529E+03  (-0.3586243E+03)
 number of electron     640.0000000 magnetization 
 augmentation part      640.0000000 magnetization 

 Free energy of the ion-electron system (eV)
  ---------------------------------------------------
  alpha Z        PSCENC =       871.83850952
  Ewald energy   TEWEN  =    285996.93578006
  -Hartree energ DENC   =   -340342.51402293
  -exchange      EXHF   =         0.00000000
  -V(xc)+E(xc)   XCENC  =      3043.32239045
  PAW double counting   =     50525.51240023   -50422.77561733
  entropy T*S    EENTRO =        -0.00000000
  eigenvalues    EBANDS =    -14616.02539265
  atomic energy  EATOM  =     64207.43592568
  Solvation  Ediel_sol  =         0.00000000
  ---------------------------------------------------
  free energy    TOTEN  =      -736.27002697 eV

  energy without entropy =     -736.27002697  energy(sigma->0) =     -736.27002697


--------------------------------------------------------------------------------------------------------




--------------------------------------- Iteration      1(   5)  ---------------------------------------


     EDDAV:  cpu time   61.8787: real time   61.8897
       DOS:  cpu time    0.0005: real time    0.0005
    CHARGE:  cpu time    3.5907: real time    3.5907
    MIXING:  cpu time    0.0254: real time    0.0257
    --------------------------------------------
      LOOP:  cpu time   65.4953: real time   65.5066

 eigenvalue-minimisations  :  6080
 total energy-change (2. order) :-0.1480816E+02  (-0.1474312E+02)
 number of electron     640.0000006 magnetization 
 augmentation part      134.5992740 magnetization 

 Broyden mixing:
  rms(total) = 0.77585E+01    rms(broyden)= 0.77583E+01
  rms(prec ) = 0.81597E+01
  weight for this iteration     100.00

 Free energy of the ion-electron system (eV)
  ---------------------------------------------------
  alpha Z        PSCENC =       871.83850952
  Ewald energy   TEWEN  =    285996.93578006
  -Hartree energ DENC   =   -340342.51402293
  -exchange      EXHF   =         0.00000000
  -V(xc)+E(xc)   XCENC  =      3043.32239045
  PAW double counting   =     50525.51240023   -50422.77561733
  entropy T*S    EENTRO =        -0.00000000
  eigenvalues    EBANDS =    -14630.83355316
  atomic energy  EATOM  =     64207.43592568
  Solvation  Ediel_sol  =         0.00000000
  ---------------------------------------------------
  free energy    TOTEN  =      -751.07818748 eV

  energy without entropy =     -751.07818748  energy(sigma->0) =     -751.07818748


--------------------------------------------------------------------------------------------------------




--------------------------------------- Iteration      1(   6)  ---------------------------------------


    POTLOK:  cpu time    0.3890: real time    0.3997
    SETDIJ:  cpu time    0.4185: real time    0.4206
     EDDAV:  cpu time   59.5472: real time   59.5505
       DOS:  cpu time    0.0006: real time    0.0006
    CHARGE:  cpu time    3.5710: real time    3.5710
    MIXING:  cpu time    0.0227: real time    0.0228
    --------------------------------------------
      LOOP:  cpu time   63.9489: real time   63.9651

 eigenvalue-minimisations  :  5824
 total energy-change (2. order) : 0.1561944E+03  (-0.8406036E+02)
 number of electron     640.0000007 magnetization 
 augmentation part      140.4060424 magnetization 

 Broyden mixing:
  rms(total) = 0.25359E+01    rms(broyden)= 0.25351E+01
  rms(prec ) = 0.25869E+01
  weight for this iteration     100.00

 eigenvalues of (default mixing * dielectric matrix)
  average eigenvalue GAMMA=   0.9840
  0.9840

 Free energy of the ion-electron system (eV)
  ---------------------------------------------------
  alpha Z        PSCENC =       871.83850952
  Ewald energy   TEWEN  =    285996.93578006
  -Hartree energ DENC   =   -340509.44025383
  -exchange      EXHF   =         0.00000000
  -V(xc)+E(xc)   XCENC  =      3056.05791524
  PAW double counting   =     56551.35346151   -56518.07869090
  entropy T*S    EENTRO =        -0.00000000
  eigenvalues    EBANDS =    -14250.98643694
  atomic energy  EATOM  =     64207.43592568
  Solvation  Ediel_sol  =         0.00000000
  ---------------------------------------------------
  free energy    TOTEN  =      -594.88378966 eV

  energy without entropy =     -594.88378966  energy(sigma->0) =     -594.88378966


--------------------------------------------------------------------------------------------------------




--------------------------------------- Iteration      1(   7)  ---------------------------------------


    POTLOK:  cpu time    0.3972: real time    0.4069
    SETDIJ:  cpu time    0.4184: real time    0.4204
     EDDAV:  cpu time   60.4004: real time   60.4050
       DOS:  cpu time    0.0006: real time    0.0006
    CHARGE:  cpu time    3.6041: real time    3.6041
    MIXING:  cpu time    0.0226: real time    0.0226
    --------------------------------------------
      LOOP:  cpu time   64.8432: real time   64.8596

 eigenvalue-minimisations  :  5920
 total energy-change (2. order) :-0.2549678E+00  (-0.5640622E+01)
 number of electron     640.0000007 magnetization 
 augmentation part      141.0616899 magnetization 

 Broyden mixing:
  rms(total) = 0.16468E+01    rms(broyden)= 0.16468E+01
  rms(prec ) = 0.16748E+01
  weight for this iteration     100.00

 eigenvalues of (default mixing * dielectric matrix)
  average eigenvalue GAMMA=   1.6336
  0.9617  2.3054

 Free energy of the ion-electron system (eV)
  ---------------------------------------------------
  alpha Z        PSCENC =       871.83850952
  Ewald energy   TEWEN  =    285996.93578006
  -Hartree energ DENC   =   -340642.49396947
  -exchange      EXHF   =         0.00000000
  -V(xc)+E(xc)   XCENC  =      3052.86708501
  PAW double counting   =     60350.33330790   -60323.76720825
  entropy T*S    EENTRO =        -0.00000000
  eigenvalues    EBANDS =    -14108.28818788
  atomic energy  EATOM  =     64207.43592568
  Solvation  Ediel_sol  =         0.00000000
  ---------------------------------------------------
  free energy    TOTEN  =      -595.13875742 eV

  energy without entropy =     -595.13875742  energy(sigma->0) =     -595.13875742


--------------------------------------------------------------------------------------------------------




--------------------------------------- Iteration      1(   8)  ---------------------------------------


    POTLOK:  cpu time    0.3876: real time    0.3979
    SETDIJ:  cpu time    0.4197: real time    0.4197
     EDDAV:  cpu time   57.4078: real time   57.4110
       DOS:  cpu time    0.0006: real time    0.0005
    CHARGE:  cpu time    3.6083: real time    3.6083
    MIXING:  cpu time    0.0226: real time    0.0226
    --------------------------------------------
      LOOP:  cpu time   61.8466: real time   61.8600

 eigenvalue-minimisations  :  5568
 total energy-change (2. order) : 0.1413196E+01  (-0.1033974E+01)
 number of electron     640.0000007 magnetization 
 augmentation part      141.0659091 magnetization 

 Broyden mixing:
  rms(total) = 0.46562E+00    rms(broyden)= 0.46553E+00
  rms(prec ) = 0.49827E+00
  weight for this iteration     100.00

 eigenvalues of (default mixing * dielectric matrix)
  average eigenvalue GAMMA=   1.4151
  2.4688  0.8883  0.8883

 Free energy of the ion-electron system (eV)
  ---------------------------------------------------
  alpha Z        PSCENC =       871.83850952
  Ewald energy   TEWEN  =    285996.93578006
  -Hartree energ DENC   =   -340884.21946804
  -exchange      EXHF   =         0.00000000
  -V(xc)+E(xc)   XCENC  =      3049.45417821
  PAW double counting   =     66723.63241738   -66714.38069495
  entropy T*S    EENTRO =        -0.00000000
  eigenvalues    EBANDS =    -13844.42220904
  atomic energy  EATOM  =     64207.43592568
  Solvation  Ediel_sol  =         0.00000000
  ---------------------------------------------------
  free energy    TOTEN  =      -593.72556117 eV

  energy without entropy =     -593.72556117  energy(sigma->0) =     -593.72556117


--------------------------------------------------------------------------------------------------------




--------------------------------------- Iteration      1(   9)  ---------------------------------------


    POTLOK:  cpu time    0.3818: real time    0.3949
    SETDIJ:  cpu time    0.4187: real time    0.4207
     EDDAV:  cpu time   57.5198: real time   57.5210
       DOS:  cpu time    0.0006: real time    0.0006
    CHARGE:  cpu time    3.5724: real time    3.5724
    MIXING:  cpu time    0.0246: real time    0.0245
    --------------------------------------------
      LOOP:  cpu time   61.9178: real time   61.9341

 eigenvalue-minimisations  :  5576
 total energy-change (2. order) : 0.5067770E+00  (-0.2623635E+00)
 number of electron     640.0000007 magnetization 
 augmentation part      141.4748660 magnetization 

 Broyden mixing:
  rms(total) = 0.21339E+00    rms(broyden)= 0.21338E+00
  rms(prec ) = 0.23040E+00
  weight for this iteration     100.00

 eigenvalues of (default mixing * dielectric matrix)
  average eigenvalue GAMMA=   1.2572
  2.1030  1.1555  0.8852  0.8852

 Free energy of the ion-electron system (eV)
  ---------------------------------------------------
  alpha Z        PSCENC =       871.83850952
  Ewald energy   TEWEN  =    285996.93578006
  -Hartree energ DENC   =   -340986.90103496
  -exchange      EXHF   =         0.00000000
  -V(xc)+E(xc)   XCENC  =      3051.24970389
  PAW double counting   =     67247.13338650   -67241.30909583
  entropy T*S    EENTRO =        -0.00000000
  eigenvalues    EBANDS =    -13739.60195899
  atomic energy  EATOM  =     64207.43592568
  Solvation  Ediel_sol  =         0.00000000
  ---------------------------------------------------
  free energy    TOTEN  =      -593.21878413 eV

  energy without entropy =     -593.21878413  energy(sigma->0) =     -593.21878413


--------------------------------------------------------------------------------------------------------




--------------------------------------- Iteration      1(  10)  ---------------------------------------


    POTLOK:  cpu time    0.3841: real time    0.3938
    SETDIJ:  cpu time    0.4178: real time    0.4178
     EDDAV:  cpu time   59.8344: real time   59.8385
       DOS:  cpu time    0.0005: real time    0.0005
    CHARGE:  cpu time    3.5859: real time    3.5859
    MIXING:  cpu time    0.0259: real time    0.0259
    --------------------------------------------
      LOOP:  cpu time   64.2486: real time   64.2624

 eigenvalue-minimisations  :  5856
 total energy-change (2. order) : 0.3626118E-01  (-0.2836940E-01)
 number of electron     640.0000007 magnetization 
 augmentation part      141.3208141 magnetization 

 Broyden mixing:
  rms(total) = 0.12018E+00    rms(broyden)= 0.12018E+00
  rms(prec ) = 0.14178E+00
  weight for this iteration     100.00

 eigenvalues of (default mixing * dielectric matrix)
  average eigenvalue GAMMA=   1.3994
  2.2556  2.2556  0.9065  0.9065  0.6728

 Free energy of the ion-electron system (eV)
  ---------------------------------------------------
  alpha Z        PSCENC =       871.83850952
  Ewald energy   TEWEN  =    285996.93578006
  -Hartree energ DENC   =   -341049.08155822
  -exchange      EXHF   =         0.00000000
  -V(xc)+E(xc)   XCENC  =      3052.60216432
  PAW double counting   =     66637.63970449   -66630.67622291
  entropy T*S    EENTRO =        -0.00000000
  eigenvalues    EBANDS =    -13679.87682589
  atomic energy  EATOM  =     64207.43592568
  Solvation  Ediel_sol  =         0.00000000
  ---------------------------------------------------
  free energy    TOTEN  =      -593.18252295 eV

  energy without entropy =     -593.18252295  energy(sigma->0) =     -593.18252295


--------------------------------------------------------------------------------------------------------




--------------------------------------- Iteration      1(  11)  ---------------------------------------


    POTLOK:  cpu time    0.3834: real time    0.3959
    SETDIJ:  cpu time    0.4187: real time    0.4187
     EDDAV:  cpu time   57.5752: real time   57.5778
       DOS:  cpu time    0.0006: real time    0.0006
    CHARGE:  cpu time    3.5959: real time    3.5959
    MIXING:  cpu time    0.0252: real time    0.0252
    --------------------------------------------
      LOOP:  cpu time   61.9991: real time   62.0141

 eigenvalue-minimisations  :  5592
 total energy-change (2. order) : 0.1007090E+00  (-0.1268700E-01)
 number of electron     640.0000007 magnetization 
 augmentation part      141.2407745 magnetization 

 Broyden mixing:
  rms(total) = 0.68438E-01    rms(broyden)= 0.68435E-01
  rms(prec ) = 0.84168E-01
  weight for this iteration     100.00

 eigenvalues of (default mixing * dielectric matrix)
  average eigenvalue GAMMA=   1.3679
  2.5646  2.1018  0.9173  0.9173  0.9900  0.7165

 Free energy of the ion-electron system (eV)
  ---------------------------------------------------
  alpha Z        PSCENC =       871.83850952
  Ewald energy   TEWEN  =    285996.93578006
  -Hartree energ DENC   =   -341190.48977241
  -exchange      EXHF   =         0.00000000
  -V(xc)+E(xc)   XCENC  =      3053.92810489
  PAW double counting   =     66632.36674773   -66625.58311054
  entropy T*S    EENTRO =        -0.00000000
  eigenvalues    EBANDS =    -13539.51399889
  atomic energy  EATOM  =     64207.43592568
  Solvation  Ediel_sol  =         0.00000000
  ---------------------------------------------------
  free energy    TOTEN  =      -593.08181395 eV

  energy without entropy =     -593.08181395  energy(sigma->0) =     -593.08181395


--------------------------------------------------------------------------------------------------------




--------------------------------------- Iteration      1(  12)  ---------------------------------------


    POTLOK:  cpu time    0.3829: real time    0.3924
    SETDIJ:  cpu time    0.4185: real time    0.4206
     EDDAV:  cpu time   59.0344: real time   59.0350
       DOS:  cpu time    0.0006: real time    0.0006
    CHARGE:  cpu time    3.5871: real time    3.5870
    MIXING:  cpu time    0.0256: real time    0.0256
    --------------------------------------------
      LOOP:  cpu time   63.4491: real time   63.4611

 eigenvalue-minimisations  :  5768
 total energy-change (2. order) : 0.2925448E-01  (-0.4188667E-02)
 number of electron     640.0000007 magnetization 
 augmentation part      141.2930787 magnetization 

 Broyden mixing:
  rms(total) = 0.30788E-01    rms(broyden)= 0.30786E-01
  rms(prec ) = 0.47872E-01
  weight for this iteration     100.00

 eigenvalues of (default mixing * dielectric matrix)
  average eigenvalue GAMMA=   1.4037
  2.5068  2.5068  1.1581  1.1581  0.9109  0.9109  0.6741

 Free energy of the ion-electron system (eV)
  ---------------------------------------------------
  alpha Z        PSCENC =       871.83850952
  Ewald energy   TEWEN  =    285996.93578006
  -Hartree energ DENC   =   -341249.99039030
  -exchange      EXHF   =         0.00000000
  -V(xc)+E(xc)   XCENC  =      3054.10849907
  PAW double counting   =     66790.05221533   -66783.67240928
  entropy T*S    EENTRO =        -0.00000000
  eigenvalues    EBANDS =    -13479.76068956
  atomic energy  EATOM  =     64207.43592568
  Solvation  Ediel_sol  =         0.00000000
  ---------------------------------------------------
  free energy    TOTEN  =      -593.05255947 eV

  energy without entropy =     -593.05255947  energy(sigma->0) =     -593.05255947


--------------------------------------------------------------------------------------------------------




--------------------------------------- Iteration      1(  13)  ---------------------------------------


    POTLOK:  cpu time    0.3845: real time    0.3963
    SETDIJ:  cpu time    0.4178: real time    0.4197
     EDDAV:  cpu time   59.0301: real time   59.0305
       DOS:  cpu time    0.0006: real time    0.0006
    CHARGE:  cpu time    3.5470: real time    3.5470
    MIXING:  cpu time    0.0237: real time    0.0237
    --------------------------------------------
      LOOP:  cpu time   63.4037: real time   63.4178

 eigenvalue-minimisations  :  5768
 total energy-change (2. order) : 0.8846490E-02  (-0.2787211E-02)
 number of electron     640.0000007 magnetization 
 augmentation part      141.2471612 magnetization 

 Broyden mixing:
  rms(total) = 0.26715E-01    rms(broyden)= 0.26713E-01
  rms(prec ) = 0.37976E-01
  weight for this iteration     100.00

 eigenvalues of (default mixing * dielectric matrix)
  average eigenvalue GAMMA=   1.3630
  2.7645  2.4354  1.2278  1.2278  0.8927  0.8411  0.8411  0.6738

 Free energy of the ion-electron system (eV)
  ---------------------------------------------------
  alpha Z        PSCENC =       871.83850952
  Ewald energy   TEWEN  =    285996.93578006
  -Hartree energ DENC   =   -341314.25697090
  -exchange      EXHF   =         0.00000000
  -V(xc)+E(xc)   XCENC  =      3054.35399502
  PAW double counting   =     66723.45349477   -66716.76375576
  entropy T*S    EENTRO =        -0.00000000
  eigenvalues    EBANDS =    -13416.04069139
  atomic energy  EATOM  =     64207.43592568
  Solvation  Ediel_sol  =         0.00000000
  ---------------------------------------------------
  free energy    TOTEN  =      -593.04371298 eV

  energy without entropy =     -593.04371298  energy(sigma->0) =     -593.04371298


--------------------------------------------------------------------------------------------------------




--------------------------------------- Iteration      1(  14)  ---------------------------------------


    POTLOK:  cpu time    0.3645: real time    0.3757
    SETDIJ:  cpu time    0.4190: real time    0.4190
     EDDAV:  cpu time   58.6988: real time   58.7024
       DOS:  cpu time    0.0006: real time    0.0006
    CHARGE:  cpu time    3.5935: real time    3.5934
    MIXING:  cpu time    0.0232: real time    0.0232
    --------------------------------------------
      LOOP:  cpu time   63.0996: real time   63.1144

 eigenvalue-minimisations  :  5728
 total energy-change (2. order) : 0.2665576E-02  (-0.1036951E-02)
 number of electron     640.0000007 magnetization 
 augmentation part      141.2776787 magnetization 

 Broyden mixing:
  rms(total) = 0.14846E-01    rms(broyden)= 0.14845E-01
  rms(prec ) = 0.24390E-01
  weight for this iteration     100.00

 eigenvalues of (default mixing * dielectric matrix)
  average eigenvalue GAMMA=   1.4714
  2.9137  2.9137  1.5757  1.5757  0.9515  0.9515  0.8472  0.8472  0.6662

 Free energy of the ion-electron system (eV)
  ---------------------------------------------------
  alpha Z        PSCENC =       871.83850952
  Ewald energy   TEWEN  =    285996.93578006
  -Hartree energ DENC   =   -341356.64528265
  -exchange      EXHF   =         0.00000000
  -V(xc)+E(xc)   XCENC  =      3054.45630333
  PAW double counting   =     66751.34503207   -66744.77898345
  entropy T*S    EENTRO =        -0.00000000
  eigenvalues    EBANDS =    -13373.62833197
  atomic energy  EATOM  =     64207.43592568
  Solvation  Ediel_sol  =         0.00000000
  ---------------------------------------------------
  free energy    TOTEN  =      -593.04104741 eV

  energy without entropy =     -593.04104741  energy(sigma->0) =     -593.04104741


--------------------------------------------------------------------------------------------------------




--------------------------------------- Iteration      1(  15)  ---------------------------------------


    POTLOK:  cpu time    0.4064: real time    0.4162
    SETDIJ:  cpu time    0.4187: real time    0.4188
     EDDAV:  cpu time   57.2356: real time   57.2393
       DOS:  cpu time    0.0005: real time    0.0005
    CHARGE:  cpu time    3.5930: real time    3.5930
    MIXING:  cpu time    0.0262: real time    0.0262
    --------------------------------------------
      LOOP:  cpu time   61.6804: real time   61.6940

 eigenvalue-minimisations  :  5552
 total energy-change (2. order) :-0.5574747E-02  (-0.9865011E-03)
 number of electron     640.0000007 magnetization 
 augmentation part      141.2734427 magnetization 

 Broyden mixing:
  rms(total) = 0.11388E-01    rms(broyden)= 0.11385E-01
  rms(prec ) = 0.15792E-01
  weight for this iteration     100.00

 eigenvalues of (default mixing * dielectric matrix)
  average eigenvalue GAMMA=   1.4925
  3.9773  2.7053  1.9671  1.0565  1.0565  1.0012  0.8711  0.8711  0.7686  0.6505

 Free energy of the ion-electron system (eV)
  ---------------------------------------------------
  alpha Z        PSCENC =       871.83850952
  Ewald energy   TEWEN  =    285996.93578006
  -Hartree energ DENC   =   -341415.23988128
  -exchange      EXHF   =         0.00000000
  -V(xc)+E(xc)   XCENC  =      3054.60300358
  PAW double counting   =     66712.44954314   -66705.81698892
  entropy T*S    EENTRO =        -0.00000000
  eigenvalues    EBANDS =    -13315.25251394
  atomic energy  EATOM  =     64207.43592568
  Solvation  Ediel_sol  =         0.00000000
  ---------------------------------------------------
  free energy    TOTEN  =      -593.04662215 eV

  energy without entropy =     -593.04662215  energy(sigma->0) =     -593.04662215


--------------------------------------------------------------------------------------------------------




--------------------------------------- Iteration      1(  16)  ---------------------------------------


    POTLOK:  cpu time    0.3829: real time    0.3957
    SETDIJ:  cpu time    0.4187: real time    0.4186
     EDDAV:  cpu time   56.0011: real time   56.0058
       DOS:  cpu time    0.0006: real time    0.0006
    CHARGE:  cpu time    3.5953: real time    3.5954
    MIXING:  cpu time    0.0244: real time    0.0244
    --------------------------------------------
      LOOP:  cpu time   60.4230: real time   60.4405

 eigenvalue-minimisations  :  5408
 total energy-change (2. order) :-0.3202663E-02  (-0.1973849E-03)
 number of electron     640.0000007 magnetization 
 augmentation part      141.2759241 magnetization 

 Broyden mixing:
  rms(total) = 0.80984E-02    rms(broyden)= 0.80980E-02
  rms(prec ) = 0.10956E-01
  weight for this iteration     100.00

 eigenvalues of (default mixing * dielectric matrix)
  average eigenvalue GAMMA=   1.5245
  4.3036  2.7115  2.1470  1.2084  1.2084  0.9993  0.9993  0.9130  0.9130  0.6525
  0.7135

 Free energy of the ion-electron system (eV)
  ---------------------------------------------------
  alpha Z        PSCENC =       871.83850952
  Ewald energy   TEWEN  =    285996.93578006
  -Hartree energ DENC   =   -341440.82377700
  -exchange      EXHF   =         0.00000000
  -V(xc)+E(xc)   XCENC  =      3054.64644683
  PAW double counting   =     66718.58502531   -66711.98288074
  entropy T*S    EENTRO =        -0.00000000
  eigenvalues    EBANDS =    -13289.68485449
  atomic energy  EATOM  =     64207.43592568
  Solvation  Ediel_sol  =         0.00000000
  ---------------------------------------------------
  free energy    TOTEN  =      -593.04982482 eV

  energy without entropy =     -593.04982482  energy(sigma->0) =     -593.04982482


--------------------------------------------------------------------------------------------------------




--------------------------------------- Iteration      1(  17)  ---------------------------------------


    POTLOK:  cpu time    0.4032: real time    0.4181
    SETDIJ:  cpu time    0.4196: real time    0.4196
     EDDAV:  cpu time   58.6329: real time   58.6353
       DOS:  cpu time    0.0006: real time    0.0006
    CHARGE:  cpu time    3.5983: real time    3.5984
    MIXING:  cpu time    0.0262: real time    0.0262
    --------------------------------------------
      LOOP:  cpu time   63.0809: real time   63.0983

 eigenvalue-minimisations  :  5720
 total energy-change (2. order) :-0.5009449E-02  (-0.2823709E-03)
 number of electron     640.0000007 magnetization 
 augmentation part      141.2775259 magnetization 

 Broyden mixing:
  rms(total) = 0.93348E-02    rms(broyden)= 0.93327E-02
  rms(prec ) = 0.10763E-01
  weight for this iteration     100.00

 eigenvalues of (default mixing * dielectric matrix)
  average eigenvalue GAMMA=   1.6115
  5.4357  2.8528  2.1612  1.9140  0.9790  0.9790  0.9988  0.9988  0.8522  0.8522
  0.6926  0.6215

 Free energy of the ion-electron system (eV)
  ---------------------------------------------------
  alpha Z        PSCENC =       871.83850952
  Ewald energy   TEWEN  =    285996.93578006
  -Hartree energ DENC   =   -341458.49709662
  -exchange      EXHF   =         0.00000000
  -V(xc)+E(xc)   XCENC  =      3054.68277902
  PAW double counting   =     66722.36417835   -66715.82439814
  entropy T*S    EENTRO =        -0.00000000
  eigenvalues    EBANDS =    -13271.99051214
  atomic energy  EATOM  =     64207.43592568
  Solvation  Ediel_sol  =         0.00000000
  ---------------------------------------------------
  free energy    TOTEN  =      -593.05483427 eV

  energy without entropy =     -593.05483427  energy(sigma->0) =     -593.05483427


--------------------------------------------------------------------------------------------------------




--------------------------------------- Iteration      1(  18)  ---------------------------------------


    POTLOK:  cpu time    0.3869: real time    0.3977
    SETDIJ:  cpu time    0.4179: real time    0.4199
     EDDAV:  cpu time   56.8384: real time   56.8409
       DOS:  cpu time    0.0006: real time    0.0006
    CHARGE:  cpu time    3.5413: real time    3.5413
    MIXING:  cpu time    0.0266: real time    0.0266
    --------------------------------------------
      LOOP:  cpu time   61.2116: real time   61.2269

 eigenvalue-minimisations  :  5488
 total energy-change (2. order) :-0.3213208E-02  (-0.7970306E-04)
 number of electron     640.0000007 magnetization 
 augmentation part      141.2681542 magnetization 

 Broyden mixing:
  rms(total) = 0.50248E-02    rms(broyden)= 0.50245E-02
  rms(prec ) = 0.59742E-02
  weight for this iteration     100.00

 eigenvalues of (default mixing * dielectric matrix)
  average eigenvalue GAMMA=   1.6129
  6.0848  2.7804  2.5192  1.7971  0.9587  0.9587  0.9703  0.9703  0.9085  0.9085
  0.7920  0.6598  0.6598

 Free energy of the ion-electron system (eV)
  ---------------------------------------------------
  alpha Z        PSCENC =       871.83850952
  Ewald energy   TEWEN  =    285996.93578006
  -Hartree energ DENC   =   -341473.12781609
  -exchange      EXHF   =         0.00000000
  -V(xc)+E(xc)   XCENC  =      3054.72427542
  PAW double counting   =     66711.04350036   -66704.50125274
  entropy T*S    EENTRO =        -0.00000000
  eigenvalues    EBANDS =    -13257.40696969
  atomic energy  EATOM  =     64207.43592568
  Solvation  Ediel_sol  =         0.00000000
  ---------------------------------------------------
  free energy    TOTEN  =      -593.05804747 eV

  energy without entropy =     -593.05804747  energy(sigma->0) =     -593.05804747


--------------------------------------------------------------------------------------------------------




--------------------------------------- Iteration      1(  19)  ---------------------------------------


    POTLOK:  cpu time    0.3901: real time    0.4030
    SETDIJ:  cpu time    0.4184: real time    0.4184
     EDDAV:  cpu time   57.8229: real time   57.8330
       DOS:  cpu time    0.0005: real time    0.0005
    CHARGE:  cpu time    3.5525: real time    3.5525
    MIXING:  cpu time    0.0268: real time    0.0268
    --------------------------------------------
      LOOP:  cpu time   62.2111: real time   62.2341

 eigenvalue-minimisations  :  5608
 total energy-change (2. order) :-0.1405133E-02  (-0.4851823E-04)
 number of electron     640.0000007 magnetization 
 augmentation part      141.2696001 magnetization 

 Broyden mixing:
  rms(total) = 0.20041E-02    rms(broyden)= 0.20020E-02
  rms(prec ) = 0.31029E-02
  weight for this iteration     100.00

 eigenvalues of (default mixing * dielectric matrix)
  average eigenvalue GAMMA=   1.6232
  6.4921  3.0270  2.3701  2.0250  0.9706  0.9706  1.0702  1.0702  0.9279  0.9279
  0.7834  0.7834  0.6753  0.6308

 Free energy of the ion-electron system (eV)
  ---------------------------------------------------
  alpha Z        PSCENC =       871.83850952
  Ewald energy   TEWEN  =    285996.93578006
  -Hartree energ DENC   =   -341477.55150162
  -exchange      EXHF   =         0.00000000
  -V(xc)+E(xc)   XCENC  =      3054.72738533
  PAW double counting   =     66713.88872440   -66707.36343481
  entropy T*S    EENTRO =        -0.00000000
  eigenvalues    EBANDS =    -13252.97084117
  atomic energy  EATOM  =     64207.43592568
  Solvation  Ediel_sol  =         0.00000000
  ---------------------------------------------------
  free energy    TOTEN  =      -593.05945261 eV

  energy without entropy =     -593.05945261  energy(sigma->0) =     -593.05945261


--------------------------------------------------------------------------------------------------------




--------------------------------------- Iteration      1(  20)  ---------------------------------------


    POTLOK:  cpu time    0.4146: real time    0.4241
    SETDIJ:  cpu time    0.4558: real time    0.4558
     EDDAV:  cpu time   55.6890: real time   55.6910
       DOS:  cpu time    0.0006: real time    0.0006
    CHARGE:  cpu time    3.5437: real time    3.5437
    MIXING:  cpu time    0.0258: real time    0.0258
    --------------------------------------------
      LOOP:  cpu time   60.1296: real time   60.1410

 eigenvalue-minimisations  :  5344
 total energy-change (2. order) :-0.2573170E-02  (-0.1148265E-04)
 number of electron     640.0000007 magnetization 
 augmentation part      141.2699076 magnetization 

 Broyden mixing:
  rms(total) = 0.21343E-02    rms(broyden)= 0.21337E-02
  rms(prec ) = 0.26934E-02
  weight for this iteration     100.00

 eigenvalues of (default mixing * dielectric matrix)
  average eigenvalue GAMMA=   1.6766
  6.9669  3.3396  2.3493  2.3493  1.6168  0.9312  0.9312  1.0483  0.9340  0.9340
  0.8636  0.8636  0.7546  0.6673  0.5990

 Free energy of the ion-electron system (eV)
  ---------------------------------------------------
  alpha Z        PSCENC =       871.83850952
  Ewald energy   TEWEN  =    285996.93578006
  -Hartree energ DENC   =   -341481.23900706
  -exchange      EXHF   =         0.00000000
  -V(xc)+E(xc)   XCENC  =      3054.72419458
  PAW double counting   =     66710.15152522   -66703.61615488
  entropy T*S    EENTRO =        -0.00000000
  eigenvalues    EBANDS =    -13249.29279890
  atomic energy  EATOM  =     64207.43592568
  Solvation  Ediel_sol  =         0.00000000
  ---------------------------------------------------
  free energy    TOTEN  =      -593.06202578 eV

  energy without entropy =     -593.06202578  energy(sigma->0) =     -593.06202578


--------------------------------------------------------------------------------------------------------




--------------------------------------- Iteration      1(  21)  ---------------------------------------


    POTLOK:  cpu time    0.3896: real time    0.4035
    SETDIJ:  cpu time    0.4191: real time    0.4191
     EDDAV:  cpu time   50.2218: real time   50.2216
       DOS:  cpu time    0.0006: real time    0.0006
    CHARGE:  cpu time    3.5540: real time    3.5540
    MIXING:  cpu time    0.0272: real time    0.0272
    --------------------------------------------
      LOOP:  cpu time   54.6122: real time   54.6260

 eigenvalue-minimisations  :  4704
 total energy-change (2. order) :-0.2339405E-02  (-0.9696696E-05)
 number of electron     640.0000007 magnetization 
 augmentation part      141.2704051 magnetization 

 Broyden mixing:
  rms(total) = 0.13765E-02    rms(broyden)= 0.13758E-02
  rms(prec ) = 0.16739E-02
  weight for this iteration     100.00

[...]
    -6.564311700 11.369721380  0.000000000     0.000000000  0.087952903  0.000000000
     0.000000000  0.000000000 26.828094240     0.000000000  0.000000000  0.037274358

  length of vectors
    13.128623400 13.128623399 26.828094240     0.087952903  0.087952903  0.037274358


 FORCES acting on ions
    electron-ion (+dipol)            ewald-force                    non-local-force                 convergence-correction
 -----------------------------------------------------------------------------------------------
   -.613E+02 -.163E+02 0.124E+04   0.617E+02 0.153E+02 -.123E+04   0.423E+00 0.296E+00 -.475E+01   0.413E-05 -.110E-04 -.231E-04
   0.145E+03 -.815E+02 0.123E+04   -.147E+03 0.817E+02 -.122E+04   -.779E+00 0.191E+00 -.551E+01   0.116E-04 0.174E-04 0.182E-04
   0.167E+02 0.918E+02 0.114E+04   -.156E+02 -.919E+02 -.114E+04   -.114E+01 -.499E+00 -.579E+01   0.237E-04 0.194E-04 0.271E-04
   0.149E+01 0.444E+02 0.125E+04   -.102E+01 -.441E+02 -.124E+04   -.993E+00 -.106E+01 -.523E+01   0.346E-05 -.282E-05 -.301E-05
   0.152E+02 -.133E+02 0.126E+04   -.148E+02 0.127E+02 -.126E+04   -.413E+00 0.669E+00 -.550E+01   0.950E-05 -.124E-04 -.272E-05
   0.162E+02 0.148E+02 0.116E+04   -.163E+02 -.138E+02 -.115E+04   -.132E-01 -.113E+01 -.500E+01   0.163E-04 0.476E-04 0.639E-05
   0.931E+01 0.114E+03 0.122E+04   -.948E+01 -.115E+03 -.121E+04   0.242E+00 -.751E+00 -.584E+01   -.221E-04 0.571E-06 0.326E-04
   0.289E+02 0.809E+00 0.118E+04   -.304E+02 0.956E+00 -.118E+04   0.180E+00 -.111E+01 -.482E+01   -.446E-04 -.549E-04 0.181E-04
   0.109E+03 0.782E+02 0.132E+04   -.107E+03 -.765E+02 -.131E+04   -.181E+01 -.194E+01 -.630E+01   -.513E-06 0.285E-04 -.349E-05
   -.496E+02 0.859E+02 0.137E+04   0.488E+02 -.865E+02 -.137E+04   0.563E+00 -.927E+00 -.649E+01   -.252E-04 0.593E-05 0.187E-04
   0.551E+02 -.495E+02 0.130E+04   -.552E+02 0.483E+02 -.130E+04   0.160E-01 0.142E+01 -.536E+01   -.543E-05 -.860E-05 0.107E-04
   0.539E+02 0.643E+02 0.127E+04   -.544E+02 -.620E+02 -.127E+04   -.399E+00 -.139E+01 -.472E+01   0.275E-04 -.248E-04 -.233E-04
   -.179E+02 -.110E+03 0.120E+04   0.177E+02 0.111E+03 -.120E+04   0.566E+00 -.130E+00 -.502E+01   -.144E-05 0.184E-04 -.154E-04
   -.574E+02 -.999E+02 0.137E+04   0.587E+02 0.979E+02 -.137E+04   -.115E+01 0.152E+01 -.411E+01   0.143E-04 -.106E-04 -.104E-04
   -.778E+02 0.336E+01 0.120E+04   0.776E+02 -.485E+01 -.119E+04   0.282E+00 0.653E+00 -.442E+01   -.534E-05 0.182E-04 -.172E-04
   -.123E+02 0.125E+02 0.129E+04   0.129E+02 -.125E+02 -.128E+04   -.640E+00 0.384E+00 -.476E+01   -.340E-05 -.109E-04 -.236E-04
   -.603E+02 0.880E+01 -.130E+04   0.585E+02 -.907E+01 0.129E+04   0.168E+01 0.259E+00 0.495E+01   0.748E-05 -.210E-04 -.618E-05
   0.167E+02 0.582E+01 -.127E+04   -.178E+02 -.602E+01 0.127E+04   -.437E+00 -.379E-01 0.680E+01   -.232E-04 0.283E-04 0.157E-04
   0.289E+02 -.830E+02 -.128E+04   -.299E+02 0.831E+02 0.127E+04   0.645E+00 0.832E+00 0.566E+01   0.461E-05 0.198E-04 -.290E-04
   0.559E+02 0.554E+02 -.144E+04   -.571E+02 -.575E+02 0.144E+04   0.121E+00 0.882E+00 0.570E+01   0.140E-04 -.155E-04 -.535E-04
   0.222E+02 0.422E+02 -.113E+04   -.232E+02 -.423E+02 0.113E+04   0.799E+00 -.659E+00 0.529E+01   -.204E-04 0.122E-04 -.642E-05
   0.592E+02 0.189E+02 -.131E+04   -.572E+02 -.183E+02 0.130E+04   -.148E+01 -.156E+00 0.604E+01   0.193E-04 0.295E-04 -.303E-04
   0.468E+02 0.219E+01 -.128E+04   -.475E+02 -.233E+01 0.128E+04   0.425E+00 0.478E-01 0.484E+01   0.410E-06 -.114E-04 -.386E-04
   0.397E+02 0.507E+02 -.128E+04   -.407E+02 -.516E+02 0.127E+04   0.618E+00 0.253E+00 0.618E+01   -.227E-04 -.504E-04 -.156E-04
   0.175E+02 -.610E+01 -.132E+04   -.169E+02 0.594E+01 0.131E+04   -.225E+00 0.273E+00 0.608E+01   0.219E-04 0.164E-04 0.143E-04
   -.144E+02 -.602E+02 -.119E+04   0.139E+02 0.597E+02 0.118E+04   0.520E+00 0.758E+00 0.645E+01   -.104E-04 -.122E-05 -.109E-04
   0.651E+00 -.972E+01 -.117E+04   -.723E+00 0.901E+01 0.117E+04   -.181E+00 0.745E+00 0.422E+01   -.319E-04 -.151E-05 -.191E-04
   -.120E+02 0.395E+02 -.118E+04   0.129E+02 -.383E+02 0.118E+04   -.431E-01 -.114E+01 0.468E+01   0.607E-05 -.114E-04 -.107E-04
   -.255E+02 0.418E+00 -.126E+04   0.258E+02 -.557E+00 0.126E+04   -.374E+00 -.333E-01 0.604E+01   -.384E-05 -.749E-05 0.193E-04
   -.136E+02 -.514E+02 -.124E+04   0.153E+02 0.523E+02 0.123E+04   -.523E+00 -.399E+00 0.492E+01   0.641E-05 0.340E-05 -.113E-04
   -.101E+03 0.229E+02 -.120E+04   0.103E+03 -.209E+02 0.119E+04   0.110E+00 -.196E+01 0.498E+01   0.236E-04 0.178E-05 -.106E-04
   -.101E+03 -.143E+02 -.133E+04   0.102E+03 0.151E+02 0.132E+04   -.141E+00 -.390E+00 0.711E+01   -.323E-05 -.416E-06 -.138E-04
   0.100E+01 -.465E+02 -.158E+04   -.310E+01 0.478E+02 0.159E+04   0.222E+01 -.737E+00 -.157E+02   -.207E-04 -.378E-05 -.346E-04
   -.305E+02 0.172E+02 -.149E+04   0.327E+02 -.211E+02 0.150E+04   -.170E+01 0.335E+01 -.122E+02   0.424E-05 -.548E-05 -.260E-04
   -.195E+02 0.259E+01 -.158E+04   0.192E+02 -.333E+01 0.160E+04   0.795E+00 0.808E+00 -.145E+02   0.331E-05 -.235E-05 -.508E-04
   0.113E+02 0.455E+02 -.166E+04   -.145E+02 -.489E+02 0.168E+04   0.358E+01 0.326E+01 -.180E+02   0.291E-05 0.976E-05 -.431E-04
   0.490E+02 -.265E+00 -.156E+04   -.514E+02 -.146E+01 0.158E+04   0.151E+01 0.198E+01 -.158E+02   0.160E-06 -.601E-05 -.411E-04
   0.132E+02 0.433E+02 -.163E+04   -.128E+02 -.447E+02 0.164E+04   -.300E+00 0.712E+00 -.176E+02   -.100E-04 0.607E-05 -.433E-04
   0.374E+02 -.136E+01 -.157E+04   -.392E+02 0.291E+01 0.159E+04   0.192E+01 -.175E+01 -.150E+02   0.581E-07 -.541E-05 -.404E-04
   -.141E+02 -.306E+01 -.158E+04   0.174E+02 0.635E+01 0.160E+04   -.289E+01 -.310E+01 -.158E+02   -.105E-04 -.554E-05 -.376E-04
   0.163E+02 -.764E+01 -.155E+04   -.170E+02 0.835E+01 0.157E+04   0.402E+00 -.941E+00 -.154E+02   0.128E-04 0.340E-05 -.326E-04
   -.873E+01 0.513E+02 -.161E+04   0.945E+01 -.525E+02 0.163E+04   -.625E+00 0.274E+00 -.174E+02   0.169E-05 0.601E-06 -.440E-04
   0.134E+02 -.107E+02 -.154E+04   -.117E+02 0.118E+02 0.156E+04   -.205E+01 -.899E+00 -.165E+02   -.230E-05 0.842E-06 -.499E-04
   0.217E+02 0.132E+02 -.163E+04   -.204E+02 -.137E+02 0.165E+04   -.163E+01 0.476E+00 -.183E+02   0.152E-04 0.804E-05 -.284E-04
   -.184E+02 -.318E+01 -.161E+04   0.196E+02 0.102E+01 0.163E+04   -.142E+01 0.198E+01 -.170E+02   0.592E-05 -.979E-05 -.235E-04
   0.158E+02 -.503E+02 -.158E+04   -.175E+02 0.543E+02 0.160E+04   0.823E+00 -.372E+01 -.179E+02   0.784E-05 -.682E-05 -.276E-04
   -.376E+02 -.391E+02 -.163E+04   0.374E+02 0.417E+02 0.165E+04   0.332E+00 -.239E+01 -.192E+02   -.643E-06 -.399E-05 -.402E-04
   -.324E+02 -.919E+01 -.164E+04   0.326E+02 0.110E+02 0.166E+04   0.233E+00 -.189E+01 -.181E+02   -.710E-05 0.212E-04 -.390E-04
   -.438E+02 -.281E+02 0.161E+04   0.448E+02 0.311E+02 -.163E+04   -.319E+00 -.335E+01 0.180E+02   -.132E-04 -.254E-05 0.619E-05
   -.325E+02 -.172E+02 0.158E+04   0.371E+02 0.173E+02 -.160E+04   -.393E+01 -.676E+00 0.180E+02   0.217E-05 -.671E-05 0.787E-05
   0.184E+02 0.140E+02 0.162E+04   -.190E+02 -.156E+02 -.164E+04   0.662E+00 0.192E+01 0.178E+02   0.325E-05 -.472E-06 0.291E-04
   0.671E+01 0.342E+02 0.152E+04   -.425E+01 -.322E+02 -.154E+04   -.274E+01 -.214E+01 0.171E+02   -.355E-05 0.102E-05 0.243E-04
   -.317E+02 -.394E+02 0.166E+04   0.313E+02 0.386E+02 -.168E+04   0.103E+01 0.149E+01 0.174E+02   -.155E-04 0.343E-05 0.167E-04
   0.423E+01 0.291E+02 0.157E+04   -.495E+01 -.285E+02 -.159E+04   0.435E+00 -.862E+00 0.161E+02   -.451E-05 0.748E-05 0.261E-04
   0.678E+02 -.252E+02 0.161E+04   -.725E+02 0.250E+02 -.162E+04   0.478E+01 0.689E+00 0.176E+02   0.112E-04 -.343E-05 0.275E-04
   -.322E+00 0.171E+02 0.158E+04   0.955E+00 -.152E+02 -.160E+04   -.409E+00 -.232E+01 0.180E+02   0.902E-05 -.121E-04 0.275E-04
   0.684E+02 -.227E+02 0.161E+04   -.701E+02 0.250E+02 -.163E+04   0.102E+01 -.210E+01 0.175E+02   0.288E-04 0.966E-05 0.784E-05
   0.555E+02 -.356E+02 0.158E+04   -.556E+02 0.384E+02 -.160E+04   -.667E+00 -.128E+01 0.151E+02   0.127E-04 -.440E-05 0.989E-05
   -.867E+01 -.635E+01 0.161E+04   0.113E+02 0.891E+01 -.163E+04   -.303E+01 -.213E+01 0.171E+02   -.142E-04 0.116E-04 0.442E-05
   0.212E+02 0.649E+02 0.164E+04   -.209E+02 -.667E+02 -.166E+04   -.578E+00 0.123E+01 0.189E+02   0.818E-05 0.525E-05 0.125E-04
   0.238E+01 -.280E+02 0.157E+04   -.458E+01 0.291E+02 -.159E+04   0.207E+01 -.125E+01 0.169E+02   -.935E-05 0.130E-05 -.111E-04
   -.753E+02 -.289E+02 0.166E+04   0.805E+02 0.260E+02 -.167E+04   -.518E+01 0.317E+01 0.173E+02   -.456E-05 -.159E-04 0.186E-04
   -.867E+02 0.128E+02 0.156E+04   0.892E+02 -.133E+02 -.158E+04   -.104E+01 -.438E-01 0.164E+02   0.274E-05 0.153E-07 0.655E-05
   -.653E+02 -.824E+01 0.159E+04   0.684E+02 0.970E+01 -.161E+04   -.255E+01 -.116E+01 0.178E+02   -.121E-04 0.807E-05 -.373E-05
   -.454E+02 0.235E+01 -.268E+02   0.451E+02 -.247E+01 0.269E+02   0.170E+01 0.459E+00 -.726E+00   -.407E-05 0.171E-06 0.427E-05
   0.692E+01 -.451E+02 0.689E+01   -.729E+01 0.450E+02 -.705E+01   0.107E+01 0.870E+00 0.103E+01   -.241E-05 -.102E-05 -.308E-06
   0.321E+02 -.183E+02 0.255E+02   -.316E+02 0.181E+02 -.256E+02   -.210E+01 0.125E+01 -.736E+00   0.420E-05 0.453E-05 0.284E-05
   -.259E+02 -.176E+02 -.901E+02   0.262E+02 0.178E+02 0.911E+02   -.370E+00 -.502E+00 -.275E+01   0.538E-05 -.130E-05 -.182E-05
   0.180E+02 0.177E+02 0.183E+02   -.178E+02 -.177E+02 -.189E+02   -.112E+01 -.170E+00 0.252E+01   0.878E-06 -.255E-05 0.274E-05
   -.319E+02 0.139E+02 0.583E+01   0.315E+02 -.144E+02 -.620E+01   0.221E+01 0.149E+01 0.642E+00   -.252E-05 0.250E-05 -.748E-06
   0.460E+01 -.542E+02 0.562E+01   -.440E+01 0.543E+02 -.570E+01   0.235E+00 0.158E+01 0.126E+01   0.163E-05 0.263E-05 0.155E-05
   0.333E+02 0.274E+02 -.635E+02   -.333E+02 -.274E+02 0.639E+02   -.556E-01 -.623E+00 -.880E+00   -.278E-05 -.446E-05 -.112E-05
   -.274E+01 -.343E+01 0.288E+02   0.270E+01 0.348E+01 -.290E+02   0.304E+00 0.111E+00 0.812E+00   -.274E-05 -.117E-05 0.353E-05
   0.718E+01 -.115E+01 0.207E+02   -.709E+01 0.169E+01 -.208E+02   -.385E+00 -.181E+01 -.707E+00   -.189E-05 0.116E-05 0.169E-05
   0.157E+02 -.468E+01 -.152E+01   -.156E+02 0.452E+01 0.163E+01   -.110E+01 0.145E+01 0.206E+00   -.574E-05 0.274E-05 0.106E-05
   -.336E+00 0.208E+02 0.224E+01   0.147E+00 -.209E+02 -.205E+01   0.956E+00 0.358E+00 -.882E+00   0.222E-05 -.362E-05 -.740E-06
   -.181E+02 0.975E+01 -.248E+02   0.180E+02 -.963E+01 0.250E+02   0.646E+00 -.115E+01 -.453E+00   0.519E-05 0.161E-06 0.126E-05
   -.112E+02 -.439E+02 0.485E+02   0.112E+02 0.438E+02 -.489E+02   0.292E+00 0.130E+01 0.279E+01   0.590E-05 -.161E-05 -.258E-05
   -.508E+02 0.977E+01 0.496E+02   0.507E+02 -.972E+01 -.498E+02   0.180E+01 -.916E-01 0.135E+01   -.277E-05 0.378E-06 0.734E-05
   0.277E+02 0.209E+01 0.189E+02   -.274E+02 -.211E+01 -.189E+02   -.250E+01 0.327E-01 0.495E+00   -.581E-05 0.932E-06 0.878E-06
 -----------------------------------------------------------------------------------------------
   0.112E+02 0.113E+02 -.231E+02   0.114E-12 0.284E-13 -.204E-11   -.112E+02 -.114E+02 0.231E+02   -.108E-04 0.134E-04 -.569E-03
 
 
 POSITION                                       TOTAL-FORCE (eV/Angst)
 -----------------------------------------------------------------------------------
     -0.18743      1.92333     12.14362         0.837879     -0.669948     -0.244609
     -1.43193      4.71360     12.22440        -2.690678      0.358803     -1.361964
     -3.24538      7.66107     12.24293        -0.079820     -0.561857      0.300941
     -4.83366     10.58956     12.09113        -0.524442     -0.722152      0.660721
      3.29066      1.90435     12.16661        -0.084033      0.052016     -1.073211
      1.72037      4.70903     12.26974        -0.171336     -0.122192     -1.927400
     -0.06757      7.70610     12.22534         0.074974     -1.620045     -0.792325
     -1.54366     10.40897     12.21385        -1.305154      0.654691     -1.217306
      6.58161      1.86611     12.15891         0.361224     -0.267062     -0.749324
      4.98334      4.85917     12.07367        -0.160932     -1.464113     -0.094385
      3.30137      7.46281     12.10147        -0.062785      0.208563     -0.079415
      1.77652     10.32518     12.12099        -0.839178      0.879190     -0.162156
      9.76186      1.80575     12.20604         0.362980      0.728389     -1.555419
      8.30616      4.74344     11.96131         0.176459     -0.511290      0.386078
      6.60120      7.73777     12.15115         0.039538     -0.830165      0.066178
      4.95463     10.39194     12.06147        -0.054564      0.367605      0.634997
      1.57217      0.88741     14.75962        -0.151063     -0.008728     -0.582792
      0.14370      3.74835     14.61797        -1.533888     -0.237296      1.498896
     -1.66274      6.52484     14.71350        -0.335165      0.923787      0.222509
     -3.22354      9.61516     14.91117        -1.006322     -1.221258     -0.818118
      5.00015      1.08031     14.56799        -0.208847     -0.816195      0.451658
      3.33002      3.76390     14.70164         0.446985      0.443996      0.329251
      1.66437      6.63929     14.74134        -0.320668     -0.099038     -0.185847
      0.04179      9.55754     14.66941        -0.378377     -0.709844      0.904667
      8.18098      0.90691     14.72296         0.303784      0.113421     -0.610938
      6.58669      3.85585     14.60989        -0.005601      0.230398     -0.444468
      4.95774      6.63129     14.64083        -0.252911      0.031805     -0.177446
      3.22621      9.46793     14.63398         0.841511      0.105832      0.573092
     11.41902      0.94031     14.65486        -0.048488     -0.172885      0.632205
      9.73693      3.72115     14.73927         1.226092      0.470055     -1.725285
      8.04312      6.70026     14.67618         1.693674      0.027598      0.517049
      6.40645      9.49147     14.70133         1.037572      0.426212      0.840892
     -0.06534      1.76369     15.79534         0.124573      0.583123      0.305600
     -1.70741      4.68846     15.61561         0.456676     -0.526360      1.323209
     -3.41484      7.52750     15.97506         0.466022      0.066728     -0.569774
     -4.93654     10.61714     16.16264         0.397365     -0.137608     -1.061220
      3.50687      1.86007     15.76451        -0.878060      0.255463      0.477305
      1.61993      4.87727     15.92449         0.063412     -0.736430     -0.390666
     -0.00299      7.58999     15.84884         0.180953     -0.197046     -0.201933
     -1.59762     10.53517     15.82848         0.333910      0.191262      0.234882
      6.63896      2.01631     15.68621        -0.255789     -0.234839      0.823711
      4.86290      4.93346     15.87250         0.092675     -0.912394     -0.175143
      3.35232      7.54178     15.72193        -0.370858      0.170271      0.349839
      1.69565     10.41150     15.88092        -0.363706     -0.011953     -0.218947
      9.81226      1.91730     15.83377        -0.200437     -0.181027      0.258892
      8.30141      4.65712     15.85355        -0.916565      0.274085     -0.098095
      6.44959      7.43610     15.91368         0.224797      0.255984     -0.252629
      4.69582     10.37145     15.97191         0.353578     -0.080381     -0.759189
      1.27706      0.96271     10.87986         0.695147     -0.368009      0.546814
     -0.03224      3.81873     11.07823         0.657004     -0.513512     -0.623051
     -1.62752      6.66104     10.72369         0.070908      0.295368      1.800946
     -3.27905      9.44373     11.09955        -0.287216     -0.147164     -0.087702
      4.45692      0.60481     10.74200         0.553801      0.675417      0.840011
      3.37580      3.79247     11.03463        -0.284734     -0.245470     -0.049019
      1.80315      6.42501     10.90840         0.075442      0.471716      0.686260
      0.00547      9.50564     11.06199         0.223952     -0.433433     -0.291991
      8.40260      0.72502     10.99140        -0.711649      0.175967     -0.223903
      6.77953      3.48200     11.01649        -0.755292      1.493679     -1.141635
      5.00685      6.64264     10.97613        -0.365349      0.430010     -0.219383
      3.37319      9.57477     10.86841        -0.320065     -0.607410      0.491320
     11.43677      0.91167     11.06665        -0.128772     -0.179167     -0.545100
      9.62928      3.67756     10.69004         0.063697      0.197746      1.127746
      7.93462      6.73268     10.98627         1.395926     -0.470856     -0.254477
      6.51452      9.48109     10.97460         0.467360      0.299951     -0.206025
      6.40091     11.30495     13.49932         1.339922      0.337504     -0.624506
     11.36022      2.73875     13.34545         0.697250      0.737560      0.869273
     -3.13924      5.58762     13.41113        -1.594763      1.004756     -0.760915
     -4.88151      8.64047     13.69570        -0.090897     -0.369763     -1.817731
      3.36092      0.06787     13.27881        -0.906097     -0.183383      1.967055
      1.49623      2.67723     13.42019         1.841681      1.006737      0.272118
      0.06305      5.55017     13.38637         0.434393      1.663947      1.182309
     -1.62718      8.58553     13.53291        -0.030794     -0.623308     -0.509133
      0.01183     11.34432     13.36869         0.270814      0.153762      0.634469
      4.95010      2.98961     13.45498        -0.293413     -1.270297     -0.767954
      3.38191      5.57540     13.38189        -0.947312      1.293388      0.321385
      1.59790      8.45135     13.44918         0.768062      0.205517     -0.696333
      3.16674     11.36719     13.47404         0.534097     -1.019191     -0.222357
      8.12931      2.74121     13.23030         0.315329      1.241144      2.416505
      6.47547      5.73263     13.30203         1.699362     -0.041466      1.140316
      5.05172      8.53815     13.34498        -2.284765      0.021087      0.482123
 -----------------------------------------------------------------------------------
    total drift:                                0.003437     -0.009703      0.002677


--------------------------------------------------------------------------------------------------------



  FREE ENERGIE OF THE ION-ELECTRON SYSTEM (eV)
  ---------------------------------------------------
  free  energy   TOTEN  =      -593.06680692 eV

  energy  without entropy=     -593.06680692  energy(sigma->0) =     -593.06680692
 


--------------------------------------------------------------------------------------------------------


    POTLOK:  cpu time    0.7834: real time    0.7834


--------------------------------------------------------------------------------------------------------


     LOOP+:  cpu time 1813.6286: real time 1814.0890
    4ORBIT:  cpu time    0.0000: real time    0.0000

 total amount of memory used by VASP MPI-rank0   234586. kBytes
=======================================================================

   base      :      30000. kBytes
   nonlr-proj:      19318. kBytes
   fftplans  :      66973. kBytes
   grid      :      38377. kBytes
   one-center:        108. kBytes
   wavefun   :      79810. kBytes
 
  
  
 General timing and accounting informations for this job:
 ========================================================
  
                  Total CPU time used (sec):     1846.149
                            User time (sec):     1839.518
                          System time (sec):        6.631
                         Elapsed time (sec):     1846.817
  
                   Maximum memory used (kb):      441552.
                   Average memory used (kb):           0.
  
                          Minor page faults:       133638
                          Major page faults:            0
                 Voluntary context switches:         2561
