135
Time=99999.99999996 pbc="T T T" Lattice="12.93041299 0.00000000 0.00000000 0.00000000 12.93041299 0.00000000 0.00000000 0.00000000 12.93041299" energy=-937.81980098 virial="-12.75929821 -2.47481709 9.52136688 -2.47481709 -27.84843503 -16.57598490 9.52136688 -16.57598490 -15.33800741" stress="0.00755085 -0.00114474 0.00440415 -0.00114474 0.00057130 -0.00766729 0.00440415 -0.00766729 0.00635805" Properties=species:S:1:pos:R:3
Ca 8.90442528 1.36999334 4.07928891
Ca 6.14073619 11.38344707 6.47927647
Ca 11.71618437 0.24479621 7.66516945
Ca 6.41435407 6.02974829 3.29513263
Ca 11.58755357 11.76281890 1.46078784
Ca 6.44351154 12.00012699 2.82596983
Ca 9.17292953 5.67522816 8.28415390
Ca 3.14757829 1.14148669 7.85847398
Ca 11.12901326 6.72168316 11.50670410
Ca 0.58732258 9.65693903 12.39244323
Ca 6.10860833 0.97171490 12.86743063
Ca 5.43722626 10.00826771 12.60728477
Ca 9.98673975 9.89214916 6.70195044
Ca 3.13187505 8.72878244 2.65045779
Ca 10.23019443 8.09848979 2.46777669
Ca 4.11625647 7.49965650 6.86606566
Ca 7.16655513 7.16020822 10.79391380
Ca 6.99866895 2.14948052 8.32850863
Ca 2.78600362 1.16011029 11.93490543
Ca 2.96594298 10.34096729 8.87147234
Ca 0.30681856 4.43878284 7.08085876
Ca 6.65376339 5.14956801 6.31030499
Ca 10.36086667 2.61914614 0.50841042
Ca 9.73375753 0.36982699 10.76303908
Ca 3.62081899 5.73724487 11.87950694
Ca 11.68943172 10.26837757 9.79418590
Ca 12.07412515 2.66735180 10.32664223
Si 12.28806525 5.25921478 2.78229034
Si 0.62770788 6.96229534 5.31485474
Si 12.36045746 9.70458778 4.11825484
Si 9.54422846 4.58774927 3.93669842
Si 3.96416779 3.67539445 7.14910324
Si 1.08693411 11.39697582 6.32108438
Si 7.01661028 8.61671317 4.61113383
Si 5.30035716 7.22105698 0.67514848
Si 1.82783575 7.73539870 9.55617183
Si 5.61353950 12.47198773 9.66535113
Si 5.88923736 2.87365895 2.52776970
Si 8.75247314 12.16729877 0.95540754
Si 12.45810628 8.02305206 7.96629696
Si 8.92854246 3.68978456 10.85922490
Si 0.71294207 3.37331000 0.75352592
Si 9.97043460 3.26956028 6.84912691
Si 7.95775023 10.59969072 9.96218050
Si 6.96973624 8.76376611 7.68685908
Si 3.24141179 1.32076481 5.18495218
Si 3.38093741 11.74326372 1.55188697
Si 9.49639137 9.37157974 12.48096889
Si 9.07834557 0.33828598 6.87723112
Si 0.46524719 0.01284843 10.48498355
Si 2.30064007 4.31875029 9.89215419
Si 2.78242797 1.54517340 2.25508647
Si 0.80918838 6.54946307 0.84001539
Si 6.99087533 4.40816425 0.05494771
O 2.48614302 0.06757040 5.80995713
O 10.93711714 9.18333622 4.85027025
O 7.14916889 12.72580522 8.94849418
O 2.11945346 6.18448823 10.17574092
O 4.16600153 2.03768441 1.79400525
O 5.69767419 7.62101647 4.91748162
O 2.05191371 10.95800472 1.29382023
O 11.05876501 9.43860341 11.54370161
O 10.87453875 4.14154283 7.71717876
O 8.07837406 8.10056644 3.38269302
O 8.03311868 9.46400154 8.68746002
O 3.86100436 6.67249899 1.07502493
O 9.98068805 10.85712796 0.42692262
O 0.28887943 11.43624603 4.91350114
O 2.73207954 12.81533299 2.40242150
O 5.82619770 3.80298855 3.83707592
O 5.95038535 3.52555477 0.89298617
O 3.29590817 7.89868643 9.08798947
O 9.58887271 4.98341065 10.24533948
O 8.49504549 3.93274640 12.48013796
O 2.19224210 10.44313576 6.74857283
O 9.04818861 12.60928455 2.74225497
O 1.54317131 8.06066084 0.82230986
O 6.30627938 10.95075363 10.40335051
O 0.23824799 6.71506352 2.48911518
O 7.95354786 8.96052484 6.33781278
O 9.76216708 3.53695160 2.69743124
O 9.68096592 11.97881457 7.50643014
O 12.36864283 7.40622556 6.20440852
O 0.79186818 7.08900533 8.24045153
O 6.57276699 10.07681164 4.45358230
O 11.37161669 7.51458304 9.12546472
O 10.18411211 3.86200813 5.27867129
O 11.69778832 9.41484876 7.76467297
O 0.20211001 0.61131782 12.17539620
O 6.98096589 1.43333670 2.39116064
O 12.49902053 3.20927475 12.42931638
O 5.26061296 2.85829333 7.16743915
O 12.02147327 0.56586264 9.78013642
O 9.97588603 2.62050484 11.24355573
O 7.36863485 11.67074779 0.53181574
O 4.88673700 0.72579058 5.53698642
O 5.52955817 7.61495931 12.00840776
O 5.48261802 9.37622275 7.62123284
O 5.20819715 0.53875476 10.88761970
O 8.43991339 9.21698105 11.24688863
O 9.77485942 1.73768434 7.76377040
O 3.92520754 12.48360800 0.15335417
O 0.98328284 3.58924200 9.34916521
O 8.44195627 3.81474421 7.06266338
O 10.68065415 5.78207144 2.89505533
O 1.81990351 0.66311058 9.83266436
O 5.69683118 8.68963371 1.22249168
O 2.27330122 2.17398083 3.83963970
O 4.37675709 12.12598053 8.62933024
O 7.60234923 3.29878003 9.76678981
O 6.25682640 4.87942770 11.49966294
O 3.07198941 3.86981543 11.10320582
O 8.30669673 5.77029777 4.23314314
O 1.95012272 6.68498799 6.11125711
O 6.57693542 5.79330357 1.08524866
O 4.57354593 10.99492167 2.00505655
O 10.07921954 0.66670850 5.71806735
O 3.03056994 2.78472805 5.92022499
O 4.45324770 5.31347655 6.69588411
O 7.75936988 0.63208083 6.21669234
O 0.36356495 12.23340126 7.58363678
O 0.40191436 11.34046485 10.69872128
O 11.86919050 9.98930995 2.60201547
O 6.92171868 7.21149636 7.86012188
O 9.70261279 0.31818042 0.19718328
O 3.30392453 3.62070347 8.56432942
O 0.26658655 3.87428036 2.37690716
O 9.73343903 7.92124413 0.31590541
O 12.51312965 6.68056837 12.73821039
O 9.41276044 11.21643006 10.28361088
O 1.63317097 2.15230278 1.04315678
O 1.46940137 4.74605496 0.50452809
O 1.28821753 9.17674203 10.25103623
O 0.96497944 8.32347849 4.10001926
O 12.82467429 5.54442722 4.48624982
135
Time=199999.99999918 pbc="T T T" Lattice="12.93041299 0.00000000 0.00000000 0.00000000 12.93041299 0.00000000 0.00000000 0.00000000 12.93041299" energy=-936.10695529 virial="-30.35584900 9.46186589 8.27366174 9.46186589 -23.11563656 -10.15848456 8.27366174 -10.15848456 0.31690212" stress="-0.00058852 0.00437663 0.00382702 0.00437663 0.00276048 -0.00469885 0.00382702 -0.00469885 0.01359930" Properties=species:S:1:pos:R:3
Ca 7.13959889 6.87939650 4.88491294
Ca 12.23987243 0.03494987 5.21493968
Ca 9.59370028 1.41305587 8.03303447
Ca 6.46801662 1.50341122 10.83545090
Ca 9.84034573 10.05823257 5.60118407
Ca 6.16562966 9.16069644 8.85333633
Ca 9.01849046 10.78321093 9.67946097
Ca 11.10599365 8.50585665 3.28293738
Ca 3.62516200 7.07780286 6.95276122
Ca 3.18675463 10.46720669 2.45893616
Ca 4.73033651 12.61040958 9.05670290
Ca 0.76849831 8.20456792 0.02653668
Ca 4.30219414 3.55012608 0.76121219
Ca 12.36463048 5.49351452 2.42909855
Ca 7.22859735 3.59263466 5.52965423
Ca 10.32114540 4.22158759 7.16548789
Ca 4.02032915 4.48441960 9.04152960
Ca 1.87280420 9.70404841 10.30309767
Ca 10.93190911 7.60248285 8.97045821
Ca 0.61547663 3.72790358 8.31069040
Ca 0.14268233 6.18147424 5.91636018
Ca 4.19389468 7.95526513 0.12505831
Ca 0.37629563 2.41779114 2.29440818
Ca 12.09730609 0.74928139 10.93961811
Ca 6.98812003 6.78786610 1.42460083
Ca 7.31317146 0.51477491 2.37780995
Ca 2.20712535 0.78903359 6.65543722
Si 12.71137762 9.03536116 6.94425637
Si 0.03690726 11.95441151 1.29101955
Si 10.17288698 7.78136607 0.30925543
Si 1.84266419 10.03688056 5.22625490
Si 8.75713443 1.04372305 5.22738514
Si 4.60341605 5.21867954 3.69674841
Si 1.79861152 4.73958097 11.14234380
Si 3.91272124 10.56852396 11.83972166
Si 11.54107193 4.85235359 12.47375212
Si 7.73197976 8.53651252 11.62507939
Si 2.47571399 1.98612181 10.49918096
Si 7.68514525 11.56972010 7.16677440
Si 9.80777997 1.02341524 0.01679293
Si 3.41360329 3.57497471 6.26990562
Si 12.02687195 11.63796793 8.39619572
Si 10.15546884 4.11165785 9.90015493
Si 5.97198533 6.09925717 7.75392999
Si 1.98965949 7.51818068 3.31947587
Si 6.42441074 10.17635330 1.23043188
Si 0.56933924 2.82339913 5.48434777
Si 2.29590746 1.06660323 0.50117414
Si 7.47885474 3.94301171 9.06928484
Si 7.23216850 2.97744519 0.80457603
Si 9.89666539 6.28109685 5.22820127
Si 10.16330614 12.06650988 2.52492708
Si 11.82019012 10.39663006 12.04983807
Si 4.34827743 10.84509550 6.52278710
O 0.64297052 6.50007702 3.66980750
O 5.01199416 4.98249709 7.04506422
O 0.88906023 10.61810430 1.42783463
O 0.20647948 4.17877495 11.60615252
O 11.63345710 12.01439678 2.21544473
O 8.06036166 9.00247984 10.12957593
O 10.79087302 12.48867997 9.09969189
O 1.65740177 1.01227357 12.00437456
O 10.58029944 3.92742458 11.54288470
O 7.97161551 12.73226814 6.19514485
O 1.25854464 9.46988847 6.58003407
O 10.49230466 10.42653333 11.17779206
O 6.42390562 7.67247534 12.28371218
O 4.57476429 3.96471791 4.90386130
O 7.34454788 10.00647753 12.80564253
O 4.23039789 1.58500048 10.68746944
O 4.21643628 9.86121144 7.83012628
O 2.37027273 2.65183112 5.32456713
O 10.43510596 5.73342054 9.59149975
O 2.11172163 4.62587818 7.08283276
O 8.57963647 3.17667198 9.84972200
O 6.95013212 12.13678943 8.68189330
O 6.43104743 11.33209760 2.16245224
O 6.22788441 7.47623599 6.94311165
O 10.03966628 10.68973085 3.32670678
O 11.19343702 1.42190521 0.32878261
O 1.45472204 8.92335160 4.05885985
O 4.92933501 6.60817055 8.82285728
O 8.69799374 4.99519403 5.12298334
O 11.40722375 6.33863128 0.04357519
O 8.76174263 2.48932173 0.67092865
O 0.33465743 12.17007620 9.23527698
O 3.70578057 10.37475800 5.00895977
O 11.06658340 3.23772450 9.10378987
O 4.12770331 2.38156521 7.18744702
O 11.92999505 9.01687661 5.55262426
O 3.70972195 0.50193007 1.27561230
O 7.95697588 3.13409303 7.52226393
O 3.69907987 5.04813495 2.35573411
O 0.11317184 1.67576626 6.56187140
O 0.95360310 0.43955838 1.33016400
O 9.30833074 7.92050245 11.87159757
O 3.70577607 12.41142784 6.96092965
O 10.89395862 6.28114832 6.64673926
O 7.45488927 5.58203691 8.80443393
O 6.33877859 3.46079003 9.94453514
O 9.16162416 0.41615550 11.59715713
O 5.02236192 10.28911310 10.72043537
O 10.92329599 6.06325532 3.92325891
O 6.03523347 5.80610620 3.19587212
O 1.42643517 11.51440647 4.82322632
O 7.35273878 1.64718174 4.48719184
O 4.40834032 10.20887346 0.62677299
O 9.64898455 0.13363538 4.00864436
O 9.15780028 12.86013335 1.55399882
O 11.79431254 11.92066859 6.69982651
O 1.88981104 5.10770216 9.47139097
O 3.29667764 6.97681601 4.33767692
O 2.95500899 3.47207248 11.23508697
O 11.57241083 8.79542413 0.59557783
O 12.29012785 11.88782732 12.59728148
O 12.67305974 4.16505515 6.36412677
O 8.46173026 10.26094533 7.50586304
O 9.51495710 7.63347340 1.71342705
O 2.96626170 9.33059350 11.86616503
O 6.16969827 2.25481146 1.92338654
O 5.89521441 8.49556954 1.70319923
O 9.27461046 7.86475539 5.33834127
O 11.71459568 9.77753747 8.27607442
O 0.03965605 9.50341281 11.56090835
O 6.08461564 10.99803820 6.43109423
O 10.04781966 1.55475947 5.97716246
O 1.91614269 6.49194457 11.72508741
O 12.79646802 2.48831919 4.27574497
O 1.68087665 1.92002115 9.14315815
O 6.69273901 4.48136267 0.23960672
O 2.54967391 2.73458800 0.78681281
O 2.34308648 8.06086699 1.81128268
O 11.95405720 4.08260370 0.92892771
O 0.23287475 7.83145240 7.95484477
O 2.93196299 11.85741196 11.24265397
135
Time=299999.99999840 pbc="T T T" Lattice="12.93041299 0.00000000 0.00000000 0.00000000 12.93041299 0.00000000 0.00000000 0.00000000 12.93041299" energy=-939.07146622 virial="-0.62004480 -2.41095003 -22.71282207 -2.41095003 -7.42105985 -21.89157600 -22.71282207 -21.89157600 -19.04023916" stress="0.01316591 -0.00111520 -0.01050592 -0.00111520 0.01002007 -0.01012604 -0.01050592 -0.01012604 0.00464557" Properties=species:S:1:pos:R:3
Ca 0.44116691 6.30614194 10.24507624
Ca 4.55694456 7.75634550 11.37530926
Ca 8.99959930 10.03204384 0.74618910
Ca 5.99672219 8.98029852 7.87038464
Ca 8.26086860 3.87804357 11.05943433
Ca 4.42112193 10.29743341 4.38118239
Ca 7.60187706 12.73823522 7.47431223
Ca 4.22319627 6.60807897 2.49621594
Ca 10.49060993 12.77210540 10.38680018
Ca 10.24689263 0.34559349 1.52074609
Ca 2.03896387 10.23335186 11.80810761
Ca 0.23372209 8.59064355 5.86529512
Ca 3.51802857 4.69843542 12.65759735
Ca 4.64189391 11.62355998 1.24744353
Ca 10.09177850 6.86262201 1.15204565
Ca 7.17706584 2.34553215 0.77550596
Ca 12.12503230 1.87814846 7.99137482
Ca 12.77315712 5.14210781 5.66375597
Ca 11.82108072 10.06844331 9.39141305
Ca 8.47817405 5.16060126 4.10024163
Ca 12.65257354 1.34873669 4.21379855
Ca 11.42801229 11.69630895 5.62928952
Ca 0.62438789 1.04597627 10.95300105
Ca 4.01984539 1.69890575 6.56068864
Ca 6.91238299 10.39153046 11.35670035
Ca 2.30735047 1.33674960 0.67967937
Ca 6.63330417 3.49651451 7.64638778
Si 1.47738892 9.60272777 2.03524058
Si 11.25999281 10.05660130 2.73165405
Si 1.02702239 12.34716794 7.48751597
Si 4.14077147 12.10946939 10.95517376
Si 9.90433286 7.94867571 4.87275007
Si 9.83107521 4.44464336 8.33632354
Si 11.02376862 3.01708643 11.00597737
Si 4.02419034 12.09817095 7.68809442
Si 7.74985646 9.86927464 4.99739926
Si 7.44449860 12.28813071 3.52445906
Si 2.80234184 7.17993735 5.04346537
Si 7.01936630 0.64356906 11.08908277
Si 7.34065503 5.91984226 0.77070503
Si 4.51901487 2.61978943 2.24179841
Si 6.59410302 2.15648203 4.47090086
Si 11.31610629 3.66396773 2.37507630
Si 6.25273106 8.56805526 1.30175898
Si 1.61331656 7.23571580 12.92736637
Si 9.20511730 2.14767104 5.73913023
Si 12.43480411 11.50015950 12.70569502
Si 0.16745336 4.34944888 12.90888298
Si 10.28990732 7.41379411 8.92359334
Si 8.12787418 7.62314583 11.17899168
Si 2.54906502 7.70545827 7.93939937
Si 3.28367879 4.61848157 9.25409997
Si 1.45215161 3.97795769 7.64473472
Si 8.82618806 10.15425009 7.83818990
O 0.37887838 0.24853228 6.29701077
O 4.49721210 10.55926267 11.17660096
O 10.84566572 11.59569854 3.23400477
O 10.53043216 3.73502529 9.60309376
O 12.81027111 10.03353249 3.46131158
O 10.10581129 3.31983881 12.19611879
O 6.10469302 2.36793385 2.98208963
O 10.10167144 11.18890367 8.59741169
O 0.20839248 10.99741278 6.87721611
O 8.03284349 10.83111327 3.72337682
O 7.46017079 0.64496547 4.58381522
O 8.02122867 6.61951979 12.45215315
O 8.94425487 6.77495136 10.09933793
O 12.30289463 3.86435708 11.18892325
O 7.84590172 12.87385793 1.95106242
O 4.46689646 4.16482286 1.97712311
O 5.87759375 12.04062910 3.52997781
O 12.22841235 3.48344304 3.80621531
O 9.25753512 8.34391326 8.04277144
O 10.81471698 11.62598072 12.60118204
O 11.57294906 8.08072264 9.76062704
O 7.43552931 0.28794685 9.55525195
O 1.46696871 3.09403282 6.29098696
O 4.85309737 3.89410837 8.59453810
O 2.53864232 8.85835417 4.77162254
O 11.60743084 1.59064076 10.53417520
O 1.38739754 7.74928612 11.37405761
O 5.78933026 6.92641812 0.58651333
O 7.84300771 8.37594885 1.44931780
O 1.42933161 7.93891515 1.67500732
O 2.02128913 3.19061806 9.02939431
O 6.26564290 9.66548180 5.57662763
O 7.41933668 1.94036425 11.85825716
O 10.94470733 5.20594378 2.07666234
O 1.43345158 3.28059906 12.43358664
O 2.85666152 10.34114572 1.31218031
O 2.93877274 2.23419526 2.54102547
O 5.32753579 0.27812480 11.06729823
O 10.34857188 1.35661417 5.16594073
O 0.46822530 10.41706525 0.96018714
O 12.81519233 10.90657416 11.25637264
O 8.29922694 4.65543649 8.49205669
O 7.84678515 12.23850009 11.86929145
O 1.13008313 8.29110214 7.94689749
O 11.04163977 8.44557687 6.06213978
O 4.97993365 8.70177387 2.40806949
O 5.96438514 9.39737107 12.88858450
O 5.12747336 0.23991348 6.94456669
O 10.96909867 8.81950589 1.37839805
O 9.06474914 8.72854050 11.53016136
O 7.53461146 10.63818077 8.48344826
O 3.61100211 7.64376050 6.64925547
O 4.55072435 10.67035451 7.51818149
O 10.48690149 2.34379578 2.30771745
O 10.65486309 6.39058940 4.59591758
O 3.72793098 7.76979002 9.04081547
O 8.09613709 1.68014004 6.97970456
O 5.62703935 2.81871391 5.54659633
O 4.08920824 6.47262479 4.57166082
O 0.52540494 0.15978857 8.84805306
O 10.20238708 9.22439797 3.81356693
O 2.69188921 5.38758455 7.76289665
O 8.59305303 10.72176711 6.39269476
O 8.36227885 8.34145180 4.78681400
O 12.64109334 3.70348180 1.30841887
O 3.10274869 6.80781554 0.18389669
O 8.04828370 2.95350890 4.58966177
O 2.40921316 12.07786127 6.98077782
O 2.99739323 5.11252363 10.71806432
O 10.69510097 5.98683551 8.36013612
O 9.80101255 3.60740678 6.74398711
O 2.78222002 12.39084726 11.95400796
O 6.97659415 4.46670455 0.07302644
O 12.77431034 4.48073998 8.11813836
O 1.45514284 6.67393369 5.44596729
O 8.09889331 5.72909485 2.13941294
O 0.51984541 5.88464467 12.88494792
O 6.69825933 8.21176607 10.46440264
O 4.74683550 1.61069796 0.85972778
O 0.03364389 0.10675311 12.81462218
O 3.66958901 12.43744867 9.41060743
135
Time=400000.00000008 pbc="T T T" Lattice="12.93041299 0.00000000 0.00000000 0.00000000 12.93041299 0.00000000 0.00000000 0.00000000 12.93041299" energy=-934.40842574 virial="-17.01184865 10.27146399 7.61668023 10.27146399 7.32113559 -1.99286234 7.61668023 -1.99286234 6.89735677" stress="0.00558381 0.00475111 0.00352313 0.00475111 0.01683914 -0.00092181 0.00352313 -0.00092181 0.01664312" Properties=species:S:1:pos:R:3
Ca 8.31245321 11.56087270 2.77819540
Ca 8.91568968 7.96921235 3.09164298
Ca 3.68477165 11.81977860 1.97524240
Ca 9.48392735 4.13501905 12.81286002
Ca 12.71044011 6.66999822 11.23186195
Ca 8.70046194 9.50077696 11.65292126
Ca 9.69948136 6.96774438 9.57828217
Ca 2.58418905 8.66164116 11.25450876
Ca 0.36586027 2.89649669 8.20299584
Ca 8.25412489 8.88436115 8.16300137
Ca 9.33332798 12.80677049 10.28037006
Ca 4.56100078 2.75948650 8.74940305
Ca 8.81514778 2.94674729 7.68764589
Ca 12.27968635 7.89388137 4.29367909
Ca 5.51007402 5.11607742 6.37025076
Ca 1.70682365 4.96744950 6.10499854
Ca 5.21252543 10.19727429 10.48864732
Ca 2.76922050 3.31621307 12.78345773
Ca 11.82653478 1.39371423 2.44832373
Ca 12.09192931 4.96145644 2.21851112
Ca 0.60317964 11.80351608 5.17279417
Ca 11.81446454 11.50025351 0.14510616
Ca 4.14084658 0.77304957 5.39378690
Ca 8.91848558 12.60772327 6.61730674
Ca 3.28562589 0.02806074 10.91015339
Ca 3.52777808 9.85699349 6.86940457
Ca 7.52113412 3.92382349 3.70020232
Si 11.35847204 10.79542905 9.16126828
Si 3.60428028 7.36569093 4.74936375
Si 4.47629414 7.58190368 8.79280511
Si 10.56737931 10.19516172 4.49099901
Si 2.01736911 0.43118897 7.08244572
Si 0.19801759 8.55036017 7.92851770
Si 12.55990902 3.32294176 12.49673517
Si 4.09968904 4.84875577 3.15263037
Si 0.13972652 8.09346695 1.02432511
Si 6.41640826 12.17701632 8.76003779
Si 6.13025838 11.36058601 5.62129312
Si 6.02456379 8.85071477 4.81997934
Si 2.03319832 9.33819371 2.99997842
Si 2.50935065 5.27829077 8.91478869
Si 10.59499964 1.77443351 5.29694804
Si 1.24921548 10.87748592 9.02681566
Si 9.99328295 7.50780245 0.14555509
Si 5.66457532 2.30933030 11.82414281
Si 11.46677001 4.56795668 5.34816485
Si 6.96878948 4.12829699 9.57392397
Si 6.49212281 12.43145648 12.90365137
Si 8.87980309 6.25277926 6.03783755
Si 6.42641051 6.75551253 11.00857407
Si 9.20369366 0.17586256 0.09633338
Si 1.33517831 0.67203934 0.45324190
Si 1.92935399 2.61097634 3.11746849
Si 6.27755986 4.91756722 0.71354880
O 5.25747825 7.54419903 4.56780737
O 7.60064834 0.74912366 0.10725423
O 3.27083694 6.18387126 3.66816574
O 9.68617799 7.43233300 5.41391248
O 2.71295275 7.49876727 6.17765136
O 1.28183209 8.11315281 12.80539723
O 1.92297076 12.38459870 8.74345850
O 5.79421912 3.22104027 0.15815137
O 5.16376818 7.61438785 10.53469667
O 11.74605396 10.54240805 5.24869974
O 7.42037337 0.54263518 8.85976362
O 9.27291094 6.02675302 12.92107732
O 0.03857967 11.39072728 9.86045602
O 4.80869261 12.23771955 9.46140011
O 10.81989545 9.22695041 3.21956786
O 1.14764620 4.99780530 8.15753014
O 7.08388013 2.52916837 10.68211287
O 0.97762589 1.93606777 12.42931890
O 1.50715477 10.65198650 3.73692418
O 12.03438032 5.59253873 4.26920816
O 3.41491005 1.29748048 7.23135277
O 10.96540559 3.24681329 4.37493237
O 11.73045103 7.15301556 1.39426763
O 10.54506819 1.76753254 6.87341849
O 2.82138524 12.11089028 6.22383804
O 8.93577594 2.07648212 5.06041594
O 2.58104453 3.95917703 2.80115637
O 3.70083124 4.71360074 7.34886679
O 4.81052753 10.19179968 4.98923414
O 9.18230675 11.31369839 4.71069192
O 2.67522523 0.02190264 0.12467413
O 2.91676421 9.55683811 1.83744179
O 7.34994027 9.22100686 3.98012416
O 11.67573164 3.78621623 11.19719777
O 2.27839195 10.69234994 10.39468213
O 6.43607162 3.45985618 8.02243799
O 2.51799845 1.70616770 1.70753723
O 2.73336276 2.02299965 4.18143732
O 11.70568371 9.50637978 8.13297169
O 10.80223232 12.03516400 8.18796995
O 7.48630496 4.38383015 1.55732994
O 0.83932751 4.31807671 12.60044052
O 5.00714979 3.91032269 4.08651984
O 10.10561148 10.05203273 10.04897462
O 6.19014428 12.50276370 4.65680955
O 12.56688396 7.94904313 6.57238940
O 9.42313495 8.78825899 0.95484082
O 3.33555217 8.92758917 4.07183224
O 7.42718429 5.41294146 5.12091010
O 5.64080753 6.96584701 7.89099531
O 6.46173961 9.86702289 6.31298696
O 10.65310426 0.82509533 12.11800011
O 9.09289430 11.70474946 12.06822390
O 6.47323585 11.11730664 12.10258425
O 4.30505911 9.07592368 8.93489636
O 9.82726619 12.31446332 1.42478819
O 12.71756684 3.87676851 6.08477221
O 6.28973137 6.05560583 12.49576013
O 6.21666347 12.31705831 7.06079574
O 3.14050907 6.54646521 9.31794950
O 11.61029212 0.85427065 4.36929287
O 6.09337456 5.36235985 9.94252432
O 6.31941919 11.95654753 1.51728242
O 12.28930769 9.59244623 0.89532747
O 1.43100949 9.87879247 7.79026024
O 8.45569692 4.76042248 9.58020160
O 8.64242018 7.05330328 7.40224683
O 10.03130108 4.97684715 6.19402762
O 0.15579585 12.76253468 1.21204088
O 0.65494310 8.16278442 9.44240722
O 0.60760529 1.26042194 6.74187393
O 0.40342999 2.87104303 2.77784802
O 10.86218776 7.78925394 11.79681717
O 5.05985694 5.41272901 1.84731347
O 7.08231461 10.80558536 9.24166583
O 1.08676376 8.04408243 2.64992742
O 5.33765054 0.65995023 12.09082092
O 7.61578815 7.74838790 10.36541921
O 2.54239234 4.07114351 9.95192785
O 4.21612363 2.53023805 10.93561344
O 11.64220211 3.11235348 1.03762459
135
Time=500000.00000301 pbc="T T T" Lattice="12.93041299 0.00000000 0.00000000 0.00000000 12.93041299 0.00000000 0.00000000 0.00000000 12.93041299" energy=-934.97159807 virial="-19.70522935 -1.92421535 -32.67612167 -1.92421535 -12.43970409 -17.62600330 -32.67612167 -17.62600330 7.73893873" stress="0.00433798 -0.00089005 -0.01511448 -0.00089005 0.00769868 -0.00815299 -0.01511448 -0.00815299 0.01703240" Properties=species:S:1:pos:R:3
Ca 11.72550881 4.75889452 11.41247517
Ca 3.66533089 8.56992239 9.46331267
Ca 6.31975358 7.56171470 11.30831284
Ca 7.63186239 0.43253866 0.07661800
Ca 3.47540906 1.96543756 10.46912774
Ca 11.23751701 7.17898067 7.27590641
Ca 3.18467474 11.15890702 11.12449991
Ca 2.63915344 8.41368800 6.72757975
Ca 3.15963550 11.88590304 7.79783062
Ca 8.61708024 9.04243963 5.11640970
Ca 8.29923868 11.70335388 9.34719701
Ca 0.66789495 6.27952801 3.11459431
Ca 4.34370956 5.54595077 7.10892100
Ca 7.57308217 5.99120523 4.96429131
Ca 0.08597252 12.26541202 5.11692619
Ca 12.75370246 8.67368074 11.80628796
Ca 3.31446645 0.68875264 1.35323999
Ca 0.48342775 3.65742456 6.45504099
Ca 1.95236642 4.91993841 11.05019883
Ca 8.40631516 12.83882019 5.85284532
Ca 9.82509957 2.48222083 5.05315864
Ca 6.72556007 10.28911938 1.41508417
Ca 9.58526270 4.68540579 1.95537619
Ca 3.94870262 7.55682413 2.96038104
Ca 9.60476315 11.39489041 3.47390581
Ca 3.65916823 4.88774424 1.20355281
Ca 10.99514114 0.23078138 11.33764150
Si 10.55581896 0.55714441 8.05442011
Si 0.97021625 3.20202203 0.43206493
Si 6.63851086 6.74922692 1.42828624
Si 0.96833244 6.54330592 8.18087428
Si 6.21706894 2.64679919 5.56081137
Si 6.11844706 0.31175416 3.34814505
Si 6.50973918 9.12518503 7.17787734
Si 6.44068312 1.38185769 8.44065830
Si 1.66386881 11.15050937 1.10549464
Si 5.17974242 4.94905737 10.24533911
Si 5.32176429 12.40784150 10.67102130
Si 3.85307559 4.25703611 4.37414921
Si 12.81900817 0.78081516 2.05798632
Si 9.96603115 7.10255131 12.72896156
Si 5.96472969 10.38637216 4.40328262
Si 0.68411632 10.89725279 8.67563978
Si 0.97344149 9.22461430 3.36293163
Si 10.58995446 5.32688798 4.90064757
Si 2.87033483 8.11385930 12.44555157
Si 0.47287147 0.62046558 9.52392245
Si 10.89538516 10.66323483 7.37921093
Si 10.82235641 8.81293229 2.15153076
Si 9.11326088 2.51320500 0.10050134
Si 8.78950529 2.40738479 10.00183571
Si 8.10575910 4.79370420 11.34847177
Si 1.36610849 2.29303088 4.42751512
Si 9.40486171 10.45319605 12.80892516
O 1.25982589 6.70272623 6.50268452
O 10.25837136 9.31835313 7.82980156
O 2.39547421 3.80318269 4.86089033
O 10.17130325 11.13760740 5.86562668
O 2.47921445 2.55341981 0.54548490
O 0.66181705 12.33389307 1.36748780
O 5.06823279 0.55677449 9.23784265
O 9.09876109 4.31874887 3.98785545
O 7.70434925 0.08069801 3.46222603
O 10.11813926 0.87433476 6.52591401
O 4.13686638 0.04589781 11.50859777
O 11.60385054 6.00272230 3.84468126
O 11.98085220 0.98403558 8.52447746
O 10.85298427 10.26073126 1.36214044
O 5.29405376 4.13237747 5.59404674
O 9.31295151 8.74036132 12.62168314
O 11.33205492 4.83351708 6.34877864
O 6.39419957 8.18971367 0.65161032
O 0.81163863 10.54786324 4.36099613
O 1.31180314 12.62022004 8.40755588
O 1.55802258 9.96197577 2.10035960
O 11.91503019 0.62800114 3.18802655
O 2.69417247 6.59452957 8.71791419
O 7.04411423 7.78462145 6.41599833
O 7.91629998 3.00400846 5.78249753
O 7.46319506 0.23777951 7.89322793
O 3.75078098 5.96230093 4.49047307
O 12.75327832 7.73065470 8.83502090
O 1.47632684 1.33970909 5.71161290
O 0.46264836 4.92392820 8.56992095
O 6.61750623 10.40942931 6.09806477
O 9.79676095 11.07189347 11.54230987
O 1.69573424 7.95039843 3.91896644
O 12.28331658 8.90849250 2.92549893
O 3.05014835 7.46324170 0.98569227
O 9.92064285 1.61744493 9.12919635
O 6.52308042 6.75254402 3.02089101
O 0.05114258 3.28918245 4.37797476
O 0.35308188 10.18738957 9.94725874
O 5.75330208 1.69721580 4.23728710
O 8.32244792 11.26250177 0.74837309
O 3.25223183 11.59258294 0.79726629
O 1.91995074 10.03994774 7.94073124
O 7.27597682 10.07589241 3.36205972
O 9.43581208 3.91620174 10.07393770
O 4.11645101 4.57733212 11.49177997
O 8.74140358 1.43210209 1.13767057
O 1.40285263 4.59076581 0.97173520
O 9.71448582 9.28265030 3.26529927
O 5.74703205 5.67600196 0.73698911
O 7.05013144 12.27332723 10.99959691
O 5.66393770 2.13237884 7.08149031
O 1.72598712 7.04234061 11.80728795
O 0.16418640 0.12009579 10.89823684
O 1.51691759 1.83202167 9.72582034
O 10.20975518 11.84480454 8.32814343
O 3.79922480 9.13964961 11.45841705
O 0.11579243 3.05819157 11.64351038
O 7.39482733 9.50916889 8.42056435
O 11.41904465 6.99879154 11.77423718
O 6.94716436 5.25500404 10.30277334
O 10.43666833 3.65089062 0.37023422
O 12.48321074 10.78375144 7.28653779
O 6.99842537 2.20884307 9.87123584
O 7.81118354 3.46289037 12.43478027
O 4.94738002 9.11972162 4.17823584
O 5.11653466 6.54527121 9.75006541
O 4.92073962 10.96282106 9.84980128
O 3.89235824 3.63087063 2.84369249
O 5.37626513 11.85323052 4.47299037
O 4.87713439 3.64922004 8.98276730
O 1.24657779 1.77624465 2.91415185
O 5.80543738 0.53513463 1.88090213
O 4.74289224 9.11192756 7.74920993
O 0.08473025 2.08698846 1.17532951
O 1.45620248 10.33798575 12.58801291
O 9.62635661 6.35463952 5.65219197
O 9.40871375 1.61086101 11.57418415
O 9.30708965 5.87330447 11.79084012
O 8.34189869 6.48430751 1.25579941
O 10.68473439 7.42273897 1.33149325
135
Time=600000.00000594 pbc="T T T" Lattice="12.93041299 0.00000000 0.00000000 0.00000000 12.93041299 0.00000000 0.00000000 0.00000000 12.93041299" energy=-940.19783570 virial="11.61397327 3.18137832 -8.96458674 3.18137832 3.51292817 1.68731586 -8.96458674 1.68731586 -3.57762481" stress="0.01882481 0.00147156 -0.00414661 0.00147156 0.01507764 0.00078048 -0.00414661 0.00078048 0.01179787" Properties=species:S:1:pos:R:3
Ca 8.54223029 1.29688147 2.72791743
Ca 12.15931848 0.18396428 2.08418605
Ca 3.20316424 12.02152313 4.22399730
Ca 7.47795566 9.27015172 10.37352071
Ca 8.59911149 11.29334356 3.94732705
Ca 5.08890373 2.45691593 5.33126562
Ca 2.41088794 6.92852038 6.97320821
Ca 12.12102312 10.13371923 4.88140794
Ca 8.49080521 11.62838829 12.26506487
Ca 1.39997209 10.76806536 7.85133333
Ca 5.20002382 9.25197958 3.21797556
Ca 4.96073323 10.44090454 7.68968409
Ca 11.29840636 2.40865150 4.78767560
Ca 0.63630131 3.52487181 7.64007604
Ca 0.48446781 7.95129192 11.33162538
Ca 11.90949322 3.63876288 2.06154980
Ca 9.68923641 2.14372461 9.26666918
Ca 5.32086363 0.63348742 0.67922550
Ca 8.33068384 7.73405296 1.25085181
Ca 4.26671070 3.00926131 12.01698136
Ca 5.80934998 5.92377118 9.96837613
Ca 11.66154543 7.05002797 1.82742636
Ca 9.87406195 6.23217626 6.80940603
Ca 0.26962396 2.95126271 11.67610804
Ca 1.71738290 6.19103235 3.01437507
Ca 6.21089985 0.49909342 9.54161081
Ca 4.34985739 6.66012019 0.29191664
Si 7.15899985 4.79788739 12.82502078
Si 7.79466814 2.37755038 12.35828888
Si 5.17012121 9.81751959 12.68390963
Si 10.68066535 10.57467114 1.88522787
Si 1.73938229 5.31262212 12.73407141
Si 0.58492423 0.11093173 5.66026776
Si 2.94838537 0.72500178 7.74498260
Si 7.43842750 7.32730227 4.24149034
Si 0.99432692 9.75416893 2.23137966
Si 11.43076150 8.11110683 9.04126822
Si 7.17868698 4.41321960 3.08364031
Si 4.79646616 5.85096776 3.96759568
Si 8.02931069 0.85928646 6.38917567
Si 3.89372463 8.45297645 10.13977864
Si 2.67320750 9.05766527 4.83766522
Si 2.80153988 11.39182305 0.31324588
Si 2.66251410 5.49916952 9.89613857
Si 12.53509844 5.87932241 5.11022397
Si 6.88693848 7.46027353 7.00264389
Si 2.24769933 1.30682247 0.72886657
Si 10.02299603 8.18923281 11.73935405
Si 8.57857459 11.81664102 8.71964704
Si 10.39404725 4.19995138 12.53619323
Si 5.74163234 0.18038402 3.66711021
Si 11.19011684 4.93437516 9.82793829
Si 3.03179385 0.03547369 10.75990843
Si 9.37436355 9.22633603 7.28220294
O 2.00925959 5.38004426 8.40448388
O 10.92348542 5.32142065 11.52824446
O 7.54186900 2.22454124 7.05024922
O 11.33582921 8.16475545 12.51655706
O 6.89973714 0.04967360 2.45810981
O 12.38766363 10.43052931 1.86055265
O 10.65571747 4.91833602 1.13950897
O 7.81647963 3.16926098 3.69900300
O 11.73389700 6.58575113 9.68612821
O 12.77605873 1.51325314 6.29231182
O 5.77080741 4.69589511 3.20688140
O 12.69193416 9.18010196 9.14356331
O 3.61882638 1.97537507 0.98935788
O 2.53374440 0.02897199 9.17367874
O 6.64286555 0.53287286 5.63986794
O 1.84628575 10.04102766 3.43573238
O 6.32938424 10.74784969 12.19597307
O 3.82625201 9.03797518 11.72739633
O 9.07964774 7.03347354 11.97813491
O 0.64362612 1.82032034 1.39398499
O 3.53132562 9.56596487 8.86823345
O 9.42656764 10.53729753 8.22518969
O 2.32325459 12.56314101 6.73137842
O 3.17202258 4.76936214 12.91571890
O 4.05458521 4.92056664 10.16915317
O 7.88242757 8.64904296 3.58569129
O 10.05951776 11.88151359 1.30200292
O 0.65784144 8.20884909 2.26254121
O 2.57026852 11.56266352 11.64206976
O 10.19732084 9.07496276 1.72054579