135
Time=99999.99999996 pbc="T T T" Lattice="12.09378762 0.00000000 0.00000000 0.00000000 12.09378762 0.00000000 0.00000000 0.00000000 12.09378762" energy=-945.65581600 virial="89.42981524 23.67985485 -16.84912318 23.67985485 47.58900475 1.54111387 -16.84912318 1.54111387 77.88382474" stress="0.06700084 0.01338727 -0.00952556 0.01338727 0.04334638 0.00087126 -0.00952556 0.00087126 0.06047338" Properties=species:S:1:pos:R:3
Ca 8.10798491 2.49890312 1.37694014
Ca 7.84373438 5.49288444 8.53838053
Ca 2.14294059 11.41717357 3.96396703
Ca 4.01879252 6.59854829 11.51795441
Ca 5.15897711 9.00524440 4.58811273
Ca 2.03407084 6.48291377 9.05954718
Ca 5.86115578 5.64061654 2.26110943
Ca 6.08030134 12.02819414 2.06969716
Ca 4.18343862 0.46774721 6.55392588
Ca 10.89687571 9.24700084 5.83567249
Ca 4.94718368 1.10834360 11.18925234
Ca 1.27164083 0.80571437 9.34212553
Ca 10.70051141 3.43823246 9.32643128
Ca 0.21259511 8.14392324 3.15088288
Ca 5.95452657 8.21097054 8.58895701
Ca 10.00772236 5.72446573 4.34875045
Ca 7.13510598 1.74333057 7.70230007
Ca 2.18815020 6.30650470 4.61833371
Ca 10.36558426 5.14273038 0.29357533
Ca 2.03869750 3.38801824 11.81318193
Ca 10.59042626 11.93803458 3.21518073
Ca 10.61922081 9.48792908 11.54553467
Ca 6.61336111 9.47186550 0.35069526
Ca 8.80953888 9.59789879 8.67437736
Ca 7.77609906 11.67081788 5.19611125
Ca 1.43368630 3.48186174 6.14827708
Ca 11.27301085 0.89698996 0.09671099
Si 12.01693463 5.74442857 6.79426970
Si 0.68844208 7.15237754 11.71892169
Si 10.02905370 0.61442896 9.83203882
Si 7.42798638 7.02173705 11.01891450
Si 8.67289321 11.43780083 11.74015754
Si 6.24764554 2.10340886 4.24910187
Si 0.38991214 0.23330852 6.21139422
Si 4.91976771 4.56922912 7.63642274
Si 10.24260009 2.59110944 5.99409543
Si 10.68386439 6.79102809 9.49836095
Si 5.67882881 11.15643318 9.26743510
Si 5.56269542 4.71785714 5.10968182
Si 5.40516357 3.27487577 0.51243631
Si 3.63663292 3.39491743 3.52516162
Si 10.68570377 2.87334665 3.00744369
Si 7.62414090 3.84874653 10.76679519
Si 3.52215361 8.67211812 1.94825492
Si 7.70097867 7.02737418 5.80657882
Si 3.24812050 9.47406905 8.98058388
Si 9.84852445 12.08294454 7.12292954
Si 2.53298063 8.81332131 6.20013991
Si 1.73276367 11.92853398 0.95448089
Si 0.90792239 3.85635774 2.36643514
Si 1.84922002 9.58842768 11.51926330
Si 8.80925173 7.26807932 1.68185156
Si 8.19984585 9.32283159 3.58178997
Si 2.79004168 2.90835751 8.76389753
O 0.16927771 2.66163346 3.10729791
O 10.60921787 8.31130966 9.11962824
O 2.19767123 10.40997161 10.09294586
O 11.33427053 4.32205313 6.49641159
O 5.64815748 5.63331859 8.52558029
O 5.67215105 0.49988000 8.67511318
O 8.67655210 5.68348811 5.99052996
O 9.78081652 5.45512729 9.70455664
O 6.73952399 3.66907453 4.49576508
O 10.27333282 7.18198689 2.22610562
O 9.76300382 11.14174888 0.72238114
O 0.28434668 4.05474833 0.78609323
O 9.79702884 2.79045530 4.34129470
O 3.81117729 8.15216404 9.89048064
O 11.98354706 6.45998590 8.35860797
O 1.12442496 10.11387760 0.73346629
O 6.33837197 2.97169505 11.20705129
O 1.73533942 0.57872649 11.63695397
O 7.18156024 8.26548599 6.70358604
O 2.19502840 9.34908418 7.74679765
O 4.62105465 1.67577502 0.96757318
O 7.81884819 7.67762044 9.60508061
O 3.15689784 11.66601946 1.88675487
O 4.68730105 2.23578441 3.55748147
O 3.18331979 8.80209613 0.19522786
O 8.15057357 8.93601836 2.06042666
O 9.27564025 10.70876436 6.70188991
O 11.63691082 6.99455092 5.54742769
O 6.92653945 10.07877392 8.86816774
O 5.06591605 9.51167746 2.32730660
O 2.45807556 3.47129543 2.13307099
O 9.86825520 4.15386358 2.22432995
O 9.03714851 0.75308188 11.11005962
O 8.54838237 7.43277398 12.02887288
O 10.31780393 1.52619010 1.68800598
O 11.74365788 11.48723625 5.17600845
O 8.33428234 10.04074799 11.00291166
O 6.47513115 3.42309069 1.58442607
O 11.24870017 1.65256607 9.94356624
O 3.41649885 4.59929757 8.55851236
O 5.08947852 10.91644752 10.84692609
O 4.30822810 5.30669368 6.24848256
O 9.30537131 0.91821042 8.42968872
O 7.72975384 3.41295457 9.08204571
O 6.13850911 0.92973485 5.36483051
O 11.76437206 1.73244554 6.22856648
O 6.89883533 9.85636786 4.27226912
O 11.53889928 11.99321012 7.54453957
O 0.52472798 7.50973103 1.11463856
O 4.67172006 10.06994640 8.28115820
O 1.11605972 3.22000747 9.20610452
O 8.66905992 7.75277038 4.51673977
O 1.93491711 0.54636488 5.88317684
O 9.40122255 10.17584556 4.24342917
O 9.45808293 0.83373357 5.92668025
O 1.81857370 6.20345330 11.00012240
O 4.13771127 4.32447922 0.34979518
O 0.46302915 0.09390034 1.78997876
O 4.56294229 4.79483334 3.73417649
O 3.36247672 7.24708929 5.79201409
O 11.18350723 6.78180568 11.22659518
O 9.44568952 3.05302778 7.32255215
O 5.91621275 7.71884693 11.39928867
O 7.83969359 6.01361188 2.19404990
O 0.87010723 8.58535088 10.64803502
O 1.42713671 5.60036843 6.48751595
O 9.08753754 3.68563127 11.40391826
O 10.71352262 11.08156971 10.08881855
O 7.58003068 0.17164929 0.80973252
O 4.20466885 7.05431460 1.65828234
O 6.48614521 6.09845269 5.31731919
O 7.55055135 1.35170970 3.49065628
O 2.71344085 1.88897233 7.51388143
O 6.96270716 5.32605933 11.27363684
O 2.48409030 3.54796478 4.55456569
O 0.80717342 5.24733941 3.45079504
O 5.64264518 3.25804839 7.19378654
O 1.14934658 8.71907382 5.26785128
O 3.52127334 1.94601855 9.83544857
O 2.49059299 8.77529332 2.98677141
O 3.51664956 10.27078761 5.94325244
135
Time=199999.99999918 pbc="T T T" Lattice="12.09378762 0.00000000 0.00000000 0.00000000 12.09378762 0.00000000 0.00000000 0.00000000 12.09378762" energy=-934.24039827 virial="68.42754442 4.40324980 7.34913788 4.40324980 44.21458181 23.34665454 7.34913788 23.34665454 53.98633958" stress="0.05512733 0.00248935 0.00415479 0.00248935 0.04143867 0.01319890 0.00415479 0.01319890 0.04696308" Properties=species:S:1:pos:R:3
Ca 5.30324211 6.23527650 8.19963389
Ca 8.42553219 1.92012478 11.64275993
Ca 1.79348064 10.38358107 9.93147022
Ca 9.31174542 0.45441529 2.82321548
Ca 2.17941412 9.00870548 6.65344468
Ca 2.91346811 1.71938373 4.66098948
Ca 11.02798242 2.14889946 8.73791064
Ca 10.31523964 6.28514685 4.79949907
Ca 2.33777788 11.99949504 11.82345601
Ca 7.91116665 8.92348144 6.88095686
Ca 5.57407122 12.04229988 5.41912511
Ca 11.71154227 9.29454947 1.19820853
Ca 10.66773179 5.29247004 0.04163047
Ca 5.18351208 11.57238768 1.45199678
Ca 4.80826514 0.99616774 8.85455189
Ca 0.14626487 12.06100830 5.47545343
Ca 0.86172339 5.67907991 2.54334786
Ca 9.86582035 11.22337707 8.80180076
Ca 11.91933385 2.38657141 2.20871991
Ca 3.17202865 8.46929407 0.82333303
Ca 6.80865013 7.07939668 11.48114863
Ca 10.12448656 7.89654151 9.97480138
Ca 2.27467422 3.26857597 8.81515459
Ca 5.32187106 5.87731609 2.35066047
Ca 10.43426833 9.93735970 4.38973560
Ca 11.37835185 5.10584289 8.59619439
Ca 3.96081810 4.96963742 10.99583989
Si 0.83672186 3.23591036 11.37945134
Si 9.36662154 3.12573110 5.95919938
Si 7.14867652 10.00759357 10.43807267
Si 5.10104183 2.06058663 11.95573239
Si 7.23666254 5.51430277 4.67314529
Si 8.54140684 4.85836068 10.26552690
Si 4.61607643 8.53585606 3.97902327
Si 1.47018567 6.34099170 6.48136400
Si 9.00023928 0.16435460 5.34857663
Si 8.41274889 3.64481344 2.88686776
Si 3.35046134 3.49081934 1.82836044
Si 5.16926954 9.18562096 7.09112609
Si 8.04670193 10.79377524 0.97891279
Si 1.32101205 11.29200306 2.70770149
Si 7.64242857 0.60191005 8.77959754
Si 4.20923839 8.68842464 9.69271389
Si 2.10839595 0.38217037 7.90393970
Si 6.09716234 3.58187373 9.05242113
Si 6.47655342 8.55191010 2.26179031
Si 11.15716110 0.18888607 11.89084343
Si 1.01440501 4.00554882 5.46879236
Si 1.43907422 6.93932123 10.40654374
Si 9.36006732 7.39701841 1.68279187
Si 11.59324414 8.57873474 7.24992640
Si 1.73777368 8.44581531 3.81419396
Si 5.80389505 2.25361954 2.74169706
Si 6.35411808 3.37638082 6.08175238
O 9.99278098 7.60418829 0.21330877
O 7.13242558 9.68701760 0.01700544
O 12.04486149 6.88162259 10.14747453
O 0.55931273 2.42165540 5.63452629
O 2.50550202 3.31724781 11.01937221
O 9.72809011 6.02442116 10.20707415
O 9.46781263 3.92689763 4.29824668
O 5.57133878 3.38693597 11.21086124
O 6.02665396 10.59736013 6.97705787
O 2.00652221 4.68928240 4.45401521
O 1.43737257 0.63014769 3.30217094
O 9.84915762 0.70410652 10.84471293
O 5.52199255 9.60625063 9.87829421
O 1.13748194 8.05791612 2.50299176
O 3.44068697 7.51630384 3.33204080
O 1.19502436 7.30691329 4.98147511
O 10.00516220 5.97527977 2.47739528
O 6.14344110 7.97745528 7.54374336
O 5.65384929 4.80882380 5.47648461
O 7.90198141 3.97862037 5.62973021
O 4.61158690 8.87061864 5.54087134
O 5.52861180 1.93564047 5.55480880
O 2.61853313 8.14520084 10.08486774
O 3.23459888 1.15191574 6.84567174
O 6.33893912 0.58330762 7.76606464
O 2.31133364 10.09983291 3.69135413
O 7.69099431 11.89955676 4.38002238
O 6.89998219 3.08814279 7.74826381
O 0.70217926 1.24554612 7.80025921
O 3.44565037 10.07551602 11.06280282
O 4.77660394 0.66153510 11.26940136
O 1.65946716 3.63336220 2.36985813
O 2.85387068 0.27858606 9.42816727
O 12.03568606 3.58010762 10.12197091
O 0.50788767 1.46931857 11.56422864
O 3.90157868 9.07208706 8.12264223
O 0.28240873 7.09513561 7.35378001
O 9.56039461 3.43847541 10.19301317
O 2.09624641 10.88893453 1.43661038
O 6.92431142 4.96886035 9.28189166
O 7.25078019 10.03623259 2.22264102
O 7.43810448 2.21021646 3.22405164
O 7.02798192 4.88935772 3.29912238
O 9.06650770 3.11928884 1.52357025
O 10.40450672 3.67894482 7.00477243
O 9.00215993 0.84441262 8.15821427
O 6.05454556 2.36281758 1.07293195
O 4.55781686 3.94487840 8.64155603
O 3.49755465 1.78526149 1.17424815
O 7.80435068 5.16653204 11.74169723
O 2.91437218 6.66864591 6.87558154
O 5.26488194 0.78107334 3.17254212
O 7.44918629 11.44880601 9.91820965
O 5.54819578 7.92587605 0.73070679
O 10.36122801 8.04899174 6.49887972
O 9.00573683 1.63794405 5.97327870
O 0.21477763 3.99388461 0.55269825
O 2.25369623 5.65121466 9.77167976
O 7.91505463 7.22640647 1.92557288
O 11.85026319 4.95393778 4.92326925
O 10.64122624 0.82949463 1.03800811
O 9.42668272 10.91132454 6.41091620
O 7.59377338 0.06299832 0.57943850
O 10.07949401 8.74765238 2.76960291
O 1.44589055 7.04752001 0.08139710
O 7.94217155 8.82350255 9.50460818
O 1.22312569 4.75796886 7.08079873
O 9.60955981 10.60109491 1.37345300
O 12.01697678 11.02890109 11.18481572
O 5.06538000 7.21778231 10.15504072
O 4.10668788 4.91577926 1.00111931
O 7.05419842 1.78853422 10.06460677
O 10.31376093 0.36468992 4.54427938
O 4.69610528 3.38269524 2.84368633
O 1.87843480 10.77962194 7.71787999
O 7.93087483 6.68449926 5.16152840
O 5.82981641 7.64545255 3.51692118
O 11.88284667 10.82838955 3.11583291
O 0.18742102 9.45168126 5.94741414
O 5.08393002 9.92406115 3.18816955
O 11.27789332 9.54852185 8.45948859
135
Time=299999.99999840 pbc="T T T" Lattice="12.09378762 0.00000000 0.00000000 0.00000000 12.09378762 0.00000000 0.00000000 0.00000000 12.09378762" energy=-944.69642479 virial="133.95370104 22.22825710 3.75191783 22.22825710 78.17057523 8.89286517 3.75191783 8.89286517 70.52018978" stress="0.09217216 0.01256662 0.00212113 0.01256662 0.06063549 0.00502753 0.00212113 0.00502753 0.05631039" Properties=species:S:1:pos:R:3
Ca 6.54921604 4.40662976 2.17478619
Ca 10.44224273 9.66419477 1.29856442
Ca 8.01969360 3.32142357 5.30182108
Ca 8.11638397 7.11621201 3.53435880
Ca 9.43534414 5.35361770 11.76977913
Ca 10.84833704 5.61415101 5.51552451
Ca 10.90112836 7.24902897 9.52690747
Ca 3.55479251 8.27968223 9.48821215
Ca 7.21179591 7.15755450 9.78064517
Ca 9.48742836 0.16402737 3.70030409
Ca 4.91486481 6.25721074 7.09021699
Ca 0.18513384 3.63218190 0.10741794
Ca 2.03071540 4.65765572 9.83011699
Ca 7.89768768 9.87422797 7.04255103
Ca 11.67936967 0.23665945 6.58928912
Ca 1.88359170 8.43789075 5.14400812
Ca 9.84944790 1.10966195 9.67063902
Ca 10.73746308 9.58610071 5.96572773
Ca 6.46325617 11.90157624 9.58499833
Ca 7.87973765 0.56383206 0.68498231
Ca 4.28708134 3.38356514 1.64643057
Ca 1.97620275 9.27873335 1.39751342
Ca 5.95661442 1.05454507 4.53379765
Ca 2.26538076 3.08179100 5.84159363
Ca 4.39385708 6.65687733 0.04466626
Ca 0.20249151 10.90507108 10.68435177
Ca 2.25615291 0.96211012 2.53380837
Si 8.88831715 9.61639424 10.57238617
Si 5.12239012 2.00546039 7.43406346
Si 1.47396598 6.23497864 7.56632348
Si 3.28851659 2.12790758 10.89106101
Si 4.75319715 10.12771114 6.98899501
Si 2.95325295 0.17132720 6.20621964
Si 7.62668826 6.55057746 6.50549172
Si 4.41238171 9.18105987 3.65560531
Si 4.05119727 6.09940094 4.10243293
Si 9.45580096 3.72269932 2.57022574
Si 4.96644699 0.23929120 0.80360725
Si 7.42480796 10.00933880 3.54316381
Si 5.16321489 9.58574367 0.29468199
Si 7.42490926 8.15535738 0.89992242
Si 0.40467754 9.23365384 7.82900089
Si 1.18716939 6.78006710 11.83425815
Si 11.86397336 3.99840195 8.45797598
Si 7.79209684 2.95820301 10.66824771
Si 1.22021418 1.16822674 8.48534257
Si 11.84575468 2.32345416 3.94591175
Si 1.74383170 5.64419811 2.54405483
Si 11.35096064 0.56221595 1.12160381
Si 5.34765533 4.23833759 10.62728557
Si 9.04082665 0.74051996 6.68515182
Si 4.94059347 3.53670083 5.15370865
Si 9.01668645 4.60522011 8.42953802
Si 11.57428719 7.37097222 3.19719658
O 4.07429588 3.48621786 10.31040833
O 6.03404591 11.06985798 0.11153027
O 4.52291844 5.22290521 5.18165037
O 9.15617149 6.89956776 5.93346627
O 8.58760198 4.86807842 3.50791574
O 2.95289192 5.92337863 8.20512509
O 1.84842261 0.45124952 7.28924093
O 6.47793725 3.39460257 9.74729451
O 4.12187738 1.12763631 6.82568329
O 6.61456552 6.19072568 5.36139755
O 4.45163452 8.40327800 7.27203073
O 0.49250631 8.27767898 11.95802730
O 6.20461203 8.47002853 11.76975445
O 11.40296435 0.81896150 4.59480304
O 0.33546890 10.27615405 6.65000155
O 3.76325388 2.56235412 4.33147341
O 0.32635875 11.27581383 0.90372751
O 8.38525246 9.39516205 9.07474500
O 0.00683713 8.81573403 2.46367760
O 2.64099887 0.52074271 4.52960212
O 2.50175508 6.91904768 10.69184150
O 7.36498325 6.71102165 1.43371832
O 0.00456887 1.76790690 2.30465358
O 5.35106496 4.39785423 0.04756485
O 8.21495317 1.15323794 5.22700550
O 4.94960596 9.31787395 1.83210296
O 5.90019383 2.30985719 6.11794847
O 10.09883070 11.77994217 1.57179305
O 7.77157330 1.47283611 10.81587242
O 7.62829669 4.25490158 11.71654747
O 8.74308594 3.33172526 9.37991521
O 5.01608643 10.33909823 8.65189232
O 11.90457007 4.02124774 10.11261831
O 0.98223340 9.62637770 9.17035056
O 3.17534268 10.65918689 6.46923444
O 8.39260489 8.18382420 11.61166930
O 12.04322991 0.22172645 9.16830297
O 11.00536539 8.62235456 8.09511526
O 1.97416697 4.22983961 1.85881282
O 8.67872859 2.47438260 1.79275588
O 2.99661703 9.76027678 3.55336928
O 8.67194133 9.50405179 4.53651613
O 7.06297183 7.24231015 7.70910730
O 4.30032795 3.51072751 6.79030491
O 10.25123358 3.03488366 3.79123953
O 5.57136185 1.32398780 1.75476776
O 10.46883929 4.53588301 7.82628809
O 8.46172694 10.63461437 11.87358268
O 2.40900315 5.82845082 4.21392367
O 3.82251472 9.08053146 11.52663000
O 7.70493670 8.97476911 2.20829885
O 3.98207124 11.58130436 1.83600199
O 5.83764450 9.42085447 4.26432789
O 10.97257548 1.34498170 11.81021966
O 2.09699814 6.62364092 1.10609212
O 10.33367772 1.76594544 7.23940073
O 2.29748715 1.56963491 9.63591786
O 2.42303532 2.55535438 0.13580978
O 8.44867009 0.78015790 8.19767236
O 6.30527827 3.51727820 4.11277650
O 5.96849551 10.68761968 6.23343938
O 5.33427960 5.79617753 10.29636039
O 0.69265108 2.72624273 7.78163054
O 10.18960156 4.24563297 1.30635466
O 0.20472743 5.94696784 2.87004247
O 0.30401637 5.59510203 11.47405349
O 4.30155671 7.65865567 4.28149059
O 11.90695554 7.55524866 4.78329817
O 0.48917518 5.68860044 8.66529321
O 10.51952663 9.52165296 10.43478516
O 1.24772166 4.97021702 6.62831617
O 9.10248476 5.96286114 9.46629570
O 9.99985349 7.53182127 2.51927373
O 8.38587845 4.74044437 6.96798037
O 5.74503822 1.55831593 8.72888459
O 7.00061481 11.29327642 2.74899986
O 9.61641329 11.53906635 6.14304288
O 0.58558524 3.29458825 4.77328983
O 4.38703078 5.79020907 2.52875794
O 4.20069872 0.87909574 11.36811732
O 1.38224039 7.82480055 7.13198975
135
Time=400000.00000008 pbc="T T T" Lattice="12.09378762 0.00000000 0.00000000 0.00000000 12.09378762 0.00000000 0.00000000 0.00000000 12.09378762" energy=-942.48668531 virial="50.18470375 -6.17772898 32.29963498 -6.17772898 105.37780606 1.03209290 32.29963498 1.03209290 61.00698086" stress="0.04481384 -0.00349254 0.01826041 -0.00349254 0.07601695 0.00058349 0.01826041 0.00058349 0.05093215" Properties=species:S:1:pos:R:3
Ca 2.08043126 1.89045459 3.22717208
Ca 9.90312714 1.89017235 4.38771204
Ca 9.53058897 4.72059840 11.88902688
Ca 6.31866075 9.83802115 3.38270592
Ca 10.01201028 5.22917506 5.50311684
Ca 0.17464842 4.24815857 0.84431544
Ca 1.55961702 9.33048576 6.55354473
Ca 6.13404682 6.25494379 2.93398330
Ca 8.59673907 1.67032985 7.68392439
Ca 9.12946162 10.24087682 8.45984076
Ca 9.39679879 8.41064396 5.20403727
Ca 0.49956424 9.17871404 2.46026746
Ca 9.98084414 8.01540389 10.61074472
Ca 8.14327829 0.32189822 2.79701124
Ca 11.75486742 11.34795456 5.72905248
Ca 3.05563317 6.89327432 8.16326260
Ca 2.45540640 11.02196445 1.28926498
Ca 5.36999438 4.63594561 11.85869899
Ca 6.78842413 1.87684504 10.59227679
Ca 2.36877160 6.33583611 2.02453269
Ca 5.57924582 4.00361046 8.66491772
Ca 0.11979531 4.98116745 7.90229100
Ca 0.65669192 0.30024200 11.27706588
Ca 5.25959290 0.60921373 5.48786753
Ca 3.64688507 8.01130858 4.80852428
Ca 7.02142677 8.30731912 11.95682236
Ca 3.63152944 0.41375012 9.36211191
Si 7.48879897 5.64209095 10.13748640
Si 0.39594985 2.71232395 6.20160675
Si 2.81907784 11.29650976 4.55385256
Si 11.17303505 11.98442105 1.84100155
Si 2.69976366 4.75085674 10.24065952
Si 3.36187176 2.42288128 11.92162641
Si 4.58239610 9.71750420 8.35345092
Si 0.42376083 4.35865540 3.73390001
Si 6.81875948 7.47008108 6.15725282
Si 2.51988937 9.44130286 10.33297652
Si 7.26818817 3.34198684 5.19164793
Si 10.03829858 2.13720139 10.47139658
Si 4.71002569 5.35127284 5.63656347
Si 6.93651909 8.07155497 8.84271358
Si 8.80378684 7.61560280 2.39349635
Si 0.24515829 8.11212878 9.26865817
Si 9.16862573 11.34928993 11.64663852
Si 0.60540933 6.61172752 11.49734056
Si 0.25069549 0.54134007 8.31272774
Si 2.85599591 3.57157307 7.71007218
Si 3.97290146 8.40029543 0.33419765
Si 5.72168011 11.59775852 0.60829195
Si 4.49633240 3.21081981 2.48693753
Si 6.57327444 11.76645193 8.01038093
Si 7.51495666 3.27097958 2.20398274
Si 0.60162466 6.84829125 5.35453071
Si 8.62830683 11.28227850 5.77063389
O 0.13494034 10.88656939 1.31139138
O 4.63799396 2.89627185 10.85008008
O 7.24176289 8.14867885 2.48458443
O 10.90630031 8.51086671 8.73355474
O 0.48437191 1.17196144 6.77812993
O 4.05058657 8.83554588 7.20191703
O 5.89198480 9.03466118 9.35634021
O 8.21630758 6.53361312 6.18286825
O 3.80333567 4.84873029 7.06514119
O 5.35513216 6.36750737 6.61721457
O 4.56079386 7.04143659 0.94767755
O 10.83390499 2.81398779 11.70987525
O 4.86789540 4.79865675 1.81153902
O 4.14583356 5.39973375 9.43112898
O 9.22102141 7.22424921 0.84747615
O 8.65425331 6.37533353 3.38334291
O 9.17990459 2.87305150 9.41029842
O 7.56515905 11.02669141 0.37677130
O 7.60970971 11.16396549 4.55633898
O 9.97315136 10.48024939 10.58073451
O 0.94085458 6.53388951 9.04248424
O 6.46067770 6.50890907 11.20821248
O 6.75127862 6.51253917 8.79990720
O 6.30438058 1.22524156 7.58649844
O 8.74054080 2.13165300 2.20503863
O 0.25983008 8.38142232 11.14983015
O 7.67906234 4.35552114 1.06687694
O 11.41290406 5.72885019 10.93649193
O 9.93595181 8.95494386 2.90055580
O 8.62040388 3.48130680 6.22600963
O 9.65185642 0.47773971 5.92829031
O 2.77359804 12.02280919 5.97356418
O 10.96280280 11.93416123 3.60984634
O 1.41965325 3.73057564 6.66094334
O 3.65709011 10.30677555 9.51971654
O 1.33604075 10.30848095 4.76376492
O 1.49506236 0.92750996 9.25552528
O 1.79403205 8.69672387 9.00616052
O 5.55341539 11.77619191 2.16877456
O 7.23053222 8.71297712 7.39184605
O 11.17640357 4.60607592 3.07888494
O 3.45670407 8.16200531 10.76606024
O 7.58823703 11.15890034 6.96058237
O 3.87943941 5.83784960 4.45075433
O 1.61922379 10.58173028 11.06986035
O 5.81267415 4.29878034 5.31450915
O 8.17200335 8.55580669 9.81944621
O 3.65695377 2.48064849 1.30385289
O 2.40555286 3.41581930 11.23240135
O 2.18886276 11.99502225 3.14652521
O 2.69888855 1.08320300 11.53297963
O 5.21801003 11.21282739 7.49074600
O 1.78069696 4.16622301 2.74251437
O 0.29941705 6.49138548 1.05211313
O 8.91686636 0.88555392 11.33099470
O 1.61117318 7.14820373 3.90182849
O 0.03975837 1.54255545 1.89472476
O 7.20389672 1.80608121 4.82158285
O 7.14075337 11.73786858 9.43442157
O 6.04864019 2.48074652 2.01234829
O 3.89703198 2.79957687 4.00167724
O 9.68037277 11.67456307 1.16224427
O 7.69553227 3.86646935 3.65158670
O 9.06332470 6.14619429 10.05453604
O 6.60170307 8.14687551 4.73375130
O 11.08832575 3.62170848 6.60374689
O 5.15038968 9.65080020 0.24027227
O 2.80393629 8.84889774 1.43980596
O 11.07942174 1.16945382 9.22795393
O 0.46454916 5.25221961 5.02114977
O 4.08168235 10.33506959 4.27148646
O 11.50608172 7.82282084 5.27162670
O 9.72027178 10.20425211 6.33764937
O 1.83986961 7.44681211 6.21066380
O 7.08893154 4.25529109 10.36710310
O 2.06710056 5.85105794 11.39698314
O 5.35499933 0.29279461 11.50118008
O 11.71730955 11.20889112 7.94694293
O 1.95690910 3.92059262 9.01385737
O 3.28363698 2.08849938 7.55510190
O 0.48174316 2.72343802 4.43471290
135
Time=500000.00000301 pbc="T T T" Lattice="12.09378762 0.00000000 0.00000000 0.00000000 12.09378762 0.00000000 0.00000000 0.00000000 12.09378762" energy=-939.02106649 virial="45.02620179 10.92007026 -14.53266537 10.92007026 66.26144602 -1.31976795 -14.53266537 -1.31976795 44.79061996" stress="0.04189751 0.00617360 -0.00821596 0.00617360 0.05390274 -0.00074612 -0.00821596 -0.00074612 0.04176433" Properties=species:S:1:pos:R:3
Ca 7.99103179 1.15158224 7.55809486
Ca 6.75282131 6.59885180 10.78295501
Ca 1.98376442 7.22620189 7.10472616
Ca 10.42219179 6.10817215 4.80992563
Ca 1.20372763 8.56488384 10.69696855
Ca 7.29790100 1.71112144 0.93461004
Ca 5.38481269 10.17686285 5.93604023
Ca 0.91825688 3.38328836 6.61645881
Ca 3.36528923 0.56602372 4.57549358
Ca 11.18011572 10.92677321 10.37727673
Ca 0.30601042 2.22585965 11.77190083
Ca 2.48143006 11.40100909 8.44882555
Ca 3.05471786 9.67865769 2.51018252
Ca 11.43538395 1.53167041 3.45288052
Ca 4.17912960 6.13580870 4.02191010
Ca 0.04714924 10.20717170 5.72595590
Ca 5.33759570 2.64127639 10.30538551
Ca 8.92592768 10.58478433 4.02780588
Ca 5.66211091 7.42781195 7.27865007
Ca 6.58125838 4.24290478 7.13067928
Ca 12.02535132 5.22006974 9.07218795
Ca 8.66785091 9.75078890 8.08620183
Ca 10.08743413 8.26315953 1.64492910
Ca 6.32416781 11.30648712 1.66930543
Ca 9.23945178 2.83167469 9.94484283
Ca 0.77847314 5.89690187 1.86255921
Ca 4.93054528 4.44023441 0.97182901
Si 2.32360843 11.18064345 12.00865415
Si 0.30693854 10.17968818 2.16375519
Si 10.32336580 0.66089536 5.76039324
Si 7.30542880 6.32938372 3.15349574
Si 6.97800743 8.34038688 1.39349266
Si 10.38084222 5.17397406 11.52848470
Si 1.18856624 7.74896355 3.81472675
Si 2.86031230 9.34857882 5.71417425
Si 11.80752542 8.87180789 7.92151487
Si 2.57963751 2.76830351 9.64497331
Si 4.48313662 1.24731957 7.62748043
Si 7.75700839 12.04359914 10.71578986
Si 4.39078691 1.28381276 1.62225383
Si 11.58286578 1.67006090 8.47850519
Si 10.16468553 7.58084890 10.54709343
Si 9.96381479 3.74569000 2.01175290
Si 5.33929029 10.01653849 9.48370614
Si 3.22081244 6.51320348 0.24765335
Si 10.18056164 3.82815717 6.47299948
Si 8.31070840 8.30401078 5.09466377
Si 4.92031641 8.97830285 11.59561342
Si 6.70478564 1.06359043 4.27919114
Si 8.23656988 3.49996413 3.93689964
Si 2.13720015 3.11755032 3.30728953
Si 8.57839254 6.49310125 7.71395948
Si 3.70112004 3.83903773 5.90032879
Si 3.40269420 5.62391322 9.70670556
O 10.93693141 10.56508269 1.73131426
O 3.62174109 1.60939823 9.02828572
O 3.88263079 3.78255032 9.28251911
O 11.64449175 7.70612285 6.97398746
O 11.63140851 0.91207976 6.75148324
O 3.76883843 10.04742830 4.52913085
O 1.36077818 8.86980391 8.26431493
O 1.95507342 0.57119012 0.62319509
O 8.89878189 2.95805064 7.51552665
O 10.98605519 3.72511089 10.89752889
O 3.82455691 9.50684012 9.34861242
O 7.50034590 1.52649042 10.50252948
O 1.45711853 9.98480698 0.97197527
O 4.01692301 5.53971632 11.33077708
O 11.05108752 11.90748411 4.68845231
O 5.77571528 1.51899132 2.89408176
O 10.87174704 8.51964482 9.33166902
O 8.97115884 6.42666473 3.03840623
O 11.54758793 4.38865263 5.64638940
O 2.70945415 7.57115910 3.36661420
O 1.29416401 1.44831650 8.61398445
O 1.25837341 11.21546949 10.49298724
O 3.79791212 10.29147984 11.75822696
O 8.00521976 8.95823421 2.33074096
O 5.13443706 4.39430440 5.32026793
O 2.30734052 2.80458778 11.21927940
O 7.07223177 4.68511289 3.24584545
O 6.10179989 9.54170167 7.97557949
O 6.04055007 8.73526695 10.50196534
O 10.55509594 5.25192351 1.11118404
O 6.27372233 4.41830442 11.26642806
O 2.84069421 4.06302082 4.51618340
O 7.91423870 0.29090113 3.36846880
O 3.25618775 2.15368644 6.44058915
O 6.32150418 7.12431935 2.22585909
O 8.49568530 2.84218214 2.28344226
O 7.29961346 9.71554422 5.00025989
O 11.36018685 3.08712843 7.96598110
O 5.62524990 2.35347938 7.69820206
O 1.48714195 4.04629590 8.84994064
O 3.33364842 5.07226162 6.85738541
O 3.76515870 8.19938043 6.15612801
O 9.01015042 11.94901361 6.07696316
O 4.15739665 7.85295234 0.16155011
O 10.44111915 1.00219863 9.44661839
O 0.94550514 3.61464420 2.35097097
O 7.91798573 11.91495158 0.13799615
O 10.69186476 2.35567101 1.43242767
O 0.31647660 6.38045091 3.82049714
O 1.22144725 10.64384610 3.64341957
O 9.85048385 4.30107339 3.42767391
O 7.85593385 7.58046183 0.28311817
O 2.30174689 10.62251996 6.44343047
O 9.67941740 8.75647455 4.51253105
O 5.96153662 11.48455664 10.00410621
O 1.67008835 6.74244033 11.77301644
O 4.69476338 6.53359483 9.13361790
O 4.94452906 1.59669548 0.14183444
O 5.61086087 0.18021554 5.52772257
O 8.78442856 4.42341982 5.36523286
O 7.39522569 2.22515683 4.95854186
O 7.41711814 6.99087482 4.78728085
O 11.22606524 10.40319727 7.86982349
O 9.21535578 5.96335392 10.90733354
O 8.66717793 11.14450405 9.64452276
O 0.37161788 8.45710874 2.49075182
O 10.29692967 2.37261732 5.38131627
O 1.49787595 8.51419943 5.32239070
O 9.73279136 5.20213119 7.65575153
O 2.08406075 6.51012328 9.15934463
O 4.13283834 11.90637654 2.03012734
O 3.42223745 6.00788666 1.85203818
O 7.22873741 5.94094949 8.10222671
O 1.43812283 1.66935576 4.18603736
O 4.30241915 11.83970539 7.45246051
O 5.86987653 9.39474048 0.75314885
O 10.54345503 8.56876032 11.77543274
O 8.64164977 7.84912387 6.61722687
O 11.47338052 6.34660246 10.99987403
O 3.48890366 2.26929499 2.75625538
O 8.67576435 7.76157183 9.27362638
135
Time=600000.00000594 pbc="T T T" Lattice="12.09378762 0.00000000 0.00000000 0.00000000 12.09378762 0.00000000 0.00000000 0.00000000 12.09378762" energy=-939.07132973 virial="62.10340925 -1.18383847 -22.37160650 -1.18383847 61.95112509 0.75091341 -22.37160650 0.75091341 67.00652941" stress="0.05155201 -0.00066928 -0.01264766 -0.00066928 0.05146592 0.00042452 -0.01264766 0.00042452 0.05432397" Properties=species:S:1:pos:R:3
Ca 1.97934952 5.52633767 5.43988194
Ca 3.38470425 7.90321090 2.03096113
Ca 11.49743039 10.82748855 0.12588526
Ca 10.83818383 4.95512885 7.68354621
Ca 5.60895547 11.80236435 0.72032507
Ca 10.62819854 10.20456914 3.78966820
Ca 2.72144861 0.81320505 1.58544686
Ca 4.97025928 3.99992141 7.19824910
Ca 11.73207900 1.19293962 2.74094668
Ca 6.34697742 9.70084183 3.58727046
Ca 12.07913048 8.24264106 9.52062312
Ca 7.60339330 6.91284638 10.95145993
Ca 6.92349366 10.21579792 9.42173366
Ca 6.81292630 4.93857200 1.57022464
Ca 3.43864845 9.28254044 10.36296648
Ca 3.24229006 11.90368628 4.69154509
Ca 6.81796421 0.39714152 5.43155654
Ca 3.54598110 0.28241380 7.85942446
Ca 9.93759806 11.44429502 8.38148951
Ca 3.35342165 4.62412716 2.38279370
Ca 0.53629851 2.38131944 5.87251735
Ca 1.28680270 5.95693641 11.20777007
Ca 1.11580667 9.34579683 6.78346409
Ca 9.91690318 3.71650656 1.28664364
Ca 8.39276393 4.71857729 5.02750807
Ca 3.91993356 2.75433153 10.90046310
Ca 11.57922944 1.79952008 10.74077375
Si 6.26105497 1.16906822 9.33393115
Si 8.42954724 8.66003848 5.43390345
Si 10.47074030 7.30839027 6.02587678
Si 6.16395060 8.36085530 0.45230671
Si 0.46291958 4.75843473 2.92828002
Si 5.95808673 6.24090437 4.31133346
Si 9.29216601 9.11918142 0.87517230
Si 8.21432099 3.29282928 10.11638172
Si 0.84300113 12.06062083 8.00593822
Si 0.98358167 3.45388643 0.71367239
Si 8.39200862 1.69657896 3.32893681
Si 1.33781554 9.80586513 2.97061036
Si 4.76211743 5.88189310 11.55838660
Si 10.28153846 0.39346572 5.93119842
Si 1.98192882 11.83793228 10.93380139
Si 10.39645422 6.70677146 1.23473229
Si 4.35868662 7.39779407 6.18890314
Si 8.76909335 0.31778974 11.03984837
Si 1.86038733 3.66054918 8.43681183
Si 3.53903912 6.43573157 8.84340340
Si 8.22478554 11.71161565 1.87618817
Si 10.55608532 5.81747405 10.47867141
Si 4.42826504 9.90369275 7.38626229
Si 3.86838015 2.63045547 4.76218061
Si 8.96790255 2.74553717 7.28877190
Si 5.23862504 1.61346734 2.63582623
Si 8.48973029 8.34115062 7.84072884
O 0.79016523 5.01365350 1.12701829
O 7.73130372 4.65925648 10.74166747
O 6.00168567 0.53867176 7.84719743
O 1.06033208 4.30183954 7.29534821
O 6.58847758 2.83970530 9.30007157
O 4.87090370 10.97956303 6.01341186
O 6.91993667 11.57689593 2.63554479
O 9.42643191 2.92872439 8.93373084
O 11.59534269 0.97049740 8.21410840
O 11.17860197 5.80391264 2.30086013
O 8.75439227 3.26428674 2.96870156
O 5.55055457 0.83088084 10.75019464
O 5.03229365 8.48683316 7.12345570
O 11.54519973 2.49950562 0.71910340
O 4.85977074 6.18211591 10.05199292
O 9.77733620 9.23211593 11.50245331
O 1.79395215 5.77105661 3.20488056
O 8.87460056 6.02244422 1.10524532
O 11.96450072 3.79946413 4.30937402
O 11.88228749 7.34729134 6.99261955
O 8.62715861 0.74877009 4.60191683
O 9.58674344 6.58334119 9.55221195
O 1.89003232 12.05225381 6.58760024
O 10.37053597 12.07970725 10.85500296
O 4.97205425 2.04411276 5.48998519
O 0.96629159 0.47122150 11.80044572
O 3.00253124 9.74546163 7.74882663
O 2.58622964 1.90435787 5.32565787
O 9.19271679 1.04587683 6.91196874
O 10.06348070 5.75154334 5.87379217
O 1.88298139 0.25028111 9.34550789
O 10.19136173 8.30542572 4.73922165
O 8.03584548 11.56935860 0.25927174
O 5.39268187 6.08581836 5.77582481