 vasp.5.4.4.18Apr17-6-g9f103f2a35 (build Oct 31 2019 15:01:46) complex          
  
 executed on             LinuxIFC date 2024.04.19  06:06:53
 running on   52 total cores
 distrk:  each k-point on   52 cores,    1 groups
 distr:  one band on NCORES_PER_BAND=  13 cores,    4 groups


--------------------------------------------------------------------------------------------------------


 INCAR:
 POTCAR:    PAW_PBE Sc_sv 07Sep2000               
 POTCAR:    PAW_PBE F 08Apr2002                   
 POTCAR:    PAW_PBE C 08Apr2002                   
 POTCAR:    PAW_PBE Sc_sv 07Sep2000               
   VRHFIN =Sc: 3p4s3d                                                           
   LEXCH  = PE                                                                  
   EATOM  =  1273.2868 eV,   93.5839 Ry                                         
                                                                                
   TITEL  = PAW_PBE Sc_sv 07Sep2000                                             
   LULTRA =        F    use ultrasoft PP ?                                      
   IUNSCR =        1    unscreen: 0-lin 1-nonlin 2-no                           
   RPACOR =    2.200    partial core radius                                     
   POMASS =   44.956; ZVAL   =   11.000    mass and valenz                      
   RCORE  =    2.500    outmost cutoff radius                                   
   RWIGS  =    2.700; RWIGS  =    1.429    wigner-seitz radius (au A)           
   ENMAX  =  222.660; ENMIN  =  166.995 eV                                      
   RCLOC  =    1.805    cutoff for local pot                                    
   LCOR   =        T    correct aug charges                                     
   LPAW   =        T    paw PP                                                  
   EAUG   =  443.063                                                            
   RMAX   =    2.551    core radius for proj-oper                               
   RAUG   =    1.300    factor for augmentation sphere                          
   RDEP   =    2.650    radius for radial grids                                 
   RDEPT  =    2.038    core radius for aug-charge                              
                                                                                
   Atomic configuration                                                         
    8 entries                                                                   
     n  l   j            E        occ.                                          
     1  0  0.50     -4394.2533   2.0000                                         
     2  0  0.50      -471.0040   2.0000                                         
     2  1  1.50      -384.9788   6.0000                                         
     3  0  0.50       -52.1410   2.0000                                         
     4  0  0.50        -3.5584   1.0000                                         
     3  1  1.50       -30.8841   6.0000                                         
     3  2  2.50        -1.3655   2.0000                                         
     4  3  2.50        -1.3606   0.0000                                         
   Description                                                                  
     l       E           TYP  RCUT    TYP  RCUT                                 
     0    -52.1409870     23  1.800                                             
     0     -3.5583698     23  2.500                                             
     1    -30.8840697     23  2.300                                             
     1      4.0817478     23  2.300                                             
     2     -1.3655397     23  2.500                                             
     2      0.3564476     23  2.500                                             
  local pseudopotential read in
  partial core-charges read in
  partial kinetic energy density read in
  atomic valenz-charges read in
  non local Contribution for L=           0  read in
    real space projection operators read in
  non local Contribution for L=           0  read in
    real space projection operators read in
  non local Contribution for L=           1  read in
    real space projection operators read in
  non local Contribution for L=           1  read in
    real space projection operators read in
  non local Contribution for L=           2  read in
    real space projection operators read in
  non local Contribution for L=           2  read in
    real space projection operators read in
    PAW grid and wavefunctions read in
 
   number of l-projection  operators is LMAX  =           6
   number of lm-projection operators is LMMAX =          18
 
 POTCAR:    PAW_PBE F 08Apr2002                   
   VRHFIN =F: s2p5                                                              
   LEXCH  = PE                                                                  
   EATOM  =   659.6475 eV,   48.4827 Ry                                         
                                                                                
   TITEL  = PAW_PBE F 08Apr2002                                                 
   LULTRA =        F    use ultrasoft PP ?                                      
   IUNSCR =        1    unscreen: 0-lin 1-nonlin 2-no                           
   RPACOR =    1.200    partial core radius                                     
   POMASS =   18.998; ZVAL   =    7.000    mass and valenz                      
   RCORE  =    1.520    outmost cutoff radius                                   
   RWIGS  =    1.500; RWIGS  =    0.794    wigner-seitz radius (au A)           
   ENMAX  =  400.000; ENMIN  =  300.000 eV                                      
   ICORE  =        2    local potential                                         
   LCOR   =        T    correct aug charges                                     
   LPAW   =        T    paw PP                                                  
   EAUG   =  613.614                                                            
   RMAX   =    1.555    core radius for proj-oper                               
   RAUG   =    1.300    factor for augmentation sphere                          
   RDEP   =    1.539    radius for radial grids                                 
   RDEPT  =    1.299    core radius for aug-charge                              
                                                                                
   Atomic configuration                                                         
    4 entries                                                                   
     n  l   j            E        occ.                                          
     1  0  0.50      -663.3661   2.0000                                         
     2  0  0.50       -29.8995   2.0000                                         
     2  1  0.50       -11.1114   5.0000                                         
     3  2  1.50       -10.8847   0.0000                                         
   Description                                                                  
     l       E           TYP  RCUT    TYP  RCUT                                 
     0    -29.8995018     23  1.200                                             
     0     -9.5240782     23  1.200                                             
     1    -11.1113914     23  1.520                                             
     1      1.3605826     23  1.520                                             
     2    -10.8846608      7  1.500                                             
  local pseudopotential read in
  partial core-charges read in
  partial kinetic energy density read in
  atomic valenz-charges read in
  non local Contribution for L=           0  read in
    real space projection operators read in
  non local Contribution for L=           0  read in
    real space projection operators read in
  non local Contribution for L=           1  read in
    real space projection operators read in
  non local Contribution for L=           1  read in
    real space projection operators read in
    PAW grid and wavefunctions read in
 
   number of l-projection  operators is LMAX  =           4
   number of lm-projection operators is LMMAX =           8
 
 POTCAR:    PAW_PBE C 08Apr2002                   
   VRHFIN =C: s2p2                                                              
   LEXCH  = PE                                                                  
   EATOM  =   147.1560 eV,   10.8157 Ry                                         
                                                                                
   TITEL  = PAW_PBE C 08Apr2002                                                 
   LULTRA =        F    use ultrasoft PP ?                                      
   IUNSCR =        1    unscreen: 0-lin 1-nonlin 2-no                           
   RPACOR =    1.200    partial core radius                                     
   POMASS =   12.011; ZVAL   =    4.000    mass and valenz                      
   RCORE  =    1.500    outmost cutoff radius                                   
   RWIGS  =    1.630; RWIGS  =    0.863    wigner-seitz radius (au A)           
   ENMAX  =  400.000; ENMIN  =  300.000 eV                                      
   ICORE  =        2    local potential                                         
   LCOR   =        T    correct aug charges                                     
   LPAW   =        T    paw PP                                                  
   EAUG   =  644.873                                                            
   DEXC   =    0.000                                                            
   RMAX   =    1.529    core radius for proj-oper                               
   RAUG   =    1.300    factor for augmentation sphere                          
   RDEP   =    1.501    radius for radial grids                                 
   RDEPT  =    1.300    core radius for aug-charge                              
                                                                                
   Atomic configuration                                                         
    4 entries                                                                   
     n  l   j            E        occ.                                          
     1  0  0.50      -273.3789   2.0000                                         
     2  0  0.50       -13.7508   2.0000                                         
     2  1  0.50        -5.2854   2.0000                                         
     3  2  1.50        -5.4423   0.0000                                         
   Description                                                                  
     l       E           TYP  RCUT    TYP  RCUT                                 
     0    -13.7508458     23  1.200                                             
     0     -8.2022199     23  1.200                                             
     1     -5.2854383     23  1.500                                             
     1     34.0145650     23  1.500                                             
     2     -5.4423304      7  1.500                                             
  local pseudopotential read in
  partial core-charges read in
  partial kinetic energy density read in
  atomic valenz-charges read in
  non local Contribution for L=           0  read in
    real space projection operators read in
  non local Contribution for L=           0  read in
    real space projection operators read in
  non local Contribution for L=           1  read in
    real space projection operators read in
  non local Contribution for L=           1  read in
    real space projection operators read in
    PAW grid and wavefunctions read in
 
   number of l-projection  operators is LMAX  =           4
   number of lm-projection operators is LMMAX =           8
 
 Optimization of the real space projectors (new method)

 maximal supplied QI-value         = 15.12
 optimisation between [QCUT,QGAM] = [ 12.55, 25.10] = [ 44.09,176.36] Ry 
 Optimized for a Real-space Cutoff    1.56 Angstroem

   l    n(q)    QCUT    max X(q) W(low)/X(q) W(high)/X(q)  e(spline) 
   0     12    12.548     2.962    0.12E-05    0.11E-06    0.46E-07
   0     12    12.548    26.414    0.30E-04    0.15E-05    0.76E-07
   1     11    12.548     3.969    0.45E-05    0.12E-05    0.60E-07
   1     11    12.548     5.137    0.15E-04    0.18E-04    0.36E-06
   2     11    12.548   143.970    0.20E-03    0.19E-03    0.76E-06
   2     11    12.548   121.201    0.20E-03    0.19E-03    0.76E-06
 Optimization of the real space projectors (new method)

 maximal supplied QI-value         = 24.76
 optimisation between [QCUT,QGAM] = [ 12.38, 25.00] = [ 42.90,175.06] Ry 
 Optimized for a Real-space Cutoff    1.16 Angstroem

   l    n(q)    QCUT    max X(q) W(low)/X(q) W(high)/X(q)  e(spline) 
   0      9    12.378    14.049    0.11E-03    0.38E-05    0.23E-06
   0      9    12.378     8.945    0.15E-03    0.56E-05    0.30E-06
   1      8    12.378     7.086    0.18E-03    0.14E-03    0.29E-06
   1      8    12.378     6.747    0.16E-03    0.13E-03    0.26E-06
 Optimization of the real space projectors (new method)

 maximal supplied QI-value         = 25.13
 optimisation between [QCUT,QGAM] = [ 12.32, 24.88] = [ 42.47,173.37] Ry 
 Optimized for a Real-space Cutoff    1.16 Angstroem

   l    n(q)    QCUT    max X(q) W(low)/X(q) W(high)/X(q)  e(spline) 
   0      9    12.315   115.676    0.19E-03    0.80E-05    0.34E-06
   0      9    12.315    87.132    0.19E-03    0.82E-05    0.34E-06
   1      8    12.315     4.429    0.18E-03    0.13E-03    0.22E-06
   1      8    12.315     2.733    0.14E-03    0.10E-03    0.18E-06
  PAW_PBE Sc_sv 07Sep2000               :
 energy of atom  1       EATOM=-1273.2868
 kinetic energy error for atom=    0.0014 (will be added to EATOM!!)
  PAW_PBE F 08Apr2002                   :
 energy of atom  2       EATOM= -659.6475
 kinetic energy error for atom=    0.0256 (will be added to EATOM!!)
  PAW_PBE C 08Apr2002                   :
 energy of atom  3       EATOM= -147.1560
 kinetic energy error for atom=    0.0057 (will be added to EATOM!!)
 
 
 POSCAR: Sc  F  C                                
  positions in cartesian coordinates
  No initial velocities read in
 exchange correlation table for  LEXCH =        8
   RHO(1)=    0.500       N(1)  =     2000
   RHO(2)=  100.500       N(2)  =     4000
 


--------------------------------------------------------------------------------------------------------


 ion  position               nearest neighbor table
   1  0.087  0.169  0.452-  61 2.16  49 2.21  65 2.28  50 2.30  66 2.32  70 2.33  29 3.15  18 3.17
                             5 3.20   6 3.23   2 3.25  13 3.26   4 3.26  16 3.29  17 3.32
   2  0.086  0.416  0.449-  50 2.18  66 2.21  71 2.21  62 2.29  51 2.29  67 2.37   6 3.23  18 3.23
                             1 3.25  19 3.25  30 3.27   3 3.28  13 3.29  14 3.29   7 3.31
   3  0.078  0.662  0.451-  51 2.23  63 2.23  68 2.29  67 2.31  52 2.33  72 2.37  20 3.07  19 3.24
                            31 3.25  15 3.26   2 3.28   7 3.29  14 3.30   4 3.34   8 3.35
   4  0.091  0.922  0.455-  69 2.12  49 2.16  52 2.25  68 2.29  64 2.33  65 2.42  20 3.05   5 3.10
                            17 3.16   8 3.17  32 3.17   1 3.26  15 3.30   3 3.34  16 3.36
   5  0.326  0.159  0.452-  49 2.14  53 2.15  70 2.24  69 2.29  74 2.39  54 2.49   4 3.10   8 3.18
                             1 3.20  17 3.26  21 3.27  22 3.28   6 3.33   9 3.35  10 3.41
   6  0.332  0.416  0.451-  50 2.11  54 2.19  70 2.25  55 2.30  75 2.31  71 2.33  22 3.17  23 3.19
                            18 3.19  11 3.23   1 3.23   2 3.23   5 3.33   7 3.36  10 3.37
   7  0.334  0.672  0.452-  56 2.09  51 2.14  76 2.22  55 2.22  72 2.27  71 2.33  23 3.16  12 3.17
                            19 3.18  11 3.24  24 3.25   8 3.26   3 3.29   2 3.31   6 3.36
   8  0.331  0.920  0.453-  56 2.20  52 2.22  73 2.24  53 2.29  72 2.35  69 2.37  20 3.09   4 3.17
                             5 3.18   9 3.21  21 3.26   7 3.26  24 3.28  12 3.29   3 3.35
   9  0.581  0.159  0.452-  53 2.14  58 2.22  57 2.22  78 2.26  73 2.28  74 2.37  25 3.12   8 3.21
                            26 3.21  12 3.23  21 3.24  14 3.27  10 3.31  13 3.33   5 3.35
  10  0.589  0.415  0.450-  54 2.19  79 2.22  59 2.25  58 2.27  74 2.36  75 2.36  26 3.15  27 3.21
                            14 3.24  22 3.25   9 3.31  15 3.32  11 3.35   6 3.37   5 3.41
  11  0.576  0.664  0.454-  55 2.11  76 2.28  75 2.29  60 2.32  59 2.33  80 2.40  23 3.07  27 3.20
                            28 3.22   6 3.23   7 3.24  12 3.25  15 3.35  10 3.35  16 3.38
  12  0.577  0.912  0.454-  56 2.14  57 2.19  76 2.28  73 2.29  77 2.30  60 2.32   7 3.17  24 3.18
                            25 3.18  28 3.19   9 3.23  11 3.25   8 3.29  16 3.32  13 3.37
  13  0.837  0.165  0.452-  62 2.16  77 2.20  61 2.23  78 2.26  66 2.27  57 2.30  29 3.06  25 3.17
                            16 3.19  14 3.22  30 3.24   1 3.26   2 3.29   9 3.33  12 3.37
  14  0.831  0.407  0.450-  63 2.17  62 2.20  58 2.20  78 2.22  67 2.30  79 2.39  13 3.22  30 3.23
                            10 3.24   9 3.27  26 3.28  31 3.28   2 3.29   3 3.30
  15  0.836  0.674  0.451-  64 2.13  63 2.19  59 2.22  80 2.22  68 2.34  79 2.45  32 3.18  27 3.23
                            16 3.24   3 3.26   4 3.30  31 3.31  10 3.32  11 3.35
  16  0.834  0.920  0.454-  60 2.21  65 2.22  64 2.23  77 2.27  61 2.30  80 2.30  32 3.15  28 3.16
                            29 3.16  13 3.19  15 3.24   1 3.29  12 3.32   4 3.36  11 3.38
  17  0.166  0.077  0.553-  37 2.09  36 2.16  69 2.17  33 2.18  65 2.41  70 2.48   4 3.16  32 3.24
                            21 3.25   5 3.26   1 3.32  20 3.33  18 3.35  29 3.35  22 3.37
  18  0.169  0.334  0.547-  33 2.10  34 2.13  38 2.28  66 2.29  71 2.30  70 2.33   1 3.17   6 3.19
                            29 3.21  22 3.22   2 3.23  19 3.25  23 3.27  30 3.27  17 3.35
  19  0.170  0.582  0.548-  39 2.09  35 2.16  71 2.23  72 2.25  34 2.28  67 2.37   7 3.18  23 3.20
                            20 3.22   3 3.24  18 3.25   2 3.25  30 3.26  24 3.31  31 3.37
  20  0.162  0.823  0.543-  68 2.12  72 2.14  35 2.24  40 2.27  69 2.28  36 2.30   4 3.05   3 3.07
                             8 3.09  19 3.22  31 3.30  24 3.30  32 3.31  17 3.33
  21  0.419  0.088  0.552-  41 2.06  40 2.19  37 2.23  74 2.25  73 2.33  69 2.42  26 3.17   9 3.24
                            17 3.25   8 3.26   5 3.27  25 3.29  24 3.31  22 3.32
  22  0.417  0.339  0.547-  75 2.17  70 2.21  38 2.27  74 2.29  42 2.32  37 2.40   6 3.17  18 3.22
                            27 3.23  23 3.24  26 3.24  10 3.25   5 3.28  21 3.32  17 3.37
  23  0.415  0.585  0.546-  76 2.17  38 2.26  75 2.31  39 2.31  71 2.34  43 2.43  11 3.07   7 3.16
                             6 3.19  19 3.20  22 3.24  18 3.27  24 3.27  28 3.33  27 3.34
  24  0.419  0.836  0.551-  44 2.12  40 2.18  39 2.22  73 2.26  76 2.30  72 2.34  12 3.18   7 3.25
                            23 3.27   8 3.28  25 3.29  20 3.30  28 3.30  21 3.31  19 3.31
  25  0.669  0.086  0.546-  45 2.09  44 2.15  41 2.22  77 2.24  78 2.25  73 2.35   9 3.12  13 3.17
                            12 3.18  29 3.25  26 3.26  30 3.28  24 3.29  21 3.29  28 3.29
  26  0.659  0.330  0.548-  74 2.20  46 2.24  79 2.25  42 2.27  41 2.35  78 2.41  10 3.15  21 3.17
                             9 3.21  27 3.24  31 3.24  22 3.24  25 3.26  14 3.28  30 3.39
  27  0.668  0.581  0.547-  42 2.04  79 2.26  47 2.28  80 2.30  75 2.31  43 2.40  11 3.20  10 3.21
                            31 3.22  15 3.23  22 3.23  26 3.24  32 3.30  28 3.33  23 3.34
  28  0.671  0.836  0.549-  43 2.13  48 2.22  44 2.28  80 2.34  77 2.35  76 2.42  16 3.16  12 3.19
                            11 3.22  32 3.23  25 3.29  24 3.30  23 3.33  29 3.33  27 3.33
  29  0.920  0.094  0.546-  65 2.17  33 2.22  48 2.23  45 2.24  66 2.27  77 2.31  13 3.06   1 3.15
                            16 3.16  30 3.16  18 3.21  25 3.25  28 3.33  17 3.35  32 3.38
  30  0.920  0.335  0.549-  45 2.21  34 2.21  67 2.23  46 2.27  66 2.28  78 2.40  29 3.16  31 3.20
                            14 3.23  13 3.24  19 3.26  18 3.27   2 3.27  25 3.28  26 3.39
  31  0.909  0.574  0.549-  47 2.12  35 2.19  46 2.21  79 2.28  67 2.29  68 2.41  30 3.20  27 3.22
                            26 3.24   3 3.25  14 3.28  20 3.30  15 3.31  19 3.37  32 3.39
  32  0.916  0.835  0.547-  80 2.22  36 2.22  48 2.25  47 2.29  65 2.31  68 2.31  16 3.15   4 3.17
                            15 3.18  28 3.23  17 3.24  27 3.30  20 3.31  29 3.38  31 3.39
  33  0.090  0.174  0.587-  18 2.10  17 2.18  29 2.22
  34  0.088  0.409  0.591-  18 2.13  30 2.21  19 2.28
  35  0.080  0.657  0.588-  19 2.16  31 2.19  20 2.24
  36  0.082  0.910  0.591-  17 2.16  32 2.22  20 2.30
  37  0.323  0.160  0.594-  17 2.09  21 2.23  22 2.40
  38  0.336  0.423  0.595-  23 2.26  22 2.27  18 2.28
  39  0.323  0.665  0.591-  19 2.09  24 2.22  23 2.31
  40  0.330  0.917  0.589-  24 2.18  21 2.19  20 2.27
  41  0.572  0.152  0.592-  21 2.06  25 2.22  26 2.35
  42  0.593  0.433  0.591-  27 2.04  26 2.27  22 2.32
  43  0.594  0.684  0.595-  28 2.13  27 2.40  23 2.43
  44  0.583  0.926  0.589-  24 2.12  25 2.15  28 2.28
  45  0.824  0.165  0.589-  25 2.09  30 2.21  29 2.24
  46  0.824  0.409  0.593-  31 2.21  26 2.24  30 2.27
  47  0.840  0.662  0.591-  31 2.12  27 2.28  32 2.29
  48  0.840  0.929  0.590-  28 2.22  29 2.23  32 2.25
  49  0.165  0.079  0.410-   5 2.14   4 2.16   1 2.21
  50  0.177  0.341  0.408-   6 2.11   2 2.18   1 2.30
  51  0.176  0.593  0.408-   7 2.14   3 2.23   2 2.29
  52  0.169  0.838  0.407-   8 2.22   4 2.25   3 2.33
  53  0.422  0.094  0.410-   9 2.14   5 2.15   8 2.29
  54  0.427  0.350  0.406-   6 2.19  10 2.19   5 2.49
  55  0.423  0.594  0.410-  11 2.11   7 2.22   6 2.30
  56  0.415  0.833  0.414-   7 2.09  12 2.14   8 2.20
  57  0.662  0.073  0.409-  12 2.19   9 2.22  13 2.30
  58  0.666  0.322  0.407-  14 2.20   9 2.22  10 2.27
  59  0.670  0.585  0.407-  15 2.22  10 2.25  11 2.33
  60  0.673  0.836  0.408-  16 2.21  12 2.32  11 2.32
  61  0.929  0.091  0.408-   1 2.16  13 2.23  16 2.30
  62  0.911  0.322  0.407-  13 2.16  14 2.20   2 2.29
  63  0.905  0.575  0.412-  14 2.17  15 2.19   3 2.23
  64  0.916  0.836  0.410-  15 2.13  16 2.23   4 2.33
  65  0.993  0.007  0.502-  29 2.17  16 2.22   1 2.28  32 2.31  17 2.41   4 2.42
  66  0.005  0.259  0.498-   2 2.21  29 2.27  13 2.27  30 2.28  18 2.29   1 2.32
  67  0.995  0.494  0.500-  30 2.23  31 2.29  14 2.30   3 2.31  19 2.37   2 2.37
  68  0.005  0.752  0.501-  20 2.12   4 2.29   3 2.29  32 2.31  15 2.34  31 2.41
  69  0.240  0.999  0.503-   4 2.12  17 2.17  20 2.28   5 2.29   8 2.37  21 2.42
  70  0.260  0.254  0.499-  22 2.21   5 2.24   6 2.25   1 2.33  18 2.33  17 2.48
  71  0.243  0.499  0.498-   2 2.21  19 2.23  18 2.30   7 2.33   6 2.33  23 2.34
  72  0.249  0.748  0.502-  20 2.14  19 2.25   7 2.27  24 2.34   8 2.35   3 2.37
  73  0.492  0.995  0.501-   8 2.24  24 2.26   9 2.28  12 2.29  21 2.33  25 2.35
  74  0.498  0.248  0.502-  26 2.20  21 2.25  22 2.29  10 2.36   9 2.37   5 2.39
  75  0.498  0.495  0.500-  22 2.17  11 2.29   6 2.31  23 2.31  27 2.31  10 2.36
  76  0.491  0.745  0.501-  23 2.17   7 2.22  11 2.28  12 2.28  24 2.30  28 2.42
  77  0.750  0.005  0.499-  13 2.20  25 2.24  16 2.27  12 2.30  29 2.31  28 2.35
  78  0.750  0.246  0.497-  14 2.22  25 2.25  13 2.26   9 2.26  30 2.40  26 2.41
  79  0.745  0.494  0.500-  10 2.22  26 2.25  27 2.26  31 2.28  14 2.39  15 2.45
  80  0.756  0.750  0.500-  32 2.22  15 2.22  27 2.30  16 2.30  28 2.34  11 2.40
 
  LATTYP: Found a hexagonal cell.
 ALAT       =    13.1286233990
 C/A-ratio  =     2.0434811347
  
  Lattice vectors:
  
 A1 = (  13.1286234000,   0.0000000000,   0.0000000000)
 A2 = (  -6.5643117000,  11.3697213800,   0.0000000000)
 A3 = (   0.0000000000,   0.0000000000,  26.8280942400)


Analysis of symmetry for initial positions (statically):
=====================================================================
 Subroutine PRICEL returns:
 Original cell was already a primitive cell.
 

 Routine SETGRP: Setting up the symmetry group for a 
 hexagonal supercell.


 Subroutine GETGRP returns: Found  1 space group operations
 (whereof  1 operations were pure point group operations)
 out of a pool of 24 trial point group operations.


The static configuration has the point symmetry C_1 .


Analysis of symmetry for dynamics (positions and initial velocities):
=====================================================================
 Subroutine PRICEL returns:
 Original cell was already a primitive cell.
 

 Routine SETGRP: Setting up the symmetry group for a 
 hexagonal supercell.


 Subroutine GETGRP returns: Found  1 space group operations
 (whereof  1 operations were pure point group operations)
 out of a pool of 24 trial point group operations.


The dynamic configuration has the point symmetry C_1 .


 Subroutine INISYM returns: Found  1 space group operations
 (whereof  1 operations are pure point group operations),
 and found     1 'primitive' translations

 
 

Automatic generation of k-mesh.
 generate k-points for:    3    3    1
Space group operators:
 irot       det(A)        alpha          n_x          n_y          n_z        tau_x        tau_y        tau_z
    1     1.000000     0.000000     1.000000     0.000000     0.000000     0.000000     0.000000     0.000000
 
 Subroutine IBZKPT returns following result:
 ===========================================
 
 Found      5 irreducible k-points:
 
 Following reciprocal coordinates:
            Coordinates               Weight
  0.000000  0.000000  0.000000      1.000000
  0.333333 -0.000000  0.000000      2.000000
  0.000000  0.333333  0.000000      2.000000
  0.333333  0.333333  0.000000      2.000000
 -0.333333  0.333333  0.000000      2.000000
 
 Following cartesian coordinates:
            Coordinates               Weight
  0.000000  0.000000  0.000000      1.000000
  0.025390  0.014659  0.000000      2.000000
  0.000000  0.029318  0.000000      2.000000
  0.025390  0.043976  0.000000      2.000000
 -0.025390  0.014659  0.000000      2.000000
 


--------------------------------------------------------------------------------------------------------




 Dimension of arrays:
   k-points           NKPTS =      5   k-points in BZ     NKDIM =      5   number of bands    NBANDS=    384
   number of dos      NEDOS =    301   number of ions     NIONS =     80
   non local maximal  LDIM  =      6   non local SUM 2l+1 LMDIM =     18
   total plane-waves  NPLWV = ******
   max r-space proj   IRMAX =  10060   max aug-charges    IRDMAX= 222480
   dimension x,y,z NGX =   108 NGY =  108 NGZ =  216
   dimension x,y,z NGXF=   216 NGYF=  216 NGZF=  432
   support grid    NGXF=   432 NGYF=  432 NGZF=  864
   ions per type =              32  32  16
   NGX,Y,Z   is equivalent  to a cutoff of  13.68, 13.68, 13.38 a.u.
   NGXF,Y,Z  is equivalent  to a cutoff of  27.35, 27.35, 26.77 a.u.

 SYSTEM =  unknown system                          
 POSCAR =  Sc  F  C                                

 Startparameter for this run:
   NWRITE =      2    write-flag & timer
   PREC   = anorma    normal or accurate (medium, high low for compatibility)
   ISTART =      0    job   : 0-new  1-cont  2-samecut
   ICHARG =      2    charge: 1-file 2-atom 10-const
   ISPIN  =      1    spin polarized calculation?
   LNONCOLLINEAR =      F non collinear calculations
   LSORBIT =      F    spin-orbit coupling
   INIWAV =      1    electr: 0-lowe 1-rand  2-diag
   LASPH  =      F    aspherical Exc in radial PAW
   METAGGA=      F    non-selfconsistent MetaGGA calc.

 Electronic Relaxation 1
   ENCUT  =  600.0 eV  44.10 Ry    6.64 a.u.  26.22 26.22 53.58*2*pi/ulx,y,z
   ENINI  =  600.0     initial cutoff
   ENAUG  =  644.9 eV  augmentation charge cutoff
   NELM   =     60;   NELMIN=  2; NELMDL= -5     # of ELM steps 
   EDIFF  = 0.1E-05   stopping-criterion for ELM
   LREAL  =      T    real-space projection
   NLSPLINE    = F    spline interpolate recip. space projectors
   LCOMPAT=      F    compatible to vasp.4.4
   GGA_COMPAT  = T    GGA compatible to vasp.4.4-vasp.4.6
   LMAXPAW     = -100 max onsite density
   LMAXMIX     =    2 max onsite mixed and CHGCAR
   VOSKOWN=      0    Vosko Wilk Nusair interpolation
   ROPT   =   -0.00025  -0.00025  -0.00025
 Ionic relaxation
   EDIFFG = -.1E-01   stopping-criterion for IOM
   NSW    =      1    number of steps for IOM
   NBLOCK =      1;   KBLOCK =      1    inner block; outer block 
   IBRION =     -1    ionic relax: 0-MD 1-quasi-New 2-CG
   NFREE  =      0    steps in history (QN), initial steepest desc. (CG)
   ISIF   =      2    stress and relaxation
   IWAVPR =     10    prediction:  0-non 1-charg 2-wave 3-comb
   ISYM   =      2    0-nonsym 1-usesym 2-fastsym
   LCORR  =      T    Harris-Foulkes like correction to forces

   POTIM  = 1.0000    time-step for ionic-motion
   TEIN   =    0.0    initial temperature
   TEBEG  =    0.0;   TEEND  =   0.0 temperature during run
   SMASS  =  -3.00    Nose mass-parameter (am)
   estimated Nose-frequenzy (Omega)   =  0.10E-29 period in steps =****** mass=  -0.394E-26a.u.
   SCALEE = 1.0000    scale energy and forces
   NPACO  =    256;   APACO  = 16.0  distance and # of slots for P.C.
   PSTRESS=    0.0 pullay stress

  Mass of Ions in am
   POMASS =  44.96 19.00 12.01
  Ionic Valenz
   ZVAL   =  11.00  7.00  4.00
  Atomic Wigner-Seitz radii
   RWIGS  =  -1.00 -1.00 -1.00
  virtual crystal weights 
   VCA    =   1.00  1.00  1.00
   NELECT =     640.0000    total number of electrons
   NUPDOWN=      -1.0000    fix difference up-down

 DOS related values:
   EMIN   =  10.00;   EMAX   =-10.00  energy-range for DOS
   EFERMI =   0.00
   ISMEAR =     0;   SIGMA  =   0.05  broadening in eV -4-tet -1-fermi 0-gaus

 Electronic relaxation 2 (details)
   IALGO  =     38    algorithm
   LDIAG  =      T    sub-space diagonalisation (order eigenvalues)
   LSUBROT=      F    optimize rotation matrix (better conditioning)
   TURBO    =      0    0=normal 1=particle mesh
   IRESTART =      0    0=no restart 2=restart with 2 vectors
   NREBOOT  =      0    no. of reboots
   NMIN     =      0    reboot dimension
   EREF     =   0.00    reference energy to select bands
   IMIX   =      4    mixing-type and parameters
     AMIX     =   0.40;   BMIX     =  1.00
     AMIX_MAG =   1.60;   BMIX_MAG =  1.00
     AMIN     =   0.10
     WC   =   100.;   INIMIX=   1;  MIXPRE=   1;  MAXMIX= -45

 Intra band minimization:
   WEIMIN = 0.0000     energy-eigenvalue tresh-hold
   EBREAK =  0.65E-09  absolut break condition
   DEPER  =   0.30     relativ break condition  

   TIME   =   0.40     timestep for ELM

  volume/ion in A,a.u.               =      50.06       337.80
  Fermi-wavevector in a.u.,A,eV,Ry     =   0.888414  1.678858 10.738790  0.789279
  Thomas-Fermi vector in A             =   2.009840
 
 Write flags
   LWAVE        =      F    write WAVECAR
   LDOWNSAMPLE  =      F    k-point downsampling of WAVECAR
   LCHARG       =      F    write CHGCAR
   LVTOT        =      F    write LOCPOT, total local potential
   LVHAR        =      F    write LOCPOT, Hartree potential only
   LELF         =      F    write electronic localiz. function (ELF)
   LORBIT       =      0    0 simple, 1 ext, 2 COOP (PROOUT), +10 PAW based schemes


 Dipole corrections
   LMONO  =      F    monopole corrections only (constant potential shift)
   LDIPOL =      F    correct potential (dipole corrections)
   IDIPOL =      0    1-x, 2-y, 3-z, 4-all directions 
   EPSILON=  1.0000000 bulk dielectric constant

 Exchange correlation treatment:
   GGA     =    --    GGA type
   LEXCH   =     8    internal setting for exchange type
   VOSKOWN=      0    Vosko Wilk Nusair interpolation
   LHFCALC =     F    Hartree Fock is set to
   LHFONE  =     F    Hartree Fock one center treatment
   AEXX    =    0.0000 exact exchange contribution

 Linear response parameters
   LEPSILON=     F    determine dielectric tensor
   LRPA    =     F    only Hartree local field effects (RPA)
   LNABLA  =     F    use nabla operator in PAW spheres
   LVEL    =     F    velocity operator in full k-point grid
   LINTERFAST=   F  fast interpolation
   KINTER  =     0    interpolate to denser k-point grid
   CSHIFT  =0.1000    complex shift for real part using Kramers Kronig
   OMEGAMAX=  -1.0    maximum frequency
   DEG_THRESHOLD= 0.2000000E-02 threshold for treating states as degnerate
   RTIME   =   -0.100 relaxation time in fs
  (WPLASMAI=    0.000 imaginary part of plasma frequency in eV, 0.658/RTIME)
   DFIELD  = 0.0000000 0.0000000 0.0000000 field for delta impulse in time
 
 Orbital magnetization related:
   ORBITALMAG=     F  switch on orbital magnetization
   LCHIMAG   =     F  perturbation theory with respect to B field
   DQ        =  0.001000  dq finite difference perturbation B field
   LLRAUG    =     F  two centre corrections for induced B field



--------------------------------------------------------------------------------------------------------


 Static calculation
 charge density and potential will be updated during run
 non-spin polarized calculation
 Variant of blocked Davidson
 Davidson routine will perform the subspace rotation
 perform sub-space diagonalisation
    after iterative eigenvector-optimisation
 modified Broyden-mixing scheme, WC =      100.0
 initial mixing is a Kerker type mixing with AMIX =  0.4000 and BMIX =      1.0000
 Hartree-type preconditioning will be used
 using additional bands           64
 real space projection scheme for non local part
 use partial core corrections
 calculate Harris-corrections to forces 
   (improved forces if not selfconsistent)
 use gradient corrections 
 use of overlap-Matrix (Vanderbilt PP)
 Gauss-broadening in eV      SIGMA  =   0.05


--------------------------------------------------------------------------------------------------------


  energy-cutoff  :      600.00
  volume of cell :     4004.60
      direct lattice vectors                 reciprocal lattice vectors
    13.128623400  0.000000000  0.000000000     0.076169448  0.043976451  0.000000000
    -6.564311700 11.369721380  0.000000000     0.000000000  0.087952903  0.000000000
     0.000000000  0.000000000 26.828094240     0.000000000  0.000000000  0.037274358

  length of vectors
    13.128623400 13.128623399 26.828094240     0.087952903  0.087952903  0.037274358


 
 k-points in units of 2pi/SCALE and weight: read from INCAR                         
   0.00000000  0.00000000  0.00000000       0.111
   0.02538982  0.01465882  0.00000000       0.222
   0.00000000  0.02931763  0.00000000       0.222
   0.02538982  0.04397645  0.00000000       0.222
  -0.02538982  0.01465882  0.00000000       0.222
 
 k-points in reciprocal lattice and weights: read from INCAR                         
   0.00000000  0.00000000  0.00000000       0.111
   0.33333333 -0.00000000  0.00000000       0.222
   0.00000000  0.33333333  0.00000000       0.222
   0.33333333  0.33333333  0.00000000       0.222
  -0.33333333  0.33333333  0.00000000       0.222
 
 position of ions in fractional coordinates (direct lattice) 
   0.08726505  0.16884523  0.45224601
   0.08609898  0.41580100  0.44920056
   0.07811177  0.66160054  0.45137323
   0.09107787  0.92216483  0.45527306
   0.32569928  0.15922044  0.45164404
   0.33242397  0.41600736  0.45066423
   0.33378398  0.67245439  0.45198120
   0.33090128  0.91961878  0.45307982
   0.58072263  0.15898714  0.45222232
   0.58907775  0.41538156  0.45046247
   0.57617716  0.66359412  0.45386695
   0.57745836  0.91161397  0.45385695
   0.83706044  0.16455566  0.45209239
   0.83119575  0.40664787  0.44971626
   0.83621973  0.67425312  0.45056454
   0.83430826  0.92004077  0.45390599
   0.16641681  0.07742715  0.55274737
   0.16901125  0.33377270  0.54736642
   0.17000220  0.58199559  0.54797124
   0.16197016  0.82273511  0.54306317
   0.41903558  0.08798133  0.55153386
   0.41707674  0.33932647  0.54692707
   0.41513361  0.58519106  0.54551291
   0.41911363  0.83624135  0.55141548
   0.66899523  0.08644655  0.54633815
   0.65931010  0.32989900  0.54758236
   0.66767177  0.58089774  0.54747504
   0.67079444  0.83644317  0.54903808
   0.92035896  0.09439073  0.54566581
   0.92049647  0.33521265  0.54902116
   0.90939736  0.57358683  0.54929867
   0.91610802  0.83469670  0.54747324
   0.08951807  0.17435902  0.58702578
   0.08772959  0.40936054  0.59099018
   0.07962646  0.65689957  0.58784429
   0.08192883  0.90982907  0.59103889
   0.32253345  0.15986457  0.59391207
   0.33573748  0.42329110  0.59464219
   0.32272292  0.66544571  0.59114444
   0.32965737  0.91681692  0.58852576
   0.57223327  0.15176740  0.59203531
   0.59281462  0.43315515  0.59090850
   0.59352790  0.68434553  0.59544215
   0.58314928  0.92575921  0.58868989
   0.82362063  0.16541574  0.58868237
   0.82432098  0.40862133  0.59315630
   0.83967305  0.66204423  0.59091606
   0.83981139  0.92902096  0.59003097
   0.16474190  0.07937153  0.41007708
   0.17661074  0.34135546  0.40768689
   0.17578393  0.59266030  0.40841079
   0.16895135  0.83768226  0.40714944
   0.42183629  0.09409438  0.41037247
   0.42735252  0.35001742  0.40649796
   0.42310636  0.59378056  0.40959914
   0.41458846  0.83316418  0.41408179
   0.66196724  0.07309772  0.40910572
   0.66605031  0.32206140  0.40679865
   0.66999605  0.58474720  0.40711616
   0.67341126  0.83588142  0.40757592
   0.92857571  0.09068116  0.40796713
   0.91137594  0.32177729  0.40708267
   0.90534832  0.57470686  0.41171591
   0.91608540  0.83569215  0.40995978
   0.99307550  0.00664054  0.50173136
   0.00481389  0.25931717  0.49783656
   0.99460973  0.49411290  0.50041526
   0.00453184  0.75215080  0.50088679
   0.23959784  0.99935385  0.50320486
   0.25970726  0.25446897  0.49889846
   0.24277641  0.49852817  0.49799470
   0.24894027  0.74813390  0.50222440
   0.49218124  0.99489229  0.50066270
   0.49802579  0.24816256  0.50237825
   0.49775053  0.49512079  0.50037280
   0.49074653  0.74464252  0.50108720
   0.74982383  0.00517280  0.49862717
   0.74968506  0.24592689  0.49671625
   0.74505323  0.49366169  0.50035246
   0.75581561  0.75009936  0.50047621
 
 position of ions in cartesian coordinates  (Angst):
   0.03731731  1.91972324 12.13289859
  -1.59908628  4.72754150 12.05119484
  -3.31745216  7.52221380 12.10948355
  -4.85765030 10.48475724 12.21410844
   3.23081063  1.81029208 12.11674877
   1.63346712  4.72988779 12.09046253
  -0.03207608  7.64561905 12.12579424
  -1.69238602 10.45580936 12.15526800
   6.58044754  1.80763945 12.13226291
   5.00708585  4.72277265 12.08504947
   3.20837428  7.54488021 12.17638535
   1.59711514 10.36479684 12.17611709
   9.90925667  1.87095203 12.12877723
   8.24309259  4.62347298 12.06503022
   6.55240623  7.66607009 12.08778800
   4.91388458 10.46060720 12.17743266
   1.67656765  0.88032511 14.82915865
   0.02789710  3.79490256 14.68479795
  -1.58850563  6.61712766 14.70102395
  -3.27424456  9.35426901 14.56934989
   4.92382343  1.00032324 14.79660238
   3.24819871  3.85804743 14.67301104
   1.60875628  6.65345936 14.63507165
   0.01303616  9.50783116 14.79342659
   8.21552434  0.98287314 14.65721130
   6.49027416  3.75085977 14.69059105
   4.95241736  6.60464551 14.68771205
   3.31593393  9.51012574 14.72964538
  11.46343599  1.07319628 14.63917389
   9.88441118  3.81127439 14.72919129
   8.17393272  6.52152239 14.73663647
   6.54802787  9.49026886 14.68766357
   0.03070205  1.98241343 15.74878286
  -1.53540147  4.65431534 15.85514017
  -3.26670775  7.46876504 15.77074199
  -4.89678886 10.34450300 15.85644697
   3.18501927  1.81761565 15.93352889
   1.62915621  4.81270186 15.95311678
  -0.13128540  7.56593228 15.85927875
  -1.69032458 10.42395290 15.78902461
   6.51638654  1.72555305 15.88317911
   4.93947447  4.92485342 15.85294891
   3.29994690  7.78081798 15.97457802
   1.57897527 10.52562427 15.79342786
   9.72716466  1.88073085 15.79322612
   8.13988196  4.64591072 15.91325313
   6.67788655  7.52725841 15.85315171
   4.92718429 10.56270946 15.82940649
   1.64181486  0.90243220 11.00158651
   0.07789226  3.88111642 10.93746228
  -1.58260597  6.73838248 10.95688321
  -3.28070880  9.52421390 10.92304342
   4.92046492  1.06982685 11.00951124
   3.31292686  3.97960055 10.90556549
   1.65704344  6.75111948 10.98876439
  -0.02617365  9.47284461 11.10902523
   8.21088240  0.83110069 10.97552684
   6.63021224  3.66174837 10.91363258
   4.95766302  6.64841270 10.92215073
   3.35397663  9.50373884 10.93448522
  11.59566138  1.03101958 10.94498053
   9.85286502  3.65851810 10.92125230
   8.11342215  6.53425687 11.04555333
   6.54119642  9.50158691 10.99843951
  12.99412371  0.07550105 13.46049609
  -1.63903899  2.94836401 13.35600606
   9.81434558  5.61792595 13.42518767
  -4.87785545  8.55174502 13.43783808
  -3.41448036 11.36237483 13.50002734
   1.73918524  2.89324126 13.38449481
  -0.08517424  5.66812644 13.36024883
  -1.64274103  8.50607404 13.47372359
  -0.06912098 11.31164812 13.43182619
   4.90937660  2.82153914 13.47785107
   3.28465208  5.62938545 13.42404850
   1.55476083  8.46637793 13.44321451
   9.81019885  0.05881333 13.37721662
   8.22799207  2.79612024 13.32595042
   6.54097404  5.61279587 13.42350303
   4.99893243  8.52842074 13.42682302
 


--------------------------------------------------------------------------------------------------------


 k-point  1 :   0.0000 0.0000 0.0000  plane waves:  133769
 k-point  2 :   0.3333-0.0000 0.0000  plane waves:  133588
 k-point  3 :   0.0000 0.3333 0.0000  plane waves:  133588
 k-point  4 :   0.3333 0.3333 0.0000  plane waves:  133608
 k-point  5 :  -0.3333 0.3333 0.0000  plane waves:  133588

 maximum and minimum number of plane-waves per node :     10323    10242

 maximum number of plane-waves:    133769
 maximum index in each direction: 
   IXMAX=   26   IYMAX=   26   IZMAX=   53
   IXMIN=  -26   IYMIN=  -26   IZMIN=  -53


 real space projection operators:
  total allocation   :      55714.00 KBytes
  max/ min on nodes  :       4723.02       4040.52


 parallel 3D FFT for wavefunctions:
    minimum data exchange during FFTs selected (reduces bandwidth)
 parallel 3D FFT for charge:
    minimum data exchange during FFTs selected (reduces bandwidth)


 total amount of memory used by VASP MPI-rank0   234705. kBytes
=======================================================================

   base      :      30000. kBytes
   nonlr-proj:      19437. kBytes
   fftplans  :      66973. kBytes
   grid      :      38377. kBytes
   one-center:        108. kBytes
   wavefun   :      79810. kBytes
 
     INWAV:  cpu time    0.0000: real time    0.0000
 Broyden mixing: mesh for mixing (old mesh)
   NGX = 53   NGY = 53   NGZ =107
  (NGX  =216   NGY  =216   NGZ  =432)
  gives a total of 300563 points

 initial charge density was supplied:
 charge density of overlapping atoms calculated
 number of electron     640.0000000 magnetization 
 keeping initial charge density in first step


--------------------------------------------------------------------------------------------------------


 Maximum index for non-local projection operator         1107
 Maximum index for augmentation-charges         5652 (set IRDMAX)


--------------------------------------------------------------------------------------------------------


 First call to EWALD:  gamma=   0.112
 Maximum number of real-space cells 4x 4x 2
 Maximum number of reciprocal cells 2x 2x 4

    FEWALD:  cpu time    0.0030: real time    0.0030


--------------------------------------- Iteration      1(   1)  ---------------------------------------


    POTLOK:  cpu time    0.4064: real time    0.4130
    SETDIJ:  cpu time    0.4184: real time    0.4191
     EDDAV:  cpu time   46.4931: real time   46.4954
       DOS:  cpu time    0.0012: real time    0.0012
    --------------------------------------------
      LOOP:  cpu time   47.3191: real time   47.3286

 eigenvalue-minimisations  :  4272
 total energy-change (2. order) : 0.1369941E+05  (-0.2784938E+05)
 number of electron     640.0000000 magnetization 
 augmentation part      640.0000000 magnetization 

 Free energy of the ion-electron system (eV)
  ---------------------------------------------------
  alpha Z        PSCENC =       871.83850952
  Ewald energy   TEWEN  =    285841.98410302
  -Hartree energ DENC   =   -340207.78134369
  -exchange      EXHF   =         0.00000000
  -V(xc)+E(xc)   XCENC  =      3042.29661282
  PAW double counting   =     50525.51240023   -50422.77561733
  entropy T*S    EENTRO =        -0.07652023
  eigenvalues    EBANDS =      -159.02306821
  atomic energy  EATOM  =     64207.43592568
  Solvation  Ediel_sol  =         0.00000000
  ---------------------------------------------------
  free energy    TOTEN  =     13699.41100181 eV

  energy without entropy =    13699.48752204  energy(sigma->0) =    13699.44926193


--------------------------------------------------------------------------------------------------------




--------------------------------------- Iteration      1(   2)  ---------------------------------------


     EDDAV:  cpu time   50.6806: real time   50.6914
       DOS:  cpu time    0.0012: real time    0.0012
    --------------------------------------------
      LOOP:  cpu time   50.6818: real time   50.6926

 eigenvalue-minimisations  :  4704
 total energy-change (2. order) :-0.1118534E+05  (-0.1088709E+05)
 number of electron     640.0000000 magnetization 
 augmentation part      640.0000000 magnetization 

 Free energy of the ion-electron system (eV)
  ---------------------------------------------------
  alpha Z        PSCENC =       871.83850952
  Ewald energy   TEWEN  =    285841.98410302
  -Hartree energ DENC   =   -340207.78134369
  -exchange      EXHF   =         0.00000000
  -V(xc)+E(xc)   XCENC  =      3042.29661282
  PAW double counting   =     50525.51240023   -50422.77561733
  entropy T*S    EENTRO =        -0.05001479
  eigenvalues    EBANDS =    -11344.38730414
  atomic energy  EATOM  =     64207.43592568
  Solvation  Ediel_sol  =         0.00000000
  ---------------------------------------------------
  free energy    TOTEN  =      2514.07327132 eV

  energy without entropy =     2514.12328611  energy(sigma->0) =     2514.09827872


--------------------------------------------------------------------------------------------------------




--------------------------------------- Iteration      1(   3)  ---------------------------------------


     EDDAV:  cpu time   68.1572: real time   68.1642
       DOS:  cpu time    0.0005: real time    0.0005
    --------------------------------------------
      LOOP:  cpu time   68.1577: real time   68.1647

 eigenvalue-minimisations  :  6784
 total energy-change (2. order) :-0.2891628E+04  (-0.2775256E+04)
 number of electron     640.0000000 magnetization 
 augmentation part      640.0000000 magnetization 

 Free energy of the ion-electron system (eV)
  ---------------------------------------------------
  alpha Z        PSCENC =       871.83850952
  Ewald energy   TEWEN  =    285841.98410302
  -Hartree energ DENC   =   -340207.78134369
  -exchange      EXHF   =         0.00000000
  -V(xc)+E(xc)   XCENC  =      3042.29661282
  PAW double counting   =     50525.51240023   -50422.77561733
  entropy T*S    EENTRO =        -0.00000000
  eigenvalues    EBANDS =    -14236.06571712
  atomic energy  EATOM  =     64207.43592568
  Solvation  Ediel_sol  =         0.00000000
  ---------------------------------------------------
  free energy    TOTEN  =      -377.55512688 eV

  energy without entropy =     -377.55512688  energy(sigma->0) =     -377.55512688


--------------------------------------------------------------------------------------------------------




--------------------------------------- Iteration      1(   4)  ---------------------------------------


     EDDAV:  cpu time   62.0499: real time   62.0581
       DOS:  cpu time    0.0004: real time    0.0004
    --------------------------------------------
      LOOP:  cpu time   62.0504: real time   62.0585

 eigenvalue-minimisations  :  6064
 total energy-change (2. order) :-0.3634148E+03  (-0.3592196E+03)
 number of electron     640.0000000 magnetization 
 augmentation part      640.0000000 magnetization 

 Free energy of the ion-electron system (eV)
  ---------------------------------------------------
  alpha Z        PSCENC =       871.83850952
  Ewald energy   TEWEN  =    285841.98410302
  -Hartree energ DENC   =   -340207.78134369
  -exchange      EXHF   =         0.00000000
  -V(xc)+E(xc)   XCENC  =      3042.29661282
  PAW double counting   =     50525.51240023   -50422.77561733
  entropy T*S    EENTRO =        -0.00000000
  eigenvalues    EBANDS =    -14599.48049499
  atomic energy  EATOM  =     64207.43592568
  Solvation  Ediel_sol  =         0.00000000
  ---------------------------------------------------
  free energy    TOTEN  =      -740.96990474 eV

  energy without entropy =     -740.96990474  energy(sigma->0) =     -740.96990474


--------------------------------------------------------------------------------------------------------




--------------------------------------- Iteration      1(   5)  ---------------------------------------


     EDDAV:  cpu time   62.7487: real time   62.7641
       DOS:  cpu time    0.0005: real time    0.0005
    CHARGE:  cpu time    3.6817: real time    3.6817
    MIXING:  cpu time    0.0263: real time    0.0267
    --------------------------------------------
      LOOP:  cpu time   66.4573: real time   66.4730

 eigenvalue-minimisations  :  6080
 total energy-change (2. order) :-0.1471262E+02  (-0.1465368E+02)
 number of electron     640.0000007 magnetization 
 augmentation part      134.4637781 magnetization 

 Broyden mixing:
  rms(total) = 0.75733E+01    rms(broyden)= 0.75730E+01
  rms(prec ) = 0.79838E+01
  weight for this iteration     100.00

 Free energy of the ion-electron system (eV)
  ---------------------------------------------------
  alpha Z        PSCENC =       871.83850952
  Ewald energy   TEWEN  =    285841.98410302
  -Hartree energ DENC   =   -340207.78134369
  -exchange      EXHF   =         0.00000000
  -V(xc)+E(xc)   XCENC  =      3042.29661282
  PAW double counting   =     50525.51240023   -50422.77561733
  entropy T*S    EENTRO =        -0.00000000
  eigenvalues    EBANDS =    -14614.19311158
  atomic energy  EATOM  =     64207.43592568
  Solvation  Ediel_sol  =         0.00000000
  ---------------------------------------------------
  free energy    TOTEN  =      -755.68252134 eV

  energy without entropy =     -755.68252134  energy(sigma->0) =     -755.68252134


--------------------------------------------------------------------------------------------------------




--------------------------------------- Iteration      1(   6)  ---------------------------------------


    POTLOK:  cpu time    0.4211: real time    0.4308
    SETDIJ:  cpu time    0.4329: real time    0.4329
     EDDAV:  cpu time   59.2875: real time   59.2894
       DOS:  cpu time    0.0006: real time    0.0006
    CHARGE:  cpu time    3.6902: real time    3.6902
    MIXING:  cpu time    0.0244: real time    0.0245
    --------------------------------------------
      LOOP:  cpu time   63.8567: real time   63.8683

 eigenvalue-minimisations  :  5688
 total energy-change (2. order) : 0.1555139E+03  (-0.8413863E+02)
 number of electron     640.0000007 magnetization 
 augmentation part      140.5235720 magnetization 

 Broyden mixing:
  rms(total) = 0.24661E+01    rms(broyden)= 0.24653E+01
  rms(prec ) = 0.25190E+01
  weight for this iteration     100.00

 eigenvalues of (default mixing * dielectric matrix)
  average eigenvalue GAMMA=   0.9715
  0.9715

 Free energy of the ion-electron system (eV)
  ---------------------------------------------------
  alpha Z        PSCENC =       871.83850952
  Ewald energy   TEWEN  =    285841.98410302
  -Hartree energ DENC   =   -340377.65953274
  -exchange      EXHF   =         0.00000000
  -V(xc)+E(xc)   XCENC  =      3054.46683154
  PAW double counting   =     56220.23334437   -56186.52997498
  entropy T*S    EENTRO =        -0.00000000
  eigenvalues    EBANDS =    -14231.93777926
  atomic energy  EATOM  =     64207.43592568
  Solvation  Ediel_sol  =         0.00000000
  ---------------------------------------------------
  free energy    TOTEN  =      -600.16857284 eV

  energy without entropy =     -600.16857284  energy(sigma->0) =     -600.16857284


--------------------------------------------------------------------------------------------------------




--------------------------------------- Iteration      1(   7)  ---------------------------------------


    POTLOK:  cpu time    0.3635: real time    0.3745
    SETDIJ:  cpu time    0.4197: real time    0.4197
     EDDAV:  cpu time   61.2463: real time   61.2480
       DOS:  cpu time    0.0006: real time    0.0006
    CHARGE:  cpu time    3.6846: real time    3.6846
    MIXING:  cpu time    0.0255: real time    0.0255
    --------------------------------------------
      LOOP:  cpu time   65.7403: real time   65.7530

 eigenvalue-minimisations  :  5920
 total energy-change (2. order) : 0.7574838E-01  (-0.5306230E+01)
 number of electron     640.0000007 magnetization 
 augmentation part      140.9997902 magnetization 

 Broyden mixing:
  rms(total) = 0.16093E+01    rms(broyden)= 0.16093E+01
  rms(prec ) = 0.16396E+01
  weight for this iteration     100.00

 eigenvalues of (default mixing * dielectric matrix)
  average eigenvalue GAMMA=   1.6431
  0.9625  2.3238

 Free energy of the ion-electron system (eV)
  ---------------------------------------------------
  alpha Z        PSCENC =       871.83850952
  Ewald energy   TEWEN  =    285841.98410302
  -Hartree energ DENC   =   -340520.49321004
  -exchange      EXHF   =         0.00000000
  -V(xc)+E(xc)   XCENC  =      3051.56365972
  PAW double counting   =     59802.71608953   -59775.76092563
  entropy T*S    EENTRO =        -0.00000000
  eigenvalues    EBANDS =    -14079.37697626
  atomic energy  EATOM  =     64207.43592568
  Solvation  Ediel_sol  =         0.00000000
  ---------------------------------------------------
  free energy    TOTEN  =      -600.09282446 eV

  energy without entropy =     -600.09282446  energy(sigma->0) =     -600.09282446


--------------------------------------------------------------------------------------------------------




--------------------------------------- Iteration      1(   8)  ---------------------------------------


    POTLOK:  cpu time    0.3981: real time    0.4078
    SETDIJ:  cpu time    0.4600: real time    0.4600
     EDDAV:  cpu time   57.9162: real time   57.9183
       DOS:  cpu time    0.0007: real time    0.0006
    CHARGE:  cpu time    3.6356: real time    3.6356
    MIXING:  cpu time    0.0260: real time    0.0260
    --------------------------------------------
      LOOP:  cpu time   62.4365: real time   62.4483

 eigenvalue-minimisations  :  5528
 total energy-change (2. order) : 0.1583003E+01  (-0.1059891E+01)
 number of electron     640.0000007 magnetization 
 augmentation part      141.0881790 magnetization 

 Broyden mixing:
  rms(total) = 0.45212E+00    rms(broyden)= 0.45202E+00
  rms(prec ) = 0.48751E+00
  weight for this iteration     100.00

 eigenvalues of (default mixing * dielectric matrix)
  average eigenvalue GAMMA=   1.4174
  2.4661  0.8931  0.8931

 Free energy of the ion-electron system (eV)
  ---------------------------------------------------
  alpha Z        PSCENC =       871.83850952
  Ewald energy   TEWEN  =    285841.98410302
  -Hartree energ DENC   =   -340779.06388113
  -exchange      EXHF   =         0.00000000
  -V(xc)+E(xc)   XCENC  =      3047.64549101
  PAW double counting   =     65988.37538044   -65978.32733038
  entropy T*S    EENTRO =        -0.00000000
  eigenvalues    EBANDS =    -13798.39801975
  atomic energy  EATOM  =     64207.43592568
  Solvation  Ediel_sol  =         0.00000000
  ---------------------------------------------------
  free energy    TOTEN  =      -598.50982159 eV

  energy without entropy =     -598.50982159  energy(sigma->0) =     -598.50982159


--------------------------------------------------------------------------------------------------------




--------------------------------------- Iteration      1(   9)  ---------------------------------------


    POTLOK:  cpu time    0.3960: real time    0.4058
    SETDIJ:  cpu time    0.4190: real time    0.4211
     EDDAV:  cpu time   57.5006: real time   57.5002
       DOS:  cpu time    0.0006: real time    0.0006
    CHARGE:  cpu time    3.6163: real time    3.6163
    MIXING:  cpu time    0.0276: real time    0.0275
    --------------------------------------------
      LOOP:  cpu time   61.9600: real time   61.9715

 eigenvalue-minimisations  :  5480
 total energy-change (2. order) : 0.5342948E+00  (-0.2717632E+00)
 number of electron     640.0000007 magnetization 
 augmentation part      141.4848544 magnetization 

 Broyden mixing:
  rms(total) = 0.21410E+00    rms(broyden)= 0.21409E+00
  rms(prec ) = 0.23274E+00
  weight for this iteration     100.00

 eigenvalues of (default mixing * dielectric matrix)
  average eigenvalue GAMMA=   1.2532
  2.1119  1.1254  0.8877  0.8877

 Free energy of the ion-electron system (eV)
  ---------------------------------------------------
  alpha Z        PSCENC =       871.83850952
  Ewald energy   TEWEN  =    285841.98410302
  -Hartree energ DENC   =   -340887.32961457
  -exchange      EXHF   =         0.00000000
  -V(xc)+E(xc)   XCENC  =      3049.65515524
  PAW double counting   =     66398.62324201   -66391.80448240
  entropy T*S    EENTRO =        -0.00000000
  eigenvalues    EBANDS =    -13688.37836531
  atomic energy  EATOM  =     64207.43592568
  Solvation  Ediel_sol  =         0.00000000
  ---------------------------------------------------
  free energy    TOTEN  =      -597.97552681 eV

  energy without entropy =     -597.97552681  energy(sigma->0) =     -597.97552681


--------------------------------------------------------------------------------------------------------




--------------------------------------- Iteration      1(  10)  ---------------------------------------


    POTLOK:  cpu time    0.3772: real time    0.3861
    SETDIJ:  cpu time    0.4181: real time    0.4181
     EDDAV:  cpu time   61.0499: real time   61.0497
       DOS:  cpu time    0.0006: real time    0.0006
    CHARGE:  cpu time    3.6700: real time    3.6700
    MIXING:  cpu time    0.0253: real time    0.0254
    --------------------------------------------
      LOOP:  cpu time   65.5411: real time   65.5498

 eigenvalue-minimisations  :  5896
 total energy-change (2. order) : 0.4017271E-01  (-0.2712769E-01)
 number of electron     640.0000007 magnetization 
 augmentation part      141.3190156 magnetization 

 Broyden mixing:
  rms(total) = 0.11702E+00    rms(broyden)= 0.11701E+00
  rms(prec ) = 0.14178E+00
  weight for this iteration     100.00

 eigenvalues of (default mixing * dielectric matrix)
  average eigenvalue GAMMA=   1.4560
  2.4046  2.4046  0.9054  0.9054  0.6601

 Free energy of the ion-electron system (eV)
  ---------------------------------------------------
  alpha Z        PSCENC =       871.83850952
  Ewald energy   TEWEN  =    285841.98410302
  -Hartree energ DENC   =   -340951.97294311
  -exchange      EXHF   =         0.00000000
  -V(xc)+E(xc)   XCENC  =      3051.06331762
  PAW double counting   =     65812.20032110   -65804.25480587
  entropy T*S    EENTRO =        -0.00000000
  eigenvalues    EBANDS =    -13626.22978206
  atomic energy  EATOM  =     64207.43592568
  Solvation  Ediel_sol  =         0.00000000
  ---------------------------------------------------
  free energy    TOTEN  =      -597.93535410 eV

  energy without entropy =     -597.93535410  energy(sigma->0) =     -597.93535410


--------------------------------------------------------------------------------------------------------




--------------------------------------- Iteration      1(  11)  ---------------------------------------


    POTLOK:  cpu time    0.3601: real time    0.3703
    SETDIJ:  cpu time    0.4200: real time    0.4200
     EDDAV:  cpu time   57.9383: real time   57.9423
       DOS:  cpu time    0.0006: real time    0.0005
    CHARGE:  cpu time    3.6734: real time    3.6734
    MIXING:  cpu time    0.0262: real time    0.0262
    --------------------------------------------
      LOOP:  cpu time   62.4185: real time   62.4327

 eigenvalue-minimisations  :  5512
 total energy-change (2. order) : 0.1311373E+00  (-0.1746300E-01)
 number of electron     640.0000007 magnetization 
 augmentation part      141.1974471 magnetization 

 Broyden mixing:
  rms(total) = 0.83556E-01    rms(broyden)= 0.83553E-01
  rms(prec ) = 0.96844E-01
  weight for this iteration     100.00

 eigenvalues of (default mixing * dielectric matrix)
  average eigenvalue GAMMA=   1.3874
  2.6545  2.1298  1.0011  0.9190  0.9190  0.7011

 Free energy of the ion-electron system (eV)
  ---------------------------------------------------
  alpha Z        PSCENC =       871.83850952
  Ewald energy   TEWEN  =    285841.98410302
  -Hartree energ DENC   =   -341128.40447821
  -exchange      EXHF   =         0.00000000
  -V(xc)+E(xc)   XCENC  =      3052.84075445
  PAW double counting   =     65710.33602671   -65702.39168452
  entropy T*S    EENTRO =        -0.00000000
  eigenvalues    EBANDS =    -13451.44337346
  atomic energy  EATOM  =     64207.43592568
  Solvation  Ediel_sol  =         0.00000000
  ---------------------------------------------------
  free energy    TOTEN  =      -597.80421681 eV

  energy without entropy =     -597.80421681  energy(sigma->0) =     -597.80421681


--------------------------------------------------------------------------------------------------------




--------------------------------------- Iteration      1(  12)  ---------------------------------------


    POTLOK:  cpu time    0.3624: real time    0.3720
    SETDIJ:  cpu time    0.4194: real time    0.4194
     EDDAV:  cpu time   61.0719: real time   61.0766
       DOS:  cpu time    0.0005: real time    0.0005
    CHARGE:  cpu time    3.6438: real time    3.6438
    MIXING:  cpu time    0.0256: real time    0.0256
    --------------------------------------------
      LOOP:  cpu time   65.5238: real time   65.5380

 eigenvalue-minimisations  :  5880
 total energy-change (2. order) : 0.2624708E-01  (-0.5343384E-02)
 number of electron     640.0000007 magnetization 
 augmentation part      141.2866488 magnetization 

 Broyden mixing:
  rms(total) = 0.33094E-01    rms(broyden)= 0.33093E-01
  rms(prec ) = 0.50016E-01
  weight for this iteration     100.00

 eigenvalues of (default mixing * dielectric matrix)
  average eigenvalue GAMMA=   1.4222
  2.5738  2.5738  1.1637  1.1637  0.9057  0.9057  0.6693

 Free energy of the ion-electron system (eV)
  ---------------------------------------------------
  alpha Z        PSCENC =       871.83850952
  Ewald energy   TEWEN  =    285841.98410302
  -Hartree energ DENC   =   -341180.18173218
  -exchange      EXHF   =         0.00000000
  -V(xc)+E(xc)   XCENC  =      3052.81394357
  PAW double counting   =     65914.83164210   -65907.37726025
  entropy T*S    EENTRO =        -0.00000000
  eigenvalues    EBANDS =    -13399.12310119
  atomic energy  EATOM  =     64207.43592568
  Solvation  Ediel_sol  =         0.00000000
  ---------------------------------------------------
  free energy    TOTEN  =      -597.77796973 eV

  energy without entropy =     -597.77796973  energy(sigma->0) =     -597.77796973


--------------------------------------------------------------------------------------------------------




--------------------------------------- Iteration      1(  13)  ---------------------------------------


    POTLOK:  cpu time    0.3817: real time    0.3926
    SETDIJ:  cpu time    0.4195: real time    0.4196
     EDDAV:  cpu time   58.9276: real time   58.9278
       DOS:  cpu time    0.0006: real time    0.0006
    CHARGE:  cpu time    3.6422: real time    3.6422
    MIXING:  cpu time    0.0239: real time    0.0239
    --------------------------------------------
      LOOP:  cpu time   63.3955: real time   63.4066

 eigenvalue-minimisations  :  5616
 total energy-change (2. order) : 0.7702230E-02  (-0.3761661E-02)
 number of electron     640.0000007 magnetization 
 augmentation part      141.2205246 magnetization 

 Broyden mixing:
  rms(total) = 0.32355E-01    rms(broyden)= 0.32354E-01
  rms(prec ) = 0.42740E-01
  weight for this iteration     100.00

 eigenvalues of (default mixing * dielectric matrix)
  average eigenvalue GAMMA=   1.4304
  2.9062  2.5843  1.5897  1.0475  0.9187  0.9187  0.8055  0.6723

 Free energy of the ion-electron system (eV)
  ---------------------------------------------------
  alpha Z        PSCENC =       871.83850952
  Ewald energy   TEWEN  =    285841.98410302
  -Hartree energ DENC   =   -341248.29484152
  -exchange      EXHF   =         0.00000000
  -V(xc)+E(xc)   XCENC  =      3053.01915497
  PAW double counting   =     65835.67643256   -65827.78806206
  entropy T*S    EENTRO =        -0.00000000
  eigenvalues    EBANDS =    -13331.64148966
  atomic energy  EATOM  =     64207.43592568
  Solvation  Ediel_sol  =         0.00000000
  ---------------------------------------------------
  free energy    TOTEN  =      -597.77026750 eV

  energy without entropy =     -597.77026750  energy(sigma->0) =     -597.77026750


--------------------------------------------------------------------------------------------------------




--------------------------------------- Iteration      1(  14)  ---------------------------------------


    POTLOK:  cpu time    0.3963: real time    0.4055
    SETDIJ:  cpu time    0.4190: real time    0.4190
     EDDAV:  cpu time   59.1680: real time   59.1793
       DOS:  cpu time    0.0006: real time    0.0006
    CHARGE:  cpu time    3.6067: real time    3.6116
    MIXING:  cpu time    0.0254: real time    0.0253
    --------------------------------------------
      LOOP:  cpu time   63.6159: real time   63.6413

 eigenvalue-minimisations  :  5664
 total energy-change (2. order) : 0.2425122E-02  (-0.1654974E-02)
 number of electron     640.0000007 magnetization 
 augmentation part      141.2614588 magnetization 

 Broyden mixing:
  rms(total) = 0.14100E-01    rms(broyden)= 0.14099E-01
  rms(prec ) = 0.22250E-01
  weight for this iteration     100.00

 eigenvalues of (default mixing * dielectric matrix)
  average eigenvalue GAMMA=   1.5033
  3.0425  3.0425  1.5772  1.5772  0.9734  0.9734  0.8392  0.8392  0.6655

 Free energy of the ion-electron system (eV)
  ---------------------------------------------------
  alpha Z        PSCENC =       871.83850952
  Ewald energy   TEWEN  =    285841.98410302
  -Hartree energ DENC   =   -341306.95766818
  -exchange      EXHF   =         0.00000000
  -V(xc)+E(xc)   XCENC  =      3053.11345466
  PAW double counting   =     65870.20946531   -65862.48306075
  entropy T*S    EENTRO =        -0.00000000
  eigenvalues    EBANDS =    -13272.90857164
  atomic energy  EATOM  =     64207.43592568
  Solvation  Ediel_sol  =         0.00000000
  ---------------------------------------------------
  free energy    TOTEN  =      -597.76784238 eV

  energy without entropy =     -597.76784238  energy(sigma->0) =     -597.76784238


--------------------------------------------------------------------------------------------------------




--------------------------------------- Iteration      1(  15)  ---------------------------------------


    POTLOK:  cpu time    0.4264: real time    0.4381
    SETDIJ:  cpu time    0.4529: real time    0.4529
     EDDAV:  cpu time   60.8544: real time   60.8592
       DOS:  cpu time    0.0006: real time    0.0006
    CHARGE:  cpu time    3.6636: real time    3.6636
    MIXING:  cpu time    0.0289: real time    0.0289
    --------------------------------------------
      LOOP:  cpu time   65.4266: real time   65.4432

 eigenvalue-minimisations  :  5864
 total energy-change (2. order) :-0.6100688E-02  (-0.7293470E-03)
 number of electron     640.0000007 magnetization 
 augmentation part      141.2674429 magnetization 

 Broyden mixing:
  rms(total) = 0.98803E-02    rms(broyden)= 0.98783E-02
  rms(prec ) = 0.14338E-01
  weight for this iteration     100.00

 eigenvalues of (default mixing * dielectric matrix)
  average eigenvalue GAMMA=   1.5180
  4.1217  2.7265  1.9490  1.1372  1.0868  1.0868  0.8412  0.8412  0.7431  0.6462

 Free energy of the ion-electron system (eV)
  ---------------------------------------------------
  alpha Z        PSCENC =       871.83850952
  Ewald energy   TEWEN  =    285841.98410302
  -Hartree energ DENC   =   -341353.97814857
  -exchange      EXHF   =         0.00000000
  -V(xc)+E(xc)   XCENC  =      3053.22739694
  PAW double counting   =     65835.91861578   -65828.17271056
  entropy T*S    EENTRO =        -0.00000000
  eigenvalues    EBANDS =    -13226.02763489
  atomic energy  EATOM  =     64207.43592568
  Solvation  Ediel_sol  =         0.00000000
  ---------------------------------------------------
  free energy    TOTEN  =      -597.77394306 eV

  energy without entropy =     -597.77394306  energy(sigma->0) =     -597.77394306


--------------------------------------------------------------------------------------------------------




--------------------------------------- Iteration      1(  16)  ---------------------------------------


    POTLOK:  cpu time    0.3655: real time    0.3765
    SETDIJ:  cpu time    0.4195: real time    0.4195
     EDDAV:  cpu time   58.5167: real time   58.5172
       DOS:  cpu time    0.0006: real time    0.0006
    CHARGE:  cpu time    3.6209: real time    3.6210
    MIXING:  cpu time    0.0275: real time    0.0275
    --------------------------------------------
      LOOP:  cpu time   62.9508: real time   62.9623

 eigenvalue-minimisations  :  5600
 total energy-change (2. order) :-0.3353568E-02  (-0.1800235E-03)
 number of electron     640.0000007 magnetization 
 augmentation part      141.2622570 magnetization 

 Broyden mixing:
  rms(total) = 0.74313E-02    rms(broyden)= 0.74310E-02
  rms(prec ) = 0.10368E-01
  weight for this iteration     100.00

 eigenvalues of (default mixing * dielectric matrix)
  average eigenvalue GAMMA=   1.5474
  4.4753  2.6834  2.2641  1.2835  1.2835  0.9812  0.9812  0.8673  0.8673  0.6919
  0.6429

 Free energy of the ion-electron system (eV)
  ---------------------------------------------------
  alpha Z        PSCENC =       871.83850952
  Ewald energy   TEWEN  =    285841.98410302
  -Hartree energ DENC   =   -341378.51484540
  -exchange      EXHF   =         0.00000000
  -V(xc)+E(xc)   XCENC  =      3053.27644391
  PAW double counting   =     65845.84770876   -65838.14133726
  entropy T*S    EENTRO =        -0.00000000
  eigenvalues    EBANDS =    -13201.50380486
  atomic energy  EATOM  =     64207.43592568
  Solvation  Ediel_sol  =         0.00000000
  ---------------------------------------------------
  free energy    TOTEN  =      -597.77729663 eV

  energy without entropy =     -597.77729663  energy(sigma->0) =     -597.77729663


--------------------------------------------------------------------------------------------------------




--------------------------------------- Iteration      1(  17)  ---------------------------------------


    POTLOK:  cpu time    0.4426: real time    0.4549
    SETDIJ:  cpu time    0.4527: real time    0.4527
     EDDAV:  cpu time   59.3203: real time   59.3223
       DOS:  cpu time    0.0007: real time    0.0007
    CHARGE:  cpu time    3.6760: real time    3.6760
    MIXING:  cpu time    0.0270: real time    0.0270
    --------------------------------------------
      LOOP:  cpu time   63.9194: real time   63.9336

 eigenvalue-minimisations  :  5680
 total energy-change (2. order) :-0.5157024E-02  (-0.1536687E-03)
 number of electron     640.0000007 magnetization 
 augmentation part      141.2657132 magnetization 

 Broyden mixing:
  rms(total) = 0.78851E-02    rms(broyden)= 0.78840E-02
  rms(prec ) = 0.93151E-02
  weight for this iteration     100.00

 eigenvalues of (default mixing * dielectric matrix)
  average eigenvalue GAMMA=   1.6671
  5.7521  3.0007  2.1356  2.1356  1.0361  1.0361  0.9613  0.9613  0.8485  0.8485
  0.6815  0.6074

 Free energy of the ion-electron system (eV)
  ---------------------------------------------------
  alpha Z        PSCENC =       871.83850952
  Ewald energy   TEWEN  =    285841.98410302
  -Hartree energ DENC   =   -341396.06683219
  -exchange      EXHF   =         0.00000000
  -V(xc)+E(xc)   XCENC  =      3053.30343828
  PAW double counting   =     65854.60861434   -65846.97508199
  entropy T*S    EENTRO =        -0.00000000
  eigenvalues    EBANDS =    -13183.91113031
  atomic energy  EATOM  =     64207.43592568
  Solvation  Ediel_sol  =         0.00000000
  ---------------------------------------------------
  free energy    TOTEN  =      -597.78245366 eV

  energy without entropy =     -597.78245366  energy(sigma->0) =     -597.78245366


--------------------------------------------------------------------------------------------------------




--------------------------------------- Iteration      1(  18)  ---------------------------------------


    POTLOK:  cpu time    0.4067: real time    0.4171
    SETDIJ:  cpu time    0.4188: real time    0.4188
     EDDAV:  cpu time   56.2094: real time   56.2092
       DOS:  cpu time    0.0007: real time    0.0007
    CHARGE:  cpu time    3.6732: real time    3.6732
    MIXING:  cpu time    0.0291: real time    0.0291
    --------------------------------------------
      LOOP:  cpu time   60.7379: real time   60.7481

 eigenvalue-minimisations  :  5328
 total energy-change (2. order) :-0.3273579E-02  (-0.8498220E-04)
 number of electron     640.0000007 magnetization 
 augmentation part      141.2548386 magnetization 

 Broyden mixing:
  rms(total) = 0.43578E-02    rms(broyden)= 0.43575E-02
  rms(prec ) = 0.52390E-02
  weight for this iteration     100.00

 eigenvalues of (default mixing * dielectric matrix)
  average eigenvalue GAMMA=   1.6356
  6.2183  2.8199  2.5326  1.8634  0.9765  0.9765  0.9998  0.9998  0.8918  0.8918
  0.7735  0.6591  0.6591

 Free energy of the ion-electron system (eV)
  ---------------------------------------------------
  alpha Z        PSCENC =       871.83850952
  Ewald energy   TEWEN  =    285841.98410302
  -Hartree energ DENC   =   -341411.22963972
  -exchange      EXHF   =         0.00000000
  -V(xc)+E(xc)   XCENC  =      3053.35371575
  PAW double counting   =     65836.46927362   -65828.80628004
  entropy T*S    EENTRO =        -0.00000000
  eigenvalues    EBANDS =    -13168.83133507
  atomic energy  EATOM  =     64207.43592568
  Solvation  Ediel_sol  =         0.00000000
  ---------------------------------------------------
  free energy    TOTEN  =      -597.78572723 eV

  energy without entropy =     -597.78572723  energy(sigma->0) =     -597.78572723


--------------------------------------------------------------------------------------------------------




--------------------------------------- Iteration      1(  19)  ---------------------------------------


    POTLOK:  cpu time    0.4373: real time    0.4470
    SETDIJ:  cpu time    0.4396: real time    0.4396
     EDDAV:  cpu time   59.0530: real time   59.0576
       DOS:  cpu time    0.0006: real time    0.0006
    CHARGE:  cpu time    3.6831: real time    3.6831
    MIXING:  cpu time    0.0270: real time    0.0270
    --------------------------------------------
      LOOP:  cpu time   63.6407: real time   63.6549

 eigenvalue-minimisations  :  5656
 total energy-change (2. order) :-0.1332601E-02  (-0.2349758E-04)
 number of electron     640.0000007 magnetization 
 augmentation part      141.2567813 magnetization 

 Broyden mixing:
  rms(total) = 0.19399E-02    rms(broyden)= 0.19385E-02
  rms(prec ) = 0.30509E-02
  weight for this iteration     100.00

 eigenvalues of (default mixing * dielectric matrix)
  average eigenvalue GAMMA=   1.6711
  6.7058  3.0951  2.4530  1.7142  1.7142  1.0171  1.0171  0.9851  0.9851  0.8428
  0.8428  0.6649  0.6793  0.6793

 Free energy of the ion-electron system (eV)
  ---------------------------------------------------
  alpha Z        PSCENC =       871.83850952
  Ewald energy   TEWEN  =    285841.98410302
  -Hartree energ DENC   =   -341414.11946723
  -exchange      EXHF   =         0.00000000
  -V(xc)+E(xc)   XCENC  =      3053.35090540
  PAW double counting   =     65842.50072443   -65834.85539557
  entropy T*S    EENTRO =        -0.00000000
  eigenvalues    EBANDS =    -13165.92236509
  atomic energy  EATOM  =     64207.43592568
  Solvation  Ediel_sol  =         0.00000000
  ---------------------------------------------------
  free energy    TOTEN  =      -597.78705984 eV

  energy without entropy =     -597.78705984  energy(sigma->0) =     -597.78705984


--------------------------------------------------------------------------------------------------------




--------------------------------------- Iteration      1(  20)  ---------------------------------------


    POTLOK:  cpu time    0.4170: real time    0.4270
    SETDIJ:  cpu time    0.4701: real time    0.4701
     EDDAV:  cpu time   55.9636: real time   55.9640
       DOS:  cpu time    0.0007: real time    0.0007
    CHARGE:  cpu time    3.6626: real time    3.6626
    MIXING:  cpu time    0.0278: real time    0.0278
    --------------------------------------------
      LOOP:  cpu time   60.5418: real time   60.5522

 eigenvalue-minimisations  :  5288
 total energy-change (2. order) :-0.3424639E-02  (-0.1558365E-04)
 number of electron     640.0000007 magnetization 
 augmentation part      141.2590020 magnetization 

 Broyden mixing:
  rms(total) = 0.19904E-02    rms(broyden)= 0.19898E-02
  rms(prec ) = 0.24807E-02
  weight for this iteration     100.00

 eigenvalues of (default mixing * dielectric matrix)
  average eigenvalue GAMMA=   1.7523
  7.2390  3.7348  2.4804  2.4804  1.7387  0.9644  0.9644  1.0465  0.9710  0.9710
  0.8350  0.8350  0.6257  0.7127  0.6848

 Free energy of the ion-electron system (eV)
  ---------------------------------------------------
  alpha Z        PSCENC =       871.83850952
  Ewald energy   TEWEN  =    285841.98410302
  -Hartree energ DENC   =   -341418.28975106
  -exchange      EXHF   =         0.00000000
  -V(xc)+E(xc)   XCENC  =      3053.33825970
  PAW double counting   =     65841.02942512   -65833.37517396
  entropy T*S    EENTRO =        -0.00000000
  eigenvalues    EBANDS =    -13161.75178249
  atomic energy  EATOM  =     64207.43592568
  Solvation  Ediel_sol  =         0.00000000
  ---------------------------------------------------
  free energy    TOTEN  =      -597.79048447 eV

  energy without entropy =     -597.79048447  energy(sigma->0) =     -597.79048447


--------------------------------------------------------------------------------------------------------




--------------------------------------- Iteration      1(  21)  ---------------------------------------


    POTLOK:  cpu time    0.4036: real time    0.4132
    SETDIJ:  cpu time    0.4188: real time    0.4188
     EDDAV:  cpu time   48.7572: real time   48.7591
       DOS:  cpu time    0.0007: real time    0.0007
    CHARGE:  cpu time    3.6652: real time    3.6652
    MIXING:  cpu time    0.0273: real time    0.0273
    --------------------------------------------
      LOOP:  cpu time   53.2726: real time   53.2841

 eigenvalue-minimisations  :  4440
 total energy-change (2. order) :-0.2260122E-02  (-0.1213376E-04)
 number of electron     640.0000007 magnetization 
[...]
    -6.564311700 11.369721380  0.000000000     0.000000000  0.087952903  0.000000000
     0.000000000  0.000000000 26.828094240     0.000000000  0.000000000  0.037274358

  length of vectors
    13.128623400 13.128623399 26.828094240     0.087952903  0.087952903  0.037274358


 FORCES acting on ions
    electron-ion (+dipol)            ewald-force                    non-local-force                 convergence-correction
 -----------------------------------------------------------------------------------------------
   -.273E+02 -.115E+02 0.125E+04   0.263E+02 0.108E+02 -.124E+04   0.701E+00 0.552E+00 -.592E+01   -.688E-05 -.748E-04 0.237E-04
   0.440E+02 -.307E+02 0.136E+04   -.438E+02 0.306E+02 -.135E+04   -.565E+00 0.422E+00 -.683E+01   0.566E-04 0.273E-04 0.309E-04
   0.225E+02 0.868E+01 0.131E+04   -.225E+02 -.863E+01 -.130E+04   0.583E-01 0.403E-01 -.654E+01   -.270E-04 0.592E-04 0.349E-04
   0.457E+02 0.415E+02 0.120E+04   -.465E+02 -.426E+02 -.119E+04   -.426E+00 0.147E+00 -.581E+01   -.101E-03 -.721E-04 -.743E-05
   -.217E+02 -.707E+02 0.127E+04   0.220E+02 0.719E+02 -.126E+04   0.192E+00 0.628E-01 -.646E+01   -.517E-04 0.442E-04 -.300E-04
   -.295E+02 -.142E+02 0.128E+04   0.302E+02 0.137E+02 -.127E+04   -.203E+00 0.728E+00 -.541E+01   -.482E-04 0.189E-05 0.152E-04
   0.349E+00 0.330E+02 0.125E+04   -.117E+01 -.339E+02 -.125E+04   0.576E+00 0.670E-01 -.556E+01   -.569E-04 -.948E-04 -.168E-04
   0.135E+02 -.132E+02 0.125E+04   -.128E+02 0.121E+02 -.125E+04   -.252E+00 0.642E+00 -.624E+01   0.291E-04 -.550E-04 -.368E-04
   0.107E+02 -.183E+02 0.124E+04   -.100E+02 0.188E+02 -.124E+04   -.453E+00 -.371E-01 -.534E+01   0.855E-04 0.259E-05 0.934E-05
   -.170E+01 0.266E+01 0.129E+04   0.813E+00 -.235E+01 -.129E+04   0.319E+00 -.297E+00 -.568E+01   -.225E-04 -.233E-04 -.343E-04
   -.666E+02 -.183E+02 0.120E+04   0.671E+02 0.181E+02 -.119E+04   0.508E+00 0.570E+00 -.530E+01   0.134E-04 0.177E-04 -.922E-04
   -.473E+02 0.126E+02 0.122E+04   0.479E+02 -.112E+02 -.121E+04   0.314E-01 -.676E+00 -.541E+01   0.986E-04 0.127E-03 -.301E-04
   0.154E+02 0.159E+02 0.128E+04   -.163E+02 -.155E+02 -.127E+04   0.234E+00 -.264E+00 -.566E+01   -.351E-04 -.108E-03 0.587E-04
   0.654E+01 -.361E+02 0.130E+04   -.673E+01 0.358E+02 -.129E+04   0.109E-01 0.547E+00 -.582E+01   0.261E-04 -.714E-04 0.169E-05
   -.587E+01 0.244E+02 0.128E+04   0.554E+01 -.245E+02 -.127E+04   0.284E+00 -.574E+00 -.524E+01   0.436E-04 0.880E-04 -.829E-06
   0.775E+01 0.213E+02 0.123E+04   -.783E+01 -.217E+02 -.122E+04   0.114E+00 0.254E+00 -.562E+01   -.168E-04 0.997E-04 0.350E-04
   0.299E+02 -.114E+02 -.137E+04   -.296E+02 0.113E+02 0.136E+04   -.861E+00 0.400E+00 0.506E+01   -.118E-03 0.213E-04 -.436E-04
   -.451E+02 -.179E+02 -.122E+04   0.448E+02 0.184E+02 0.122E+04   0.491E+00 -.335E-01 0.519E+01   0.171E-04 0.308E-04 -.651E-04
   0.277E+02 0.351E+02 -.124E+04   -.283E+02 -.344E+02 0.124E+04   -.208E+00 -.873E+00 0.545E+01   0.284E-04 0.257E-04 -.695E-04
   0.965E+01 -.454E+01 -.117E+04   -.975E+01 0.471E+01 0.117E+04   0.411E-01 0.402E+00 0.610E+01   -.438E-04 -.140E-03 -.414E-04
   0.448E+02 -.208E+02 -.132E+04   -.448E+02 0.203E+02 0.131E+04   -.617E+00 -.113E+00 0.514E+01   0.306E-04 0.159E-05 0.626E-05
   -.209E+02 0.215E+02 -.127E+04   0.207E+02 -.215E+02 0.126E+04   0.370E+00 -.488E+00 0.706E+01   -.417E-04 -.205E-06 -.338E-05
   -.476E+02 -.185E+01 -.124E+04   0.476E+02 0.118E+01 0.123E+04   0.275E-01 0.105E+00 0.640E+01   -.505E-04 -.111E-03 0.182E-04
   -.929E+01 0.275E+02 -.136E+04   0.802E+01 -.273E+02 0.135E+04   0.369E+00 -.449E+00 0.581E+01   -.831E-04 0.728E-05 0.639E-05
   0.168E+02 -.135E+02 -.120E+04   -.165E+02 0.134E+02 0.119E+04   -.556E+00 -.831E-01 0.553E+01   0.143E-03 0.312E-04 -.114E-03
   -.215E+01 0.131E+02 -.126E+04   0.247E+01 -.119E+02 0.125E+04   0.321E+00 -.769E+00 0.669E+01   0.236E-04 -.249E-04 -.917E-05
   0.360E+02 -.629E+02 -.123E+04   -.356E+02 0.625E+02 0.122E+04   -.336E+00 0.105E+01 0.542E+01   -.108E-04 -.113E-05 0.378E-04
   -.563E+01 0.195E+02 -.127E+04   0.636E+01 -.203E+02 0.127E+04   -.696E+00 0.721E+00 0.496E+01   0.593E-04 0.121E-03 -.330E-04
   -.374E+01 0.112E+02 -.124E+04   0.446E+01 -.130E+02 0.123E+04   -.507E+00 0.889E+00 0.634E+01   -.315E-04 -.770E-04 -.822E-04
   0.261E+02 -.261E+02 -.130E+04   -.266E+02 0.266E+02 0.129E+04   -.767E-02 -.459E+00 0.642E+01   -.234E-04 -.658E-04 -.293E-04
   0.114E+00 0.276E+01 -.126E+04   -.935E-01 -.233E+01 0.125E+04   0.303E+00 -.952E-01 0.521E+01   0.528E-04 0.786E-04 -.162E-04
   0.150E+02 0.222E+02 -.127E+04   -.146E+02 -.221E+02 0.126E+04   -.102E+00 -.755E-01 0.606E+01   0.372E-04 0.440E-04 -.784E-04
   0.402E+01 0.211E+02 -.155E+04   -.442E+01 -.226E+02 0.157E+04   0.200E+00 0.122E+01 -.151E+02   0.376E-05 -.188E-04 -.447E-04
   0.189E+02 -.118E+02 -.160E+04   -.189E+02 0.130E+02 0.161E+04   -.340E+00 -.107E+01 -.167E+02   0.193E-05 -.120E-04 -.544E-04
   0.140E+02 -.666E+01 -.156E+04   -.144E+02 0.794E+01 0.158E+04   0.291E+00 -.112E+01 -.152E+02   -.770E-05 -.621E-05 -.338E-04
   -.303E+00 0.273E+02 -.159E+04   0.255E+01 -.307E+02 0.161E+04   -.245E+01 0.359E+01 -.158E+02   -.292E-04 0.193E-04 -.625E-04
   -.188E+02 -.498E+02 -.161E+04   0.202E+02 0.534E+02 0.163E+04   -.105E+01 -.328E+01 -.163E+02   -.198E-04 -.364E-05 -.638E-04
   -.183E+02 -.768E+01 -.162E+04   0.181E+02 0.826E+01 0.164E+04   0.118E+00 -.728E+00 -.178E+02   0.147E-05 0.335E-05 -.511E-04
   -.351E+02 -.270E+01 -.160E+04   0.368E+02 0.295E+01 0.162E+04   -.105E+01 -.173E+00 -.168E+02   -.553E-05 -.230E-05 -.593E-04
   0.293E+02 0.141E+02 -.156E+04   -.326E+02 -.151E+02 0.158E+04   0.336E+01 0.907E+00 -.143E+02   0.224E-04 -.881E-05 -.239E-04
   -.181E+02 -.416E+02 -.161E+04   0.217E+02 0.426E+02 0.163E+04   -.330E+01 -.378E+00 -.171E+02   -.144E-04 0.151E-05 -.569E-04
   0.161E+02 0.364E+02 -.159E+04   -.166E+02 -.389E+02 0.161E+04   0.383E+00 0.156E+01 -.168E+02   -.913E-05 0.892E-06 -.175E-04
   0.109E+01 0.362E+02 -.161E+04   -.120E+01 -.398E+02 0.163E+04   0.227E-01 0.324E+01 -.169E+02   0.104E-04 0.137E-05 -.324E-04
   -.290E+02 0.182E+02 -.157E+04   0.308E+02 -.172E+02 0.159E+04   -.136E+01 -.135E+01 -.159E+02   0.120E-04 -.738E-05 -.605E-04
   -.169E+02 -.658E+01 -.158E+04   0.176E+02 0.630E+01 0.160E+04   -.166E+00 0.579E+00 -.166E+02   0.138E-04 -.234E-05 -.238E-04
   -.797E+00 0.124E+02 -.160E+04   0.210E+00 -.138E+02 0.162E+04   0.820E+00 0.153E+01 -.167E+02   0.136E-04 -.127E-05 -.473E-04
   0.209E+02 -.278E+02 -.158E+04   -.220E+02 0.296E+02 0.160E+04   0.658E+00 -.156E+01 -.164E+02   0.293E-05 -.802E-05 -.593E-04
   -.112E+02 0.501E+01 -.158E+04   0.124E+02 -.370E+01 0.159E+04   -.132E+01 -.163E+01 -.155E+02   -.146E-04 0.176E-04 -.526E-04
   0.101E+02 -.234E+01 0.160E+04   -.121E+02 0.142E+01 -.161E+04   0.204E+01 0.111E+01 0.180E+02   -.249E-04 -.782E-05 -.137E-04
   0.230E+01 0.164E+02 0.161E+04   -.280E+01 -.180E+02 -.163E+04   0.217E+00 0.130E+01 0.170E+02   -.186E-05 -.766E-06 0.989E-05
   0.261E+02 0.119E+02 0.160E+04   -.261E+02 -.124E+02 -.161E+04   -.451E+00 0.291E+00 0.159E+02   0.140E-04 0.489E-05 0.699E-05
   0.115E+02 0.223E+02 0.161E+04   -.122E+02 -.237E+02 -.163E+04   0.728E+00 0.144E+01 0.167E+02   -.706E-05 -.557E-05 0.633E-05
   0.680E+01 0.416E+01 0.158E+04   -.631E+01 -.403E+01 -.160E+04   -.725E+00 -.746E+00 0.168E+02   -.725E-05 -.152E-04 0.342E-05
   -.910E+01 0.301E+02 0.159E+04   0.949E+01 -.317E+02 -.161E+04   -.446E+00 0.109E+01 0.157E+02   -.998E-05 -.897E-05 -.104E-04
   0.138E+01 0.106E+02 0.159E+04   -.300E+01 -.119E+02 -.160E+04   0.150E+01 0.102E+01 0.169E+02   -.143E-04 0.158E-05 -.280E-04
   0.948E+01 -.215E+02 0.156E+04   -.104E+02 0.231E+02 -.157E+04   0.714E+00 -.134E+01 0.159E+02   -.437E-05 0.332E-06 -.749E-06
   -.102E+02 0.843E+00 0.159E+04   0.120E+02 -.103E+00 -.161E+04   -.202E+01 -.646E+00 0.160E+02   0.260E-04 -.138E-04 0.814E-05
   0.179E+02 -.835E+01 0.160E+04   -.183E+02 0.741E+01 -.162E+04   0.109E+00 0.118E+01 0.171E+02   0.103E-04 -.453E-05 -.352E-05
   0.928E+01 -.774E+01 0.158E+04   -.109E+02 0.832E+01 -.160E+04   0.153E+01 -.630E+00 0.167E+02   -.661E-05 0.187E-04 -.666E-06
   -.103E+00 0.102E+02 0.159E+04   0.300E+00 -.105E+02 -.160E+04   -.598E+00 0.115E+00 0.170E+02   -.121E-05 0.124E-04 0.169E-05
   0.258E+01 0.239E+02 0.161E+04   -.293E+01 -.253E+02 -.163E+04   0.153E+00 0.122E+01 0.172E+02   0.203E-05 -.226E-04 0.443E-05
   -.739E+01 -.249E+02 0.161E+04   0.828E+01 0.246E+02 -.163E+04   -.827E+00 0.737E+00 0.164E+02   -.203E-05 -.752E-05 -.684E-05
   -.344E+01 -.106E+02 0.154E+04   0.223E+01 0.101E+02 -.156E+04   0.160E+01 0.847E+00 0.144E+02   0.533E-05 0.232E-04 0.490E-05
   -.153E+02 -.133E+02 0.157E+04   0.163E+02 0.164E+02 -.159E+04   -.898E+00 -.305E+01 0.164E+02   0.956E-05 0.219E-04 -.918E-05
   -.225E+02 0.876E+01 -.172E+02   0.222E+02 -.872E+01 0.173E+02   0.173E+01 -.266E+00 -.354E+00   -.579E-05 0.238E-05 -.515E-05
   -.842E+00 -.530E+01 0.211E+02   0.768E+00 0.549E+01 -.213E+02   0.437E+00 -.102E+01 0.592E+00   0.313E-05 -.151E-04 0.780E-05
   0.614E+00 -.672E+01 0.546E+01   -.720E+00 0.667E+01 -.531E+01   0.219E+00 0.309E+00 -.640E+00   0.664E-05 -.139E-05 0.829E-05
   0.246E+02 0.236E+02 0.369E+00   -.246E+02 -.235E+02 -.226E+00   -.882E+00 -.672E+00 -.120E+01   0.823E-06 0.101E-04 -.484E-05
   -.267E+02 -.134E+02 -.403E+02   0.266E+02 0.134E+02 0.409E+02   0.131E+01 0.431E+00 -.152E+01   -.185E-04 -.504E-05 -.113E-04
   -.252E+01 0.113E+02 0.271E+01   0.280E+01 -.112E+02 -.272E+01   -.115E+01 -.403E+00 -.663E-01   -.596E-05 0.233E-05 0.974E-05
   -.121E+02 -.133E+01 0.205E+02   0.118E+02 0.127E+01 -.207E+02   0.133E+01 0.340E+00 0.389E+00   0.258E-05 0.343E-05 0.674E-05
   -.486E+01 0.195E+01 -.781E+01   0.493E+01 -.200E+01 0.805E+01   -.740E-02 0.109E+00 -.138E+01   -.428E-05 -.835E-05 0.195E-05
   0.383E+01 -.644E+01 -.787E+01   -.389E+01 0.634E+01 0.788E+01   0.235E+00 0.465E+00 -.225E+00   0.146E-04 0.146E-05 -.206E-05
   0.147E+02 -.399E+01 -.614E+01   -.148E+02 0.401E+01 0.612E+01   0.146E+00 -.138E+00 -.260E+00   -.448E-05 0.109E-05 0.138E-04
   -.109E+02 -.802E+01 0.214E+00   0.109E+02 0.784E+01 -.243E+00   -.200E+00 0.139E+01 -.118E+00   -.135E-04 -.447E-05 0.232E-04
   -.213E+02 -.110E+02 -.231E+02   0.211E+02 0.108E+02 0.231E+02   0.135E+01 0.939E+00 0.900E-01   -.441E-05 -.375E-05 -.574E-05
   -.144E+01 0.219E+02 0.124E+02   0.134E+01 -.218E+02 -.126E+02   0.280E+00 -.888E+00 0.645E+00   0.912E-05 0.725E-05 -.158E-05
   0.736E+01 -.177E+02 0.175E+02   -.730E+01 0.176E+02 -.178E+02   -.328E+00 0.194E+00 0.110E+01   0.830E-05 -.116E-04 0.688E-05
   -.116E+02 -.134E+02 0.127E+02   0.115E+02 0.133E+02 -.127E+02   0.125E+00 0.356E+00 -.582E-01   0.255E-05 0.117E-05 0.159E-04
   0.179E+02 0.120E+02 -.417E+01   -.176E+02 -.121E+02 0.413E+01   -.118E+01 0.403E+00 0.226E+00   0.586E-05 0.124E-04 0.433E-06
 -----------------------------------------------------------------------------------------------
   -.959E-02 -.913E+01 -.116E+01   -.366E-12 -.167E-12 -.614E-11   0.141E-01 0.914E+01 0.116E+01   -.577E-04 -.129E-03 -.126E-02
 
 
 POSITION                                       TOTAL-FORCE (eV/Angst)
 -----------------------------------------------------------------------------------
      0.03732      1.91972     12.13290        -0.245615     -0.171520      0.413311
     -1.59909      4.72754     12.05119        -0.364444      0.356638      0.664251
     -3.31745      7.52221     12.10948         0.085589      0.096305      0.560412
     -4.85765     10.48476     12.21411        -1.234124     -1.031356     -0.412257
      3.23081      1.81029     12.11675         0.491596      1.281011      1.102046
      1.63347      4.72989     12.09046         0.577600      0.148159      0.338165
     -0.03208      7.64562     12.12579        -0.249223     -0.831787      0.584653
     -1.69239     10.45581     12.15527         0.408751     -0.493789      0.629093
      6.58045      1.80764     12.13226         0.208633      0.516135      0.358594
      5.00709      4.72277     12.08505        -0.564544      0.013325      0.185219
      3.20837      7.54488     12.17639         1.016825      0.319184     -0.286158
      1.59712     10.36480     12.17612         0.622566      0.760289     -0.001197
      9.90926      1.87095     12.12878        -0.696569      0.195022     -0.443852
      8.24309      4.62347     12.06503        -0.184683      0.240530      0.868734
      6.55241      7.66607     12.08779        -0.041129     -0.626298      0.514263
      4.91388     10.46061     12.17743         0.033558     -0.142878     -0.491298
      1.67657      0.88033     14.82916        -0.537934      0.251484     -0.762800
      0.02790      3.79490     14.68480         0.200967      0.521242     -0.616673
     -1.58851      6.61713     14.70102        -0.763967     -0.151006     -0.617187
     -3.27424      9.35427     14.56935        -0.058865      0.567978      1.916863
      4.92382      1.00032     14.79660        -0.571701     -0.681659     -0.897259
      3.24820      3.85805     14.67301         0.192937     -0.485173      0.120156
      1.60876      6.65346     14.63507         0.046839     -0.569677      0.703210
      0.01304      9.50783     14.79343        -0.900295     -0.216994     -0.792204
      8.21552      0.98287     14.65721        -0.261505     -0.144855     -0.451261
      6.49027      3.75086     14.69059         0.645341      0.347151     -0.428515
      4.95242      6.60465     14.68771         0.059263      0.606395     -0.459245
      3.31593      9.51013     14.72965         0.036850     -0.074122     -0.216477
     11.46344      1.07320     14.63917         0.218819     -0.847193      0.232494
      9.88441      3.81127     14.72919        -0.486539      0.061942     -0.926664
      8.17393      6.52152     14.73664         0.324057      0.332355     -0.741720
      6.54803      9.49027     14.68766         0.311829     -0.011914      0.164894
      0.03070      1.98241     15.74878        -0.203060     -0.239401      0.597962
     -1.53540      4.65432     15.85514        -0.402398      0.188131      0.044586
     -3.26671      7.46877     15.77074        -0.120621      0.154615      0.331512
     -4.89679     10.34450     15.85645        -0.202645      0.216904     -0.018437
      3.18502      1.81762     15.93353         0.392554      0.297378     -0.036952
      1.62916      4.81270     15.95312         0.007241     -0.149036     -0.766529
     -0.13129      7.56593     15.85928         0.684379      0.071997      0.146842
     -1.69032     10.42395     15.78902         0.121801     -0.045203      0.346100
      6.51639      1.72555     15.88318         0.327782      0.645490      0.138841
      4.93947      4.92485     15.85295        -0.073990     -0.978358      0.337631
      3.29995      7.78082     15.97458        -0.087567     -0.361222     -0.688440
      1.57898     10.52562     15.79343         0.407636     -0.372833      0.394581
      9.72716      1.88073     15.79323         0.511273      0.293391      0.383481
      8.13988      4.64591     15.91325         0.233318      0.086715     -0.348521
      6.67789      7.52726     15.85315        -0.453875      0.209241     -0.083160
      4.92718     10.56271     15.82941        -0.170244     -0.316977     -0.022801
      1.64181      0.90243     11.00159        -0.012865      0.198328     -0.103603
      0.07789      3.88112     10.93746        -0.282989     -0.371435     -0.127022
     -1.58261      6.73838     10.95688        -0.454681     -0.264974     -0.075781
     -3.28071      9.52421     10.92304        -0.045370     -0.004460      0.439468
      4.92046      1.06983     11.00951        -0.235952     -0.609687     -0.179996
      3.31293      3.97960     10.90557        -0.048115     -0.463941      0.254087
      1.65704      6.75112     10.98876        -0.114669     -0.293922     -0.061149
     -0.02617      9.47284     11.10903        -0.202332      0.266660     -0.786045
      8.21088      0.83110     10.97553        -0.168236      0.094404      0.125562
      6.63021      3.66175     10.91363        -0.300355      0.243897      0.289645
      4.95766      6.64841     10.92215        -0.090599     -0.050205      0.564019
      3.35398      9.50374     10.93449        -0.401975     -0.207246      0.676845
     11.59566      1.03102     10.94498        -0.191095     -0.197130      0.195535
      9.85287      3.65852     10.92125         0.061338      0.474702     -0.049069
      8.11342      6.53426     11.04555         0.391503      0.395362     -0.359939
      6.54120      9.50159     10.99844         0.114145      0.058508      0.107268
     12.99412      0.07550     13.46050         1.379853     -0.228170     -0.285758
     -1.63904      2.94836     13.35601         0.362677     -0.824386      0.428614
      9.81435      5.61793     13.42519         0.112324      0.251106     -0.489783
     -4.87786      8.55175     13.43784        -0.859318     -0.616405     -1.052120
     -3.41448     11.36237     13.50003         1.254817      0.351283     -0.970789
      1.73919      2.89324     13.38449        -0.872883     -0.302145     -0.071459
     -0.08517      5.66813     13.36025         1.065472      0.278159      0.283858
     -1.64274      8.50607     13.47372         0.060960      0.057617     -1.137927
     -0.06912     11.31165     13.43183         0.176706      0.360892     -0.205935
      4.90938      2.82154     13.47785         0.067587     -0.118957     -0.281733
      3.28465      5.62939     13.42405        -0.204546      1.205276     -0.147433
      1.55476      8.46638     13.44321         1.149903      0.759577      0.105979
      9.81020      0.05881     13.37722         0.178137     -0.831860      0.441175
      8.22799      2.79612     13.32595        -0.269607      0.064246      0.824233
      6.54097      5.61280     13.42350         0.054749      0.229401     -0.096669
      4.99893      8.52842     13.42682        -0.967052      0.259749      0.177634
 -----------------------------------------------------------------------------------
    total drift:                                0.004455      0.012116      0.001240


--------------------------------------------------------------------------------------------------------



  FREE ENERGIE OF THE ION-ELECTRON SYSTEM (eV)
  ---------------------------------------------------
  free  energy   TOTEN  =      -597.79469447 eV

  energy  without entropy=     -597.79469447  energy(sigma->0) =     -597.79469447
 


--------------------------------------------------------------------------------------------------------


    POTLOK:  cpu time    0.7853: real time    0.7874


--------------------------------------------------------------------------------------------------------


     LOOP+:  cpu time 1844.3355: real time 1844.7265
    4ORBIT:  cpu time    0.0000: real time    0.0000

 total amount of memory used by VASP MPI-rank0   234705. kBytes
=======================================================================

   base      :      30000. kBytes
   nonlr-proj:      19437. kBytes
   fftplans  :      66973. kBytes
   grid      :      38377. kBytes
   one-center:        108. kBytes
   wavefun   :      79810. kBytes
 
  
  
 General timing and accounting informations for this job:
 ========================================================
  
                  Total CPU time used (sec):     1876.070
                            User time (sec):     1869.755
                          System time (sec):        6.315
                         Elapsed time (sec):     1876.686
  
                   Maximum memory used (kb):      436540.
                   Average memory used (kb):           0.
  
                          Minor page faults:       279052
                          Major page faults:            0
                 Voluntary context switches:         2163
