<?xml version="1.0" encoding="ISO-8859-1"?>
<modeling>
 <generator>
  <i name="program" type="string">vasp </i>
  <i name="version" type="string">5.4.4.18Apr17-6-g9f103f2a35  </i>
  <i name="subversion" type="string">(build Oct 31 2019 15:01:46) complex            parallel </i>
  <i name="platform" type="string">LinuxIFC </i>
  <i name="date" type="string">2024 05 01 </i>
  <i name="time" type="string">23:56:38 </i>
 </generator>
 <incar>
  <i type="int" name="ISTART">     0</i>
  <i type="string" name="PREC">a</i>
  <i type="logical" name="ADDGRID"> T  </i>
  <i type="int" name="IBRION">    -1</i>
  <i name="EDIFF">      0.00000100</i>
  <i name="EDIFFG">     -0.01000000</i>
  <i type="int" name="NSW">     1</i>
  <i type="int" name="ISIF">     2</i>
  <i type="int" name="ISYM">     0</i>
  <i name="ENCUT">    600.00000000</i>
  <i name="POTIM">      1.00000000</i>
  <i type="string" name="LREAL">  Auto</i>
  <i type="int" name="ISMEAR">     0</i>
  <i name="SIGMA">      0.05000000</i>
  <i name="KSPACING">      0.30000000</i>
  <i type="logical" name="KGAMMA"> T  </i>
  <i type="logical" name="LWAVE"> F  </i>
  <i type="logical" name="LCHARG"> F  </i>
  <i type="logical" name="LSCALAPACK"> F  </i>
  <v type="int" name="KPOINT_BSE">    -1     0     0     0</v>
 </incar>
 <structure name="primitive_cell" >
  <crystal>
   <varray name="basis" >
    <v>      12.52607000       0.00000000       0.00000000 </v>
    <v>       0.00000000      12.52607000       0.00000000 </v>
    <v>       0.00000000       0.00000000      12.52607000 </v>
   </varray>
   <i name="volume">   1965.37081690 </i>
   <varray name="rec_basis" >
    <v>       0.07983350       0.00000000       0.00000000 </v>
    <v>       0.00000000       0.07983350       0.00000000 </v>
    <v>       0.00000000       0.00000000       0.07983350 </v>
   </varray>
  </crystal>
  <varray name="positions" >
   <v>      -0.01276831      -0.25872379      -0.10521136 </v>
   <v>       0.04819041      -0.20601485       0.01843350 </v>
   <v>      -0.09882168      -0.38346231      -0.02217114 </v>
   <v>      -0.01426010      -0.21045176      -0.30033191 </v>
   <v>      -0.09250804      -0.07907552      -0.16110877 </v>
   <v>      -0.15127019      -0.42116062      -0.13285269 </v>
   <v>      -0.19799040      -0.32002833      -0.19922505 </v>
   <v>      -0.01884911      -0.44720267      -0.21470469 </v>
   <v>      -0.07374811      -0.08605420      -0.28422851 </v>
   <v>      -0.03205475       0.00357782      -0.07789523 </v>
   <v>       0.03688831      -0.41799334       0.10026138 </v>
   <v>       0.09846016      -0.01624863      -0.07915939 </v>
   <v>       0.27184820      -0.30584576      -0.04256756 </v>
   <v>      -0.05440707      -0.42925122      -0.34863036 </v>
   <v>       0.01056277      -0.18284204       0.19349680 </v>
   <v>       0.10678230      -0.23685370      -0.39304111 </v>
   <v>      -0.22691701      -0.30453598       0.13268162 </v>
   <v>      -0.17068544      -0.12438271      -0.35555521 </v>
   <v>      -0.10533297      -0.17616122       0.19577988 </v>
   <v>      -0.22241550       0.48845300      -0.12980352 </v>
   <v>      -0.08190111      -0.34011114      -0.42410763 </v>
   <v>      -0.10370718       0.05159717       0.01107380 </v>
   <v>       0.00586205      -0.01616401      -0.35253110 </v>
   <v>       0.04540029      -0.31165618       0.23888419 </v>
   <v>       0.32218640      -0.34279083      -0.19307286 </v>
   <v>      -0.02766386       0.09259105      -0.17875053 </v>
   <v>       0.25201758      -0.34513326      -0.33769337 </v>
   <v>       0.32993123      -0.22443797       0.01558220 </v>
   <v>       0.31591802      -0.08688723      -0.03241203 </v>
   <v>      -0.36891365      -0.40066103      -0.11247901 </v>
   <v>       0.18937859       0.42082429      -0.04161680 </v>
   <v>       0.09364782      -0.10368192       0.23833377 </v>
   <v>      -0.16455292       0.48787393      -0.36293605 </v>
   <v>      -0.00110720       0.35500333       0.00159299 </v>
   <v>       0.22416608       0.00424906       0.08822950 </v>
   <v>       0.03972931       0.47186244      -0.40592397 </v>
   <v>       0.14672158       0.11548814      -0.18288597 </v>
   <v>       0.30623726       0.49293252      -0.20221998 </v>
   <v>       0.29536450       0.00115737      -0.22831588 </v>
   <v>      -0.37625817      -0.39119548      -0.27867999 </v>
   <v>      -0.42204168      -0.33274843      -0.00512352 </v>
   <v>       0.28969450      -0.12606517      -0.37725103 </v>
   <v>       0.21948550      -0.28100355       0.25346999 </v>
   <v>      -0.28684536      -0.12512060      -0.40629727 </v>
   <v>      -0.39058375      -0.08203863      -0.00077887 </v>
   <v>      -0.17932563       0.48955319       0.20317322 </v>
   <v>       0.33914773      -0.21101872       0.14615109 </v>
   <v>      -0.10623478      -0.24897220       0.46591871 </v>
   <v>       0.38580978      -0.06415705      -0.14307856 </v>
   <v>      -0.37546585      -0.20322007       0.14885677 </v>
   <v>      -0.17505481       0.10134775      -0.31405731 </v>
   <v>       0.16104977       0.37795381      -0.30156163 </v>
   <v>       0.02567478      -0.19633359       0.44971335 </v>
   <v>       0.08296118       0.30191818      -0.06033038 </v>
   <v>       0.41966900      -0.17878065      -0.22155835 </v>
   <v>       0.03954710       0.29607325      -0.18983547 </v>
   <v>       0.29789861       0.47237677       0.09474385 </v>
   <v>      -0.34131905       0.05275367      -0.17036070 </v>
   <v>      -0.14339270       0.31722167      -0.24643732 </v>
   <v>      -0.39741224      -0.21064447      -0.36580687 </v>
   <v>       0.44958431      -0.31174123      -0.02198895 </v>
   <v>       0.28413736       0.00658717      -0.36432372 </v>
   <v>       0.17764372       0.04767828      -0.41770291 </v>
   <v>       0.28682322       0.36909852      -0.11366814 </v>
   <v>      -0.13653425      -0.33094594       0.35132733 </v>
   <v>      -0.39341891       0.02751149      -0.05319626 </v>
   <v>       0.32507480      -0.39451824      -0.41673510 </v>
   <v>       0.13749362       0.19440848      -0.03329642 </v>
   <v>       0.12057581       0.48393121       0.28973515 </v>
   <v>      -0.22635198      -0.18689557       0.45500802 </v>
   <v>      -0.25467689      -0.04111138       0.27740013 </v>
   <v>       0.42744357      -0.32785537      -0.33974127 </v>
   <v>      -0.08005824       0.20885045       0.07578071 </v>
   <v>      -0.23410831       0.28098721      -0.10041514 </v>
   <v>       0.30055919      -0.44548043       0.25286939 </v>
   <v>       0.01558862      -0.41380361       0.40794693 </v>
   <v>      -0.28678373       0.00936070      -0.44518481 </v>
   <v>      -0.41012469      -0.46543293       0.15795291 </v>
   <v>       0.20275856      -0.22020991       0.41878185 </v>
   <v>       0.31380664      -0.17487834       0.49288953 </v>
   <v>      -0.03937424       0.37772491      -0.48261273 </v>
   <v>       0.04668928       0.12250566      -0.46718223 </v>
   <v>      -0.13808305       0.38755710       0.27680413 </v>
   <v>      -0.43868253       0.41135581      -0.07549211 </v>
   <v>      -0.24557015       0.47717025       0.48391516 </v>
   <v>       0.35391009      -0.31148060       0.49891618 </v>
   <v>       0.45885269      -0.21818430      -0.37219928 </v>
   <v>      -0.43011890       0.42110279      -0.24282784 </v>
   <v>      -0.38092805       0.10907405       0.05779427 </v>
   <v>       0.26762272       0.27856510      -0.22321212 </v>
   <v>       0.25028682      -0.46448774       0.45243649 </v>
   <v>       0.16063433      -0.05732141       0.40115057 </v>
   <v>       0.39822454       0.49319413      -0.40196733 </v>
   <v>      -0.38197777       0.41364511       0.16954620 </v>
   <v>      -0.33972603       0.20306120      -0.14311774 </v>
   <v>       0.19032503       0.14024473       0.24347428 </v>
   <v>      -0.13511252       0.28293394      -0.42987279 </v>
   <v>      -0.22193584       0.16329576       0.22703502 </v>
   <v>       0.48327447       0.03241973      -0.14384212 </v>
   <v>      -0.46332394      -0.16294573       0.24403344 </v>
   <v>       0.26090116       0.48799880       0.33879576 </v>
   <v>       0.40471205       0.34094294      -0.04527897 </v>
   <v>       0.06837366       0.31205189      -0.49246984 </v>
   <v>      -0.39068739       0.32987806       0.08479408 </v>
   <v>       0.30989311       0.19351767       0.09799103 </v>
   <v>      -0.07912969       0.41654451       0.40428692 </v>
   <v>       0.38786014       0.06155790      -0.40997811 </v>
   <v>      -0.08420443       0.09840231       0.36746783 </v>
   <v>      -0.40136998       0.44639175      -0.45839404 </v>
   <v>      -0.05571075       0.27228510       0.27866296 </v>
   <v>       0.45268053      -0.17215269      -0.49134145 </v>
   <v>      -0.35541134       0.22147581      -0.27941464 </v>
   <v>       0.31603648      -0.07436238       0.40451388 </v>
   <v>      -0.44525235      -0.05345922       0.29376019 </v>
   <v>      -0.49133985      -0.27516086       0.30089120 </v>
   <v>      -0.25863998       0.38316600       0.35234400 </v>
   <v>       0.30490592       0.17692435       0.22848306 </v>
   <v>       0.11199918       0.27592528       0.31263627 </v>
   <v>       0.49916079       0.41430495      -0.36084719 </v>
   <v>       0.44577150       0.18456934       0.00702925 </v>
   <v>       0.41560176       0.09468419       0.22879831 </v>
   <v>       0.31692131       0.30964078       0.24906583 </v>
   <v>       0.40376384       0.20899099      -0.28522962 </v>
   <v>      -0.42199662       0.14915019       0.20723684 </v>
   <v>      -0.18611190       0.16706862       0.36525812 </v>
   <v>      -0.42959823       0.04480466       0.48498936 </v>
   <v>      -0.47338494       0.21449576      -0.12313056 </v>
   <v>      -0.29211138       0.14570882       0.43584051 </v>
   <v>      -0.49474643      -0.44390787       0.34211350 </v>
   <v>       0.49453888       0.39230265       0.23730106 </v>
   <v>      -0.37263442       0.27910214      -0.48451356 </v>
   <v>       0.45746712       0.30377528      -0.40901430 </v>
   <v>       0.39806345       0.41680681       0.39782467 </v>
   <v>       0.43033538       0.32022376       0.32875150 </v>
   <v>      -0.49411352       0.23564133       0.37268993 </v>
  </varray>
 </structure>
 <varray name="primitive_index" >
  <v type="int" >        1 </v>
  <v type="int" >      103 </v>
  <v type="int" >       88 </v>
  <v type="int" >      128 </v>
  <v type="int" >       62 </v>
  <v type="int" >       52 </v>
  <v type="int" >      113 </v>
  <v type="int" >       75 </v>
  <v type="int" >       46 </v>
  <v type="int" >       42 </v>
  <v type="int" >        2 </v>
  <v type="int" >      129 </v>
  <v type="int" >      100 </v>
  <v type="int" >       28 </v>
  <v type="int" >       36 </v>
  <v type="int" >        5 </v>
  <v type="int" >       26 </v>
  <v type="int" >       57 </v>
  <v type="int" >       78 </v>
  <v type="int" >      131 </v>
  <v type="int" >       96 </v>
  <v type="int" >       82 </v>
  <v type="int" >       74 </v>
  <v type="int" >      108 </v>
  <v type="int" >        8 </v>
  <v type="int" >      127 </v>
  <v type="int" >       71 </v>
  <v type="int" >       51 </v>
  <v type="int" >       86 </v>
  <v type="int" >      115 </v>
  <v type="int" >      124 </v>
  <v type="int" >       98 </v>
  <v type="int" >      101 </v>
  <v type="int" >       66 </v>
  <v type="int" >       20 </v>
  <v type="int" >      118 </v>
  <v type="int" >        3 </v>
  <v type="int" >       61 </v>
  <v type="int" >       90 </v>
  <v type="int" >       27 </v>
  <v type="int" >       50 </v>
  <v type="int" >      125 </v>
  <v type="int" >       10 </v>
  <v type="int" >       33 </v>
  <v type="int" >       55 </v>
  <v type="int" >       73 </v>
  <v type="int" >       64 </v>
  <v type="int" >       41 </v>
  <v type="int" >       53 </v>
  <v type="int" >      135 </v>
  <v type="int" >        6 </v>
  <v type="int" >        7 </v>
  <v type="int" >       72 </v>
  <v type="int" >       40 </v>
  <v type="int" >      120 </v>
  <v type="int" >      119 </v>
  <v type="int" >        4 </v>
  <v type="int" >       99 </v>
  <v type="int" >       13 </v>
  <v type="int" >       85 </v>
  <v type="int" >      122 </v>
  <v type="int" >       34 </v>
  <v type="int" >       77 </v>
  <v type="int" >       38 </v>
  <v type="int" >       60 </v>
  <v type="int" >       30 </v>
  <v type="int" >       47 </v>
  <v type="int" >       84 </v>
  <v type="int" >       63 </v>
  <v type="int" >       76 </v>
  <v type="int" >       23 </v>
  <v type="int" >       70 </v>
  <v type="int" >       17 </v>
  <v type="int" >       83 </v>
  <v type="int" >      109 </v>
  <v type="int" >       15 </v>
  <v type="int" >       65 </v>
  <v type="int" >       95 </v>
  <v type="int" >       80 </v>
  <v type="int" >       35 </v>
  <v type="int" >       44 </v>
  <v type="int" >       16 </v>
  <v type="int" >       39 </v>
  <v type="int" >        9 </v>
  <v type="int" >       24 </v>
  <v type="int" >       79 </v>
  <v type="int" >       31 </v>
  <v type="int" >      102 </v>
  <v type="int" >       56 </v>
  <v type="int" >       58 </v>
  <v type="int" >      121 </v>
  <v type="int" >       12 </v>
  <v type="int" >       81 </v>
  <v type="int" >       29 </v>
  <v type="int" >       49 </v>
  <v type="int" >      134 </v>
  <v type="int" >      114 </v>
  <v type="int" >      123 </v>
  <v type="int" >      132 </v>
  <v type="int" >       54 </v>
  <v type="int" >       43 </v>
  <v type="int" >      106 </v>
  <v type="int" >      110 </v>
  <v type="int" >       69 </v>
  <v type="int" >       68 </v>
  <v type="int" >       93 </v>
  <v type="int" >      116 </v>
  <v type="int" >      111 </v>
  <v type="int" >       89 </v>
  <v type="int" >      117 </v>
  <v type="int" >       67 </v>
  <v type="int" >       97 </v>
  <v type="int" >       87 </v>
  <v type="int" >       91 </v>
  <v type="int" >      105 </v>
  <v type="int" >      130 </v>
  <v type="int" >       37 </v>
  <v type="int" >       25 </v>
  <v type="int" >       32 </v>
  <v type="int" >       14 </v>
  <v type="int" >      104 </v>
  <v type="int" >       94 </v>
  <v type="int" >       18 </v>
  <v type="int" >       21 </v>
  <v type="int" >       45 </v>
  <v type="int" >       11 </v>
  <v type="int" >      107 </v>
  <v type="int" >      112 </v>
  <v type="int" >       19 </v>
  <v type="int" >       92 </v>
  <v type="int" >       22 </v>
  <v type="int" >      126 </v>
  <v type="int" >      133 </v>
  <v type="int" >       48 </v>
  <v type="int" >       59 </v>
 </varray>
 <kpoints>
  <generation param="Gamma">
   <v type="int" name="divisions">       2        2        2 </v>
   <v name="usershift">      0.00000000       0.00000000       0.00000000 </v>
   <v name="genvec1">      0.50000000       0.00000000       0.00000000 </v>
   <v name="genvec2">      0.00000000       0.50000000       0.00000000 </v>
   <v name="genvec3">      0.00000000       0.00000000       0.50000000 </v>
   <v name="shift">      0.00000000       0.00000000       0.00000000 </v>
  </generation>
  <varray name="kpointlist" >
   <v>       0.00000000       0.00000000       0.00000000 </v>
   <v>       0.50000000       0.00000000       0.00000000 </v>
   <v>       0.00000000       0.50000000       0.00000000 </v>
   <v>       0.50000000       0.50000000       0.00000000 </v>
   <v>       0.00000000       0.00000000       0.50000000 </v>
   <v>       0.50000000       0.00000000       0.50000000 </v>
   <v>       0.00000000       0.50000000       0.50000000 </v>
   <v>       0.50000000       0.50000000       0.50000000 </v>
  </varray>
  <varray name="weights" >
   <v>       0.12500000 </v>
   <v>       0.12500000 </v>
   <v>       0.12500000 </v>
   <v>       0.12500000 </v>
   <v>       0.12500000 </v>
   <v>       0.12500000 </v>
   <v>       0.12500000 </v>
   <v>       0.12500000 </v>
  </varray>
 </kpoints>
 <parameters>
  <separator name="general" >
   <i type="string" name="SYSTEM">unknown system</i>
   <i type="logical" name="LCOMPAT"> F  </i>
  </separator>
  <separator name="electronic" >
   <i type="string" name="PREC">a</i>
   <i name="ENMAX">    600.00000000</i>
   <i name="ENAUG">    605.39200000</i>
   <i name="EDIFF">      0.00000100</i>
   <i type="int" name="IALGO">    38</i>
   <i type="int" name="IWAVPR">    10</i>
   <i type="int" name="NBANDS">   520</i>
   <i name="NELECT">    864.00000000</i>
   <i type="int" name="TURBO">     0</i>
   <i type="int" name="IRESTART">     0</i>
   <i type="int" name="NREBOOT">     0</i>
   <i type="int" name="NMIN">     0</i>
   <i name="EREF">      0.00000000</i>
   <separator name="electronic smearing" >
    <i type="int" name="ISMEAR">     0</i>
    <i name="SIGMA">      0.05000000</i>
    <i name="KSPACING">      0.30000000</i>
    <i type="logical" name="KGAMMA"> T  </i>
   </separator>
   <separator name="electronic projectors" >
    <i type="logical" name="LREAL"> T  </i>
    <v name="ROPT">     -0.00025000     -0.00025000     -0.00025000</v>
    <i type="int" name="LMAXPAW">  -100</i>
    <i type="int" name="LMAXMIX">     2</i>
    <i type="logical" name="NLSPLINE"> F  </i>
   </separator>
   <separator name="electronic startup" >
    <i type="int" name="ISTART">     0</i>
    <i type="int" name="ICHARG">     2</i>
    <i type="int" name="INIWAV">     1</i>
   </separator>
   <separator name="electronic spin" >
    <i type="int" name="ISPIN">     1</i>
    <i type="logical" name="LNONCOLLINEAR"> F  </i>
    <v name="MAGMOM">      1.00000000      1.00000000      1.00000000      1.00000000      1.00000000      1.00000000      1.00000000      1.00000000      1.00000000      1.00000000      1.00000000      1.00000000      1.00000000      1.00000000      1.00000000      1.00000000      1.00000000      1.00000000      1.00000000      1.00000000
      1.00000000      1.00000000      1.00000000      1.00000000      1.00000000      1.00000000      1.00000000      1.00000000      1.00000000      1.00000000      1.00000000      1.00000000      1.00000000      1.00000000      1.00000000      1.00000000      1.00000000      1.00000000      1.00000000      1.00000000
      1.00000000      1.00000000      1.00000000      1.00000000      1.00000000      1.00000000      1.00000000      1.00000000      1.00000000      1.00000000      1.00000000      1.00000000      1.00000000      1.00000000      1.00000000      1.00000000      1.00000000      1.00000000      1.00000000      1.00000000
      1.00000000      1.00000000      1.00000000      1.00000000      1.00000000      1.00000000      1.00000000      1.00000000      1.00000000      1.00000000      1.00000000      1.00000000      1.00000000      1.00000000      1.00000000      1.00000000      1.00000000      1.00000000      1.00000000      1.00000000
      1.00000000      1.00000000      1.00000000      1.00000000      1.00000000      1.00000000      1.00000000      1.00000000      1.00000000      1.00000000      1.00000000      1.00000000      1.00000000      1.00000000      1.00000000      1.00000000      1.00000000      1.00000000      1.00000000      1.00000000
      1.00000000      1.00000000      1.00000000      1.00000000      1.00000000      1.00000000      1.00000000      1.00000000      1.00000000      1.00000000      1.00000000      1.00000000      1.00000000      1.00000000      1.00000000      1.00000000      1.00000000      1.00000000      1.00000000      1.00000000
      1.00000000      1.00000000      1.00000000      1.00000000      1.00000000      1.00000000      1.00000000      1.00000000      1.00000000      1.00000000      1.00000000      1.00000000      1.00000000      1.00000000      1.00000000</v>
    <i name="NUPDOWN">     -1.00000000</i>
    <i type="logical" name="LSORBIT"> F  </i>
    <v name="SAXIS">      0.00000000      0.00000000      1.00000000</v>
    <i type="logical" name="LSPIRAL"> F  </i>
    <v name="QSPIRAL">      0.00000000      0.00000000      0.00000000</v>
    <i type="logical" name="LZEROZ"> F  </i>
   </separator>
   <separator name="electronic exchange-correlation" >
    <i type="logical" name="LASPH"> F  </i>
    <i type="logical" name="LMETAGGA"> F  </i>
   </separator>
   <separator name="electronic convergence" >
    <i type="int" name="NELM">    60</i>
    <i type="int" name="NELMDL">    -5</i>
    <i type="int" name="NELMIN">     2</i>
    <i name="ENINI">    600.00000000</i>
    <separator name="electronic convergence detail" >
     <i type="logical" name="LDIAG"> T  </i>
     <i type="logical" name="LSUBROT"> F  </i>
     <i name="WEIMIN">      0.00000000</i>
     <i name="EBREAK">      0.00000000</i>
     <i name="DEPER">      0.30000000</i>
     <i type="int" name="NRMM">     4</i>
     <i name="TIME">      0.40000000</i>
    </separator>
   </separator>
   <separator name="electronic mixer" >
    <i name="AMIX">      0.40000000</i>
    <i name="BMIX">      1.00000000</i>
    <i name="AMIN">      0.10000000</i>
    <i name="AMIX_MAG">      1.60000000</i>
    <i name="BMIX_MAG">      1.00000000</i>
    <separator name="electronic mixer details" >
     <i type="int" name="IMIX">     4</i>
     <i type="logical" name="MIXFIRST"> F  </i>
     <i type="int" name="MAXMIX">   -45</i>
     <i name="WC">    100.00000000</i>
     <i type="int" name="INIMIX">     1</i>
     <i type="int" name="MIXPRE">     1</i>
     <i type="int" name="MREMOVE">     5</i>
    </separator>
   </separator>
   <separator name="electronic dipolcorrection" >
    <i type="logical" name="LDIPOL"> F  </i>
    <i type="logical" name="LMONO"> F  </i>
    <i type="int" name="IDIPOL">     0</i>
    <i name="EPSILON">      1.00000000</i>
    <v name="DIPOL">   -100.00000000   -100.00000000   -100.00000000</v>
    <i name="EFIELD">      0.00000000</i>
   </separator>
  </separator>
  <separator name="grids" >
   <i type="int" name="NGX">   100</i>
   <i type="int" name="NGY">   100</i>
   <i type="int" name="NGZ">   100</i>
   <i type="int" name="NGXF">   200</i>
   <i type="int" name="NGYF">   200</i>
   <i type="int" name="NGZF">   200</i>
   <i type="logical" name="ADDGRID"> T  </i>
  </separator>
  <separator name="ionic" >
   <i type="int" name="NSW">     1</i>
   <i type="int" name="IBRION">    -1</i>
   <i type="int" name="MDALGO">     0</i>
   <i type="int" name="ISIF">     2</i>
   <i name="PSTRESS">      0.00000000</i>
   <i name="EDIFFG">     -0.01000000</i>
   <i type="int" name="NFREE">     0</i>
   <i name="POTIM">      1.00000000</i>
   <i name="SMASS">     -3.00000000</i>
   <i name="SCALEE">      1.00000000</i>
  </separator>
  <separator name="ionic md" >
   <i name="TEBEG">      0.00010000</i>
   <i name="TEEND">      0.00010000</i>
   <i type="int" name="NBLOCK">     1</i>
   <i type="int" name="KBLOCK">     1</i>
   <i type="int" name="NPACO">   256</i>
   <i name="APACO">     16.00000000</i>
  </separator>
  <separator name="symmetry" >
   <i type="int" name="ISYM">     0</i>
   <i name="SYMPREC">      0.00001000</i>
  </separator>
  <separator name="dos" >
   <i type="int" name="LORBIT">     0</i>
   <v name="RWIGS">     -1.00000000     -1.00000000     -1.00000000</v>
   <i type="int" name="NEDOS">   301</i>
   <i name="EMIN">     10.00000000</i>
   <i name="EMAX">    -10.00000000</i>
   <i name="EFERMI">      0.00000000</i>
  </separator>
  <separator name="writing" >
   <i type="int" name="NWRITE">     2</i>
   <i type="logical" name="LWAVE"> F  </i>
   <i type="logical" name="LDOWNSAMPLE"> F  </i>
   <i type="logical" name="LCHARG"> F  </i>
   <i type="logical" name="LPARD"> F  </i>
   <i type="logical" name="LVTOT"> F  </i>
   <i type="logical" name="LVHAR"> F  </i>
   <i type="logical" name="LELF"> F  </i>
   <i type="logical" name="LOPTICS"> F  </i>
   <v name="STM">      0.00000000      0.00000000      0.00000000      0.00000000      0.00000000      0.00000000      0.00000000</v>
  </separator>
  <separator name="performance" >
   <i type="int" name="NPAR">     4</i>
   <i type="int" name="NSIM">     4</i>
   <i type="int" name="NBLK">    -1</i>
   <i type="logical" name="LPLANE"> T  </i>
   <i type="logical" name="LSCALAPACK"> F  </i>
   <i type="logical" name="LSCAAWARE"> F  </i>
   <i type="logical" name="LSCALU"> F  </i>
   <i type="logical" name="LASYNC"> F  </i>
   <i type="logical" name="LORBITALREAL"> F  </i>
  </separator>
  <separator name="miscellaneous" >
   <i type="int" name="IDIOT">     3</i>
   <i type="int" name="ISPECIAL">     0</i>
   <i type="logical" name="LMUSIC"> F  </i>
   <v name="POMASS">     40.07800000     28.08500000     16.00000000</v>
   <v name="DARWINR">      0.00000000      0.00000000      0.00000000</v>
   <v name="DARWINV">      1.00000000      1.00000000      1.00000000</v>
   <i type="logical" name="LCORR"> T  </i>
  </separator>
  <i type="logical" name="GGA_COMPAT"> T  </i>
  <i type="logical" name="LBERRY"> F  </i>
  <i type="int" name="ICORELEVEL">     0</i>
  <i type="logical" name="LDAU"> F  </i>
  <i type="int" name="I_CONSTRAINED_M">     0</i>
  <separator name="electronic exchange-correlation" >
   <i type="string" name="GGA">--</i>
   <i type="int" name="VOSKOWN">     0</i>
   <i type="logical" name="LHFCALC"> F  </i>
   <i type="string" name="PRECFOCK"></i>
   <i type="logical" name="LSYMGRAD"> F  </i>
   <i type="logical" name="LHFONE"> F  </i>
   <i type="logical" name="LRHFCALC"> F  </i>
   <i type="logical" name="LTHOMAS"> F  </i>
   <i type="logical" name="LMODELHF"> F  </i>
   <i name="ENCUT4O">     -1.00000000</i>
   <i type="int" name="EXXOEP">     0</i>
   <i type="int" name="FOURORBIT">     0</i>
   <i name="AEXX">      0.00000000</i>
   <i name="HFALPHA">      0.00000000</i>
   <i name="MCALPHA">      0.00000000</i>
   <i name="ALDAX">      1.00000000</i>
   <i name="AGGAX">      1.00000000</i>
   <i name="ALDAC">      1.00000000</i>
   <i name="AGGAC">      1.00000000</i>
   <i type="int" name="NKREDX">     1</i>
   <i type="int" name="NKREDY">     1</i>
   <i type="int" name="NKREDZ">     1</i>
   <i type="logical" name="SHIFTRED"> F  </i>
   <i type="logical" name="ODDONLY"> F  </i>
   <i type="logical" name="EVENONLY"> F  </i>
   <i type="int" name="LMAXFOCK">     0</i>
   <i type="int" name="NMAXFOCKAE">     0</i>
   <i type="logical" name="LFOCKAEDFT"> F  </i>
   <i name="HFSCREEN">      0.00000000</i>
   <i name="HFSCREENC">      0.00000000</i>
   <i type="int" name="NBANDSGWLOW">     0</i>
  </separator>
  <separator name="vdW DFT" >
   <i type="logical" name="LUSE_VDW"> F  </i>
   <i name="Zab_VDW">     -0.84910000</i>
   <i name="PARAM1">      0.12340000</i>
   <i name="PARAM2">      1.00000000</i>
   <i name="PARAM3">      0.00000000</i>
  </separator>
  <separator name="model GW" >
   <i type="int" name="MODEL_GW">     0</i>
   <i name="MODEL_EPS0">      8.73498141</i>
   <i name="MODEL_ALPHA">      1.00000000</i>
  </separator>
  <separator name="linear response parameters" >
   <i type="logical" name="LEPSILON"> F  </i>
   <i type="logical" name="LRPA"> F  </i>
   <i type="logical" name="LNABLA"> F  </i>
   <i type="logical" name="LVEL"> F  </i>
   <i type="int" name="KINTER">     0</i>
   <i name="CSHIFT">      0.10000000</i>
   <i name="OMEGAMAX">     -1.00000000</i>
   <i name="DEG_THRESHOLD">      0.00200000</i>
   <i name="RTIME">     -0.10000000</i>
   <i name="WPLASMAI">      0.00000000</i>
   <v name="DFIELD">      0.00000000      0.00000000      0.00000000</v>
   <v name="WPLASMA">      0.00000000      0.00000000      0.00000000      0.00000000      0.00000000      0.00000000      0.00000000      0.00000000      0.00000000</v>
  </separator>
  <separator name="orbital magnetization" >
   <i type="logical" name="NUCIND"> F  </i>
   <v name="MAGPOS">      0.00000000      0.00000000      0.00000000</v>
   <i type="logical" name="LNICSALL"> T  </i>
   <i type="logical" name="ORBITALMAG"> F  </i>
   <i type="logical" name="LMAGBLOCH"> F  </i>
   <i type="logical" name="LCHIMAG"> F  </i>
   <i type="logical" name="LGAUGE"> T  </i>
   <i type="int" name="MAGATOM">     0</i>
   <v name="MAGDIPOL">      0.00000000      0.00000000      0.00000000</v>
   <v name="AVECCONST">      0.00000000      0.00000000      0.00000000</v>
  </separator>
  <separator name="response functions" >
   <i type="logical" name="LADDER"> F  </i>
   <i type="logical" name="LRPAFORCE"> F  </i>
   <i type="logical" name="LFXC"> F  </i>
   <i type="logical" name="LHARTREE"> T  </i>
   <i type="int" name="IBSE">     0</i>
   <v type="int" name="KPOINT">    -1     0     0     0</v>
   <i type="logical" name="LTCTE"> F  </i>
   <i type="logical" name="LTETE"> F  </i>
   <i type="logical" name="LTRIPLET"> F  </i>
   <i type="logical" name="LFXCEPS"> F  </i>
   <i type="logical" name="LFXHEG"> F  </i>
   <i type="int" name="NATURALO">     2</i>
   <i type="logical" name="L2ORDER"> F  </i>
   <i type="logical" name="LMP2LT"> F  </i>
   <i type="logical" name="LUSEW"> F  </i>
   <i name="ENCUTGW">     -2.00000000</i>
   <i name="ENCUTGWSOFT">     -2.00000000</i>
   <i name="ENCUTLF">     -1.00000000</i>
   <i type="int" name="LMAXMP2">    -1</i>
   <i name="SCISSOR">      0.00000000</i>
   <i type="int" name="NOMEGA">     0</i>
   <i type="int" name="NOMEGAR">     0</i>
   <i type="int" name="NBANDSGW">    -1</i>
   <i type="int" name="NBANDSO">    -1</i>
   <i type="int" name="NBANDSV">    -1</i>
   <i type="int" name="NELM">     1</i>
   <i type="int" name="NELMHF">     1</i>
   <i type="int" name="DIM">     3</i>
   <i type="int" name="ANTIRES">     0</i>
   <i name="OMEGAMAX">    -30.00000000</i>
   <i name="OMEGAMIN">    -30.00000000</i>
   <i name="OMEGATL">   -200.00000000</i>
   <i type="int" name="OMEGAGRID">   140</i>
   <i name="CSHIFT">     -0.10000000</i>
   <i type="logical" name="SELFENERGY"> F  </i>
   <i type="logical" name="LSPECTRAL"> F  </i>
   <i type="logical" name="LSPECTRALGW"> F  </i>
   <i type="logical" name="LSINGLES"> F  </i>
   <i type="logical" name="LFERMIGW"> F  </i>
   <i type="logical" name="ODDONLYGW"> F  </i>
   <i type="logical" name="EVENONLYGW"> F  </i>
   <i type="int" name="NKREDLFX">     1</i>
   <i type="int" name="NKREDLFY">     1</i>
   <i type="int" name="NKREDLFZ">     1</i>
   <i type="int" name="MAXMEM">  2800</i>
   <i type="int" name="TELESCOPE">     0</i>
   <i type="int" name="TAUPAR">     1</i>
   <i type="int" name="OMEGAPAR">    -1</i>
   <i name="LAMBDA">      1.00000000</i>
  </separator>
  <separator name="External order field" >
   <i name="OFIELD_KAPPA">      0.00000000</i>
   <v name="OFIELD_K">      0.00000000      0.00000000      0.00000000</v>
   <i name="OFIELD_Q6_NEAR">      0.00000000</i>
   <i name="OFIELD_Q6_FAR">      0.00000000</i>
   <i name="OFIELD_A">      0.00000000</i>
  </separator>
 </parameters>
 <atominfo>
  <atoms>     135 </atoms>
  <types>       3 </types>
  <array name="atoms" >
   <dimension dim="1">ion</dimension>
   <field type="string">element</field>
   <field type="int">atomtype</field>
   <set>
    <rc><c>Ca</c><c>   1</c></rc>
    <rc><c>Ca</c><c>   1</c></rc>
    <rc><c>Ca</c><c>   1</c></rc>
    <rc><c>Ca</c><c>   1</c></rc>
    <rc><c>Ca</c><c>   1</c></rc>
    <rc><c>Ca</c><c>   1</c></rc>
    <rc><c>Ca</c><c>   1</c></rc>
    <rc><c>Ca</c><c>   1</c></rc>
    <rc><c>Ca</c><c>   1</c></rc>
    <rc><c>Ca</c><c>   1</c></rc>
    <rc><c>Ca</c><c>   1</c></rc>
    <rc><c>Ca</c><c>   1</c></rc>
    <rc><c>Ca</c><c>   1</c></rc>
    <rc><c>Ca</c><c>   1</c></rc>
    <rc><c>Ca</c><c>   1</c></rc>
    <rc><c>Ca</c><c>   1</c></rc>
    <rc><c>Ca</c><c>   1</c></rc>
    <rc><c>Ca</c><c>   1</c></rc>
    <rc><c>Ca</c><c>   1</c></rc>
    <rc><c>Ca</c><c>   1</c></rc>
    <rc><c>Ca</c><c>   1</c></rc>
    <rc><c>Ca</c><c>   1</c></rc>
    <rc><c>Ca</c><c>   1</c></rc>
    <rc><c>Ca</c><c>   1</c></rc>
    <rc><c>Ca</c><c>   1</c></rc>
    <rc><c>Ca</c><c>   1</c></rc>
    <rc><c>Ca</c><c>   1</c></rc>
    <rc><c>Si</c><c>   2</c></rc>
    <rc><c>Si</c><c>   2</c></rc>
    <rc><c>Si</c><c>   2</c></rc>
    <rc><c>Si</c><c>   2</c></rc>
    <rc><c>Si</c><c>   2</c></rc>
    <rc><c>Si</c><c>   2</c></rc>
    <rc><c>Si</c><c>   2</c></rc>
    <rc><c>Si</c><c>   2</c></rc>
    <rc><c>Si</c><c>   2</c></rc>
    <rc><c>Si</c><c>   2</c></rc>
    <rc><c>Si</c><c>   2</c></rc>
    <rc><c>Si</c><c>   2</c></rc>
    <rc><c>Si</c><c>   2</c></rc>
    <rc><c>Si</c><c>   2</c></rc>
    <rc><c>Si</c><c>   2</c></rc>
    <rc><c>Si</c><c>   2</c></rc>
    <rc><c>Si</c><c>   2</c></rc>
    <rc><c>Si</c><c>   2</c></rc>
    <rc><c>Si</c><c>   2</c></rc>
    <rc><c>Si</c><c>   2</c></rc>
    <rc><c>Si</c><c>   2</c></rc>
    <rc><c>Si</c><c>   2</c></rc>
    <rc><c>Si</c><c>   2</c></rc>
    <rc><c>Si</c><c>   2</c></rc>
    <rc><c>Si</c><c>   2</c></rc>
    <rc><c>Si</c><c>   2</c></rc>
    <rc><c>Si</c><c>   2</c></rc>
    <rc><c>O </c><c>   3</c></rc>
    <rc><c>O </c><c>   3</c></rc>
    <rc><c>O </c><c>   3</c></rc>
    <rc><c>O </c><c>   3</c></rc>
    <rc><c>O </c><c>   3</c></rc>
    <rc><c>O </c><c>   3</c></rc>
    <rc><c>O </c><c>   3</c></rc>
    <rc><c>O </c><c>   3</c></rc>
    <rc><c>O </c><c>   3</c></rc>
    <rc><c>O </c><c>   3</c></rc>
    <rc><c>O </c><c>   3</c></rc>
    <rc><c>O </c><c>   3</c></rc>
    <rc><c>O </c><c>   3</c></rc>
    <rc><c>O </c><c>   3</c></rc>
    <rc><c>O </c><c>   3</c></rc>
    <rc><c>O </c><c>   3</c></rc>
    <rc><c>O </c><c>   3</c></rc>
    <rc><c>O </c><c>   3</c></rc>
    <rc><c>O </c><c>   3</c></rc>
    <rc><c>O </c><c>   3</c></rc>
    <rc><c>O </c><c>   3</c></rc>
    <rc><c>O </c><c>   3</c></rc>
    <rc><c>O </c><c>   3</c></rc>
    <rc><c>O </c><c>   3</c></rc>
    <rc><c>O </c><c>   3</c></rc>
    <rc><c>O </c><c>   3</c></rc>
    <rc><c>O </c><c>   3</c></rc>
    <rc><c>O </c><c>   3</c></rc>
    <rc><c>O </c><c>   3</c></rc>
    <rc><c>O </c><c>   3</c></rc>
    <rc><c>O </c><c>   3</c></rc>
    <rc><c>O </c><c>   3</c></rc>
    <rc><c>O </c><c>   3</c></rc>
    <rc><c>O </c><c>   3</c></rc>
    <rc><c>O </c><c>   3</c></rc>
    <rc><c>O </c><c>   3</c></rc>
    <rc><c>O </c><c>   3</c></rc>
    <rc><c>O </c><c>   3</c></rc>
    <rc><c>O </c><c>   3</c></rc>
    <rc><c>O </c><c>   3</c></rc>
    <rc><c>O </c><c>   3</c></rc>
    <rc><c>O </c><c>   3</c></rc>
    <rc><c>O </c><c>   3</c></rc>
    <rc><c>O </c><c>   3</c></rc>
    <rc><c>O </c><c>   3</c></rc>
    <rc><c>O </c><c>   3</c></rc>
    <rc><c>O </c><c>   3</c></rc>
    <rc><c>O </c><c>   3</c></rc>
    <rc><c>O </c><c>   3</c></rc>
    <rc><c>O </c><c>   3</c></rc>
    <rc><c>O </c><c>   3</c></rc>
    <rc><c>O </c><c>   3</c></rc>
    <rc><c>O </c><c>   3</c></rc>
    <rc><c>O </c><c>   3</c></rc>
    <rc><c>O </c><c>   3</c></rc>
    <rc><c>O </c><c>   3</c></rc>
    <rc><c>O </c><c>   3</c></rc>
    <rc><c>O </c><c>   3</c></rc>
    <rc><c>O </c><c>   3</c></rc>
    <rc><c>O </c><c>   3</c></rc>
    <rc><c>O </c><c>   3</c></rc>
    <rc><c>O </c><c>   3</c></rc>
    <rc><c>O </c><c>   3</c></rc>
    <rc><c>O </c><c>   3</c></rc>
    <rc><c>O </c><c>   3</c></rc>
    <rc><c>O </c><c>   3</c></rc>
    <rc><c>O </c><c>   3</c></rc>
    <rc><c>O </c><c>   3</c></rc>
    <rc><c>O </c><c>   3</c></rc>
    <rc><c>O </c><c>   3</c></rc>
    <rc><c>O </c><c>   3</c></rc>
    <rc><c>O </c><c>   3</c></rc>
    <rc><c>O </c><c>   3</c></rc>
    <rc><c>O </c><c>   3</c></rc>
    <rc><c>O </c><c>   3</c></rc>
    <rc><c>O </c><c>   3</c></rc>
    <rc><c>O </c><c>   3</c></rc>
    <rc><c>O </c><c>   3</c></rc>
    <rc><c>O </c><c>   3</c></rc>
    <rc><c>O </c><c>   3</c></rc>
    <rc><c>O </c><c>   3</c></rc>
   </set>
  </array>
  <array name="atomtypes" >
   <dimension dim="1">type</dimension>
   <field type="int">atomspertype</field>
   <field type="string">element</field>
   <field>mass</field>
   <field>valence</field>
   <field type="string">pseudopotential</field>
   <set>
    <rc><c>  27</c><c>Ca</c><c>     40.07800000</c><c>     10.00000000</c><c>  PAW_PBE Ca_sv 06Sep2000               </c></rc>
    <rc><c>  27</c><c>Si</c><c>     28.08500000</c><c>      4.00000000</c><c>  PAW_PBE Si 05Jan2001                  </c></rc>
    <rc><c>  81</c><c>O </c><c>     16.00000000</c><c>      6.00000000</c><c>  PAW_PBE O 08Apr2002                   </c></rc>
   </set>
  </array>
 </atominfo>
 <structure name="initialpos" >
  <crystal>
   <varray name="basis" >
    <v>      12.52607000       0.00000000       0.00000000 </v>
    <v>       0.00000000      12.52607000       0.00000000 </v>
    <v>       0.00000000       0.00000000      12.52607000 </v>
   </varray>
   <i name="volume">   1965.37081690 </i>
   <varray name="rec_basis" >
    <v>       0.07983350       0.00000000       0.00000000 </v>
    <v>       0.00000000       0.07983350       0.00000000 </v>
    <v>       0.00000000       0.00000000       0.07983350 </v>
   </varray>
  </crystal>
  <varray name="positions" >
   <v>       0.98723169       0.74127621       0.89478864 </v>
   <v>       0.03688831       0.58200666       0.10026138 </v>
   <v>       0.14672158       0.11548814       0.81711403 </v>
   <v>       0.29789861       0.47237677       0.09474385 </v>
   <v>       0.10678230       0.76314630       0.60695889 </v>
   <v>       0.82494519       0.10134775       0.68594269 </v>
   <v>       0.16104977       0.37795381       0.69843837 </v>
   <v>       0.32218640       0.65720917       0.80692714 </v>
   <v>       0.56131747       0.41135581       0.92450789 </v>
   <v>       0.21948550       0.71899645       0.25346999 </v>
   <v>       0.57040177       0.04480466       0.48498936 </v>
   <v>       0.16063433       0.94267859       0.40115057 </v>
   <v>       0.85660730       0.31722167       0.75356268 </v>
   <v>       0.44577150       0.18456934       0.00702925 </v>
   <v>       0.01558862       0.58619639       0.40794693 </v>
   <v>       0.04668928       0.12250566       0.53281777 </v>
   <v>       0.91994176       0.20885045       0.07578071 </v>
   <v>       0.40376384       0.20899099       0.71477038 </v>
   <v>       0.50525357       0.55609213       0.34211350 </v>
   <v>       0.22416608       0.00424906       0.08822950 </v>
   <v>       0.57800338       0.14915019       0.20723684 </v>
   <v>       0.62736558       0.27910214       0.51548644 </v>
   <v>       0.74532311       0.95888862       0.27740013 </v>
   <v>       0.75442985       0.47717025       0.48391516 </v>
   <v>       0.11199918       0.27592528       0.31263627 </v>
   <v>       0.77308299       0.69546402       0.13268162 </v>
   <v>       0.62374183       0.60880452       0.72132001 </v>
   <v>       0.94559293       0.57074878       0.65136964 </v>
   <v>       0.61802223       0.41364511       0.16954620 </v>
   <v>       0.60658109       0.02751149       0.94680374 </v>
   <v>       0.45885269       0.78181570       0.62780072 </v>
   <v>       0.49916079       0.41430495       0.63915281 </v>
   <v>       0.71315464       0.87487940       0.59370273 </v>
   <v>       0.28413736       0.00658717       0.63567628 </v>
   <v>       0.31380664       0.82512166       0.49288953 </v>
   <v>       0.01056277       0.81715796       0.19349680 </v>
   <v>       0.30490592       0.17692435       0.22848306 </v>
   <v>       0.28682322       0.36909852       0.88633186 </v>
   <v>       0.86191695       0.38755710       0.27680413 </v>
   <v>       0.08296118       0.30191818       0.93966962 </v>
   <v>       0.89376522       0.75102780       0.46591871 </v>
   <v>       0.96794525       0.00357782       0.92210477 </v>
   <v>       0.26090116       0.48799880       0.33879576 </v>
   <v>       0.96062576       0.37772491       0.51738727 </v>
   <v>       0.81388810       0.16706862       0.36525812 </v>
   <v>       0.92625189       0.91394580       0.71577149 </v>
   <v>       0.32507480       0.60548176       0.58326490 </v>
   <v>       0.43033538       0.32022376       0.32875150 </v>
   <v>       0.66027397       0.20306120       0.85688226 </v>
   <v>       0.57795832       0.66725157       0.99487648 </v>
   <v>       0.32993123       0.77556203       0.01558220 </v>
   <v>       0.84872981       0.57883938       0.86714731 </v>
   <v>       0.38580978       0.93584295       0.85692144 </v>
   <v>       0.53667606       0.83705427       0.24403344 </v>
   <v>       0.60941625       0.91796137       0.99922113 </v>
   <v>       0.61907195       0.10907405       0.05779427 </v>
   <v>       0.82931456       0.87561729       0.64444479 </v>
   <v>       0.26762272       0.27856510       0.77678788 </v>
   <v>       0.50588648       0.23564133       0.37268993 </v>
   <v>       0.86346575       0.66905406       0.35132733 </v>
   <v>       0.30623726       0.49293252       0.79778002 </v>
   <v>       0.90749196       0.92092448       0.83889123 </v>
   <v>       0.12057581       0.48393121       0.28973515 </v>
   <v>       0.33914773       0.78898128       0.14615109 </v>
   <v>       0.71321627       0.00936070       0.55481519 </v>
   <v>       0.99889280       0.35500333       0.00159299 </v>
   <v>       0.45268053       0.82784731       0.50865855 </v>
   <v>       0.30989311       0.19351767       0.09799103 </v>
   <v>       0.60931261       0.32987806       0.08479408 </v>
   <v>       0.42744357       0.67214463       0.66025873 </v>
   <v>       0.25201758       0.65486674       0.66230663 </v>
   <v>       0.02567478       0.80366641       0.44971335 </v>
   <v>       0.82067437       0.48955319       0.20317322 </v>
   <v>       0.00586205       0.98383599       0.64746890 </v>
   <v>       0.98115089       0.55279733       0.78529531 </v>
   <v>       0.77364802       0.81310443       0.45500802 </v>
   <v>       0.17764372       0.04767828       0.58229709 </v>
   <v>       0.89466703       0.82383878       0.19577988 </v>
   <v>       0.35391009       0.68851940       0.49891618 </v>
   <v>       0.20275856       0.77979009       0.41878185 </v>
   <v>       0.39822454       0.49319413       0.59803267 </v>
   <v>       0.89629282       0.05159717       0.01107380 </v>
   <v>       0.76589169       0.28098721       0.89958486 </v>
   <v>       0.13749362       0.19440848       0.96670358 </v>
   <v>       0.60258776       0.78935553       0.63419313 </v>
   <v>       0.31591802       0.91311277       0.96758797 </v>
   <v>       0.31603648       0.92563762       0.40451388 </v>
   <v>       0.90117832       0.61653769       0.97782886 </v>
   <v>       0.59863002       0.44639175       0.54160596 </v>
   <v>       0.29536450       0.00115737       0.77168412 </v>
   <v>       0.55474765       0.94654078       0.29376019 </v>
   <v>       0.49453888       0.39230265       0.23730106 </v>
   <v>       0.92087031       0.41654451       0.40428692 </v>
   <v>       0.31692131       0.30964078       0.24906583 </v>
   <v>       0.58987531       0.53456707       0.15795291 </v>
   <v>       0.91809889       0.65988886       0.57589237 </v>
   <v>       0.64458866       0.22147581       0.72058536 </v>
   <v>       0.09364782       0.89631808       0.23833377 </v>
   <v>       0.65868095       0.05275367       0.82963930 </v>
   <v>       0.27184820       0.69415424       0.95743244 </v>
   <v>       0.83544708       0.48787393       0.63706395 </v>
   <v>       0.56988110       0.42110279       0.75717216 </v>
   <v>       0.04819041       0.79398515       0.01843350 </v>
   <v>       0.41560176       0.09468419       0.22879831 </v>
   <v>       0.50866015       0.72483914       0.30089120 </v>
   <v>       0.40471205       0.34094294       0.95472103 </v>
   <v>       0.52661506       0.21449576       0.87686944 </v>
   <v>       0.04540029       0.68834382       0.23888419 </v>
   <v>       0.30055919       0.55451957       0.25286939 </v>
   <v>       0.06837366       0.31205189       0.50753016 </v>
   <v>       0.91579557       0.09840231       0.36746783 </v>
   <v>       0.70788862       0.14570882       0.43584051 </v>
   <v>       0.80200960       0.67997167       0.80077495 </v>
   <v>       0.86488748       0.28293394       0.57012721 </v>
   <v>       0.63108635       0.59933897       0.88752099 </v>
   <v>       0.38786014       0.06155790       0.59002189 </v>
   <v>       0.94428925       0.27228510       0.27866296 </v>
   <v>       0.03972931       0.47186244       0.59407603 </v>
   <v>       0.03954710       0.29607325       0.81016453 </v>
   <v>       0.41966900       0.82121935       0.77844165 </v>
   <v>       0.25028682       0.53551226       0.45243649 </v>
   <v>       0.44958431       0.68825877       0.97801105 </v>
   <v>       0.77806416       0.16329576       0.22703502 </v>
   <v>       0.18937859       0.42082429       0.95838320 </v>
   <v>       0.28969450       0.87393483       0.62274897 </v>
   <v>       0.45746712       0.30377528       0.59098570 </v>
   <v>       0.97233614       0.09259105       0.82124947 </v>
   <v>       0.98573990       0.78954824       0.69966809 </v>
   <v>       0.09846016       0.98375137       0.92084061 </v>
   <v>       0.74136002       0.38316600       0.35234400 </v>
   <v>       0.77758450       0.48845300       0.87019648 </v>
   <v>       0.48327447       0.03241973       0.85615788 </v>
   <v>       0.39806345       0.41680681       0.39782467 </v>
   <v>       0.19032503       0.14024473       0.24347428 </v>
   <v>       0.62453415       0.79677993       0.14885677 </v>
  </varray>
  <varray name="velocities" >
   <v>       0.00000000       0.00000000       0.00000000 </v>
   <v>       0.00000000       0.00000000       0.00000000 </v>
   <v>       0.00000000       0.00000000       0.00000000 </v>
   <v>       0.00000000       0.00000000       0.00000000 </v>
   <v>       0.00000000       0.00000000       0.00000000 </v>
   <v>       0.00000000       0.00000000       0.00000000 </v>
   <v>       0.00000000       0.00000000       0.00000000 </v>
   <v>       0.00000000       0.00000000       0.00000000 </v>
   <v>       0.00000000       0.00000000       0.00000000 </v>
   <v>       0.00000000       0.00000000       0.00000000 </v>
   <v>       0.00000000       0.00000000       0.00000000 </v>
   <v>       0.00000000       0.00000000       0.00000000 </v>
   <v>       0.00000000       0.00000000       0.00000000 </v>
   <v>       0.00000000       0.00000000       0.00000000 </v>
   <v>       0.00000000       0.00000000       0.00000000 </v>
   <v>       0.00000000       0.00000000       0.00000000 </v>
   <v>       0.00000000       0.00000000       0.00000000 </v>
   <v>       0.00000000       0.00000000       0.00000000 </v>
   <v>       0.00000000       0.00000000       0.00000000 </v>
   <v>       0.00000000       0.00000000       0.00000000 </v>
   <v>       0.00000000       0.00000000       0.00000000 </v>
   <v>       0.00000000       0.00000000       0.00000000 </v>
   <v>       0.00000000       0.00000000       0.00000000 </v>
   <v>       0.00000000       0.00000000       0.00000000 </v>
   <v>       0.00000000       0.00000000       0.00000000 </v>
   <v>       0.00000000       0.00000000       0.00000000 </v>
   <v>       0.00000000       0.00000000       0.00000000 </v>
   <v>       0.00000000       0.00000000       0.00000000 </v>
   <v>       0.00000000       0.00000000       0.00000000 </v>
   <v>       0.00000000       0.00000000       0.00000000 </v>
   <v>       0.00000000       0.00000000       0.00000000 </v>
   <v>       0.00000000       0.00000000       0.00000000 </v>
   <v>       0.00000000       0.00000000       0.00000000 </v>
   <v>       0.00000000       0.00000000       0.00000000 </v>
   <v>       0.00000000       0.00000000       0.00000000 </v>
   <v>       0.00000000       0.00000000       0.00000000 </v>
   <v>       0.00000000       0.00000000       0.00000000 </v>
   <v>       0.00000000       0.00000000       0.00000000 </v>
   <v>       0.00000000       0.00000000       0.00000000 </v>
   <v>       0.00000000       0.00000000       0.00000000 </v>
   <v>       0.00000000       0.00000000       0.00000000 </v>
   <v>       0.00000000       0.00000000       0.00000000 </v>
   <v>       0.00000000       0.00000000       0.00000000 </v>
   <v>       0.00000000       0.00000000       0.00000000 </v>
   <v>       0.00000000       0.00000000       0.00000000 </v>
   <v>       0.00000000       0.00000000       0.00000000 </v>
   <v>       0.00000000       0.00000000       0.00000000 </v>
   <v>       0.00000000       0.00000000       0.00000000 </v>
   <v>       0.00000000       0.00000000       0.00000000 </v>
   <v>       0.00000000       0.00000000       0.00000000 </v>
   <v>       0.00000000       0.00000000       0.00000000 </v>
   <v>       0.00000000       0.00000000       0.00000000 </v>
   <v>       0.00000000       0.00000000       0.00000000 </v>
   <v>       0.00000000       0.00000000       0.00000000 </v>
   <v>       0.00000000       0.00000000       0.00000000 </v>
   <v>       0.00000000       0.00000000       0.00000000 </v>
   <v>       0.00000000       0.00000000       0.00000000 </v>
   <v>       0.00000000       0.00000000       0.00000000 </v>
   <v>       0.00000000       0.00000000       0.00000000 </v>
   <v>       0.00000000       0.00000000       0.00000000 </v>
   <v>       0.00000000       0.00000000       0.00000000 </v>
   <v>       0.00000000       0.00000000       0.00000000 </v>
   <v>       0.00000000       0.00000000       0.00000000 </v>
   <v>       0.00000000       0.00000000       0.00000000 </v>
   <v>       0.00000000       0.00000000       0.00000000 </v>
   <v>       0.00000000       0.00000000       0.00000000 </v>
   <v>       0.00000000       0.00000000       0.00000000 </v>
   <v>       0.00000000       0.00000000       0.00000000 </v>
   <v>       0.00000000       0.00000000       0.00000000 </v>
   <v>       0.00000000       0.00000000       0.00000000 </v>
   <v>       0.00000000       0.00000000       0.00000000 </v>
   <v>       0.00000000       0.00000000       0.00000000 </v>
   <v>       0.00000000       0.00000000       0.00000000 </v>
   <v>       0.00000000       0.00000000       0.00000000 </v>
   <v>       0.00000000       0.00000000       0.00000000 </v>
   <v>       0.00000000       0.00000000       0.00000000 </v>
   <v>       0.00000000       0.00000000       0.00000000 </v>
   <v>       0.00000000       0.00000000       0.00000000 </v>
   <v>       0.00000000       0.00000000       0.00000000 </v>
   <v>       0.00000000       0.00000000       0.00000000 </v>
   <v>       0.00000000       0.00000000       0.00000000 </v>
   <v>       0.00000000       0.00000000       0.00000000 </v>
   <v>       0.00000000       0.00000000       0.00000000 </v>
   <v>       0.00000000       0.00000000       0.00000000 </v>
   <v>       0.00000000       0.00000000       0.00000000 </v>
   <v>       0.00000000       0.00000000       0.00000000 </v>
   <v>       0.00000000       0.00000000       0.00000000 </v>
   <v>       0.00000000       0.00000000       0.00000000 </v>
   <v>       0.00000000       0.00000000       0.00000000 </v>
   <v>       0.00000000       0.00000000       0.00000000 </v>
   <v>       0.00000000       0.00000000       0.00000000 </v>
   <v>       0.00000000       0.00000000       0.00000000 </v>
   <v>       0.00000000       0.00000000       0.00000000 </v>
   <v>       0.00000000       0.00000000       0.00000000 </v>
   <v>       0.00000000       0.00000000       0.00000000 </v>
   <v>       0.00000000       0.00000000       0.00000000 </v>
   <v>       0.00000000       0.00000000       0.00000000 </v>
   <v>       0.00000000       0.00000000       0.00000000 </v>
   <v>       0.00000000       0.00000000       0.00000000 </v>
   <v>       0.00000000       0.00000000       0.00000000 </v>
   <v>       0.00000000       0.00000000       0.00000000 </v>
   <v>       0.00000000       0.00000000       0.00000000 </v>
   <v>       0.00000000       0.00000000       0.00000000 </v>
   <v>       0.00000000       0.00000000       0.00000000 </v>
   <v>       0.00000000       0.00000000       0.00000000 </v>
   <v>       0.00000000       0.00000000       0.00000000 </v>
   <v>       0.00000000       0.00000000       0.00000000 </v>
   <v>       0.00000000       0.00000000       0.00000000 </v>
   <v>       0.00000000       0.00000000       0.00000000 </v>
   <v>       0.00000000       0.00000000       0.00000000 </v>
   <v>       0.00000000       0.00000000       0.00000000 </v>
   <v>       0.00000000       0.00000000       0.00000000 </v>
   <v>       0.00000000       0.00000000       0.00000000 </v>
   <v>       0.00000000       0.00000000       0.00000000 </v>
   <v>       0.00000000       0.00000000       0.00000000 </v>
   <v>       0.00000000       0.00000000       0.00000000 </v>
   <v>       0.00000000       0.00000000       0.00000000 </v>
   <v>       0.00000000       0.00000000       0.00000000 </v>
   <v>       0.00000000       0.00000000       0.00000000 </v>
   <v>       0.00000000       0.00000000       0.00000000 </v>
   <v>       0.00000000       0.00000000       0.00000000 </v>
   <v>       0.00000000       0.00000000       0.00000000 </v>
   <v>       0.00000000       0.00000000       0.00000000 </v>
   <v>       0.00000000       0.00000000       0.00000000 </v>
   <v>       0.00000000       0.00000000       0.00000000 </v>
   <v>       0.00000000       0.00000000       0.00000000 </v>
   <v>       0.00000000       0.00000000       0.00000000 </v>
   <v>       0.00000000       0.00000000       0.00000000 </v>
   <v>       0.00000000       0.00000000       0.00000000 </v>
   <v>       0.00000000       0.00000000       0.00000000 </v>
   <v>       0.00000000       0.00000000       0.00000000 </v>
   <v>       0.00000000       0.00000000       0.00000000 </v>
   <v>       0.00000000       0.00000000       0.00000000 </v>
   <v>       0.00000000       0.00000000       0.00000000 </v>
   <v>       0.00000000       0.00000000       0.00000000 </v>
  </varray>
 </structure>
 <calculation>
  <scstep>
   <time name="dav">   36.13   36.15</time>
   <time name="total">   36.58   36.61</time>
   <energy>
    <i name="alphaZ">   2431.37857233 </i>
    <i name="ewald"> -41616.36441343 </i>
    <i name="hartreedc"> -20696.18674850 </i>
    <i name="XCdc">   3152.94139961 </i>
    <i name="pawpsdc">  50594.51003143 </i>
    <i name="pawaedc"> -49994.65612350 </i>
    <i name="eentropy">     -0.03940495 </i>
    <i name="bandstr">    607.29358278 </i>
    <i name="atom">  64968.54023382 </i>
    <i name="e_fr_energy">   9447.41712959 </i>
    <i name="e_wo_entrp">   9447.45653454 </i>
    <i name="e_0_energy">   9447.43683207 </i>
   </energy>
  </scstep>
  <scstep>
   <time name="dav">   41.79   41.82</time>
   <time name="total">   41.79   41.82</time>
   <energy>
    <i name="e_fr_energy">     15.56853320 </i>
    <i name="e_wo_entrp">     15.56853320 </i>
    <i name="e_0_energy">     15.56853320 </i>
   </energy>
  </scstep>
  <scstep>
   <time name="dav">   42.37   42.39</time>
   <time name="total">   42.38   42.39</time>
   <energy>
    <i name="e_fr_energy">  -1008.55329713 </i>
    <i name="e_wo_entrp">  -1008.55329713 </i>
    <i name="e_0_energy">  -1008.55329713 </i>
   </energy>
  </scstep>
  <scstep>
   <time name="dav">   46.09   46.09</time>
   <time name="total">   46.09   46.09</time>
   <energy>
    <i name="e_fr_energy">  -1059.18937026 </i>
    <i name="e_wo_entrp">  -1059.18937026 </i>
    <i name="e_0_energy">  -1059.18937026 </i>
   </energy>
  </scstep>
  <scstep>
   <time name="dav">   56.99   57.01</time>
   <time name="total">   58.42   58.44</time>
   <energy>
    <i name="e_fr_energy">  -1065.24528492 </i>
    <i name="e_wo_entrp">  -1065.24528492 </i>
    <i name="e_0_energy">  -1065.24528492 </i>
   </energy>
  </scstep>
  <scstep>
   <time name="dav">   42.26   42.26</time>
   <time name="total">   44.15   44.15</time>
   <energy>
    <i name="e_fr_energy">   -904.94998272 </i>
    <i name="e_wo_entrp">   -904.94990724 </i>
    <i name="e_0_energy">   -904.94994498 </i>
   </energy>
  </scstep>
  <scstep>
   <time name="dav">   44.82   44.82</time>
   <time name="total">   46.71   46.72</time>
   <energy>
    <i name="e_fr_energy">   -907.80470696 </i>
    <i name="e_wo_entrp">   -907.77363656 </i>
    <i name="e_0_energy">   -907.78917176 </i>
   </energy>
  </scstep>
  <scstep>
   <time name="dav">   48.09   48.09</time>
   <time name="total">   49.98   49.98</time>
   <energy>
    <i name="e_fr_energy">   -903.84095696 </i>
    <i name="e_wo_entrp">   -903.79089927 </i>
    <i name="e_0_energy">   -903.81592812 </i>
   </energy>
  </scstep>
  <scstep>
   <time name="dav">   42.21   42.21</time>
   <time name="total">   44.10   44.12</time>
   <energy>
    <i name="e_fr_energy">   -904.95155827 </i>
    <i name="e_wo_entrp">   -904.95145846 </i>
    <i name="e_0_energy">   -904.95150836 </i>
   </energy>
  </scstep>
  <scstep>
   <time name="dav">   47.12   47.12</time>
   <time name="total">   49.01   49.02</time>
   <energy>
    <i name="e_fr_energy">   -904.04006869 </i>
    <i name="e_wo_entrp">   -904.00138863 </i>
    <i name="e_0_energy">   -904.02072866 </i>
   </energy>
  </scstep>
  <scstep>
   <time name="dav">   45.83   45.82</time>
   <time name="total">   47.72   47.74</time>
   <energy>
    <i name="e_fr_energy">   -904.05778450 </i>
    <i name="e_wo_entrp">   -904.04034156 </i>
    <i name="e_0_energy">   -904.04906303 </i>
   </energy>
  </scstep>
  <scstep>
   <time name="dav">   44.61   44.61</time>
   <time name="total">   46.51   46.51</time>
   <energy>
    <i name="e_fr_energy">   -903.64416623 </i>
    <i name="e_wo_entrp">   -903.60839790 </i>
    <i name="e_0_energy">   -903.62628207 </i>
   </energy>
  </scstep>
  <scstep>
   <time name="dav">   41.32   41.32</time>
   <time name="total">   43.22   43.23</time>
   <energy>
    <i name="e_fr_energy">   -903.60231213 </i>
    <i name="e_wo_entrp">   -903.59347004 </i>
    <i name="e_0_energy">   -903.59789109 </i>
   </energy>
  </scstep>
  <scstep>
   <time name="dav">   42.38   42.38</time>
   <time name="total">   44.27   44.28</time>
   <energy>
    <i name="e_fr_energy">   -903.64347164 </i>
    <i name="e_wo_entrp">   -903.60772546 </i>
    <i name="e_0_energy">   -903.62559855 </i>
   </energy>
  </scstep>
  <scstep>
   <time name="dav">   45.95   45.95</time>
   <time name="total">   47.84   47.86</time>
   <energy>
    <i name="e_fr_energy">   -903.59107328 </i>
    <i name="e_wo_entrp">   -903.54955699 </i>
    <i name="e_0_energy">   -903.57031513 </i>
   </energy>
  </scstep>
  <scstep>
   <time name="dav">   42.25   42.25</time>
   <time name="total">   44.14   44.14</time>
   <energy>
    <i name="e_fr_energy">   -903.58885620 </i>
    <i name="e_wo_entrp">   -903.53526937 </i>
    <i name="e_0_energy">   -903.56206279 </i>
   </energy>
  </scstep>
  <scstep>
   <time name="dav">   45.00   45.00</time>
   <time name="total">   46.88   46.90</time>
   <energy>
    <i name="e_fr_energy">   -903.55839062 </i>
    <i name="e_wo_entrp">   -903.51020021 </i>
    <i name="e_0_energy">   -903.53429542 </i>
   </energy>
  </scstep>
  <scstep>
   <time name="dav">   40.10   40.10</time>
   <time name="total">   41.97   41.98</time>
   <energy>
    <i name="e_fr_energy">   -903.54185030 </i>
    <i name="e_wo_entrp">   -903.50100104 </i>
    <i name="e_0_energy">   -903.52142567 </i>
   </energy>
  </scstep>
  <scstep>
   <time name="dav">   40.35   40.35</time>
   <time name="total">   42.23   42.25</time>
   <energy>
    <i name="e_fr_energy">   -903.54408883 </i>
    <i name="e_wo_entrp">   -903.49042267 </i>
    <i name="e_0_energy">   -903.51725575 </i>
   </energy>
  </scstep>
  <scstep>
   <time name="dav">   46.33   46.33</time>
   <time name="total">   48.21   48.22</time>
   <energy>
    <i name="e_fr_energy">   -903.53386186 </i>
    <i name="e_wo_entrp">   -903.49175076 </i>
    <i name="e_0_energy">   -903.51280631 </i>
   </energy>
  </scstep>
  <scstep>
   <time name="dav">   43.93   43.95</time>
   <time name="total">   45.84   45.89</time>
   <energy>
    <i name="e_fr_energy">   -903.52206415 </i>
    <i name="e_wo_entrp">   -903.47015460 </i>
    <i name="e_0_energy">   -903.49610937 </i>
   </energy>
  </scstep>
  <scstep>
   <time name="dav">   42.18   42.19</time>
   <time name="total">   44.07   44.09</time>
   <energy>
    <i name="e_fr_energy">   -903.52082153 </i>
    <i name="e_wo_entrp">   -903.46840204 </i>
    <i name="e_0_energy">   -903.49461178 </i>
   </energy>
  </scstep>
  <scstep>
   <time name="dav">   47.23   47.25</time>
   <time name="total">   49.13   49.17</time>
   <energy>
    <i name="e_fr_energy">   -903.51907016 </i>
    <i name="e_wo_entrp">   -903.46398023 </i>
    <i name="e_0_energy">   -903.49152520 </i>
   </energy>
  </scstep>
  <scstep>
   <time name="dav">   40.57   40.57</time>
   <time name="total">   42.47   42.48</time>
   <energy>
    <i name="e_fr_energy">   -903.51872038 </i>
    <i name="e_wo_entrp">   -903.46216705 </i>
    <i name="e_0_energy">   -903.49044371 </i>
   </energy>
  </scstep>
  <scstep>
   <time name="dav">   43.23   43.23</time>
   <time name="total">   45.16   45.18</time>
   <energy>
    <i name="e_fr_energy">   -903.51812294 </i>
    <i name="e_wo_entrp">   -903.45970131 </i>
    <i name="e_0_energy">   -903.48891213 </i>
   </energy>
  </scstep>
  <scstep>
   <time name="dav">   43.23   43.23</time>
   <time name="total">   45.13   45.14</time>
   <energy>
    <i name="e_fr_energy">   -903.51822558 </i>
    <i name="e_wo_entrp">   -903.46050326 </i>
    <i name="e_0_energy">   -903.48936442 </i>
   </energy>
  </scstep>
  <scstep>
   <time name="dav">   45.53   45.53</time>
   <time name="total">   47.44   47.46</time>
   <energy>
    <i name="e_fr_energy">   -903.51815469 </i>
    <i name="e_wo_entrp">   -903.46074025 </i>
    <i name="e_0_energy">   -903.48944747 </i>
   </energy>
  </scstep>
  <scstep>
   <time name="dav">   43.29   43.29</time>
   <time name="total">   45.20   45.21</time>
   <energy>
    <i name="e_fr_energy">   -903.51807885 </i>
    <i name="e_wo_entrp">   -903.46088403 </i>
    <i name="e_0_energy">   -903.48948144 </i>
   </energy>
  </scstep>
  <scstep>
   <time name="dav">   39.05   39.05</time>
   <time name="total">   40.95   40.97</time>
   <energy>
    <i name="e_fr_energy">   -903.51808810 </i>
    <i name="e_wo_entrp">   -903.46052781 </i>
    <i name="e_0_energy">   -903.48930795 </i>
   </energy>
  </scstep>
  <scstep>
   <time name="dav">   37.15   37.15</time>
   <time name="total">   39.05   39.06</time>
   <energy>
    <i name="e_fr_energy">   -903.51808816 </i>
    <i name="e_wo_entrp">   -903.46094235 </i>
    <i name="e_0_energy">   -903.48951525 </i>
   </energy>
  </scstep>
  <scstep>
   <time name="dav">   34.77   34.77</time>
   <time name="total">   36.68   36.71</time>
   <energy>
    <i name="e_fr_energy">   -903.51808630 </i>
    <i name="e_wo_entrp">   -903.46083238 </i>
    <i name="e_0_energy">   -903.48945934 </i>
   </energy>
  </scstep>
  <scstep>
   <time name="dav">   27.35   27.35</time>
   <time name="total">   27.79   27.79</time>
   <energy>
    <i name="alphaZ">   2431.37857233 </i>
    <i name="ewald"> -41616.36441343 </i>
    <i name="hartreedc"> -22431.54645641 </i>
    <i name="XCdc">   3257.38101303 </i>
    <i name="pawpsdc">  92306.13071943 </i>
    <i name="pawaedc"> -91968.01402349 </i>
    <i name="eentropy">     -0.05728996 </i>
    <i name="bandstr">  -7850.96644151 </i>
    <i name="atom">  64968.54023382 </i>
    <i name="e_fr_energy">   -903.51808619 </i>
    <i name="e_wo_entrp">   -903.46079623 </i>
    <i name="e_0_energy">   -903.48944121 </i>
   </energy>
  </scstep>
  <structure>
   <crystal>
    <varray name="basis" >
     <v>      12.52607000       0.00000000       0.00000000 </v>
     <v>       0.00000000      12.52607000       0.00000000 </v>
     <v>       0.00000000       0.00000000      12.52607000 </v>
    </varray>
    <i name="volume">   1965.37081690 </i>
    <varray name="rec_basis" >
     <v>       0.07983350       0.00000000       0.00000000 </v>
     <v>       0.00000000       0.07983350       0.00000000 </v>
     <v>       0.00000000       0.00000000       0.07983350 </v>
    </varray>
   </crystal>
   <varray name="positions" >
    <v>       0.98723169       0.74127621       0.89478864 </v>
    <v>       0.03688831       0.58200666       0.10026138 </v>
    <v>       0.14672158       0.11548814       0.81711403 </v>
    <v>       0.29789861       0.47237677       0.09474385 </v>
    <v>       0.10678230       0.76314630       0.60695889 </v>
    <v>       0.82494519       0.10134775       0.68594269 </v>
    <v>       0.16104977       0.37795381       0.69843837 </v>
    <v>       0.32218640       0.65720917       0.80692714 </v>
    <v>       0.56131747       0.41135581       0.92450789 </v>
    <v>       0.21948550       0.71899645       0.25346999 </v>
    <v>       0.57040177       0.04480466       0.48498936 </v>
    <v>       0.16063433       0.94267859       0.40115057 </v>
    <v>       0.85660730       0.31722167       0.75356268 </v>
    <v>       0.44577150       0.18456934       0.00702925 </v>
    <v>       0.01558862       0.58619639       0.40794693 </v>
    <v>       0.04668928       0.12250566       0.53281777 </v>
    <v>       0.91994176       0.20885045       0.07578071 </v>
    <v>       0.40376384       0.20899099       0.71477038 </v>
    <v>       0.50525357       0.55609213       0.34211350 </v>
    <v>       0.22416608       0.00424906       0.08822950 </v>
    <v>       0.57800338       0.14915019       0.20723684 </v>
    <v>       0.62736558       0.27910214       0.51548644 </v>
    <v>       0.74532311       0.95888862       0.27740013 </v>
    <v>       0.75442985       0.47717025       0.48391516 </v>
    <v>       0.11199918       0.27592528       0.31263627 </v>
    <v>       0.77308299       0.69546402       0.13268162 </v>
    <v>       0.62374183       0.60880452       0.72132001 </v>
    <v>       0.94559293       0.57074878       0.65136964 </v>
    <v>       0.61802223       0.41364511       0.16954620 </v>
    <v>       0.60658109       0.02751149       0.94680374 </v>
    <v>       0.45885269       0.78181570       0.62780072 </v>
    <v>       0.49916079       0.41430495       0.63915281 </v>
    <v>       0.71315464       0.87487940       0.59370273 </v>
    <v>       0.28413736       0.00658717       0.63567628 </v>
    <v>       0.31380664       0.82512166       0.49288953 </v>
    <v>       0.01056277       0.81715796       0.19349680 </v>
    <v>       0.30490592       0.17692435       0.22848306 </v>
    <v>       0.28682322       0.36909852       0.88633186 </v>
    <v>       0.86191695       0.38755710       0.27680413 </v>
    <v>       0.08296118       0.30191818       0.93966962 </v>
    <v>       0.89376522       0.75102780       0.46591871 </v>
    <v>       0.96794525       0.00357782       0.92210477 </v>
    <v>       0.26090116       0.48799880       0.33879576 </v>
    <v>       0.96062576       0.37772491       0.51738727 </v>
    <v>       0.81388810       0.16706862       0.36525812 </v>
    <v>       0.92625189       0.91394580       0.71577149 </v>
    <v>       0.32507480       0.60548176       0.58326490 </v>
    <v>       0.43033538       0.32022376       0.32875150 </v>
    <v>       0.66027397       0.20306120       0.85688226 </v>
    <v>       0.57795832       0.66725157       0.99487648 </v>
    <v>       0.32993123       0.77556203       0.01558220 </v>
    <v>       0.84872981       0.57883938       0.86714731 </v>
    <v>       0.38580978       0.93584295       0.85692144 </v>
    <v>       0.53667606       0.83705427       0.24403344 </v>
    <v>       0.60941625       0.91796137       0.99922113 </v>
    <v>       0.61907195       0.10907405       0.05779427 </v>
    <v>       0.82931456       0.87561729       0.64444479 </v>
    <v>       0.26762272       0.27856510       0.77678788 </v>
    <v>       0.50588648       0.23564133       0.37268993 </v>
    <v>       0.86346575       0.66905406       0.35132733 </v>
    <v>       0.30623726       0.49293252       0.79778002 </v>
    <v>       0.90749196       0.92092448       0.83889123 </v>
    <v>       0.12057581       0.48393121       0.28973515 </v>
    <v>       0.33914773       0.78898128       0.14615109 </v>
    <v>       0.71321627       0.00936070       0.55481519 </v>
    <v>       0.99889280       0.35500333       0.00159299 </v>
    <v>       0.45268053       0.82784731       0.50865855 </v>
    <v>       0.30989311       0.19351767       0.09799103 </v>
    <v>       0.60931261       0.32987806       0.08479408 </v>
    <v>       0.42744357       0.67214463       0.66025873 </v>
    <v>       0.25201758       0.65486674       0.66230663 </v>
    <v>       0.02567478       0.80366641       0.44971335 </v>
    <v>       0.82067437       0.48955319       0.20317322 </v>
    <v>       0.00586205       0.98383599       0.64746890 </v>
    <v>       0.98115089       0.55279733       0.78529531 </v>
    <v>       0.77364802       0.81310443       0.45500802 </v>
    <v>       0.17764372       0.04767828       0.58229709 </v>
    <v>       0.89466703       0.82383878       0.19577988 </v>
    <v>       0.35391009       0.68851940       0.49891618 </v>
    <v>       0.20275856       0.77979009       0.41878185 </v>
    <v>       0.39822454       0.49319413       0.59803267 </v>
    <v>       0.89629282       0.05159717       0.01107380 </v>
    <v>       0.76589169       0.28098721       0.89958486 </v>
    <v>       0.13749362       0.19440848       0.96670358 </v>
    <v>       0.60258776       0.78935553       0.63419313 </v>
    <v>       0.31591802       0.91311277       0.96758797 </v>
    <v>       0.31603648       0.92563762       0.40451388 </v>
    <v>       0.90117832       0.61653769       0.97782886 </v>
    <v>       0.59863002       0.44639175       0.54160596 </v>
    <v>       0.29536450       0.00115737       0.77168412 </v>
    <v>       0.55474765       0.94654078       0.29376019 </v>
    <v>       0.49453888       0.39230265       0.23730106 </v>
    <v>       0.92087031       0.41654451       0.40428692 </v>
    <v>       0.31692131       0.30964078       0.24906583 </v>
    <v>       0.58987531       0.53456707       0.15795291 </v>
    <v>       0.91809889       0.65988886       0.57589237 </v>
    <v>       0.64458866       0.22147581       0.72058536 </v>
    <v>       0.09364782       0.89631808       0.23833377 </v>
    <v>       0.65868095       0.05275367       0.82963930 </v>
    <v>       0.27184820       0.69415424       0.95743244 </v>
    <v>       0.83544708       0.48787393       0.63706395 </v>
    <v>       0.56988110       0.42110279       0.75717216 </v>
    <v>       0.04819041       0.79398515       0.01843350 </v>
    <v>       0.41560176       0.09468419       0.22879831 </v>
    <v>       0.50866015       0.72483914       0.30089120 </v>
    <v>       0.40471205       0.34094294       0.95472103 </v>
    <v>       0.52661506       0.21449576       0.87686944 </v>
    <v>       0.04540029       0.68834382       0.23888419 </v>
    <v>       0.30055919       0.55451957       0.25286939 </v>
    <v>       0.06837366       0.31205189       0.50753016 </v>
    <v>       0.91579557       0.09840231       0.36746783 </v>
    <v>       0.70788862       0.14570882       0.43584051 </v>
    <v>       0.80200960       0.67997167       0.80077495 </v>
    <v>       0.86488748       0.28293394       0.57012721 </v>
    <v>       0.63108635       0.59933897       0.88752099 </v>
    <v>       0.38786014       0.06155790       0.59002189 </v>
    <v>       0.94428925       0.27228510       0.27866296 </v>
    <v>       0.03972931       0.47186244       0.59407603 </v>
    <v>       0.03954710       0.29607325       0.81016453 </v>
    <v>       0.41966900       0.82121935       0.77844165 </v>
    <v>       0.25028682       0.53551226       0.45243649 </v>
    <v>       0.44958431       0.68825877       0.97801105 </v>
    <v>       0.77806416       0.16329576       0.22703502 </v>
    <v>       0.18937859       0.42082429       0.95838320 </v>
    <v>       0.28969450       0.87393483       0.62274897 </v>
    <v>       0.45746712       0.30377528       0.59098570 </v>
    <v>       0.97233614       0.09259105       0.82124947 </v>
    <v>       0.98573990       0.78954824       0.69966809 </v>
    <v>       0.09846016       0.98375137       0.92084061 </v>
    <v>       0.74136002       0.38316600       0.35234400 </v>
    <v>       0.77758450       0.48845300       0.87019648 </v>
    <v>       0.48327447       0.03241973       0.85615788 </v>
    <v>       0.39806345       0.41680681       0.39782467 </v>
    <v>       0.19032503       0.14024473       0.24347428 </v>
    <v>       0.62453415       0.79677993       0.14885677 </v>
   </varray>
  </structure>
  <varray name="forces" >
   <v>      -1.13788585       0.28135660      -5.19505977 </v>
   <v>      -1.35758248      -0.35450834      -0.56340397 </v>
   <v>      -0.66803970      -0.64765254      -0.80203393 </v>
   <v>       1.26103474      -0.79146336      -0.01626489 </v>
   <v>       2.30781627       0.28169826      -1.23006285 </v>
   <v>      -1.67016772      -0.08064953       0.19597511 </v>
   <v>      -1.18478436       2.10963764      -1.34196844 </v>
   <v>       1.60284062       0.10927534       0.70524835 </v>
   <v>       1.66956459       0.34814125      -0.33511758 </v>
   <v>       0.56570106       1.02953964       1.34266313 </v>
   <v>      -4.04451445      -0.37049759      -0.83460864 </v>
   <v>      -3.47007777       1.13730593      -1.31092961 </v>
   <v>      -0.08169254       2.90110592       1.42576554 </v>
   <v>      -0.21513793      -1.64567041       2.14018107 </v>
   <v>       1.53147837       0.15129934      -1.98118271 </v>
   <v>      -2.61834013       0.87187658      -0.24487831 </v>
   <v>      -1.63917293      -0.33085610       0.37560106 </v>
   <v>       2.84087418      -2.67699487       0.40439808 </v>
   <v>      -0.47331872       0.74118100      -0.17694360 </v>
   <v>      -1.77610364       0.66673287       0.33047929 </v>
   <v>       0.84325474       0.70602402       2.01067275 </v>
   <v>      -0.47964516      -0.36502314       0.62446551 </v>
   <v>       1.54151317      -0.88542763      -0.88041776 </v>
   <v>       0.41049283       2.69278178       0.79022085 </v>
   <v>      -0.59118610       1.73813581       0.69701575 </v>
   <v>       0.47975123      -0.27940115       0.72773867 </v>
   <v>       1.38425474      -0.18085858      -0.04449341 </v>
   <v>      -1.12479765      -7.70685694       6.26899236 </v>
   <v>      -2.07064291       1.44074958       3.59262250 </v>
   <v>      -0.76687395       0.26758468      -0.26649241 </v>
   <v>       3.56297296       6.04543683       1.34592950 </v>
   <v>       0.96692976       2.21008001      -0.84631708 </v>
   <v>      -0.42233771      -0.03398031      -3.17350505 </v>
   <v>       2.51764630      -1.67905341       0.50894152 </v>
   <v>       1.38694450      -1.20295160      -3.89426822 </v>
   <v>       5.99607253      -3.89652797      -2.46384593 </v>
   <v>       6.02214712      -1.36684421      -5.49948970 </v>
   <v>       4.17551420       2.64069683      -3.80764719 </v>
   <v>      -1.69715259       0.01086944       2.36273394 </v>
   <v>       2.13850353       0.45868798      -5.30649125 </v>
   <v>       0.29981904       0.36601128      -3.61422177 </v>
   <v>       2.20271607       1.86727979      -2.39640694 </v>
   <v>      -4.22731070      -4.42345758       6.64875586 </v>
   <v>       0.04030191      -2.37997469       4.20989298 </v>
   <v>      -1.73907029       0.86960231      -4.72284689 </v>
   <v>       5.25184530      -6.17061518      -0.90204695 </v>
   <v>       3.91000207      -6.06607405      -2.77947517 </v>
   <v>       0.05107928       1.72878819      -2.46555208 </v>
   <v>      -0.56783273       0.21660670      -4.19908403 </v>
   <v>       0.29760603       0.07086723      -2.18927496 </v>
   <v>       5.40729024       4.29086340       5.42829094 </v>
   <v>       3.91553465       5.07422762      -2.09960527 </v>
   <v>       1.86586354       1.01908200      -4.76555431 </v>
   <v>       0.80692765      -6.69228716      -1.95436986 </v>
   <v>      -0.30284902      -3.08810630       0.11128944 </v>
   <v>      -0.59919900      -0.89095830      -4.26155325 </v>
   <v>      -2.98396943      -0.04943088       0.43509254 </v>
   <v>      -0.33114078       0.57669007       3.85717791 </v>
   <v>       1.68850571      -2.70409413       1.30167112 </v>
   <v>       0.99099574       0.14707885       3.93973025 </v>
   <v>      -0.81975598      -5.19302065       2.61202611 </v>
   <v>      -1.89047558      -1.93945124       2.36593793 </v>
   <v>       2.19510124      -2.06735777       0.11452322 </v>
   <v>      -0.14170317       0.85262987      -2.17845635 </v>
   <v>      -0.51872724      -4.16706270       2.54876886 </v>
   <v>      -4.68646416       2.56178056       5.00451212 </v>
   <v>       1.29415844       2.88831190       1.00150194 </v>
   <v>      -1.80191778      -0.62330031      -0.47127358 </v>
   <v>       0.89119875      -2.93389307      -2.47328337 </v>
   <v>       2.81045622      -5.08722512       2.84627487 </v>
   <v>      -8.30166835       0.92165424       1.70177218 </v>
   <v>      -5.31469798      -1.37966409       1.20210907 </v>
   <v>       1.87464450      -1.90380295      -0.21373013 </v>
   <v>      -1.26436922       2.41680125      -1.13601325 </v>
   <v>      -1.17070134       1.34383067      -1.67895949 </v>
   <v>      -0.74597958       1.12568143       3.17881241 </v>
   <v>       0.86903239       0.46708142       0.03946732 </v>
   <v>      -8.65067918       1.49201638      -0.12335623 </v>
   <v>      -0.40313023       2.29410316      -4.42031528 </v>
   <v>       1.26383145      -0.60596676       2.03693660 </v>
   <v>      -0.22449199       0.37392798       0.59704938 </v>
   <v>      -0.41956038      -0.08090372       2.10106432 </v>
   <v>      -2.85903625      -3.20417474      -0.26724824 </v>
   <v>       0.96646336      -0.70507683       1.65257310 </v>
   <v>       2.28410648       1.71951371      -0.11066064 </v>
   <v>       1.78958399      -2.60278869      -0.41769261 </v>
   <v>       2.18485586       0.12577688       0.73132341 </v>
   <v>       0.55289814       0.04288529       2.66224008 </v>
   <v>      -1.02497058       1.22181484       1.23738999 </v>
   <v>      -0.33191864       0.64792573       0.61671389 </v>
   <v>       1.85989048       3.21237715       1.47646203 </v>
   <v>       2.37677944      -0.22054460      -0.83781146 </v>
   <v>      -0.01031471       2.78183863      -0.84445732 </v>
   <v>      -0.30584784      -0.31382893       2.61163742 </v>
   <v>       1.10329779       2.81572116      -0.72504587 </v>
   <v>      -0.55968329       4.18770894      -5.43000037 </v>
   <v>       2.95278996      -0.21780302      -0.59509054 </v>
   <v>       2.34919157       1.90747349      -0.18923396 </v>
   <v>       3.58260093       2.64714747       1.32184318 </v>
   <v>      -6.91720026      -4.25288312      -1.48680961 </v>
   <v>       1.72689287       0.47288850      -0.13136729 </v>
   <v>      -2.55424024       1.32304098      -3.72667837 </v>
   <v>       1.42639195       0.75664515       7.36593930 </v>
   <v>      -2.71990033       1.53863911       1.00556182 </v>
   <v>      -0.55123070       1.25077033       0.22334840 </v>
   <v>      -4.85413771       3.04443265      -0.68997435 </v>
   <v>       4.18729545       2.00756406      -1.57066049 </v>
   <v>       0.27250999       0.87809533      -1.63518142 </v>
[...]
       <r>     3.0353     2.2713   866.0000 </r>
       <r>     3.2093     0.0000   866.0000 </r>
       <r>     3.3834     0.0000   866.0000 </r>
       <r>     3.5574     0.0000   866.0000 </r>
       <r>     3.7314     0.0042   866.0007 </r>
       <r>     3.9054     5.4443   866.9482 </r>
       <r>     4.0795     6.0432   867.9999 </r>
       <r>     4.2535     0.0859   868.0148 </r>
       <r>     4.4275     6.2775   869.1073 </r>
       <r>     4.6015    12.3548   871.2574 </r>
       <r>     4.7756     6.8984   872.4579 </r>
       <r>     4.9496    17.3018   875.4689 </r>
       <r>     5.1236     6.1799   876.5443 </r>
       <r>     5.2977    17.3247   879.5593 </r>
       <r>     5.4717    20.6932   883.1605 </r>
       <r>     5.6457    22.6502   887.1023 </r>
       <r>     5.8197    27.9465   891.9657 </r>
       <r>     5.9938    20.9243   895.6071 </r>
       <r>     6.1678    40.9770   902.7383 </r>
       <r>     6.3418    64.1694   913.9055 </r>
       <r>     6.5159    34.7476   919.9526 </r>
       <r>     6.6899    41.0995   927.1050 </r>
       <r>     6.8639    46.3546   935.1720 </r>
       <r>     7.0379    55.8732   944.8955 </r>
       <r>     7.2120    58.7804   955.1249 </r>
       <r>     7.3860    70.5516   967.4028 </r>
       <r>     7.5600    70.0875   979.6000 </r>
       <r>     7.7340    78.9075   993.3321 </r>
       <r>     7.9081    75.1688  1006.4135 </r>
       <r>     8.0821    80.9658  1020.5038 </r>
       <r>     8.2561    87.1485  1035.6701 </r>
       <r>     8.4302    24.8771  1039.9994 </r>
       <r>     8.6042     0.0036  1040.0000 </r>
       <r>     8.7782     0.0000  1040.0000 </r>
       <r>     8.9522     0.0000  1040.0000 </r>
       <r>     9.1263     0.0000  1040.0000 </r>
       <r>     9.3003     0.0000  1040.0000 </r>
       <r>     9.4743     0.0000  1040.0000 </r>
       <r>     9.6484     0.0000  1040.0000 </r>
       <r>     9.8224     0.0000  1040.0000 </r>
       <r>     9.9964     0.0000  1040.0000 </r>
       <r>    10.1704     0.0000  1040.0000 </r>
       <r>    10.3445     0.0000  1040.0000 </r>
       <r>    10.5185     0.0000  1040.0000 </r>
       <r>    10.6925     0.0000  1040.0000 </r>
      </set>
     </set>
    </array>
   </total>
  </dos>
 </calculation>
 <structure name="finalpos" >
  <crystal>
   <varray name="basis" >
    <v>      12.52607000       0.00000000       0.00000000 </v>
    <v>       0.00000000      12.52607000       0.00000000 </v>
    <v>       0.00000000       0.00000000      12.52607000 </v>
   </varray>
   <i name="volume">   1965.37081690 </i>
   <varray name="rec_basis" >
    <v>       0.07983350       0.00000000       0.00000000 </v>
    <v>       0.00000000       0.07983350       0.00000000 </v>
    <v>       0.00000000       0.00000000       0.07983350 </v>
   </varray>
  </crystal>
  <varray name="positions" >
   <v>       0.98723169       0.74127621       0.89478864 </v>
   <v>       0.03688831       0.58200666       0.10026138 </v>
   <v>       0.14672158       0.11548814       0.81711403 </v>
   <v>       0.29789861       0.47237677       0.09474385 </v>
   <v>       0.10678230       0.76314630       0.60695889 </v>
   <v>       0.82494519       0.10134775       0.68594269 </v>
   <v>       0.16104977       0.37795381       0.69843837 </v>
   <v>       0.32218640       0.65720917       0.80692714 </v>
   <v>       0.56131747       0.41135581       0.92450789 </v>
   <v>       0.21948550       0.71899645       0.25346999 </v>
   <v>       0.57040177       0.04480466       0.48498936 </v>
   <v>       0.16063433       0.94267859       0.40115057 </v>
   <v>       0.85660730       0.31722167       0.75356268 </v>
   <v>       0.44577150       0.18456934       0.00702925 </v>
   <v>       0.01558862       0.58619639       0.40794693 </v>
   <v>       0.04668928       0.12250566       0.53281777 </v>
   <v>       0.91994176       0.20885045       0.07578071 </v>
   <v>       0.40376384       0.20899099       0.71477038 </v>
   <v>       0.50525357       0.55609213       0.34211350 </v>
   <v>       0.22416608       0.00424906       0.08822950 </v>
   <v>       0.57800338       0.14915019       0.20723684 </v>
   <v>       0.62736558       0.27910214       0.51548644 </v>
   <v>       0.74532311       0.95888862       0.27740013 </v>
   <v>       0.75442985       0.47717025       0.48391516 </v>
   <v>       0.11199918       0.27592528       0.31263627 </v>
   <v>       0.77308299       0.69546402       0.13268162 </v>
   <v>       0.62374183       0.60880452       0.72132001 </v>
   <v>       0.94559293       0.57074878       0.65136964 </v>
   <v>       0.61802223       0.41364511       0.16954620 </v>
   <v>       0.60658109       0.02751149       0.94680374 </v>
   <v>       0.45885269       0.78181570       0.62780072 </v>
   <v>       0.49916079       0.41430495       0.63915281 </v>
   <v>       0.71315464       0.87487940       0.59370273 </v>
   <v>       0.28413736       0.00658717       0.63567628 </v>
   <v>       0.31380664       0.82512166       0.49288953 </v>
   <v>       0.01056277       0.81715796       0.19349680 </v>
   <v>       0.30490592       0.17692435       0.22848306 </v>
   <v>       0.28682322       0.36909852       0.88633186 </v>
   <v>       0.86191695       0.38755710       0.27680413 </v>
   <v>       0.08296118       0.30191818       0.93966962 </v>
   <v>       0.89376522       0.75102780       0.46591871 </v>
   <v>       0.96794525       0.00357782       0.92210477 </v>
   <v>       0.26090116       0.48799880       0.33879576 </v>
   <v>       0.96062576       0.37772491       0.51738727 </v>
   <v>       0.81388810       0.16706862       0.36525812 </v>
   <v>       0.92625189       0.91394580       0.71577149 </v>
   <v>       0.32507480       0.60548176       0.58326490 </v>
   <v>       0.43033538       0.32022376       0.32875150 </v>
   <v>       0.66027397       0.20306120       0.85688226 </v>
   <v>       0.57795832       0.66725157       0.99487648 </v>
   <v>       0.32993123       0.77556203       0.01558220 </v>
   <v>       0.84872981       0.57883938       0.86714731 </v>
   <v>       0.38580978       0.93584295       0.85692144 </v>
   <v>       0.53667606       0.83705427       0.24403344 </v>
   <v>       0.60941625       0.91796137       0.99922113 </v>
   <v>       0.61907195       0.10907405       0.05779427 </v>
   <v>       0.82931456       0.87561729       0.64444479 </v>
   <v>       0.26762272       0.27856510       0.77678788 </v>
   <v>       0.50588648       0.23564133       0.37268993 </v>
   <v>       0.86346575       0.66905406       0.35132733 </v>
   <v>       0.30623726       0.49293252       0.79778002 </v>
   <v>       0.90749196       0.92092448       0.83889123 </v>
   <v>       0.12057581       0.48393121       0.28973515 </v>
   <v>       0.33914773       0.78898128       0.14615109 </v>
   <v>       0.71321627       0.00936070       0.55481519 </v>
   <v>       0.99889280       0.35500333       0.00159299 </v>
   <v>       0.45268053       0.82784731       0.50865855 </v>
   <v>       0.30989311       0.19351767       0.09799103 </v>
   <v>       0.60931261       0.32987806       0.08479408 </v>
   <v>       0.42744357       0.67214463       0.66025873 </v>
   <v>       0.25201758       0.65486674       0.66230663 </v>
   <v>       0.02567478       0.80366641       0.44971335 </v>
   <v>       0.82067437       0.48955319       0.20317322 </v>
   <v>       0.00586205       0.98383599       0.64746890 </v>
   <v>       0.98115089       0.55279733       0.78529531 </v>
   <v>       0.77364802       0.81310443       0.45500802 </v>
   <v>       0.17764372       0.04767828       0.58229709 </v>
   <v>       0.89466703       0.82383878       0.19577988 </v>
   <v>       0.35391009       0.68851940       0.49891618 </v>
   <v>       0.20275856       0.77979009       0.41878185 </v>
   <v>       0.39822454       0.49319413       0.59803267 </v>
   <v>       0.89629282       0.05159717       0.01107380 </v>
   <v>       0.76589169       0.28098721       0.89958486 </v>
   <v>       0.13749362       0.19440848       0.96670358 </v>
   <v>       0.60258776       0.78935553       0.63419313 </v>
   <v>       0.31591802       0.91311277       0.96758797 </v>
   <v>       0.31603648       0.92563762       0.40451388 </v>
   <v>       0.90117832       0.61653769       0.97782886 </v>
   <v>       0.59863002       0.44639175       0.54160596 </v>
   <v>       0.29536450       0.00115737       0.77168412 </v>
   <v>       0.55474765       0.94654078       0.29376019 </v>
   <v>       0.49453888       0.39230265       0.23730106 </v>
   <v>       0.92087031       0.41654451       0.40428692 </v>
   <v>       0.31692131       0.30964078       0.24906583 </v>
   <v>       0.58987531       0.53456707       0.15795291 </v>
   <v>       0.91809889       0.65988886       0.57589237 </v>
   <v>       0.64458866       0.22147581       0.72058536 </v>
   <v>       0.09364782       0.89631808       0.23833377 </v>
   <v>       0.65868095       0.05275367       0.82963930 </v>
   <v>       0.27184820       0.69415424       0.95743244 </v>
   <v>       0.83544708       0.48787393       0.63706395 </v>
   <v>       0.56988110       0.42110279       0.75717216 </v>
   <v>       0.04819041       0.79398515       0.01843350 </v>
   <v>       0.41560176       0.09468419       0.22879831 </v>
   <v>       0.50866015       0.72483914       0.30089120 </v>
   <v>       0.40471205       0.34094294       0.95472103 </v>
   <v>       0.52661506       0.21449576       0.87686944 </v>
   <v>       0.04540029       0.68834382       0.23888419 </v>
   <v>       0.30055919       0.55451957       0.25286939 </v>
   <v>       0.06837366       0.31205189       0.50753016 </v>
   <v>       0.91579557       0.09840231       0.36746783 </v>
   <v>       0.70788862       0.14570882       0.43584051 </v>
   <v>       0.80200960       0.67997167       0.80077495 </v>
   <v>       0.86488748       0.28293394       0.57012721 </v>
   <v>       0.63108635       0.59933897       0.88752099 </v>
   <v>       0.38786014       0.06155790       0.59002189 </v>
   <v>       0.94428925       0.27228510       0.27866296 </v>
   <v>       0.03972931       0.47186244       0.59407603 </v>
   <v>       0.03954710       0.29607325       0.81016453 </v>
   <v>       0.41966900       0.82121935       0.77844165 </v>
   <v>       0.25028682       0.53551226       0.45243649 </v>
   <v>       0.44958431       0.68825877       0.97801105 </v>
   <v>       0.77806416       0.16329576       0.22703502 </v>
   <v>       0.18937859       0.42082429       0.95838320 </v>
   <v>       0.28969450       0.87393483       0.62274897 </v>
   <v>       0.45746712       0.30377528       0.59098570 </v>
   <v>       0.97233614       0.09259105       0.82124947 </v>
   <v>       0.98573990       0.78954824       0.69966809 </v>
   <v>       0.09846016       0.98375137       0.92084061 </v>
   <v>       0.74136002       0.38316600       0.35234400 </v>
   <v>       0.77758450       0.48845300       0.87019648 </v>
   <v>       0.48327447       0.03241973       0.85615788 </v>
   <v>       0.39806345       0.41680681       0.39782467 </v>
   <v>       0.19032503       0.14024473       0.24347428 </v>
   <v>       0.62453415       0.79677993       0.14885677 </v>
  </varray>
  <varray name="velocities" >
   <v>       0.00000000       0.00000000       0.00000000 </v>
   <v>       0.00000000       0.00000000       0.00000000 </v>
   <v>       0.00000000       0.00000000       0.00000000 </v>
   <v>       0.00000000       0.00000000       0.00000000 </v>
   <v>       0.00000000       0.00000000       0.00000000 </v>
   <v>       0.00000000       0.00000000       0.00000000 </v>
   <v>       0.00000000       0.00000000       0.00000000 </v>
   <v>       0.00000000       0.00000000       0.00000000 </v>
   <v>       0.00000000       0.00000000       0.00000000 </v>
   <v>       0.00000000       0.00000000       0.00000000 </v>
   <v>       0.00000000       0.00000000       0.00000000 </v>
   <v>       0.00000000       0.00000000       0.00000000 </v>
   <v>       0.00000000       0.00000000       0.00000000 </v>
   <v>       0.00000000       0.00000000       0.00000000 </v>
   <v>       0.00000000       0.00000000       0.00000000 </v>
   <v>       0.00000000       0.00000000       0.00000000 </v>
   <v>       0.00000000       0.00000000       0.00000000 </v>
   <v>       0.00000000       0.00000000       0.00000000 </v>
   <v>       0.00000000       0.00000000       0.00000000 </v>
   <v>       0.00000000       0.00000000       0.00000000 </v>
   <v>       0.00000000       0.00000000       0.00000000 </v>
   <v>       0.00000000       0.00000000       0.00000000 </v>
   <v>       0.00000000       0.00000000       0.00000000 </v>
   <v>       0.00000000       0.00000000       0.00000000 </v>
   <v>       0.00000000       0.00000000       0.00000000 </v>
   <v>       0.00000000       0.00000000       0.00000000 </v>
   <v>       0.00000000       0.00000000       0.00000000 </v>
   <v>       0.00000000       0.00000000       0.00000000 </v>
   <v>       0.00000000       0.00000000       0.00000000 </v>
   <v>       0.00000000       0.00000000       0.00000000 </v>
   <v>       0.00000000       0.00000000       0.00000000 </v>
   <v>       0.00000000       0.00000000       0.00000000 </v>
   <v>       0.00000000       0.00000000       0.00000000 </v>
   <v>       0.00000000       0.00000000       0.00000000 </v>
   <v>       0.00000000       0.00000000       0.00000000 </v>
   <v>       0.00000000       0.00000000       0.00000000 </v>
   <v>       0.00000000       0.00000000       0.00000000 </v>
   <v>       0.00000000       0.00000000       0.00000000 </v>
   <v>       0.00000000       0.00000000       0.00000000 </v>
   <v>       0.00000000       0.00000000       0.00000000 </v>
   <v>       0.00000000       0.00000000       0.00000000 </v>
   <v>       0.00000000       0.00000000       0.00000000 </v>
   <v>       0.00000000       0.00000000       0.00000000 </v>
   <v>       0.00000000       0.00000000       0.00000000 </v>
   <v>       0.00000000       0.00000000       0.00000000 </v>
   <v>       0.00000000       0.00000000       0.00000000 </v>
   <v>       0.00000000       0.00000000       0.00000000 </v>
   <v>       0.00000000       0.00000000       0.00000000 </v>
   <v>       0.00000000       0.00000000       0.00000000 </v>
   <v>       0.00000000       0.00000000       0.00000000 </v>
   <v>       0.00000000       0.00000000       0.00000000 </v>
   <v>       0.00000000       0.00000000       0.00000000 </v>
   <v>       0.00000000       0.00000000       0.00000000 </v>
   <v>       0.00000000       0.00000000       0.00000000 </v>
   <v>       0.00000000       0.00000000       0.00000000 </v>
   <v>       0.00000000       0.00000000       0.00000000 </v>
   <v>       0.00000000       0.00000000       0.00000000 </v>
   <v>       0.00000000       0.00000000       0.00000000 </v>
   <v>       0.00000000       0.00000000       0.00000000 </v>
   <v>       0.00000000       0.00000000       0.00000000 </v>
   <v>       0.00000000       0.00000000       0.00000000 </v>
   <v>       0.00000000       0.00000000       0.00000000 </v>
   <v>       0.00000000       0.00000000       0.00000000 </v>
   <v>       0.00000000       0.00000000       0.00000000 </v>
   <v>       0.00000000       0.00000000       0.00000000 </v>
   <v>       0.00000000       0.00000000       0.00000000 </v>
   <v>       0.00000000       0.00000000       0.00000000 </v>
   <v>       0.00000000       0.00000000       0.00000000 </v>
   <v>       0.00000000       0.00000000       0.00000000 </v>
   <v>       0.00000000       0.00000000       0.00000000 </v>
   <v>       0.00000000       0.00000000       0.00000000 </v>
   <v>       0.00000000       0.00000000       0.00000000 </v>
   <v>       0.00000000       0.00000000       0.00000000 </v>
   <v>       0.00000000       0.00000000       0.00000000 </v>
   <v>       0.00000000       0.00000000       0.00000000 </v>
   <v>       0.00000000       0.00000000       0.00000000 </v>
   <v>       0.00000000       0.00000000       0.00000000 </v>
   <v>       0.00000000       0.00000000       0.00000000 </v>
   <v>       0.00000000       0.00000000       0.00000000 </v>
   <v>       0.00000000       0.00000000       0.00000000 </v>
   <v>       0.00000000       0.00000000       0.00000000 </v>
   <v>       0.00000000       0.00000000       0.00000000 </v>
   <v>       0.00000000       0.00000000       0.00000000 </v>
   <v>       0.00000000       0.00000000       0.00000000 </v>
   <v>       0.00000000       0.00000000       0.00000000 </v>
   <v>       0.00000000       0.00000000       0.00000000 </v>
   <v>       0.00000000       0.00000000       0.00000000 </v>
   <v>       0.00000000       0.00000000       0.00000000 </v>
   <v>       0.00000000       0.00000000       0.00000000 </v>
   <v>       0.00000000       0.00000000       0.00000000 </v>
   <v>       0.00000000       0.00000000       0.00000000 </v>
   <v>       0.00000000       0.00000000       0.00000000 </v>
   <v>       0.00000000       0.00000000       0.00000000 </v>
   <v>       0.00000000       0.00000000       0.00000000 </v>
   <v>       0.00000000       0.00000000       0.00000000 </v>
   <v>       0.00000000       0.00000000       0.00000000 </v>
   <v>       0.00000000       0.00000000       0.00000000 </v>
   <v>       0.00000000       0.00000000       0.00000000 </v>
   <v>       0.00000000       0.00000000       0.00000000 </v>
   <v>       0.00000000       0.00000000       0.00000000 </v>
   <v>       0.00000000       0.00000000       0.00000000 </v>
   <v>       0.00000000       0.00000000       0.00000000 </v>
   <v>       0.00000000       0.00000000       0.00000000 </v>
   <v>       0.00000000       0.00000000       0.00000000 </v>
   <v>       0.00000000       0.00000000       0.00000000 </v>
   <v>       0.00000000       0.00000000       0.00000000 </v>
   <v>       0.00000000       0.00000000       0.00000000 </v>
   <v>       0.00000000       0.00000000       0.00000000 </v>
   <v>       0.00000000       0.00000000       0.00000000 </v>
   <v>       0.00000000       0.00000000       0.00000000 </v>
   <v>       0.00000000       0.00000000       0.00000000 </v>
   <v>       0.00000000       0.00000000       0.00000000 </v>
   <v>       0.00000000       0.00000000       0.00000000 </v>
   <v>       0.00000000       0.00000000       0.00000000 </v>
   <v>       0.00000000       0.00000000       0.00000000 </v>
   <v>       0.00000000       0.00000000       0.00000000 </v>
   <v>       0.00000000       0.00000000       0.00000000 </v>
   <v>       0.00000000       0.00000000       0.00000000 </v>
   <v>       0.00000000       0.00000000       0.00000000 </v>
   <v>       0.00000000       0.00000000       0.00000000 </v>
   <v>       0.00000000       0.00000000       0.00000000 </v>
   <v>       0.00000000       0.00000000       0.00000000 </v>
   <v>       0.00000000       0.00000000       0.00000000 </v>
   <v>       0.00000000       0.00000000       0.00000000 </v>
   <v>       0.00000000       0.00000000       0.00000000 </v>
   <v>       0.00000000       0.00000000       0.00000000 </v>
   <v>       0.00000000       0.00000000       0.00000000 </v>
   <v>       0.00000000       0.00000000       0.00000000 </v>
   <v>       0.00000000       0.00000000       0.00000000 </v>
   <v>       0.00000000       0.00000000       0.00000000 </v>
   <v>       0.00000000       0.00000000       0.00000000 </v>
   <v>       0.00000000       0.00000000       0.00000000 </v>
   <v>       0.00000000       0.00000000       0.00000000 </v>
   <v>       0.00000000       0.00000000       0.00000000 </v>
   <v>       0.00000000       0.00000000       0.00000000 </v>
  </varray>
 </structure>
</modeling>
