135
Time=99999.99999996 pbc="T T T" Lattice="14.01277600 0.00000000 0.00000000 0.00000000 14.01277600 0.00000000 0.00000000 0.00000000 14.01277600" energy=-891.40496798 virial="-41.40033467 25.47216432 12.36266828 25.47216432 -44.99975277 -7.77468370 12.36266828 -7.77468370 -42.72756338" stress="0.00186563 0.00925749 0.00449303 0.00925749 0.00055747 -0.00282560 0.00449303 -0.00282560 0.00138327" Properties=species:S:1:pos:R:3
Ca 6.17965011 4.70308604 1.54399408
Ca 1.82459499 8.63077215 13.77595159
Ca 7.86249046 12.84103727 12.63128009
Ca 4.53999985 12.99043009 4.23873514
Ca 12.17927209 12.32900589 9.98221632
Ca 4.66251163 0.38492433 9.60487347
Ca 6.93923932 7.85412998 12.58243917
Ca 10.23962061 10.37875318 4.39632308
Ca 1.20767875 0.91863653 2.59284137
Ca 8.68278560 4.65513090 9.28907428
Ca 7.59801669 4.51439323 4.87187560
Ca 2.71854981 10.41905101 1.89526437
Ca 12.24760795 6.01308360 8.17340387
Ca 2.97451793 9.82151804 6.67224352
Ca 2.57537814 3.26200804 6.21323727
Ca 12.56048974 12.53453459 4.07024846
Ca 13.59228558 8.01895050 4.93074055
Ca 8.87524841 13.88346817 7.72991072
Ca 9.82649553 10.04458869 1.08306890
Ca 3.64320090 1.75869913 13.21864962
Ca 9.84808386 8.41383912 8.45494059
Ca 10.90590200 0.20056778 12.02915671
Ca 12.28204577 4.73441787 3.70310138
Ca 2.50158303 8.88944329 9.59772846
Ca 2.63434384 6.03953382 2.62258340
Ca 1.04958668 0.35176807 8.80260955
Ca 11.43907032 5.82461509 0.04985639
Si 11.72304125 0.05859139 6.81163606
Si 10.17774826 2.88045691 7.05396259
Si 12.89287165 10.51916929 1.87589207
Si 3.76579660 11.47266629 9.90783895
Si 6.28474031 8.38977110 6.12639775
Si 1.53198843 5.94231829 9.08492779
Si 5.85980656 3.93598612 11.89589045
Si 8.86492909 10.85974754 10.31485910
Si 3.02645371 2.43300918 9.76165350
Si 9.77211728 6.06173913 2.12001888
Si 4.28281581 2.18449857 2.96087949
Si 7.28380715 9.89734992 3.53812304
Si 11.00940158 7.20068930 4.96793101
Si 8.78596530 3.67182664 1.41477236
Si 5.91187210 9.70802478 0.55488476
Si 6.56372016 9.58995614 9.56921028
Si 1.75846327 11.81514332 5.10352760
Si 8.08070570 2.05140661 10.16318821
Si 13.67105224 12.81732737 0.09954354
Si 2.40161528 6.35259892 6.30003955
Si 10.82446802 7.31175699 10.94893554
Si 6.60252259 10.89131768 6.50186363
Si 4.02436915 7.18455586 1.03761149
Si 12.93411889 1.59930671 5.31334834
Si 1.87520983 12.36206717 12.04487937
Si 13.29488120 9.08592585 9.31629014
Si 13.50783279 7.55621887 1.73855277
O 10.79931054 13.05882199 5.75789892
O 6.47572322 6.71274782 6.67337367
O 7.01260247 10.94136729 10.13196197
O 5.09081848 0.71860386 2.89011413
O 2.10936834 3.93446498 9.83967717
O 6.65087734 2.86231723 10.99973569
O 2.96592965 7.62629931 7.59857312
O 1.06372108 10.70066673 5.74128382
O 9.51977694 2.24414094 2.17151254
O 12.10994173 5.87055598 5.46542989
O 11.21855619 11.34501445 2.31499456
O 7.25800501 1.21924843 8.93774035
O 13.00892835 8.20293380 7.92347773
O 3.40562696 6.61039567 5.03399460
O 2.83386332 12.60048390 5.98776594
O 13.36229913 0.61040341 6.49498697
O 0.50949268 12.92737647 4.74091925
O 0.12025238 5.12503964 8.98497805
O 10.60933865 5.94631651 3.70311000
O 0.30035115 10.88602418 2.80746271
O 9.89532980 7.60923098 6.14960699
O 5.29058703 8.18675090 0.32448666
O 9.53494598 2.50434193 9.54605488
O 9.02264376 2.89925824 5.79999984
O 6.87480805 8.60139767 4.34905028
O 1.68063733 7.06650991 10.16691764
O 3.06703714 1.39876323 8.54722950
O 7.35511001 9.76632855 13.68681113
O 11.84391688 10.40600573 9.19051855
O 0.16925049 8.10969061 2.95390106
O 5.03766558 9.68571922 9.49112571
O 12.76363835 3.02239329 5.89253728
O 5.34290997 9.78244058 6.29492190
O 9.00681342 9.95584943 3.10103741
O 12.10488230 8.41033107 10.58235708
O 4.02902481 1.90896289 10.79066417
O 4.48492522 10.39864791 0.73167411
O 5.69055227 3.42267530 3.08985449
O 5.74462409 12.21265630 6.71490104
O 6.36004661 10.05979385 2.16701450
O 10.34546939 4.38791080 1.47570783
O 2.82994130 7.00116069 13.97218106
O 10.42106655 1.20174802 7.05218916
O 11.97509732 13.65601164 8.46621208
O 7.84658696 3.58080644 0.36192329
O 12.62535904 13.45517578 13.01187749
O 11.70628722 8.48612127 4.08545520
O 7.14446404 8.25115192 9.19322761
O 10.82797483 4.14886709 7.74601832
O 12.40174920 9.25304244 1.23360325
O 13.33083615 11.26026188 0.22683990
O 2.79782895 2.48670642 3.82627066
O 4.58359337 3.35620938 12.46798319
O 10.13563182 6.49091138 9.73823797
O 9.16408560 11.77938401 11.63334588
O 2.82395689 10.89860906 11.32671486
O 0.23062000 12.98966659 10.13529104
O 2.49929098 5.18159989 7.52569704
O 0.49968560 7.18324705 0.52609523
O 3.45167301 1.40379098 1.29657425
O 8.27461726 5.09039387 2.54426269
O 6.70488098 5.43717985 11.81169899
O 9.50785215 11.96664486 9.12147849
O 2.67090584 13.61964034 11.68527585
O 4.96377023 12.52760779 10.42397619
O 0.02078170 0.00942933 1.63730679
O 1.37009690 12.11611182 13.50106528
O 10.90270657 7.05328096 12.52341333
O 12.72470880 6.15169232 1.82231330
O 9.42867943 9.22399737 10.61227113
O 4.75022137 5.81173476 1.21738329
O 9.67270054 7.32721946 1.08289140
O 0.89530500 6.14152109 5.93361178
O 0.45639656 9.50177384 10.35155544
O 7.79770305 9.53181157 6.98302301
O 3.23084836 8.06002524 2.09594433
O 6.53381058 11.13755266 4.56450834
O 12.76028058 0.94457700 4.00673755
O 8.30653434 1.13900961 11.68007923
O 3.13667745 11.79525244 3.52531304
O 2.97291465 11.13816121 8.59822356
135
Time=199999.99999918 pbc="T T T" Lattice="14.01277600 0.00000000 0.00000000 0.00000000 14.01277600 0.00000000 0.00000000 0.00000000 14.01277600" energy=-884.17472557 virial="-24.94910016 -2.83331109 4.67967572 -2.83331109 -46.92802062 -22.37626174 4.67967572 -22.37626174 -47.64320502" stress="0.00784459 -0.00102973 0.00170076 -0.00102973 -0.00014333 -0.00813233 0.00170076 -0.00813233 -0.00040325" Properties=species:S:1:pos:R:3
Ca 3.94946590 9.53212170 5.01390519
Ca 11.85515206 7.08908211 6.19958977
Ca 3.57249317 10.37118666 0.23349954
Ca 8.85911519 12.53873206 5.74779518
Ca 8.32782908 9.60199282 9.77097302
Ca 13.61822310 10.88346549 11.70201607
Ca 9.02645492 9.07347044 3.15627221
Ca 10.25494289 6.27266086 11.58021033
Ca 3.82208796 4.32313914 3.18530890
Ca 6.26363139 13.58749089 11.68957968
Ca 12.28207562 7.50506346 0.20123170
Ca 10.89907531 11.85907543 0.90802324
Ca 11.93295359 4.63805319 9.95684661
Ca 12.07217263 1.78429315 2.84161724
Ca 0.34549041 1.75775942 8.44205583
Ca 6.07979141 6.56420921 0.29178909
Ca 3.64531344 2.80574277 11.00432409
Ca 1.71493466 13.00958148 5.11211408
Ca 1.51530617 1.80473415 2.26135793
Ca 11.63557911 10.55935545 6.63791792
Ca 1.50581286 8.01800985 1.87981397
Ca 11.85989722 0.31059647 8.94240247
Ca 9.08110862 3.19078288 8.35358837
Ca 7.78611822 13.01538612 2.12658669
Ca 6.29108446 8.67462518 5.93137140
Ca 4.20403977 8.06027501 11.31771189
Ca 2.05391934 10.10576918 7.83095127
Si 5.50089357 4.74011366 11.09584103
Si 3.59268351 1.17953786 3.96602255
Si 2.81405332 4.36231109 13.69671504
Si 5.18476034 1.57605208 1.03355160
Si 9.25181474 2.41056103 11.61554030
Si 12.53677993 9.68183338 3.14646900
Si 4.57566327 10.67025114 9.95683769
Si 1.13964316 8.13789857 12.63234390
Si 10.08107195 7.26384049 8.46887782
Si 11.41128064 2.70443285 6.42059630
Si 8.83855117 9.08296025 6.25964789
Si 8.28073843 0.92571493 9.62648196
Si 12.45331211 13.88513859 6.05913030
Si 5.14598265 8.66580155 2.09015005
Si 5.54110147 13.03489977 5.01169025
Si 1.44271595 0.34006473 10.26733141
Si 9.86799215 2.38682473 1.06891385
Si 0.50082952 8.84682650 5.39332746
Si 9.47936998 7.71564740 13.64704892
Si 0.09403417 5.21388243 12.93949868
Si 8.65101508 10.51342652 0.58957918
Si 5.79866390 11.13549487 7.08491189
Si 13.55484719 3.85894743 1.09127602
Si 13.90807528 12.36598825 2.28686224
Si 1.70287447 12.82588756 11.98732409
Si 10.79410799 12.40947100 11.22483383
Si 7.17761279 3.53663846 0.97855853
O 10.35079215 5.67493708 8.42667534
O 7.25966193 11.95779453 0.35445012
O 7.40561477 10.19388394 6.32144294
O 2.26198196 0.66789935 3.69101804
O 3.97389284 6.84683689 1.70637512
O 10.28983542 1.25024483 2.14195184
O 13.78433255 11.08351529 2.71458417
O 2.89329009 5.04503815 1.12300670
O 9.98908273 1.18836742 10.49830828
O 8.69263402 6.51210758 12.78551852
O 13.62818041 13.24872387 5.16335707
O 9.88990543 10.13358425 5.88639416
O 3.68729132 9.23436528 2.42594283
O 13.22067645 5.08816097 11.47713627
O 1.01110551 7.38651696 4.97497546
O 9.54301754 8.05392043 9.95747752
O 0.33933906 3.15217606 13.64974006
O 9.63984077 11.08758913 10.70107193
O 12.98377904 9.19917298 4.66043937
O 8.35780469 8.29995729 7.64889640
O 6.30782062 9.19910469 3.28099158
O 7.05461585 1.69641085 1.11768485
O 11.08273701 12.02466398 12.84643814
O 9.81626572 7.60265299 1.17646660
O 12.98177608 5.38025831 13.94578707
O 10.63341227 8.73083062 7.59695854
O 7.83519869 1.43234675 8.19500592
O 6.73280552 4.26989760 2.30612931
O 12.63484171 13.43160506 2.52693532
O 0.26235703 13.02641720 12.45600738
O 2.12527704 9.64883339 5.27128900
O 12.00094276 1.42187801 5.47320929
O 8.88005125 3.52858124 1.15764219
O 9.71097850 2.39190435 6.61148848
O 0.16366069 1.07910244 10.24650648
O 6.42963089 12.81429012 6.45315738
O 6.12049951 10.61776838 8.71311685
O 5.04550053 0.43074428 4.24713146
O 1.13051928 9.63961916 0.37158937
O 9.94410686 2.13658028 13.19162326
O 6.18254533 3.63184222 10.21350012
O 8.57295209 7.81014642 5.13825770
O 6.09612891 3.81867592 13.68692655
O 12.00545904 4.15480262 5.88873718
O 3.45500498 2.87865485 13.81652792
O 3.86034043 2.76289345 4.45035721
O 6.23384715 9.09416988 0.88440291
O 13.56823684 8.39158776 12.10443300
O 4.75019349 10.16223158 6.68478027
O 10.98101310 9.78821060 2.82008597
O 0.89278517 6.86239474 13.60846360
O 12.04244632 3.59167471 1.33267846
O 1.05262144 13.35432664 1.77771762
O 11.82271199 2.38968527 8.14465304
O 9.00097617 10.70935954 2.17927207
O 2.42854879 0.58780728 8.81592240
O 10.09203951 3.78499394 10.77559822
O 2.49876199 11.61384078 12.63333061
O 12.94843311 8.29771284 2.15349785
O 3.91987668 12.66496320 5.47299871
O 7.77874094 1.97702492 10.98696476
O 10.89624740 7.98681261 12.62445654
O 0.94596881 12.61423886 10.07510823
O 4.73504256 12.17832850 10.46313840
O 13.76225761 9.24682429 6.96254024
O 7.65905794 13.54498798 10.04972177
O 8.74127682 9.38126826 13.37702074
O 3.47991448 9.33268804 9.35511611
O 13.33039117 13.98005220 7.38398694
O 5.08549315 9.67595917 11.65807237
O 5.76409877 0.80588280 13.80123404
O 10.82496313 13.16712673 6.17381781
O 2.16831614 8.01593629 11.35000654
O 5.07962451 6.26773045 10.51610773
O 4.05610780 1.07031553 2.03369812
O 12.09915928 13.13832624 10.66386623
O 2.63637137 0.18345152 11.51425910
O 0.48461503 4.08551039 2.49117610
O 6.77234551 12.66271719 4.06067811
O 1.79627056 4.91576739 12.52579334
O 4.13431780 4.95734648 12.15136912
135
Time=299999.99999840 pbc="T T T" Lattice="14.01277600 0.00000000 0.00000000 0.00000000 14.01277600 0.00000000 0.00000000 0.00000000 14.01277600" energy=-886.18945289 virial="-31.39581523 17.71451364 -16.56211642 17.71451364 -90.69850926 -3.54454398 -16.56211642 -3.54454398 -84.13231798" stress="0.00550163 0.00643808 -0.00601926 0.00643808 -0.01605108 -0.00128821 -0.00601926 -0.00128821 -0.01366469" Properties=species:S:1:pos:R:3
Ca 1.88898528 3.49915352 10.80156559
Ca 0.52795407 0.90061556 1.02013726
Ca 12.21816176 7.59993138 8.01245065
Ca 9.93392448 9.87468200 13.72582491
Ca 7.85792812 8.76693957 2.30538507
Ca 5.46282470 4.96695335 2.63580525
Ca 5.55320604 13.09371212 8.96285478
Ca 2.19925235 12.03172837 11.11633740
Ca 5.79931666 10.65502106 13.24855263
Ca 1.97593796 1.88733190 4.77160735
Ca 10.44851309 7.91829252 3.43014889
Ca 9.23285647 10.92647902 8.53805217
Ca 5.21797742 4.12526763 13.31713518
Ca 11.13653943 6.19868748 11.79342302
Ca 12.69656108 11.71445509 10.33673696
Ca 13.97832978 13.29437693 6.65686340
Ca 11.23030081 2.77499625 6.05823644
Ca 6.18133514 0.21480474 4.12038885
Ca 8.60446785 4.14319739 4.22531638
Ca 5.89807350 5.30826306 7.67520989
Ca 3.67695298 5.11571914 5.84693239
Ca 3.56718252 10.08607896 3.27314233
Ca 0.76816814 9.80083726 8.47393165
Ca 13.83703165 9.48986916 13.42334133
Ca 2.21466178 3.45166269 13.83944881
Ca 9.50849390 2.61232399 11.84349613
Ca 7.00883721 1.33105485 8.29034801
Si 6.96011127 12.50625361 5.98083466
Si 8.14661082 4.75643271 0.49910371
Si 7.78262152 12.08576444 10.65888255
Si 2.25569542 10.99962402 6.31852218
Si 7.11705225 0.35570449 11.83979736
Si 2.59745046 8.33496176 5.17550282
Si 2.69847038 6.42728845 12.18240822
Si 3.99317091 2.39042363 1.90746819
Si 0.21054022 5.48331400 2.97241075
Si 0.21686991 12.73214960 13.12147555
Si 2.36682795 9.12208823 11.61198857
Si 11.16076775 12.82502485 4.48144964
Si 9.92170639 6.33817757 6.25861905
Si 9.34926680 0.69869804 4.19611309
Si 6.32944933 6.86357106 4.99469291
Si 4.14153124 0.91693793 12.11293042
Si 0.49526576 5.99959922 6.35414347
Si 11.92683569 10.74929429 2.44670791
Si 9.91969801 3.91904998 9.07774329
Si 2.69517528 12.00397656 0.61588172
Si 4.51981326 2.61166602 7.73163297
Si 13.15470621 2.29992523 11.87785695
Si 2.03353649 0.10480726 3.15860653
Si 8.69853889 7.38562488 13.66279802
Si 11.74702730 9.06257952 10.76816141
Si 13.73850507 7.80417552 2.04130667
Si 13.29633233 3.23563525 8.44567021
O 4.25147032 1.29999319 8.51017876
O 9.15331742 11.63403144 10.69753800
O 9.02522903 1.70438886 5.88424136
O 8.96544020 2.64295037 9.01298772
O 0.99399285 7.11259074 3.46898988
O 1.42102520 5.50697098 12.22979325
O 3.96976293 1.56762360 0.29994548
O 4.09202439 6.10280454 12.71148398
O 12.21098894 9.71024141 9.47866735
O 13.06562019 9.11916097 11.66421401
O 5.18816918 7.14026303 6.38837156
O 1.16760930 11.23823090 13.81308015
O 3.29372337 1.22699980 3.30079314
O 10.39889428 10.03603490 3.48034644
O 7.28195166 3.78140094 13.38428666
O 3.14688751 3.86579172 1.77765549
O 5.51533318 5.35142107 4.74142471
O 3.51185062 9.90013566 12.28631667
O 2.62995112 8.11656750 13.17980293
O 8.18177459 4.44307003 1.98383009
O 0.08914181 12.56650324 11.66584954
O 6.34839868 7.61889244 3.49692385
O 3.62751971 8.34965239 4.05327918
O 11.86096196 12.67461052 6.04472929
O 3.69745788 13.95612079 10.80396279
O 11.85568848 3.68356540 8.72156476
O 12.98597562 9.36411292 2.46549267
O 1.81388779 13.36056914 13.26721320
O 3.22317712 12.23912899 6.59953395
O 10.78882107 0.56731249 3.61875944
O 3.32155879 2.48037737 12.07807190
O 1.64727453 9.71191068 4.78260596
O 1.11427081 11.63078153 7.47165180
O 8.38493015 0.91361079 12.33047561
O 2.65856570 9.26385534 7.02306999
O 13.94636576 3.36113305 10.18614132
O 0.64727637 4.82714704 1.58067166
O 5.61066758 11.96216114 4.71949125
O 0.12261443 1.68476629 13.04483119
O 7.37524101 12.83731986 12.40806125
O 10.64037787 5.75567956 5.01053212
O 10.07346242 4.93746703 10.35266443
O 3.89480742 4.36459888 8.23332191
O 13.56678440 1.81236201 7.77122190
O 7.94798038 6.17350177 5.41581029
O 9.75985852 5.87144048 0.00586621
O 9.41589230 13.12947210 5.21212324
O 2.08302255 12.84524187 2.07689556
O 0.51683457 4.58440634 7.43054851
O 1.44815897 13.69808000 4.75807420
O 7.96064816 1.26106360 3.60637555
O 12.06132317 3.01188724 12.61940124
O 9.71714117 4.96294165 7.33682256
O 8.47730923 7.86594879 12.14616095
O 3.90704562 11.24155505 1.26919178
O 1.90307188 6.72854288 6.07756253
O 0.48164835 1.24397415 2.97387829
O 6.02804543 2.86332374 7.28872205
O 5.72287476 0.90479199 11.17677097
O 8.18801031 11.45194362 6.60758695
O 7.37657416 6.11581556 0.19138183
O 6.22008840 11.24220922 10.13237510
O 12.15917014 12.06997377 3.24268621
O 2.38379745 7.52802194 11.06719820
O 11.43501686 11.21611362 0.77093174
O 13.54038620 7.33251257 6.64522916
O 0.04053878 5.02991449 4.79517353
O 3.33450170 2.39261215 6.08012199
O 9.96944572 7.77454425 6.73117625
O 11.84261624 7.17738049 10.09692557
O 10.53606103 9.64106571 11.41710780
O 12.75648670 1.33373729 10.65496914
O 13.11249997 13.42379289 0.11662467
O 0.53990752 7.91059826 0.76756575
O 7.35791361 9.53022063 0.38548773
O 5.29270678 2.37691042 2.70826270
O 1.20473534 10.00581869 10.54618854
O 7.57324297 13.70258422 9.81604495
O 12.86453810 6.45259676 2.30837936
O 9.77745615 7.90309272 1.22036436
O 6.99082373 0.20893178 6.15552618
135
Time=400000.00000008 pbc="T T T" Lattice="14.01277600 0.00000000 0.00000000 0.00000000 14.01277600 0.00000000 0.00000000 0.00000000 14.01277600" energy=-889.83065310 virial="-79.20467037 20.75629412 6.32810188 20.75629412 -82.40662272 -9.66331669 6.32810188 -9.66331669 -77.08338341" stress="-0.01187381 0.00754358 0.00229986 0.00754358 -0.01303751 -0.00351199 0.00229986 -0.00351199 -0.01110286" Properties=species:S:1:pos:R:3
Ca 11.01335396 8.66535577 1.98380034
Ca 1.86656623 0.16062559 12.86274925
Ca 13.26394439 4.17308057 8.97344675
Ca 9.47848213 9.61112245 5.81329284
Ca 7.74664483 4.90032073 12.26328002
Ca 6.75066212 10.15824321 9.16118651
Ca 3.00477128 12.27748017 3.84728849
Ca 0.21746062 10.57187286 13.27115924
Ca 1.66637273 11.89929515 6.72893247
Ca 5.90506642 0.81071568 5.75870557
Ca 2.10692964 5.69874741 6.14012402
Ca 11.44179585 11.83270231 6.20303609
Ca 9.73321248 8.45929330 10.20702234
Ca 11.41316087 1.99476345 4.73910537
Ca 1.95354673 9.04428032 8.54584976
Ca 2.15454427 8.27551313 12.56210766
Ca 6.14692547 12.06426841 1.93105172
Ca 7.21026041 6.35180631 5.11200950
Ca 13.03032245 4.24702916 0.48067908
Ca 9.70711230 2.02632197 12.95736468
Ca 2.10344553 3.01058877 3.15239498
Ca 6.27400184 4.66390271 7.74401805
Ca 12.87902940 12.51834479 1.40367384
Ca 4.27749136 8.45392864 3.77963896
Ca 13.89451108 11.26430215 10.21214836
Ca 7.93422574 9.74418857 13.90955233
Ca 7.25481769 3.75343532 1.97943969
Si 5.08980819 3.98122807 4.71689514
Si 11.48764527 9.29896975 12.71078884
Si 12.29763319 5.82901866 12.12159091
Si 2.29027319 4.74831583 9.83510631
Si 13.91197463 3.68265511 5.64075980
Si 12.76410877 7.99580919 5.11597949
Si 9.24478705 13.49451011 5.92275185
Si 3.27126018 3.82910553 13.38314325
Si 4.23380443 6.95884234 7.97607503
Si 12.80863441 1.23746912 13.71987542
Si 9.63330823 12.08289018 2.80828494
Si 2.23453647 11.34643652 1.14004138
Si 0.97855231 9.69529397 3.77926053
Si 5.56867160 11.41748651 5.87602109
Si 10.09319984 5.39400587 9.85804039
Si 9.27534725 7.04343347 7.54353525
Si 4.88944945 5.86238064 12.42751541
Si 2.39546293 12.55769282 9.74782275
Si 9.61026971 5.36174809 0.65890207
Si 8.74630364 12.61114709 12.35363512
Si 7.41669290 9.93276692 3.47092752
Si 7.88320148 0.69015045 2.61948398
Si 4.29923441 8.25432284 11.05509241
Si 0.19012915 1.33109048 3.47216385
Si 7.26454089 13.18117161 7.86226679
Si 13.19585145 9.60862893 7.15489265
Si 1.20220935 1.22092613 9.57948955
O 1.89614924 13.69108056 8.52775342
O 12.38261186 3.52158468 5.42636919
O 5.52607135 9.36466515 11.23317826
O 4.05717283 12.54130346 5.76366200
O 4.25362203 2.81399267 3.97438261
O 10.76792879 13.84641768 6.49672653
O 0.25093944 4.26327013 7.06581970
O 6.33239019 9.70255799 2.43387836
O 8.58155519 6.46110771 13.05030049
O 1.94792330 10.39143654 4.98680795
O 5.62372295 6.75457658 7.35563491
O 9.79333854 6.71809817 1.46492769
O 8.13563914 8.96578627 8.16244920
O 0.28147163 8.65624679 6.20018396
O 2.10598920 8.43384100 3.29383689
O 2.91908610 9.13704207 10.94673627
O 1.62369365 2.76583165 9.82355328
O 0.72262397 5.52477039 9.77474432
O 0.07700576 1.78083721 12.92671601
O 9.92270995 9.10710077 12.35198076
O 8.06325576 11.34719091 2.21853018
O 3.66061715 13.17577952 10.70865679
O 2.31856194 10.99506267 9.20722907
O 11.50327813 5.77532167 10.64841442
O 9.61585730 11.76242760 11.29915106
O 6.29930619 12.06496800 7.04388718
O 5.35544293 9.84007553 5.50523716
O 12.47110188 10.19766056 11.83397052
O 4.26673178 7.42561016 9.50105611
O 3.22933684 7.43404190 6.56908306
O 2.23712053 4.18169854 0.67283704
O 11.95063494 9.69439739 0.18254353
O 8.86883871 12.52267108 7.23762092
O 2.65780144 10.47607253 13.56112320
O 12.82111922 0.30605171 3.45691122
O 13.64863062 5.40161710 12.58672369
O 11.78733419 2.73103245 13.69999038
O 13.30079894 8.97380341 8.72190794
O 8.61634044 0.93979205 5.30768224
O 3.59306890 2.19730730 12.92147438
O 4.34586562 7.39356369 12.84185222
O 3.18038905 4.69754632 11.59422278
O 6.41172627 0.55007611 7.69122254
O 10.47130575 6.62735507 8.53742758
O 1.14921112 10.67346974 2.24375272
O 6.04387042 5.68880138 11.35626541
O 9.82093055 12.41010985 4.61675566
O 8.14023751 4.77587431 0.51534577
O 13.40475519 9.07513667 3.42666928
O 9.41998342 7.75117265 6.10039394
O 9.00781875 13.94615960 13.14408289
O 6.83957463 11.77744162 4.51626133
O 1.70443490 0.75099972 3.57389692
O 1.36297211 4.26447076 4.76160619
O 8.65952359 1.66091883 1.75397718
O 8.04063727 6.06990271 7.16227082
O 1.53976806 12.92821328 0.44387392
O 8.67619570 5.29828234 10.52207230
O 4.70706802 4.60653302 13.44935236
O 12.31766850 7.63646292 12.51179023
O 11.35799721 7.48352427 4.50599582
O 6.18156287 3.63469396 6.09069146
O 9.36013971 13.50811653 2.09035365
O 11.96211713 9.46406252 5.91574548
O 7.27223807 12.00735019 13.13058584
O 12.04302081 0.22722117 0.43099819
O 0.08911229 1.99862224 5.29288041
O 13.60754581 1.02126227 9.80216114
O 3.74633096 10.87322370 2.08311518
O 6.11529543 4.60758042 3.64662415
O 6.28366135 0.41641417 3.29821448
O 10.85031053 5.72275041 13.25540579
O 8.85518621 9.23436832 3.64109154
O 3.43395888 4.88055846 8.92808315
O 4.44566999 5.51466290 5.30559708
O 7.11505733 12.24744656 9.21342032
O 11.10399177 11.46557861 2.29732404
O 13.81030117 11.22631273 7.39762903
O 1.02190108 12.54537708 10.99776764
O 10.30862465 3.59764346 9.83682670
O 13.79638513 2.37923770 2.21912658
135
Time=500000.00000301 pbc="T T T" Lattice="14.01277600 0.00000000 0.00000000 0.00000000 14.01277600 0.00000000 0.00000000 0.00000000 14.01277600" energy=-892.05673797 virial="-67.42310321 -0.55588684 -4.61863868 -0.55588684 -52.92348687 -3.64705148 -4.61863868 -3.64705148 -86.72753051" stress="-0.00759197 -0.00020203 -0.00167858 -0.00020203 -0.00232229 -0.00132547 -0.00167858 -0.00132547 -0.01460789" Properties=species:S:1:pos:R:3
Ca 0.99892087 13.84553460 4.51457524
Ca 0.93582492 8.86394599 11.85018880
Ca 4.29410008 2.35583825 6.08634692
Ca 7.31694185 0.15731885 8.64589885
Ca 12.19389992 10.86285277 11.00820902
Ca 0.96618975 4.49725117 12.01485617
Ca 2.37385237 11.09952486 6.09714524
Ca 9.52372821 12.33807107 0.07838329
Ca 9.03480889 4.10193851 1.37326922
Ca 0.80290963 6.95007841 2.22262184
Ca 4.02284889 11.47122796 13.84134799
Ca 0.31166150 12.95774663 8.79092553
Ca 9.85882078 8.30195289 2.23084656
Ca 9.31999010 12.35468011 6.81827111
Ca 5.83047822 10.33711957 3.50336191
Ca 3.79570977 8.69071106 7.79343549
Ca 13.04808721 10.14912624 5.31065526
Ca 8.60652269 1.99767720 5.34757371
Ca 12.79885867 6.42476159 7.82469007
Ca 4.93300007 6.12859788 10.59974068
Ca 11.20566989 1.41393770 12.08875138
Ca 4.87028733 6.94242684 4.85361875
Ca 4.60920067 2.25599170 12.80915981
Ca 11.78865556 5.74777867 4.11172470
Ca 4.43046100 13.72889848 8.68700618
Ca 9.90054308 5.13218006 12.65536385
Ca 8.16362876 9.35483735 9.60778391
Si 11.01578822 1.66955537 7.31203505
Si 8.32781882 4.33791902 7.64691031
Si 7.73182295 9.75027516 5.41762086
Si 1.58111742 1.10835763 13.65238522
Si 9.55358219 12.66944423 11.32968475
Si 4.45917063 13.38803315 5.68983434
Si 5.88317905 12.06384795 10.96196155
Si 1.73067575 6.71373487 9.01327323
Si 7.40240869 7.59991135 12.04028370
Si 0.61061413 9.36936974 8.04757499
Si 3.24530315 1.31710262 1.15053837
Si 8.43998325 0.04207704 2.99372859
Si 1.61785443 3.00195871 7.48470618
Si 1.09533454 5.57412225 5.80286769
Si 11.01581204 3.87448571 9.30653826
Si 12.54841070 5.78616458 13.98789134
Si 12.52601857 12.80494190 6.07279539
Si 1.30469368 12.04381011 0.56518059
Si 9.14280275 6.22844978 4.27175988
Si 5.31318059 13.52589075 2.61394520
Si 11.01994017 8.53565587 12.95054148
Si 4.06659875 2.97121818 9.72692035
Si 7.64464578 6.50783905 7.22076252
Si 2.22288327 8.64630164 3.80567087
Si 1.81132024 0.92982817 10.40976867
Si 8.90609071 11.58383746 3.14134196
Si 7.05750746 6.34147664 0.51998739
O 7.32561893 7.82192187 0.00268128
O 11.47875430 5.18760620 8.42189259
O 10.05003005 9.05229400 0.09968107
O 2.77421949 13.63663231 5.74759604
O 9.80948503 10.93839804 11.55232771
O 3.19128322 2.05168606 10.74435893
O 13.49101459 10.29850257 8.80718706
O 6.45122772 5.25780382 1.36476083
O 4.53754641 13.18447827 4.11351288
O 9.19364696 1.52096809 3.15593598
O 11.37816388 3.68581953 10.83780034
O 4.82472330 3.95238263 10.83497982
O 0.49027768 7.07579170 12.74522250
O 5.99505861 13.61515054 10.29213976
O 9.40401436 9.84895726 5.91224559
O 0.80701365 8.04650645 9.38960481
O 3.39427280 8.32597211 4.94281792
O 12.24695945 9.41300299 12.67592771
O 5.44516692 0.74747858 5.85189628
O 8.29644853 7.10567941 3.05444420
O 1.96778685 1.90113777 6.32605781
O 8.24034178 10.20650289 3.24313289
O 6.77777513 5.81633761 12.72214800
O 1.16546782 5.64820631 10.25275097
O 2.28217493 13.69022587 9.34665720
O 12.47716368 5.90753784 1.70479198
O 3.19714036 3.54740313 8.28238566
O 10.27467863 7.38263423 4.48770471
O 7.37020271 11.22118566 5.85187609
O 8.96905722 3.56465052 13.09125335
O 0.65159282 10.90200541 13.37353434
O 2.18377745 10.28192523 8.15686468
O 13.62256727 8.72555610 7.03473863
O 8.50714181 13.30893452 12.27931306
O 0.93214184 13.48996172 13.46972921
O 7.58768666 3.41856663 6.63771873
O 6.27284734 10.98607135 9.64127893
O 5.89963005 6.49816466 6.46322329
O 1.40857183 10.29228804 4.08194631
O 12.11432480 0.52968884 6.61012601
O 4.47708335 0.71539411 1.87425684
O 1.12177494 2.42687150 12.82802264
O 10.99738405 13.15728596 12.59166502
O 8.79731501 12.62373788 4.30182374
O 4.70584313 12.01915298 1.96984348
O 10.52941013 11.28805690 2.45861148
O 0.82697752 0.51218784 11.41376379
O 9.48018325 0.69323243 7.44803862
O 12.33165033 4.47106012 13.28594180
O 0.10646968 12.19996811 6.76890719
O 1.93553977 6.40287451 7.28161094
O 11.71170195 2.24859639 8.54514161
O 7.94223719 7.88356829 7.94249491
O 7.46721428 5.59111154 8.45437869
O 8.34906995 12.73585119 2.04232652
O 3.04529159 2.66930501 0.40389724
O 11.38986830 7.00848289 12.69024010
O 11.64312695 11.47076267 6.26311864
O 8.79621594 5.93341243 6.00984469
O 2.36152755 5.04770942 4.94754131
O 9.89417831 13.15127883 9.73316659
O 3.22872167 7.33356775 9.52926466
O 6.36824190 8.06205789 11.07353974
O 0.56258621 8.31736287 3.65815413
O 4.58040394 12.07087061 6.74753836
O 5.01558214 2.07733278 8.77400672
O 13.58241493 6.11316978 5.92780306
O 9.71748006 4.96055494 3.31571307
O 9.34395727 3.76913059 9.00169301
O 1.55725183 1.01961271 1.41420963
O 11.16289206 2.57364213 5.89024162
O 5.28120637 11.73152099 12.31209161
O 0.85817600 1.95545486 9.25169668
O 3.55177771 0.46695870 13.79859428
O 6.59525058 0.48806165 3.20430531
O 8.74510877 8.47310300 12.02433124
O 2.82475721 8.23560784 2.12284937
O 0.55518205 4.05721819 6.92455856
O 6.38356244 8.93109089 5.37213592
O 13.10060452 13.00157892 4.34389106
O 2.27981020 10.84558390 1.22137999
135
Time=600000.00000594 pbc="T T T" Lattice="14.01277600 0.00000000 0.00000000 0.00000000 14.01277600 0.00000000 0.00000000 0.00000000 14.01277600" energy=-880.01947886 virial="-62.98719255 11.71515945 4.78603794 11.71515945 -41.59565785 18.82389122 4.78603794 18.82389122 -43.74920184" stress="-0.00597980 0.00425771 0.00173942 0.00425771 0.00179464 0.00684127 0.00173942 0.00684127 0.00101197" Properties=species:S:1:pos:R:3
Ca 11.23381148 12.08531053 2.86308466
Ca 2.44730316 11.68058183 12.42623028
Ca 11.25165826 8.69558509 1.26166507
Ca 4.81771258 10.76825674 8.82179775
Ca 12.65968681 0.51469356 0.66426837
Ca 13.98506068 8.86830480 7.36401130
Ca 9.91152371 2.53278243 11.76445394
Ca 5.38129734 4.83155772 8.24037069
Ca 13.52308282 7.07592450 11.66122458
Ca 8.13389684 10.59124281 12.68504422
Ca 8.65108049 13.37090153 7.67566391
Ca 4.12467508 9.11549330 5.00753323
Ca 7.13639527 3.91315814 2.69200327
Ca 0.56217746 5.54624609 5.63617957
Ca 6.32937797 4.94538397 13.77773326
Ca 11.14136900 4.93070486 13.51700359
Ca 9.06977111 5.96417258 9.42898055
Ca 3.50272396 7.53045098 1.85660205
Ca 7.04797470 0.94765396 13.36103026
Ca 0.73622436 2.62366097 8.64717312
Ca 4.34105129 7.69310391 11.33130685
Ca 6.84703026 8.05907721 1.62247174
Ca 3.56023416 2.46751447 5.46627661
Ca 3.15392925 3.46779646 0.51022617
Ca 1.18228290 13.22228745 8.84712408
Ca 7.82228165 9.31297353 8.44298924
Ca 5.53534106 13.55144074 4.32520265
Si 5.21976122 9.08211543 13.68048075
Si 3.89560426 10.14957657 2.34058565
Si 4.51090973 13.17467595 7.36315265
Si 9.98232915 2.56953245 1.73964466
Si 8.29166304 0.41115574 2.75940634
Si 0.31805143 7.09351245 0.75034635
Si 7.70996768 12.39845397 9.91315317
Si 10.99141359 8.18943407 8.96622997
Si 5.35085483 8.12667577 8.29856582
Si 10.72246877 0.75358883 4.75006820
Si 9.05856489 9.69970520 3.88403721
Si 13.15999998 13.38608924 5.99455674
Si 4.74915732 2.50546928 11.48840438
Si 9.73373993 12.65203831 13.57474597
Si 1.49513083 10.16666916 9.54926083
Si 13.11480699 0.52724977 11.33868624
Si 0.36785718 1.84935989 2.66423231
Si 13.67499698 2.13981258 5.74666556
Si 4.24920086 1.93625281 8.38656273
Si 1.08860432 12.57544535 1.38061209
Si 4.08767869 5.83168970 4.14720928
Si 5.19497765 1.44226470 1.79702883
Si 12.21526594 3.93259832 10.13247139
Si 11.69702889 7.23960849 3.88563123
Si 7.60026169 3.97506168 10.76387160
Si 9.11643934 7.55463175 12.60446524
Si 2.67240035 7.74708625 8.94523085
O 4.48281436 5.63329857 2.43236044
O 14.00442642 10.62106726 8.49750591
O 9.51113563 12.23291631 12.18655030
O 3.76753170 0.93345315 1.51722872
O 10.67977529 3.82523588 10.14513970
O 12.62239671 3.55334865 12.02783149
O 6.81562539 9.70560707 13.71579755
O 4.32011544 0.09721593 6.14117340
O 8.71702614 13.56646402 9.74928355
O 6.05385658 9.22044363 9.43258103
O 12.64189483 13.23250914 12.06520060
O 2.67497931 9.33157794 8.24207696
O 0.26711095 0.92816672 10.47654139
O 5.71439608 7.40314585 13.99496115
O 10.87409641 2.09939495 0.50144277
O 8.01245019 11.59137626 8.69171306
O 6.86767963 0.02611090 1.80160485
O 11.40237133 8.30047844 10.40185807
O 12.48611953 5.99461073 4.70650730
O 6.53621025 6.80909065 8.27603420
O 0.80970092 8.88331932 10.30695673
O 8.32713855 1.95909588 2.14226954
O 9.33825359 5.96409983 12.35504302
O 8.56493512 9.04142777 5.26977734
O 10.13758084 9.30551357 8.49213884
O 10.28799500 3.90005573 2.34457351