135
Time=99999.99999996 pbc="T T T" Lattice="13.31093562 0.00000000 0.00000000 0.00000000 13.31093562 0.00000000 0.00000000 0.00000000 13.31093562" energy=-934.26866090 virial="-42.71040517 6.73725999 -10.59069868 6.73725999 -41.40495946 -4.09604646 -10.59069868 -4.09604646 -12.36969983" stress="-0.00577791 0.00285665 -0.00449054 0.00285665 -0.00522439 -0.00173676 -0.00449054 -0.00173676 0.00708680" Properties=species:S:1:pos:R:3
Ca 4.49565749 11.81761140 7.05231468
Ca 10.59626972 3.99643426 2.29112995
Ca 11.42286153 1.39823239 12.46492154
Ca 0.60753485 2.62995346 8.74719346
Ca 3.91895807 5.45745220 9.54495737
Ca 5.14711747 2.07011193 8.38252636
Ca 6.76845596 6.24181970 3.09765836
Ca 3.98818193 7.99592842 5.45142005
Ca 1.96791861 3.18166872 2.07840415
Ca 8.19646076 8.76660007 5.41190537
Ca 3.35212329 11.79388236 11.10355616
Ca 3.58061968 1.57578713 11.53851231
Ca 7.22197837 0.38410147 12.20305336
Ca 4.49180856 2.21638753 4.13486577
Ca 1.18139613 9.56144063 10.33624014
Ca 7.61895828 3.52889653 0.80510043
Ca 10.49116508 5.75739062 8.36921698
Ca 12.85224979 10.76270821 4.98002555
Ca 5.41568079 8.36422963 11.24463962
Ca 9.40905089 10.31499865 10.16019801
Ca 7.53824068 12.53821840 2.64237020
Ca 2.47145276 9.84583047 0.90004834
Ca 0.20802857 5.79004215 0.73959450
Ca 11.03182302 4.65118036 11.22059133
Ca 12.00399132 6.89193472 4.02485083
Ca 8.17555346 6.50121275 12.18646748
Ca 12.22615777 13.19833826 9.85595161
Si 9.77044608 11.88875415 7.14331679
Si 12.97502233 13.26771244 2.15198836
Si 9.75109638 1.03137796 1.56215487
Si 10.55958929 6.72986521 1.17079818
Si 3.42763520 9.08385659 8.64964490
Si 8.66988164 2.83773219 10.03071602
Si 12.39220348 10.51494009 2.28724299
Si 0.67805168 8.38598783 7.07949916
Si 4.59868562 10.69400426 3.82286520
Si 0.44085627 5.21954800 8.20060754
Si 10.60726184 7.95400638 11.66490373
Si 7.31509552 6.43298541 6.70578808
Si 4.83846870 8.32408835 1.63082237
Si 3.86675542 5.27521332 1.87261675
Si 0.72507617 12.50785951 12.45403988
Si 12.38444991 3.71759281 5.65581243
Si 5.18070475 5.02338166 12.28366984
Si 11.23700886 0.94486506 6.55095211
Si 6.37168401 4.71851373 8.13845964
Si 0.49650416 3.54398525 11.91736902
Si 0.73311018 1.15605614 4.69941063
Si 3.10517770 1.44309203 6.50477067
Si 4.47372942 13.22537912 1.39100493
Si 6.07753105 11.92948068 9.99873413
Si 8.90269126 0.00090561 9.89879097
Si 9.52213329 9.65560412 2.38674506
Si 11.47773093 9.77838768 8.10585881
O 6.38419439 7.93595928 1.93961776
O 6.51401615 6.42314960 8.11029610
O 11.36632313 0.92923324 1.62456090
O 4.08451050 9.51217009 2.56891456
O 7.06957344 3.60267973 9.39742384
O 0.45631839 3.48073460 0.25708569
O 12.47725491 8.84985619 7.18002972
O 12.66220084 0.30891430 5.33329518
O 8.50694961 2.64159758 11.61373924
O 10.77798958 10.84376397 2.70653863
O 6.34968031 7.15165970 5.54308375
O 5.80608837 12.15146867 8.43997323
O 9.65220801 8.94420283 3.91553498
O 3.50612554 1.38395605 1.70767963
O 1.86843018 0.38104582 11.63153838
O 0.52872404 6.69885405 7.38556356
O 5.57356611 9.67653575 4.76154475
O 12.78542644 12.04132391 3.13555453
O 9.86949491 3.73506005 9.39680536
O 7.74469548 12.18317667 10.44063182
O 3.29856761 10.64928046 8.61266922
O 11.66774439 6.01369208 2.07704843
O 1.84780956 5.08637551 8.56573423
O 5.45478074 6.32792969 11.41968939
O 12.51446414 10.77410165 9.04329392
O 4.62901444 8.40787286 7.89512653
O 1.41733891 2.75034972 10.75801601
O 2.00705089 0.65348305 5.55690321
O 11.20862397 10.91902931 6.68676912
O 3.15767527 2.77129839 5.48626911
O 11.82039885 1.08742760 8.11623983
O 9.94957128 13.29254588 6.30552810
O 0.64588397 12.76751744 0.75912332
O 3.19484440 8.54725885 10.14421923
O 12.58439704 9.12998522 3.47293950
O 9.93254039 6.49143494 10.76312349
O 4.04089180 5.05159972 0.23951460
O 6.82782046 4.84079697 12.68656296
O 4.87163648 4.31902723 8.23667471
O 4.80973445 13.25584346 10.80824936
O 5.03777952 3.76318807 11.23675213
O 4.13393052 11.93413321 0.46194206
O 1.52994943 11.03967591 12.31178317
O 9.78077713 2.70454709 0.91449753
O 9.08336684 8.41171005 11.88139588
O 5.93932222 0.75013382 1.21735602
O 5.04020189 4.95750625 2.98425063
O 4.39399700 8.79983871 0.14469550
O 12.29243845 2.67419048 11.42104583
O 10.89988748 6.41656255 12.86792158
O 4.35845775 0.50464576 6.60680930
O 9.04637570 6.12244863 1.58761503
O 1.46233466 8.73853711 8.52955453
O 1.19113980 8.96481841 5.66069515
O 0.18675479 9.88571507 1.23936942
O 2.23866404 5.24408044 1.77379089
O 8.82893306 6.99164068 6.78924276
O 10.00283601 0.67195421 10.94396608
O 4.07984928 7.00673518 2.11387042
O 13.23748174 4.08375566 6.92275706
O 12.58128869 12.84481919 12.00652993
O 12.44429500 5.06717865 9.19719266
O 10.64936422 8.30137737 1.64369008
O 0.83908265 0.74711032 3.01258471
O 9.51505422 12.33974976 8.66372151
O 2.61150482 1.78463190 7.92682496
O 9.16162446 0.96411821 2.97078574
O 11.80527361 8.89355915 11.01009295
O 5.30561493 12.28387455 3.03791436
O 0.32552776 2.88253547 4.46429146
O 3.69157313 11.39424964 4.80026512
O 11.60853434 4.67370769 4.61905869
O 0.44671311 5.23770413 11.93114346
O 5.45593149 10.56732223 10.63308528
O 8.13319155 10.20142831 1.89633765
O 8.04368107 1.35855739 9.26145927
O 9.99630567 9.25300253 8.42269344
O 8.50952894 11.15468169 6.41822231
O 7.40694711 4.53923534 6.94425711
O 8.95272031 0.22783263 0.47129541
O 11.35293627 2.42699328 5.63358711
135
Time=199999.99999918 pbc="T T T" Lattice="13.31093562 0.00000000 0.00000000 0.00000000 13.31093562 0.00000000 0.00000000 0.00000000 13.31093562" energy=-936.67907284 virial="-51.92511230 -6.61886783 0.74356527 -6.61886783 -83.35491232 1.91620976 0.74356527 1.91620976 -42.10465822" stress="-0.00968502 -0.00280645 0.00031528 -0.00280645 -0.02301151 0.00081249 0.00031528 0.00081249 -0.00552106" Properties=species:S:1:pos:R:3
Ca 7.06124149 5.53125199 2.21272152
Ca 12.38048208 6.29885301 8.86714891
Ca 7.03524334 6.05929507 8.30916995
Ca 13.17433462 3.89620687 3.48591692
Ca 2.17935342 2.79795641 8.80526140
Ca 2.86180664 1.03567307 5.56383288
Ca 0.93707926 10.69401732 6.47810961
Ca 10.73858608 3.55726611 12.46294525
Ca 0.08136730 6.57080905 0.30877286
Ca 3.08738979 2.69565061 2.08378788
Ca 0.19388023 0.22394883 11.08572940
Ca 11.41321054 6.69869200 4.29256262
Ca 4.55318605 4.85288391 5.29094391
Ca 7.57315496 10.52070727 1.86679230
Ca 5.81355259 2.50219056 9.33097307
Ca 1.22316567 9.76397630 3.04698569
Ca 4.61571765 11.91024967 12.79764552
Ca 10.01645449 11.27562669 12.84651633
Ca 5.68057311 11.75712336 9.04774529
Ca 9.08680646 1.60675929 8.45628050
Ca 10.62189655 0.77039538 5.20551199
Ca 11.15315823 0.25670692 1.84523666
Ca 3.55481311 5.60203255 12.82645636
Ca 5.45611823 9.41388415 4.59243951
Ca 11.09716704 9.35276069 6.84916021
Ca 4.53638843 8.94459045 11.60296243
Ca 9.68648265 7.40921976 10.89669620
Si 11.04456820 12.39279791 8.78029725
Si 8.15150162 2.04302897 3.31362470
Si 7.93000565 0.15394478 0.90026153
Si 10.49562412 8.96977946 2.50724301
Si 3.03868964 0.09427373 8.97217193
Si 12.51898394 9.53631136 9.45381574
Si 1.02309951 13.31065706 3.46038128
Si 11.36841947 10.89642241 4.51691089
Si 5.01712388 8.51720193 1.48394446
Si 1.79435371 4.83814675 6.72018304
Si 2.11234012 7.32340169 10.47520420
Si 7.95047989 1.77162860 11.57368118
Si 0.97916161 9.83237443 12.14586099
Si 1.52592162 12.72068737 0.64412964
Si 6.53747060 2.16284358 5.89715021
Si 7.75698533 4.91953075 4.84165787
Si 8.48855481 10.01698979 4.73768920
Si 1.94702278 7.75840163 5.15786255
Si 13.28362786 2.55829143 0.14351906
Si 2.85150830 6.30527640 2.70325107
Si 10.33927695 4.21967598 8.96172183
Si 6.49474081 3.43838831 12.07527232
Si 11.89235746 4.91478953 6.46441135
Si 3.52460328 5.29972013 8.99500084
Si 7.13522526 8.69406041 7.73125220
Si 10.69628954 5.94678998 1.39852360
Si 7.46540617 9.71638497 10.77372795
O 11.91696325 4.02656937 5.11146153
O 0.81272984 7.73343167 9.36330300
O 8.91506148 0.86261082 12.69149544
O 4.60603686 7.39738096 0.31007323
O 9.06865320 5.65555686 1.24294412
O 3.52843405 7.81842490 2.84651869
O 6.86565772 1.52420944 7.48517472
O 7.14393376 3.80910149 5.95444882
O 11.68899948 9.58924600 3.25794702
O 1.80211731 12.29092279 4.51995904
O 2.58905088 6.07441941 5.78789056
O 4.91116918 2.40158625 5.74776848
O 11.03637292 5.99566133 13.21293850
O 10.37180969 12.97775414 7.44994621
O 3.60900896 6.77448459 9.91865789
O 0.19465109 5.04467355 6.75961823
O 6.22243789 8.39316230 2.50883309
O 0.51820365 3.07388251 1.64263975
O 11.04874345 10.81412389 8.85998658
O 7.50397293 1.54501306 1.70579991
O 13.25250616 10.00250540 8.17797342
O 9.59328426 9.82023858 1.36054267
O 9.28334093 8.83543219 3.78485052
O 11.70780378 2.74853716 0.67191865
O 1.80738565 6.80625503 11.98817972
O 2.57966121 3.55479629 6.04927231
O 1.68372636 0.79354023 9.80706945
O 1.42036671 6.91036828 3.66063696
O 8.71007496 6.14566216 5.27495935
O 6.73780112 4.63172985 10.81775121
O 10.60085252 3.12480240 10.16715870
O 7.69533497 9.58355313 6.24224616
O 2.97453460 0.10863525 0.69293943
O 3.89287685 12.39561581 9.87935010
O 2.17132198 1.00330122 3.26190504
O 13.30951145 10.27140902 10.74459171
O 6.78330682 12.24808322 0.54537005
O 7.14974642 9.65162087 9.14001112
O 7.49613321 1.30288664 4.69228703
O 5.68404686 7.93234016 7.46060914
O 0.78409500 12.20561727 2.02894428
O 3.37947376 4.25097848 10.44365157
O 9.69095985 1.48049315 3.23489781
O 0.15399099 0.72882104 0.10463092
O 10.06460857 5.61214087 9.52920480
O 11.85974303 4.22113566 7.98930960
O 11.43281521 8.04059739 9.61072648
O 12.72585719 10.88108539 5.31449277
O 1.89349115 5.82915229 1.32744590
O 10.93147821 12.10038772 3.60164871
O 6.19672648 1.75026117 11.82347098
O 8.16334488 3.12880611 12.56885029
O 8.39889419 7.73788639 7.80978795
O 7.83701093 1.06464594 10.16627716
O 2.35706205 9.13630849 11.37966039
O 1.34210211 11.47301498 12.82982160
O 6.40208191 6.03978949 4.44362948
O 11.72341756 5.11666974 2.49709939
O 0.39995177 8.70590268 13.23618738
O 11.31276351 6.47596528 6.52430824
O 0.37042008 8.00662382 5.63873759
O 7.50576042 3.78855376 3.64910814
O 7.60121033 8.11800991 11.29923393
O 5.59999861 4.04142120 13.20032829
O 12.94534084 0.63339313 3.66859648
O 3.83832560 1.66511351 8.50392019
O 0.42653129 3.33813183 12.18843657
O 2.42616777 12.60952346 7.66565765
O 1.99905406 5.06030047 8.38400150
O 9.04618896 10.16817948 10.92567557
O 4.92205633 9.94084670 0.71792798
O 9.88885302 10.55149111 5.64832779
O 7.43164755 10.83597340 3.93903743
O 6.12493105 10.55333720 11.12541039
O 3.43721080 4.88851016 3.46561591
O 9.25779918 12.55741485 1.40869472
O 9.23619240 3.67931149 8.04067683
O 11.95034926 13.10150107 9.92281286
O 11.04247914 7.56842346 2.04155298
O 4.35778056 4.72512901 7.83886370
O 2.80922064 9.07044221 4.54309872
135
Time=299999.99999840 pbc="T T T" Lattice="13.31093562 0.00000000 0.00000000 0.00000000 13.31093562 0.00000000 0.00000000 0.00000000 13.31093562" energy=-931.77353828 virial="-12.18102030 -16.69479956 7.02191469 -16.69479956 -8.67844344 11.35315374 7.02191469 11.35315374 -18.31026802" stress="0.00716680 -0.00707873 0.00297735 -0.00707873 0.00865193 0.00481383 0.00297735 0.00481383 0.00456795" Properties=species:S:1:pos:R:3
Ca 5.95274165 2.51526997 1.96320579
Ca 12.75434862 5.09164955 4.84919745
Ca 2.47463031 11.56478375 3.66060667
Ca 12.14723526 7.86633344 3.07097041
Ca 12.50418280 9.20048088 9.89706912
Ca 2.08382444 7.76360669 5.82403475
Ca 0.59624150 4.01170772 10.99165926
Ca 7.57655469 11.22088016 11.59235328
Ca 5.16764816 6.37463313 0.00590787
Ca 5.65475025 2.25931589 5.16318249
Ca 7.87855407 11.98326835 8.04176906
Ca 10.12102701 11.41631524 1.65364791
Ca 12.71605763 10.79559038 6.02938800
Ca 0.81550768 12.60622386 13.13467764
Ca 7.28219193 7.47847259 9.90321871
Ca 3.24845655 10.08882601 10.81874032
Ca 3.87575009 4.57414552 6.47572986
Ca 5.73146526 9.99442076 1.64654740
Ca 9.00019654 2.34222891 5.90932395
Ca 11.16746208 6.44497975 11.56868981
Ca 6.67898084 1.68069794 11.97806607
Ca 6.72540068 4.48590060 9.06846845
Ca 6.78734166 8.84365846 5.53700412
Ca 10.69727968 5.12568693 1.46371676
Ca 0.25521591 1.80712149 6.95315040
Ca 7.88464858 4.55772561 12.98201319
Ca 11.24791561 0.21162636 7.98801104
Si 9.51305444 5.90158513 7.57792657
Si 12.21555837 7.20166489 7.07407799
Si 9.19227990 0.99912913 10.92793702
Si 2.39734323 10.55401703 8.03430897
Si 10.79383270 0.07435089 4.94581359
Si 3.03600360 1.45908296 2.01717992
Si 1.46206928 7.28992383 10.10653253
Si 8.73409086 0.38348119 0.38696706
Si 2.54431567 4.65200473 1.88228292
Si 4.86702469 7.81672394 3.49892964
Si 8.05845362 8.06775270 0.04050351
Si 11.57824355 12.27544284 11.26796246
Si 1.82091128 2.88156742 4.35322037
Si 4.14395350 12.49197961 13.07095818
Si 6.48091191 5.39268287 3.16450880
Si 1.29444144 5.66680651 7.85117793
Si 5.25036442 9.41825718 8.54060783
Si 0.32174136 5.93577155 1.28477385
Si 9.55810393 9.78138458 10.96164500
Si 2.22629580 7.89944524 2.25131901
Si 13.07284229 12.10107407 9.11340983
Si 9.08255292 6.56039395 4.55246291
Si 4.60383247 11.69211661 6.47404645
Si 4.00235867 5.05069708 10.25658086
Si 9.20137677 1.73383023 2.93136395
Si 10.20207852 3.24661616 8.90897822
Si 0.07411612 10.46021428 2.83768628
O 2.08520769 5.61020003 6.44073819
O 3.31822934 2.88405164 1.42268696
O 11.94390064 10.03444502 1.72880463
O 8.67806949 10.63554343 9.59833819
O 7.37500380 3.62771357 11.22377494
O 0.62563789 10.55836441 4.53077537
O 12.45028031 8.81659669 7.91896332
O 5.39808176 12.99000286 12.41173595
O 7.66678691 2.05445869 3.80879004
O 5.58404373 10.28659773 9.86662491
O 7.74042185 8.85150102 1.32678738
O 6.69542552 4.85463494 1.53383351
O 1.46292406 4.30596166 8.51880019
O 8.52612547 6.00340409 8.81062822
O 5.28140547 5.33327425 11.51035433
O 5.63803065 12.84049217 6.96469023
O 1.73161220 4.40712238 3.46523720
O 12.46480819 7.26581097 5.47614853
O 4.38862751 1.27368017 2.76157371
O 9.13159647 1.85606547 9.50979205
O 3.01069615 3.94239400 11.06098478
O 9.84540829 2.92997696 2.18384619
O 11.81384542 12.98178503 12.62196899
O 7.66644297 1.64966217 0.63603642
O 12.17341605 11.41617095 8.09596123
O 6.89575729 8.07585876 12.17897934
O 10.83950199 12.56135206 3.69581949
O 1.89329886 7.13022752 3.54664941
O 1.09683588 7.54505379 1.17070059
O 8.69511874 8.24290143 4.82311151
O 4.12413234 11.59066917 5.02449447
O 3.17740306 11.85066658 7.16699959
O 3.92313965 8.48497890 2.12171251
O 11.91917218 0.33181899 5.97749689
O 1.84215573 8.65074913 10.91600093
O 1.61209848 1.76747379 3.03515994
O 9.68043563 13.01874222 6.45423944
O 13.10730873 11.73934130 10.66376481
O 9.02901700 5.98427661 5.98599184
O 9.71483267 1.20348462 12.44162398
O 9.47369295 0.79686191 1.75877715
O 1.22336144 4.63481483 0.85138520
O 10.41048287 13.14076142 10.52684934
O 10.25305100 1.44990808 4.20588596
O 0.10627852 0.26867982 8.63117827
O 1.14644674 10.99929927 9.07851529
O 13.01074512 5.87655208 7.42114994
O 8.47678732 12.09036317 0.11897875
O 10.79593747 6.72352685 7.70220059
O 2.67756099 11.86275321 12.39476230
O 10.66594770 6.32695058 4.10384626
O 11.02111981 10.35057019 11.30764225
O 5.50802226 4.22015154 3.94221877
O 7.78567245 0.19130380 10.84561578
O 12.66450860 5.61099324 2.50026664
O 0.40237606 3.10643545 5.25004916
O 9.17088049 6.78901020 13.05634867
O 10.67113516 2.36081503 7.63519907
O 3.05507431 2.82037439 5.32078269
O 5.61694161 9.49603068 3.86575119
O 4.29276363 7.23900666 5.04949875
O 1.74700595 7.29135820 8.37010871
O 4.38037105 4.48283251 8.75093701
O 10.30382860 8.38813593 10.21381444
O 1.75444061 9.84553331 6.72266992
O 5.42320725 10.08116358 6.89961610
O 4.26922561 11.38384756 1.12470065
O 2.98464693 6.30868425 9.98625662
O 5.71799068 6.72127805 2.79479425
O 3.62314786 5.64718200 1.26482166
O 8.78306082 9.65076442 12.53261416
O 3.44928043 9.54204169 8.66681467
O 9.48800467 4.22626740 7.85854304
O 0.44897386 11.94862371 2.26735995
O 2.63742774 0.44866388 0.56223164
O 0.02951665 6.82041620 10.62041728
O 1.47824690 9.40774278 2.73933284
O 11.14383592 3.99499431 9.95950105
O 6.05362980 8.03870704 8.31636808
O 7.91888518 5.66260519 3.83796760
O 12.42712756 5.71377281 13.30442944
135
Time=400000.00000008 pbc="T T T" Lattice="13.31093562 0.00000000 0.00000000 0.00000000 13.31093562 0.00000000 0.00000000 0.00000000 13.31093562" energy=-935.06283544 virial="-37.21253869 28.10523368 -21.39874300 28.10523368 -64.84210109 -17.61067214 -21.39874300 -17.61067214 -22.98821264" stress="-0.00344677 0.01191685 -0.00907324 0.01191685 -0.01516193 -0.00746707 -0.00907324 -0.00746707 0.00258447" Properties=species:S:1:pos:R:3
Ca 11.45956931 7.68030376 10.20541386
Ca 4.82926011 9.51639105 10.63801600
Ca 8.91924655 0.14794862 10.25169569
Ca 10.29445362 10.32680656 2.29661945
Ca 2.13728416 6.77941315 12.32453848
Ca 4.16426981 12.81202525 8.25795039
Ca 1.06509020 1.38433166 10.71026012
Ca 13.04435152 10.47513189 12.57322478
Ca 7.64504209 5.22101686 13.14300958
Ca 4.74715684 1.64257891 12.51497397
Ca 7.18310509 11.01245426 13.28409298
Ca 5.83891636 12.44788267 4.73597028
Ca 9.07292098 7.52857836 6.47410194
Ca 6.09763898 9.16693599 6.54013993
Ca 0.72623929 8.21734466 3.25599405
Ca 9.64826516 0.74465943 6.04582765
Ca 0.47934264 11.66939883 8.16328044
Ca 11.42200415 2.83675161 8.69631504
Ca 8.48824992 5.28402154 9.35346240
Ca 4.84182165 3.86341602 4.25391973
Ca 11.49997639 0.90592034 2.49252546
Ca 4.19594233 2.72335802 6.78652807
Ca 2.80295410 11.59498202 1.17253814
Ca 1.92834912 2.76954931 2.39640264
Ca 4.11498001 7.67749248 3.11342758
Ca 10.35874411 6.30412119 3.32196796
Ca 2.16524639 6.63409776 6.85594395
Si 3.35421111 12.06409327 11.65594897
Si 0.70896847 4.93589385 10.05467125
Si 9.04378327 8.15531006 0.67910854
Si 11.71117668 0.12688574 12.47628264
Si 3.76580278 0.41188444 3.21196317
Si 8.52722577 0.80792913 13.17240038
Si 5.82492499 5.59045937 6.63197508
Si 12.49558351 3.62788548 2.95857519
Si 1.61447217 11.98566594 4.15622762
Si 1.68698605 5.01289210 4.32794000
Si 8.75464309 13.09600377 2.83442434
Si 11.05183222 11.22560594 10.17094076
Si 8.19948425 3.12698329 10.92433418
Si 8.12284462 10.42907769 9.13236674
Si 4.35619212 8.01244932 0.44077754
Si 5.65377879 6.77368441 9.11275150
Si 7.34972483 12.49015679 7.32036963
Si 0.13531928 0.73411313 6.62539915
Si 8.00616230 8.06741288 11.09321589
Si 2.58277980 9.78601884 5.88529157
Si 10.24802972 4.90378681 6.56460174
Si 3.28137704 4.83321445 10.00309713
Si 8.14207020 10.47105451 4.48219066
Si 4.33287125 4.58134989 1.09855444
Si 0.13091904 3.76751864 6.25320217
Si 5.57345550 2.42406641 9.61826690
Si 12.15325013 7.76590889 0.97893038
O 1.84469789 10.37146758 4.34474913
O 9.65598711 3.42340900 6.77473852
O 10.10334247 0.87393308 12.68584534
O 4.09419361 8.86094267 5.25842367
O 8.55896576 7.21465758 1.94507685
O 10.11213969 5.97279516 7.76380298
O 2.16346646 4.52400811 11.05844925
O 2.62305810 3.58912752 4.45270925
O 10.53323366 7.74096279 0.73064016
O 5.92767070 13.14374273 6.76350289
O 9.27775006 7.20816560 10.64659202
O 3.93878785 6.38571048 0.88780380
O 9.54873145 11.30528054 9.58379180
O 11.10532303 4.03945345 2.27347455
O 11.88208490 0.81055665 6.93801919
O 12.60743358 1.28017469 11.74353143
O 0.49058024 4.38649814 3.15218124
O 8.88775829 9.92772580 0.96895969
O 0.71691968 12.55815721 2.87445490
O 7.98660751 7.67286745 12.63079073
O 4.63635074 1.54978791 4.04828884
O 10.45561347 5.87350034 5.32083981
O 4.90690426 8.14538053 8.68975601
O 4.44051605 11.71188425 12.79997359
O 5.88079808 4.11113442 6.00672913
O 7.94756743 0.90561399 1.36810001
O 3.59357859 8.37314281 12.20368072
O 3.02203633 10.98349448 6.90887485
O 0.96279733 0.44148427 8.15857855
O 4.34539111 5.83343781 10.05785839
O 9.72580715 9.85865893 4.55223070
O 7.75183884 11.82874610 3.41714417
O 6.19790914 5.26729861 8.54592952
O 1.07628454 5.02141181 6.02236119
O 6.86973345 6.72974576 6.38634003
O 0.97635798 2.20522991 6.20697736
O 6.09855701 1.13914233 10.62315504
O 12.15089268 4.40205783 7.18357800
O 6.45235725 3.61825706 10.29596688
O 8.23606043 2.43061584 12.52652838
O 12.37249702 3.30500438 4.77283015
O 12.89379568 6.06103058 10.33879259
O 11.20179062 9.75547196 10.68099126
O 8.94557573 4.47658270 11.62035096
O 12.45943144 12.66024153 0.29263245
O 4.18454848 5.80292237 6.63512282
O 8.14395189 12.51445523 12.53314986
O 12.55362983 6.84396441 2.36566159
O 1.86048364 11.28305173 12.14248192
O 7.04932630 11.53689330 8.53231103
O 3.95696311 3.07084881 9.99363951
O 8.57929390 0.21654076 7.89491452
O 5.80309478 8.85179804 0.27645359
O 3.10497784 1.14036757 1.78840016
O 1.54796723 8.64652275 6.65241367
O 9.03897539 2.56855877 9.67217055
O 4.40253349 12.18301918 2.47802540
O 3.11466476 0.40443322 11.11794579
O 5.53325967 1.84604373 8.20368193
O 12.84811647 2.23235364 2.31462909
O 3.30122853 8.78886719 1.37352665
O 0.09650707 3.29828904 10.09183853
O 2.14558737 5.28860091 9.04199306
O 7.63673444 9.83387951 10.65184381
O 7.73770205 11.62231517 5.92867863
O 6.95599659 7.02032329 9.91776526
O 7.95177973 9.53835137 7.88640055
O 3.06286643 3.79310939 0.46556454
O 4.28205083 4.64815639 2.64479080
O 0.64234018 12.36379232 5.80704567
O 3.54884789 11.44577537 10.05883993
O 12.09479295 11.75065733 9.13047052
O 11.07876989 12.69814804 11.24484488
O 12.98034084 7.94304919 12.80944999
O 10.31014432 12.49455536 2.91944956
O 8.80102662 1.22068362 3.90232570
O 12.35585585 9.43514308 1.57041979
O 2.73668788 13.23917232 4.53309977
O 7.22279168 9.25840871 4.66568835
O 2.35903737 6.28647529 3.95861200
O 5.69543601 3.94569240 0.54856285
135
Time=500000.00000301 pbc="T T T" Lattice="13.31093562 0.00000000 0.00000000 0.00000000 13.31093562 0.00000000 0.00000000 0.00000000 13.31093562" energy=-934.31831748 virial="-62.59206762 -3.54941199 20.38778405 -3.54941199 -18.56433334 -12.30500722 20.38778405 -12.30500722 -57.95110499" stress="-0.01420789 -0.00150498 0.00864459 -0.00150498 0.00446023 -0.00521742 0.00864459 -0.00521742 -0.01224009" Properties=species:S:1:pos:R:3
Ca 9.76651172 9.42038134 10.87603109
Ca 10.01426592 5.76104256 2.53754600
Ca 10.49376884 12.13996623 0.41208759
Ca 2.32506107 7.86486464 2.03984145
Ca 3.73162110 0.62028604 0.45347951
Ca 4.97514404 2.75571537 8.17937693
Ca 10.06859167 10.10027505 3.50895752
Ca 0.06189279 2.55602751 12.21770426
Ca 8.95917992 2.01632054 11.72194924
Ca 6.43106070 11.54504564 1.59447901
Ca 3.15239060 1.30457705 4.59829033
Ca 5.41063522 12.23241921 9.19468343
Ca 11.81631624 7.53240366 0.32610254
Ca 1.69318809 9.86451720 7.54040514
Ca 12.71879708 3.69008839 4.24612567
Ca 11.83931195 9.14895484 7.56441127
Ca 12.90226505 4.85696916 8.57248813
Ca 0.89898436 1.00563160 8.35417433
Ca 9.99915996 0.30108725 5.05210286
Ca 8.62173749 6.01734300 12.47099033
Ca 0.67410851 10.36796426 11.52022120
Ca 4.38714631 11.19768221 4.63712853
Ca 9.96049364 6.31066017 8.29772630
Ca 5.37867342 6.38130627 6.50946645
Ca 5.20008052 6.23258473 3.47584110
Ca 5.88341252 7.79658494 9.84249941
Ca 8.24762476 12.13479928 7.54259912
Si 5.64496839 9.69382595 7.31165280
Si 12.63135467 11.92055052 3.16232713
Si 9.12643397 3.16741641 7.57625566
Si 11.19943205 1.49251421 9.38426497
Si 3.96992946 11.31501745 12.41331605
Si 8.27169531 1.69242369 2.64300039
Si 2.34581981 6.47140242 6.08303810
Si 11.30492691 1.60523764 2.26224049
Si 0.03200875 9.35447554 4.17875791
Si 12.45992938 6.77574646 5.17368612
Si 0.72308030 12.96125914 5.86266900
Si 11.53781064 12.40774219 7.46288629
Si 7.69059969 3.76974976 4.70854308
Si 1.58538120 4.76289998 0.98137149
Si 8.73297758 8.53020063 0.99105070
Si 10.49584539 3.70744978 0.58207385
Si 8.13161593 12.33318308 11.25109982
Si 7.38176894 4.89573715 9.37534777
Si 6.49629422 9.24569512 4.24247046
Si 12.37517568 8.04667268 10.57756961
Si 3.28405878 0.44470205 10.49328473
Si 6.47110482 9.90911778 12.06129202
Si 2.57005917 3.63685418 2.97069492
Si 0.22921557 13.22824607 0.53172440
Si 2.22000252 3.87587828 6.48092577
Si 6.30134428 0.86216051 5.23820661
Si 5.89644696 7.47360197 0.45281930
O 7.68229091 5.93403342 8.21034675
O 2.62818477 10.50296333 12.53770099
O 12.06006765 10.26325309 3.65821712
O 5.54454589 9.87014071 5.71864080
O 11.78196913 5.65906700 4.08803476
O 9.93139379 7.89544469 2.09979648
O 5.22864975 10.91163590 11.29124812
O 0.74479396 1.21913709 6.01883853
O 5.43395207 8.11375625 7.55984645
O 7.07175562 0.53811222 2.34495069
O 13.30133380 9.35906617 5.88630014
O 6.00247135 6.40935500 12.62187766
O 2.41534654 12.55374156 5.68261168
O 12.10884783 0.70859019 1.00011304
O 2.14526840 4.20707088 12.93547207
O 8.57121254 11.13074557 10.10057498
O 0.35488908 12.08179384 1.85639452
O 10.15439959 4.17484751 8.14265000
O 3.30762126 12.71817351 11.77087071
O 7.49680061 0.51349437 10.77216662
O 1.04639179 3.78412068 2.48652668
O 5.69313050 0.62128819 6.84511518
O 11.24576741 11.12397463 8.53833781
O 10.53447591 0.80223089 10.67034651
O 0.86944217 4.17584915 7.30224408
O 3.19013722 5.14865982 6.66270162
O 13.12569236 7.80508360 3.82314308
O 4.56717263 11.82808128 0.60453856
O 5.70666290 4.65562782 9.72438083
O 8.20468519 9.45260740 4.47490257
O 5.58597111 8.93115841 13.02099593
O 8.45121043 3.20698983 3.34506529
O 6.97015623 10.45404872 7.85756925
O 11.57961337 6.92914869 6.51918927
O 1.39829143 9.62433996 3.20932912
O 8.57899840 5.00761977 10.71323433
O 6.71341971 5.00993224 4.57043846
O 2.55286432 3.58891355 4.81532557
O 7.73403704 13.27929974 4.99335593
O 9.72645715 1.29628402 1.71124108
O 3.09408434 2.63787711 7.23262012
O 0.05043835 12.37659606 4.57653247
O 2.02266982 7.70292184 7.15641119
O 3.66434527 6.72305823 5.19832872
O 7.31775360 11.40250383 12.22934204
O 11.42870588 2.00270037 4.04091439
O 3.74466481 2.51043718 2.64119630
O 9.37872599 7.89097219 12.72467148
O 9.89239005 1.75061425 7.43234816
O 11.83580915 8.95645088 11.84538883
O 5.00124939 0.11578658 4.14804528
O 10.85978224 5.40233190 0.56967505
O 7.18465000 7.75681673 1.16924519
O 12.91897884 6.69915612 10.28388797
O 10.83594405 7.92744815 9.73934263
O 6.62140047 2.43944668 4.45772016
O 12.17097422 2.69866382 9.66584854
O 13.20650172 9.35099262 9.56959850
O 8.37798939 3.19887603 6.03714211
O 7.91016882 3.28101610 8.75132039
O 10.94555344 2.72169205 12.70849011
O 9.08978649 12.83397953 12.37456729
O 2.02472628 1.38085451 10.28379404
O 6.13782373 7.70594532 4.35881135
O 3.24355236 5.00430874 2.19029167
O 0.64435490 6.31483495 5.69033863
O 8.81083908 10.27057962 1.12020642
O 12.92838699 12.39690329 12.52655037
O 1.37979163 1.05113112 0.30870528
O 11.16227541 12.45993065 2.97227707
O 3.93026536 10.70096891 8.05797544
O 4.66900539 0.67731083 9.63731763
O 10.41593263 11.92225621 6.23413765
O 0.20950395 12.01963033 7.07216738
O 11.47343974 3.19012111 2.13868111
O 12.06467154 0.39336871 8.12201086
O 4.60261724 7.84962087 1.58442064
O 5.83551263 10.36089215 3.23301849
O 8.71952917 3.67385392 0.68208044
O 0.72833973 6.18856816 0.92211851
O 6.95707579 8.80270119 11.00151553
135
Time=600000.00000594 pbc="T T T" Lattice="13.31093562 0.00000000 0.00000000 0.00000000 13.31093562 0.00000000 0.00000000 0.00000000 13.31093562" energy=-932.83988758 virial="-6.60409231 -5.43068939 17.38160884 -5.43068939 -30.65459993 -5.47133396 17.38160884 -5.47133396 -45.37304877" stress="0.00953147 -0.00230266 0.00736994 -0.00230266 -0.00066615 -0.00231989 0.00736994 -0.00231989 -0.00690689" Properties=species:S:1:pos:R:3
Ca 3.09644592 12.04245041 4.76484257
Ca 2.02353797 4.73171891 12.20101445
Ca 9.94865347 0.61266809 4.88470280
Ca 4.86358979 5.78338825 5.94367367
Ca 6.23488820 1.47571481 0.22297815
Ca 9.14405073 10.36815946 5.40014405
Ca 8.38910864 3.42307160 11.34178358
Ca 6.11411713 12.17488086 7.09339631
Ca 3.12676269 9.01966904 3.34092703
Ca 11.71015992 11.52465611 0.77617950
Ca 2.42986092 7.47490626 10.24677043
Ca 0.60268113 7.96124633 6.47746668
Ca 11.96997752 5.27823649 5.96568098
Ca 1.47724379 1.26881514 9.59246476
Ca 7.73305490 11.36694888 12.75510455
Ca 2.16325715 10.58598458 8.58751264
Ca 12.30612550 5.43316719 10.54157208
Ca 2.71713583 2.35455462 2.02292050
Ca 3.43812300 11.79283732 0.40991114
Ca 12.43493128 2.03274678 2.05063722
Ca 7.49250261 7.41345279 8.64990015
Ca 13.27425483 8.48581180 0.24036703
Ca 8.91112232 3.80640543 6.40915573
Ca 9.54728491 10.94561577 8.92736045
Ca 5.84138436 0.82773139 10.10027699
Ca 11.72354065 2.31130097 8.24388395
Ca 9.15278207 7.52357939 3.22149593
Si 5.05582886 0.76254102 3.65918151
Si 11.94852637 1.06386313 11.70469561
Si 0.03317980 12.98178962 3.22516767
Si 8.85704398 0.68999181 11.02555180
Si 5.89560613 11.35942191 2.35531186
Si 1.56536105 4.36646562 4.20573865
Si 11.40512656 3.99261929 13.04853110
Si 8.72319803 0.43166068 7.60346175
Si 9.75202270 8.97659205 13.07207881
Si 5.20034475 10.50288392 9.80504576
Si 10.08503979 8.06981853 10.33301313
Si 7.31203079 8.91463536 1.61545002
Si 9.64098071 5.15731795 8.78544722
Si 1.48173416 2.78533972 6.76653006
Si 9.48408394 3.20755526 1.96928801
Si 5.62166047 9.32196272 6.79717735
Si 12.58833156 9.22483492 9.23976306
Si 2.37745739 4.89985719 9.05787209
Si 13.29486141 9.81959867 3.95375947
Si 3.51548588 7.74524970 0.10783565
Si 4.16627712 5.63210289 2.83778609
Si 0.63144251 11.71496512 11.39767937
Si 10.06448544 7.03280754 6.15531778
Si 0.43740505 0.02617470 6.40239144
Si 3.40897873 1.56260593 12.66748725
Si 6.77296455 3.94774461 3.37938723
Si 5.98936354 8.56599208 11.72638423
O 2.02975015 3.20646552 5.26075840
O 2.76190934 9.23153409 0.33720681
O 7.28317547 8.07040140 2.83970519
O 5.78696412 11.74279792 0.65037177
O 9.47289711 7.86747674 11.93657997
O 6.68651676 7.84965000 10.56530496
O 5.89951465 10.19346180 8.21448062
O 9.25972840 12.44355738 6.79595466
O 6.24310826 13.14929437 3.02552719
O 4.35557680 7.99069875 11.94506569
O 12.65051829 9.69075281 2.31842348
O 3.77196642 9.71529175 9.52464340
O 9.89362774 6.52642842 9.72294291
O 1.27245217 11.93125051 6.78135681
O 4.74559672 0.50631966 12.63031253
O 11.42836705 9.96882959 8.40889362
O 1.45511472 12.19551283 10.06777782
O 9.53402894 1.59083641 6.64731864
O 1.19457846 5.63459380 9.86127047
O 0.77919911 8.84916300 8.63507900
O 11.05219964 4.52936282 8.53929960
O 5.77600835 2.34692552 3.20927253
O 8.71933637 8.57889276 1.18751311
O 7.07983583 0.63122843 7.98385785
O 5.87181276 12.17892067 9.80497323
O 2.06080303 0.70356210 0.21530494
O 2.16167494 3.02418114 8.20484594
O 7.15077177 10.59342162 2.58598217