 running on   52 total cores
 distrk:  each k-point on   52 cores,    1 groups
 distr:  one band on   13 cores,    4 groups
 using from now: INCAR     
 vasp.5.4.4.18Apr17-6-g9f103f2a35 (build Oct 31 2019 15:01:46) complex          
  
 POSCAR found type information on POSCAR  Ca Si O 
 POSCAR found :  3 types and     135 ions
 scaLAPACK is switched off
 LDA part: xc-table for Pade appr. of Perdew
 generate k-points for:    2    2    2
 POSCAR, INCAR and KPOINTS ok, starting setup
 FFT: planning ...
 WAVECAR not read
 entering main loop
       N       E                     dE             d eps       ncg     rms          rms(c)
DAV:   1     0.977077492851E+04    0.97708E+04   -0.48385E+05  8320   0.185E+03
DAV:   2     0.743638989464E+02   -0.96964E+04   -0.93846E+04  9728   0.500E+02
DAV:   3    -0.990688338334E+03   -0.10651E+04   -0.10568E+04 10288   0.168E+02
DAV:   4    -0.104305435647E+04   -0.52366E+02   -0.52177E+02 11544   0.335E+01
DAV:   5    -0.104834313148E+04   -0.52888E+01   -0.52861E+01 14480   0.795E+00    0.846E+01
DAV:   6    -0.897278882792E+03    0.15106E+03   -0.66944E+02  9776   0.406E+01    0.358E+01
DAV:   7    -0.898875171620E+03   -0.15963E+01   -0.74504E+01 10568   0.146E+01    0.180E+01
DAV:   8    -0.897491868998E+03    0.13833E+01   -0.12973E+01 11024   0.646E+00    0.802E+00
DAV:   9    -0.897069595036E+03    0.42227E+00   -0.25286E+00 10976   0.351E+00    0.265E+00
DAV:  10    -0.897154311411E+03   -0.84716E-01   -0.10790E+00 11544   0.186E+00    0.149E+00
DAV:  11    -0.897169349769E+03   -0.15038E-01   -0.16196E-01 11360   0.724E-01    0.859E-01
DAV:  12    -0.897176777601E+03   -0.74278E-02   -0.47804E-02 11168   0.376E-01    0.365E-01
DAV:  13    -0.897180875143E+03   -0.40975E-02   -0.98806E-03 10160   0.217E-01    0.138E-01
DAV:  14    -0.897181564092E+03   -0.68895E-03   -0.37387E-03 11848   0.107E-01    0.945E-02
DAV:  15    -0.897181756823E+03   -0.19273E-03   -0.77816E-04 10248   0.473E-02    0.544E-02
DAV:  16    -0.897181862946E+03   -0.10612E-03   -0.22811E-04 10368   0.339E-02    0.222E-02
DAV:  17    -0.897181884338E+03   -0.21392E-04   -0.98167E-05 11752   0.179E-02    0.128E-02
DAV:  18    -0.897181888036E+03   -0.36976E-05   -0.20083E-05 10072   0.747E-03    0.713E-03
DAV:  19    -0.897181889308E+03   -0.12720E-05   -0.51061E-06  8584   0.442E-03    0.272E-03
DAV:  20    -0.897181889611E+03   -0.30309E-06   -0.12285E-06  6064   0.223E-03
   1 F= -.89718189E+03 E0= -.89718131E+03  d E =-.115082E-02
