135
Time=99999.99999996 pbc="T T T" Lattice="13.31093562 0.00000000 0.00000000 0.00000000 13.31093562 0.00000000 0.00000000 0.00000000 13.31093562" energy=-918.01866345 virial="-55.22402714 2.23370400 -1.09202149 2.23370400 -33.04283717 -13.07820661 -1.09202149 -13.07820661 -44.47029692" stress="-0.00861745 0.00094711 -0.00046303 0.00094711 0.00078755 -0.00554527 -0.00046303 -0.00554527 -0.00405778" Properties=species:S:1:pos:R:3
Ca 11.57194972 11.41849141 8.50215720
Ca 12.91179373 1.61081415 0.14291858
Ca 10.54094930 8.60183619 11.47958122
Ca 6.60462237 7.00156946 11.74657404
Ca 5.08470100 7.50129026 8.16520529
Ca 7.73724238 2.09888744 6.10866388
Ca 9.75180579 11.21251474 1.50279849
Ca 5.11585719 0.90241691 0.30829206
Ca 11.50621492 4.04797404 3.52502423
Ca 4.83722261 12.03833561 3.06612303
Ca 1.76679373 1.50888483 11.09224234
Ca 4.97335961 4.44613063 5.85152060
Ca 2.01552819 12.90521439 6.39699882
Ca 3.64149020 8.13066462 4.49950108
Ca 5.22998526 11.70611919 7.22984344
Ca 0.61460981 7.86561512 6.56552588
Ca 7.82419913 3.36629668 10.26153985
Ca 6.75669475 12.95791654 9.93572153
Ca 13.19218343 11.24474350 12.63589865
Ca 7.78725267 6.94216904 1.82439635
Ca 1.91404085 7.15974249 1.74959483
Ca 3.02551916 3.24142330 2.75720032
Ca 9.45031033 2.15048407 0.87536324
Ca 0.85825636 2.87689252 5.21183055
Ca 10.99847083 4.83416809 11.15212476
Ca 0.75311881 4.94218681 7.55293008
Ca 8.95337788 9.64575661 4.80337646
Si 8.39094619 9.50877666 8.29169265
Si 6.18250506 4.13715090 0.04660458
Si 6.77649629 0.67359539 3.08318932
Si 0.81381404 5.62736053 4.10309289
Si 0.10619703 7.09325459 10.07109762
Si 4.32945065 1.22063293 5.02028149
Si 1.96287824 13.25593513 0.97184048
Si 12.79645720 0.70459275 3.04334086
Si 5.24832287 5.72087742 2.65409939
Si 11.18932950 1.50469869 6.84700369
Si 1.85023984 9.65504585 10.17209606
Si 9.51996037 7.46805904 6.46441632
Si 4.65805665 10.64226161 0.77286837
Si 3.95036318 5.95905666 11.61616183
Si 2.94550640 9.79228607 7.33177208
Si 11.20647215 1.71371514 10.09972675
Si 6.65040157 9.89245402 3.34187812
Si 8.42400958 6.80720007 9.18137724
Si 10.71840613 12.82524573 11.68590267
Si 4.41622369 9.09973866 11.48608111
Si 2.20665568 2.36436482 8.51902684
Si 8.08617130 5.17737528 4.72309688
Si 12.56622441 5.63815433 1.16264056
Si 11.26359846 8.47085467 1.44862600
Si 12.17741174 12.24895383 5.89246833
Si 4.46225047 1.19560335 9.81264514
Si 0.86762948 4.60225567 12.39355526
O 1.88754990 4.45376505 3.74659121
O 9.38942936 4.54655711 3.71791554
O 7.56416330 5.31844704 9.33347003
O 12.66331192 0.42940106 6.81602113
O 5.39855767 12.03687149 0.32811316
O 7.54055442 4.27449126 5.90155696
O 2.87280028 1.12276047 1.24326715
O 12.70474803 1.76651308 10.98044314
O 2.77326215 11.73720798 0.84127620
O 3.83445603 9.76633150 12.96197546
O 5.32471229 0.66471702 2.65314515
O 11.76629178 7.35332712 10.08225297
O 4.62922582 4.56302848 3.69668733
O 7.70610261 0.96457931 1.61879583
O 8.88671279 6.94839626 10.81751570
O 10.67613456 11.81261532 6.16412876
O 1.72479542 7.01859816 4.03085068
O 6.56185874 5.16317209 1.46799230
O 2.42427450 9.13441439 5.94189708
O 10.24071087 7.45448486 2.03837133
O 0.54730211 7.06224973 8.35611721
O 0.96585054 10.83519098 10.89884611
O 4.23211658 1.43081424 11.52864374
O 2.28716145 0.84897303 8.40325458
O 1.07919594 0.42113986 12.88469419
O 4.78306147 3.25821808 0.73469183
O 11.09197920 11.66519744 12.59455544
O 8.73080310 9.25640799 6.74709403
O 11.80191540 4.42780432 0.28684594
O 5.21238407 5.14064453 12.41343715
O 12.32457718 7.19979777 0.71168029
O 8.24591746 10.18306016 2.88101666
O 4.22735024 6.92617414 2.49325244
O 1.86008249 9.27710349 8.61576038
O 1.59657708 2.82005597 7.10686000
O 5.47825266 10.01658820 2.22258701
O 0.82463486 3.03019048 12.26720044
O 12.97540221 5.59182649 2.89348273
O 9.74440462 13.09631094 10.25016682
O 10.04419541 8.91612307 0.34095957
O 2.65824460 11.44070046 7.41221447
O 5.63434581 2.18007842 5.53290604
O 7.70840324 3.46981073 12.76994862
O 6.38856787 1.73031915 10.03504960
O 10.78896254 2.07644425 8.54693475
O 8.56259185 6.77667848 5.27441584
O 6.71802304 10.53325838 4.63141976
O 2.40201349 5.27298231 12.16312590
O 0.18852377 5.62216610 11.11534381
O 4.58772487 12.92728933 9.21985405
O 4.39802293 7.60797826 12.54557039
O 4.46305913 9.43970502 7.29398251
O 13.19604822 2.32069730 2.95192526
O 0.81041500 13.23543955 2.18115239
O 0.14521379 5.11407900 5.46867129
O 9.65270783 9.69533346 9.51929485
O 10.96900155 7.87057098 6.34084170
O 3.99203264 12.73843805 5.23045934
O 12.12789599 9.72106683 1.91790969
O 3.01537165 1.79245375 4.57866711
O 9.92812090 1.49299465 5.57754534
O 7.31543020 10.76483877 8.69049241
O 10.41475213 0.85224665 12.58535236
O 7.31169554 13.00734133 4.40796643
O 0.06071440 11.40974137 6.72885761
O 4.40517565 6.62183642 6.44159552
O 9.33273155 6.51866665 7.94860911
O 3.71523883 2.60339007 9.08310104
O 1.17985116 3.15115672 9.46411239
O 5.78987839 8.47185265 10.59384911
O 7.31692796 7.98757680 8.59826156
O 3.95156420 6.16158313 10.08882962
O 0.81334122 5.19099170 0.61305942
O 6.48165697 8.21597678 2.93920403
O 1.18925668 8.28793865 10.83232263
O 3.40108209 9.33619337 10.31412011
O 11.99687417 2.87191155 6.28899719
O 10.21143228 2.85386701 10.95460934
O 11.55370549 0.19351287 1.63880663
O 12.74434491 13.21191787 4.35886524
O 6.75424069 5.28445881 3.69807025
135
Time=199999.99999918 pbc="T T T" Lattice="13.31093562 0.00000000 0.00000000 0.00000000 13.31093562 0.00000000 0.00000000 0.00000000 13.31093562" energy=-911.04611973 virial="-8.30767910 9.49133933 2.59327132 9.49133933 9.52337223 32.39638370 2.59327132 32.39638370 4.74148289" stress="0.01127546 0.00402441 0.00109957 0.00402441 0.01883598 0.01373633 0.00109957 0.01373633 0.01680842" Properties=species:S:1:pos:R:3
Ca 7.78716045 6.09858044 7.94979380
Ca 0.33039542 12.64263779 12.98245187
Ca 10.79548909 7.47830681 9.95547903
Ca 11.68780343 5.53225311 0.04404167
Ca 2.41079826 5.31276754 4.61905893
Ca 11.80548021 6.06907203 6.03849021
Ca 10.10962051 12.62693838 1.84197688
Ca 4.75098815 1.10153358 7.29541085
Ca 11.33771076 1.28686280 5.15760456
Ca 8.75362601 3.56107980 10.11861724
Ca 5.34811431 0.46514414 10.97298808
Ca 3.32128146 9.26736993 10.03622875
Ca 2.89364862 12.24386960 1.81224529
Ca 3.06267594 8.56525630 6.67784745
Ca 9.50787545 11.94897357 11.15792057
Ca 2.86535823 8.08796391 0.34208462
Ca 12.30366443 12.24383266 7.65937176
Ca 6.43864263 13.02085413 4.02077847
Ca 9.08264862 9.53726198 3.41902339
Ca 0.27967769 7.72466204 8.16165383
Ca 5.51148269 5.34402519 12.52336845
Ca 2.91414630 3.67575069 9.11808506
Ca 2.62062947 1.68820132 5.36697072
Ca 7.93352376 6.26653507 4.18771643
Ca 12.59867605 7.31035625 2.54898530
Ca 4.45159368 2.69415839 1.81713766
Ca 12.01796385 1.72412682 9.99934861
Si 7.04533171 1.85039019 0.34693297
Si 6.58391071 8.07667084 1.03737576
Si 0.16516631 7.89790294 11.36594137
Si 5.74527333 3.74973004 9.47959743
Si 7.83353556 0.01561458 6.33181494
Si 12.92118285 3.81528587 3.44406124
Si 2.02818079 0.68958907 10.37659444
Si 13.18336184 3.21739593 6.66989629
Si 2.04417731 3.26829362 12.32152488
Si 0.47724145 4.52028025 11.25150041
Si 10.79781865 8.42116624 5.54850197
Si 10.14717776 2.00681905 12.92451233
Si 2.03373173 8.95512329 3.37303403
Si 9.61569549 7.19175447 13.25789677
Si 13.27448674 10.04539754 2.04401311
Si 3.80856881 10.92504485 4.92657935
Si 1.56073033 2.27573560 1.95889038
Si 3.48764899 11.53566597 11.90426177
Si 8.58635290 8.72987191 7.34520875
Si 9.26814097 11.91062886 7.84741887
Si 5.12994738 4.45442982 6.30804994
Si 11.42195334 9.26863182 12.77893658
Si 6.72739313 11.00342159 1.97889879
Si 5.29214421 0.18151822 0.57456421
Si 11.05108944 4.64654283 8.15939367
Si 6.22953781 8.76454190 5.42196985
Si 12.14015109 11.57075891 4.28688002
O 10.20755014 6.37566697 11.94015501
O 6.59268702 0.57332615 12.94290664
O 13.15849711 10.38305007 3.76301575
O 9.78584141 9.71615796 6.77783654
O 8.46166486 2.55455280 12.95513450
O 9.35277329 7.66162877 6.23517453
O 11.05701952 3.26369877 0.18635818
O 9.26049754 11.19028427 9.19892450
O 11.45575709 13.01426481 3.38104922
O 2.86407532 10.78289829 13.26126598
O 1.72475366 7.96606532 11.96668397
O 8.02443415 11.58351977 1.02684116
O 0.49760120 3.91923045 9.84811270
O 9.81394604 0.71260790 0.32263902
O 2.52627450 4.32301159 11.32725994
O 2.50623197 10.48186925 3.80572036
O 0.92345477 11.16102405 1.70714743
O 12.75904233 8.24578238 12.63612081
O 5.45558959 12.12532127 1.70574681
O 10.33760273 8.47408090 12.06699221
O 7.13305610 9.01975678 6.79526224
O 6.65930623 2.03245480 9.76495316
O 11.88093570 9.46855115 1.38001682
O 6.77071705 4.93408781 9.35434293
O 11.16265352 10.94672562 12.41078645
O 3.80310036 5.34514910 6.56588544
O 2.20300285 1.80421638 11.65010303
O 5.24063418 10.23767723 5.08445803
O 5.03735259 7.74308519 5.67470375
O 0.66877629 3.48095747 2.28624033
O 8.33433961 8.21561925 8.83744351
O 0.87965320 3.86680498 7.60277916
O 2.45626080 3.18582293 0.74085902
O 11.00128673 7.80237482 4.17284713
O 7.39823174 8.43057830 4.43187654
O 6.23154052 9.64391559 1.21078195
O 13.16561483 12.37835056 5.57727402
O 1.79162254 7.59730407 4.38667331
O 0.46066531 0.16748736 10.40446058
O 7.10105127 7.44018764 2.62632477
O 2.99078495 1.96949461 3.22176418
O 8.53222888 0.43078864 7.92950105
O 3.41025019 8.61154955 2.22735042
O 11.17726894 9.96962952 5.14330800
O 12.57960629 8.55629839 10.10933885
O 4.53930665 12.67489847 12.24479498
O 2.95650773 1.56258909 9.12711391
O 4.88341740 3.17517349 5.62883954
O 7.25866822 11.01249766 3.52218240
O 0.54640098 1.13107517 1.38564838
O 9.31043768 4.64288983 8.20436067
O 10.48507422 6.67266385 1.23412905
O 5.20474926 3.46477833 8.02235430
O 2.37464013 12.23505816 10.83784940
O 6.31285188 0.23143833 5.83079897
O 0.83197994 8.52732440 2.23108605
O 8.62523003 0.91883104 4.84876051
O 10.20088361 1.69198284 11.32919513
O 11.82654146 6.14531463 8.16706353
O 4.63099486 4.24883424 10.86110094
O 6.10948198 3.19749546 13.07437819
O 13.01157473 1.61989034 6.51153438
O 0.00876693 5.48669786 3.30701586
O 4.83860573 10.65768522 11.22254532
O 3.92221210 0.69489562 1.36983245
O 7.96753677 7.55395186 0.10584022
O 5.78535611 7.27808127 13.27486130
O 0.43803469 3.54523040 12.72966686
O 12.30083717 7.99189496 6.20361392
O 0.52742721 3.44633229 4.95610146
O 2.04317523 8.51666514 8.66295701
O 8.02431047 11.86809222 6.62283273
O 2.98429434 10.80819438 6.45312835
O 10.53066282 12.41248018 6.80354368
O 6.55418584 1.25989275 1.81195503
O 6.46860975 5.26151692 5.96308439
O 11.54956517 3.80050468 6.73957381
O 10.99339670 3.82094845 9.48016766
O 11.48861688 3.45584864 4.13558730
O 3.68715620 12.99521378 4.73998504
O 12.92273129 6.19740146 11.16066951
135
Time=299999.99999840 pbc="T T T" Lattice="13.31093562 0.00000000 0.00000000 0.00000000 13.31093562 0.00000000 0.00000000 0.00000000 13.31093562" energy=-925.38687755 virial="-72.29930494 7.22761547 8.86048552 7.22761547 -29.01225150 -6.58594728 8.86048552 -6.58594728 -69.70813007" stress="-0.01585751 0.00306457 0.00375692 0.00306457 0.00249656 -0.00279250 0.00375692 -0.00279250 -0.01475883" Properties=species:S:1:pos:R:3
Ca 0.19567889 5.36927930 3.07866958
Ca 5.92952653 1.69866267 2.87485964
Ca 6.70070060 4.87403094 0.50083204
Ca 12.34623943 5.12572850 9.90214986
Ca 3.40852859 5.98561633 2.10740251
Ca 7.86742994 5.96111386 4.58064674
Ca 1.92586796 9.67436296 3.47386842
Ca 9.22035522 1.04819517 1.86362873
Ca 1.77132138 12.27417548 10.82501821
Ca 8.15948838 9.20316119 5.99467761
Ca 8.46397337 7.16399480 10.46348234
Ca 4.51949367 5.50563330 9.64069207
Ca 9.25218840 11.02618358 10.41234764
Ca 11.27460591 8.73509986 1.37748865
Ca 4.96742496 0.56492295 11.85054172
Ca 5.82363045 8.97443983 3.14990979
Ca 9.85125799 0.47700965 7.53031301
Ca 1.97208960 6.13390187 7.01813274
Ca 5.14579166 10.60723731 10.04662892
Ca 7.33806187 4.97216534 8.22258158
Ca 12.07233559 13.12709890 13.23280996
Ca 13.03482272 9.47577654 11.73687805
Ca 2.92291800 0.31210849 1.92605069
Ca 9.34422176 1.68562638 10.72454307
Ca 11.74586273 11.32277333 4.86613193
Ca 0.49997849 0.84269688 5.83978171
Ca 5.68003757 12.18891759 5.96360640
Si 12.71516160 0.68229744 9.94016660
Si 4.35656250 1.85333021 6.87021820
Si 12.42015220 7.72161949 4.04307092
Si 4.54508833 4.68903682 6.02117805
Si 3.62058245 3.51428054 3.37860431
Si 8.39364579 12.14507390 4.28142034
Si 8.54806401 10.46383602 1.21024121
Si 3.91275341 8.26929313 12.98443394
Si 12.33669018 3.99251190 6.71381505
Si 8.05564313 7.56104021 0.99783664
Si 7.08221791 1.71192780 13.26674924
Si 5.08208795 7.37509255 5.11351726
Si 2.06845140 10.68012191 0.14696638
Si 11.75615740 3.00339533 0.35184895
Si 0.08623403 6.62313640 13.27491486
Si 6.65933486 9.70258344 12.69174367
Si 6.28817644 3.78367176 10.78607627
Si 3.70384742 9.43935796 6.45115070
Si 13.06767419 0.93514277 2.21044151
Si 1.67103204 10.14067359 8.52121372
Si 12.09854518 11.33558715 7.90813321
Si 2.09345628 6.74566448 10.83660721
Si 10.61408698 5.62338252 0.09524427
Si 10.46242940 7.05177873 6.29717271
Si 11.08025795 8.56706341 8.60497167
Si 3.59123247 2.31872308 9.94345488
Si 6.94991458 0.21016881 8.65599138
O 8.05963747 0.25294751 3.92954300
O 3.06398527 3.46991996 10.88865908
O 12.62908877 4.19318238 5.11193359
O 9.11207554 11.55275625 2.57135108
O 5.94235993 12.93840426 10.02670696
O 6.77240025 2.52771928 11.80036542
O 12.66400784 12.28629286 6.49879310
O 5.62959995 5.70152560 5.54370851
O 0.27592582 10.98637844 13.10723526
O 9.95769903 5.62917971 11.56091597
O 7.21242910 10.51081175 11.50528044
O 10.25633579 9.18115992 10.35352147
O 3.28177354 10.17870802 5.06689023
O 1.88679673 6.35351086 9.37853912
O 12.48705060 2.61617473 1.79605233
O 3.68356528 0.87822365 5.78413983
O 3.25347587 0.82523475 10.39860557
O 1.19513512 0.84037314 1.16531705
O 9.20736312 6.46565580 0.71670550
O 3.48331916 7.52362875 11.34566184
O 7.88133539 3.96216635 9.71494922
O 1.18975251 6.09255358 12.01278173
O 6.72982873 6.39906061 9.72010656
O 3.05848542 10.91361696 8.90716346
O 11.35516042 6.93752343 3.07220979
O 12.40489362 7.88781914 13.08039827
O 13.08685854 13.04942103 10.98693819
O 12.39970071 3.62242606 12.43999075
O 5.46573173 4.92998288 11.77685320
O 11.19085066 0.98584333 9.56571122
O 1.25198750 9.68189121 10.05104919
O 11.87183256 7.18702544 9.20438805
O 2.38438581 9.23063860 12.45155330
O 5.49040226 3.15788169 9.65919259
O 11.74097857 9.71579268 7.67649280
O 3.36193195 4.53316332 4.84972077
O 4.32555969 7.46968822 3.76774142
O 4.70716533 10.22854824 7.54251519
O 7.44289152 2.72288097 1.20049726
O 5.17090054 9.26236810 12.19145022
O 0.99186821 6.65018156 1.47182621
O 11.50371889 0.16430662 2.13935850
O 2.84683995 12.11737370 12.80977374
O 8.98585983 7.39241989 5.46980062
O 7.33763943 8.02885531 13.00997859
O 9.78595850 12.46557312 5.06083435
O 4.53834056 7.81501018 1.08033671
O 5.72213309 1.06489500 7.63872172
O 9.85487704 7.78038178 7.72828490
O 8.34309688 0.85739983 12.58920232
O 10.93654248 1.52488050 12.86475675
O 10.38582892 5.34800737 6.41717556
O 5.28634385 3.24061846 5.90112937
O 3.71389166 1.88450896 3.27653699
O 0.47797284 0.70745039 3.72940652
O 6.61668386 7.92958189 4.98298328
O 3.72344693 2.66586669 8.19393577
O 0.00122483 11.28798693 8.92537670
O 5.93871568 0.86945619 0.69223447
O 11.84204535 2.36731377 6.79666012
O 0.15869695 4.67220873 8.10490823
O 4.04130511 5.27244128 7.47999610
O 9.75982697 10.67064748 0.00133744
O 0.69302932 7.30226120 4.08496767
O 12.13742752 9.66028314 3.86655231
O 4.79748893 4.11380683 2.40547405
O 6.96050485 6.89469284 1.95017635
O 7.21457114 11.31910897 4.86787051
O 8.34912116 0.67398231 9.34164460
O 0.71648594 1.23829198 9.47974685
O 1.90107254 9.13757383 6.91582549
O 12.24499122 5.57646551 0.44299049
O 8.81220999 8.85475435 1.56892189
O 4.39823052 7.87008543 6.47987343
O 2.65840862 10.49436493 1.62253652
O 2.33524742 4.04933824 2.61835018
O 6.89324082 10.80149161 0.63850493
O 10.33956910 4.10019757 0.61869798
O 11.93198565 7.41683929 5.75698579
O 7.37341678 12.67251793 7.33165872
O 10.55246316 11.62993002 8.50104108
135
Time=400000.00000008 pbc="T T T" Lattice="13.31093562 0.00000000 0.00000000 0.00000000 13.31093562 0.00000000 0.00000000 0.00000000 13.31093562" energy=-925.26986490 virial="-36.27185094 -7.42721081 -12.11616401 -7.42721081 -13.69890160 -3.71750552 -12.11616401 -3.71750552 -48.56086171" stress="-0.00058157 -0.00314920 -0.00513735 -0.00314920 0.00898954 -0.00157625 -0.00513735 -0.00157625 -0.00579222" Properties=species:S:1:pos:R:3
Ca 10.17127787 7.58831127 5.84411208
Ca 10.97811378 7.04692822 2.72325580
Ca 3.95510488 9.16443020 9.84749469
Ca 2.40307017 2.23708980 11.17837694
Ca 2.88339653 10.53064892 12.84986264
Ca 8.85976726 5.44902125 11.48945073
Ca 2.81763968 12.04172696 4.02316302
Ca 11.34156762 8.59814887 12.69430044
Ca 4.65490804 0.28753351 9.96461750
Ca 5.12913346 5.61367147 5.56475297
Ca 11.85762532 3.12573083 3.83754343
Ca 9.27436907 0.32930634 4.85775462
Ca 1.86171870 0.00268602 7.21216206
Ca 4.59016094 4.10425769 1.46090274
Ca 7.70117426 6.00778678 1.57492636
Ca 11.06428972 11.34709112 1.94870618
Ca 11.35751344 2.82731230 11.75874871
Ca 13.09381523 3.22625122 8.63562801
Ca 2.83990117 7.43188429 0.88951073
Ca 1.61387344 7.46806173 4.68886530
Ca 2.23536319 3.02933898 6.08968168
Ca 4.08241215 4.60187413 9.04933573
Ca 0.55106859 4.15668035 0.99240213
Ca 5.77581235 12.60817446 7.01649955
Ca 12.91811739 7.03097450 8.84064960
Ca 6.54561963 12.33298064 2.02737547
Ca 9.24659286 11.09426871 9.83293409
Si 1.51377672 4.93265230 11.54568877
Si 6.00365799 3.29319824 10.77945097
Si 2.58916345 10.13805214 7.07665479
Si 9.72800305 7.68070142 9.34152457
Si 1.99827298 11.66280630 9.90382383
Si 0.65029388 9.32786825 2.48042854
Si 0.05841738 10.61285242 5.41083031
Si 0.84348477 7.43550605 11.95479729
Si 5.43248471 2.28280238 6.89931276
Si 12.60359097 5.21308008 5.87500079
Si 9.13109325 12.76478108 13.05463044
Si 12.36966033 13.30766270 4.50389859
Si 5.85023004 0.74525875 4.13156465
Si 1.43028694 1.35383418 3.49107750
Si 10.65925933 0.92499808 7.14691129
Si 10.13940498 5.08444573 7.56014208
Si 0.21887484 12.90135889 12.23356534
Si 6.34737705 10.97880954 9.37012055
Si 3.98438918 7.48769120 7.07671072
Si 5.56325726 7.96991043 0.62607669
Si 8.00847699 3.31492790 6.38825669
Si 7.13580101 3.41190409 3.26652203
Si 11.10204474 4.65767521 1.19349841
Si 8.05705450 2.03446677 11.20608779
Si 6.94694749 8.04865240 7.58777013
Si 8.37452539 8.68914961 2.34520854
Si 2.85071580 0.64699996 0.72524120
O 12.81647803 11.89164596 13.23799024
O 0.40455518 12.35924860 5.06924570
O 10.72776686 5.27900196 5.80009178
O 0.68527711 11.78671166 10.87396120
O 1.82499951 5.54429718 13.12566779
O 5.92910376 9.21660852 8.80148600
O 12.69035112 0.77757697 11.59151108
O 1.09690385 7.67175770 2.58098038
O 13.00104218 6.58814545 4.91103705
O 4.88205619 12.86460550 3.35976438
O 1.74728244 0.32962668 12.66836545
O 2.99710443 11.48676460 6.38901553
O 5.93390899 4.41738937 3.16389884
O 9.86083901 5.52141800 1.67463241
O 13.05798442 0.80110284 3.56363691
O 11.75367015 3.22443499 1.59462445
O 10.99493773 12.60012032 3.72304116
O 2.15760868 8.25396392 12.25899196
O 12.42426254 9.00258763 2.00244744
O 10.63084204 6.57279098 7.94472946
O 4.62752068 2.62902914 10.58034942
O 7.01143785 0.12936226 5.19357549
O 3.31530984 5.94946884 7.73208687
O 7.83521535 8.94543466 6.32942368
O 11.50009665 1.07939485 5.40210568
O 9.38043834 2.04657478 6.29908425
O 8.51010140 0.83079170 12.43575693
O 9.39802438 8.44840377 0.96092208
O 10.69921224 3.89363978 8.47058488
O 12.58359216 5.44068180 7.54790636
O 2.32307258 0.42572418 2.45778846
O 7.39720547 11.81200124 8.53020640
O 3.58443006 7.60000911 5.40854879
O 2.21417069 13.25469547 9.36083064
O 0.64773930 10.41825541 3.63136767
O 0.23944019 4.23793139 5.47581409
O 9.85223661 12.93993537 7.47543540
O 5.14412339 1.65595560 5.32086270
O 8.28275121 7.44525705 8.40911641
O 6.77843768 8.25676901 1.87101604
O 13.07314413 8.40239618 11.56743013
O 10.01406631 6.67666059 10.71935878
O 11.86517496 9.97425257 5.65973983
O 4.39961372 8.97125070 0.12049179
O 11.90116607 1.46241234 7.93199474
O 6.92719940 1.33019080 2.89358161
O 1.96162692 10.63620333 8.51283157
O 12.22104640 5.79786418 1.48276259
O 5.70329600 7.13710432 7.07502630
O 1.72488044 2.99099352 3.40880523
O 0.86583202 6.11769076 10.78762665
O 8.37788929 10.11265847 2.69297069
O 6.64009938 10.92352331 10.94742442
O 4.68586805 6.44899245 1.40566275
O 3.02030278 11.25647789 11.04991314
O 8.83463989 7.52948405 3.83227129
O 4.31029980 3.53318496 6.82911636
O 6.25895932 4.74286261 10.35814905
O 6.45453615 7.24609322 12.86766633
O 6.72204137 2.86922324 12.23851661
O 1.53029713 2.27299041 7.93779774
O 2.83891955 2.21027854 1.12191755
O 9.38275401 13.12747885 1.46190236
O 9.44158479 11.31317176 12.37298505
O 1.02337240 9.60813272 6.34318755
O 1.28167188 10.31075013 1.32629514
O 3.81658484 12.67743851 0.30675659
O 10.55585211 4.40829601 13.02369445
O 7.59581292 3.85493141 4.87906341
O 4.69654964 1.26547372 7.89156357
O 3.47429407 8.94129636 7.57161699
O 7.01660329 1.92655293 9.88820050
O 9.47288619 2.92826446 11.03777183
O 4.76052496 11.77668873 8.92773648
O 0.13668325 4.00825626 11.85237362
O 8.58054456 4.49639159 7.27282728
O 2.07722261 0.99548046 4.92840083
O 8.51527703 3.38716668 2.17865493
O 10.29495278 9.08452942 9.28509259
O 2.51931202 4.32378401 10.49652202
O 7.05191802 2.56727394 7.38431822
135
Time=500000.00000301 pbc="T T T" Lattice="13.31093562 0.00000000 0.00000000 0.00000000 13.31093562 0.00000000 0.00000000 0.00000000 13.31093562" energy=-923.44966138 virial="-35.78373274 19.73229327 -0.86886104 19.73229327 -44.62723173 -0.00384124 -0.86886104 -0.00384124 -60.94245800" stress="-0.00037461 0.00836665 -0.00036840 0.00836665 -0.00412432 -0.00000163 -0.00036840 -0.00000163 -0.01104211" Properties=species:S:1:pos:R:3
Ca 5.88424981 4.90175097 8.15064456
Ca 9.35922101 3.64414502 9.68529467
Ca 0.80481015 5.39228204 9.02043841
Ca 2.97012023 6.35949303 5.02997914
Ca 9.75074706 9.51894691 8.56840999
Ca 9.25592126 7.49198781 5.47602554
Ca 2.22826965 1.85915921 3.17467203
Ca 5.64728264 6.23595980 1.86563273
Ca 11.74937715 12.09975540 8.60911981
Ca 12.77415315 2.76513076 7.34161827
Ca 9.71754910 10.12922212 0.60606226
Ca 12.79403928 3.29541044 0.69227113
Ca 8.31158579 13.01137796 4.37759636
Ca 9.04487916 3.94641581 6.24022994
Ca 6.71277561 9.15280792 12.83315782
Ca 4.71356712 12.87424859 12.89885548
Ca 12.67787827 9.48151844 5.20080791
Ca 11.39112422 9.03200408 11.44288182
Ca 2.95736854 1.22710519 9.52605563
Ca 3.51318173 11.38727927 3.06788597
Ca 3.44535414 5.12023833 12.09752928
Ca 0.56428303 10.60045089 11.57387804
Ca 0.47388975 7.15378500 2.86126122
Ca 3.61765798 10.52044578 6.91050112
Ca 6.92345560 2.68887135 12.34300682
Ca 6.63226427 2.63204016 3.64344632
Ca 11.39342238 13.10729500 0.31318286
Si 8.18131965 0.36439932 1.29875626
Si 13.17187138 12.96872830 6.12210484
Si 6.80510782 1.59863876 6.81136572
Si 8.52215324 0.89060129 9.30209289
Si 12.52488182 2.08365646 4.26493937
Si 8.86142516 11.45809758 11.51824431
Si 12.88434041 6.54255521 5.98962762
Si 11.25300330 5.85089824 8.37012373
Si 9.14122002 3.63137948 1.61568230
Si 6.62825540 10.33670612 4.82950488
Si 4.25847088 2.94997355 1.05623874
Si 6.61521049 8.51918631 7.27408798
Si 2.12202743 5.08240281 1.22745194
Si 11.45782075 12.41020487 3.88572436
Si 5.33396684 8.37642316 10.22290890
Si 9.67846252 10.67559869 5.48529255
Si 13.01199944 10.51625399 1.49827063
Si 2.14646948 7.74063438 10.91425325
Si 12.95478542 8.29958517 8.48108508
Si 8.90932299 6.58698968 13.30771786
Si 7.07568258 5.86929965 10.77749771
Si 3.68063919 0.76049800 5.95107268
Si 13.18438166 0.73475831 11.36405629
Si 3.08204235 3.30200387 7.40575559
Si 4.01538831 9.48940905 13.13545108
Si 1.73963676 12.92021119 13.20927956
Si 5.13817116 7.92678676 4.73232951
O 3.80823810 8.79394726 4.75028265
O 11.71191236 7.21273407 8.97978373
O 4.29280214 10.86419423 0.52133206
O 10.04377432 5.88127997 7.27506195
O 5.07368033 8.60462645 0.75598989
O 4.49403190 1.28147517 0.59894430
O 2.99779576 0.15877222 4.54507839
O 0.59861489 6.57742478 4.90859291
O 4.17380785 4.58732415 6.71860290
O 2.65088111 8.48490988 12.37521574
O 11.61010162 0.61607405 3.73037265
O 1.45145635 0.90652752 12.29065808
O 6.12985852 9.87632982 6.46055743
O 4.60689496 3.13749875 2.62500557
O 7.61035401 0.59786739 7.95442203
O 1.62628734 3.87926294 7.63149091
O 7.81989269 1.92997177 10.20618613
O 3.88800731 3.17952697 8.90572694
O 7.20423193 0.68040282 2.60210056
O 0.56279756 1.07148188 5.07445832
O 0.72050967 5.06151680 0.37516977
O 4.83338990 9.54566203 11.58455369
O 2.69316026 3.45804837 0.47050716
O 1.11965434 8.08630024 8.81185260
O 6.95390695 13.19529662 0.24145619
O 11.71062287 10.02330808 0.74862626
O 1.84780701 6.13624430 10.91026094
O 9.71364650 12.84980678 1.76962651
O 12.83089839 12.57694041 11.08215342
O 3.79988384 7.78664788 10.24968865
O 10.07332928 11.92870332 4.33297948
O 9.44594369 4.98767157 0.43775646
O 0.31656205 2.48211489 3.14052809
O 0.55513333 1.25230984 9.32367845
O 6.96271671 3.09574281 7.78922277
O 6.14151458 9.10830023 3.92298373
O 8.06622265 1.53896674 5.50840483
O 6.02641323 4.72463422 10.97183288
O 8.91191216 10.05429642 10.58153241
O 11.50056310 3.09363378 5.13680393
O 10.11330982 1.44779154 8.64005878
O 12.10303345 1.43192567 12.33884325
O 7.55893439 5.80624629 9.25373433
O 10.51120604 10.99309286 6.90726254
O 8.18403676 8.47137639 6.84249085
O 9.98183415 8.23289421 12.66921207
O 11.31052469 4.63253952 9.31256397
O 0.85217755 11.40489861 6.94443591
O 13.22103246 7.83502469 6.70354975
O 3.37794093 5.93096798 0.71336840
O 11.74713309 9.87820488 9.14718180
O 7.72079250 11.11153514 12.40745457
O 7.72975788 7.36138925 1.10579757
O 8.00730673 4.19760096 2.85867853
O 0.50250770 9.42031892 2.55339591
O 10.38713497 11.23119541 11.94774255
O 12.80598148 5.56945059 7.32041531
O 0.40131303 8.29956371 11.17256177
O 12.26188072 0.50445226 7.15101069
O 8.18592450 10.23950237 4.91252399
O 6.02013035 7.39931172 6.27235880
O 3.41321902 13.08918901 7.23971099
O 1.87390498 5.45285076 2.81221692
O 10.73407823 3.74753413 1.83149663
O 8.50727616 2.32746993 1.18079089
O 8.54766950 12.75404605 10.58064263
O 6.15249298 7.17019590 11.28635870
O 12.04069342 11.97107111 2.39736645
O 2.38120133 13.20460805 1.72039126
O 5.29247698 3.80479750 0.37997060
O 12.92480505 11.89526675 4.70264120
O 4.72330823 6.87256543 3.72569280
O 6.18571561 8.38478160 8.82502423
O 5.48250221 1.41103360 5.99024017
O 11.43498129 6.61992015 5.39229300
O 5.95249297 11.58963405 4.00257261
O 2.77251799 2.10395619 6.17215327
O 8.43344520 6.13899949 11.74982086
O 0.22984726 11.94647984 0.68440100
O 10.37295183 9.29357536 4.75607754
O 2.29050689 11.59270434 12.29137622
135
Time=600000.00000594 pbc="T T T" Lattice="13.31093562 0.00000000 0.00000000 0.00000000 13.31093562 0.00000000 0.00000000 0.00000000 13.31093562" energy=-917.68559830 virial="-49.32723759 17.67439450 3.37703964 17.67439450 -67.33103960 -8.41907342 3.37703964 -8.41907342 -41.56944619" stress="-0.00611717 0.00749409 0.00143189 0.00749409 -0.01375093 -0.00356976 0.00143189 -0.00356976 -0.00282780" Properties=species:S:1:pos:R:3
Ca 1.02594851 6.61845117 7.02838805
Ca 11.90712388 7.55795649 0.50908270
Ca 2.67901052 3.71045830 12.48979420
Ca 13.00030754 12.27788624 11.50542310
Ca 12.33942599 3.73482183 0.18123317
Ca 11.11505534 10.07014185 8.86590740
Ca 0.75898255 1.51932208 2.97830493
Ca 1.38070066 11.49592524 3.87954021
Ca 1.22579934 5.21587436 2.96114739
Ca 9.58202196 3.56611733 7.57661179
Ca 10.99627421 12.21170541 1.47383191
Ca 8.32108477 5.25478356 4.63160196
Ca 7.40808253 8.65450544 1.05284195
Ca 3.87894553 0.69151431 7.96952599
Ca 3.31560063 8.37757259 1.27885286
Ca 11.73829230 0.33699552 8.30071021
Ca 9.10273909 2.00621372 11.67444859
Ca 4.33752987 11.61131808 2.64492677
Ca 2.86874854 11.73606958 10.65166694
Ca 8.16314034 5.82915783 9.46324349
Ca 9.03119485 9.16850610 3.47323849
Ca 6.83398528 12.25479509 12.54020145
Ca 12.26932800 5.29786776 10.32917560
Ca 4.40498380 8.07516618 9.65510147
Ca 6.04598339 2.50853084 4.85904580
Ca 5.96777798 4.66322601 1.24556328
Ca 1.05144118 9.31069906 11.24666219
Si 6.18178459 6.37102992 3.47444535
Si 1.33779939 12.11228578 0.50808108
Si 5.87691596 6.67462981 7.09671173
Si 1.45079139 3.00267422 8.09207465
Si 6.67172623 2.45856348 9.04217615
Si 4.08410381 4.14205628 9.07335735
Si 11.63855849 7.33072108 4.88565231
Si 3.37330806 2.71910846 1.82691959
Si 4.19856675 8.57312434 5.26869313
Si 12.46257358 10.16457139 6.13073411
Si 9.50197191 11.74848659 10.92950523
Si 8.68310417 0.41863574 8.19289972
Si 1.29613071 9.75447832 8.26481466
Si 9.39856284 2.18813731 4.61778791
Si 2.46393322 2.76716836 5.79096662
Si 10.34579103 2.61011305 2.21034848
Si 10.77694132 6.81404449 7.72533031
Si 11.33713395 13.14471475 4.08077657
Si 8.97895709 6.08213172 12.56195716
Si 13.03005933 2.15134788 10.33427579
Si 6.03225276 2.14384562 12.05926690
Si 4.12796323 0.01406407 13.28726852
Si 3.65164040 11.24869097 6.87229239
Si 4.51868057 10.02444827 12.61692239
Si 0.90369552 6.34136303 0.32877088
Si 9.76658538 9.83364163 13.20575678
Si 9.49599118 11.35203867 5.98681018
O 10.92236333 7.51215488 3.54611175
O 4.42954448 7.55820895 6.60851460
O 4.74130580 3.38773246 2.11938357
O 12.90974758 12.90917968 3.54318256
O 5.84923129 8.86070651 12.64149127
O 0.58593727 10.86049320 9.35201418
O 8.08358862 1.30084178 4.51780008
O 7.03247490 0.63586250 7.81865506
O 10.85046212 1.08776227 5.12417028
O 4.20071082 11.85502264 8.30589097
O 1.59586872 1.69057218 6.97093771
O 10.32459201 12.84028446 12.03547599
O 5.19389317 6.62975831 2.24834465
O 5.03424278 11.30903049 11.77528693
O 3.47432226 4.92272029 10.21001823
O 7.14741891 1.60879885 10.47493914
O 0.31657476 3.32791724 9.18333201
O 2.45161286 13.07014459 12.83969292
O 2.12844433 11.48406621 1.59855893
O 13.01377509 9.52892033 7.48926108
O 7.41284171 2.15255073 13.19161682
O 11.72030019 8.97177540 5.33627131
O 8.65261676 10.92812725 0.31898904
O 11.59814388 2.62241651 10.72831377
O 9.41266831 12.64409118 9.64968796
O 6.23229198 7.15631395 8.64716990
O 1.56434887 3.18282805 4.49542201
O 7.34729737 7.51511280 2.91342100