<?xml version="1.0" encoding="ISO-8859-1"?>
<modeling>
 <generator>
  <i name="program" type="string">vasp </i>
  <i name="version" type="string">5.4.4.18Apr17-6-g9f103f2a35  </i>
  <i name="subversion" type="string">(build Oct 31 2019 15:01:46) complex            parallel </i>
  <i name="platform" type="string">LinuxIFC </i>
  <i name="date" type="string">2024 04 30 </i>
  <i name="time" type="string">00:42:56 </i>
 </generator>
 <incar>
  <i type="int" name="ISTART">     0</i>
  <i type="string" name="PREC">a</i>
  <i type="logical" name="ADDGRID"> T  </i>
  <i type="int" name="IBRION">    -1</i>
  <i name="EDIFF">      0.00000100</i>
  <i name="EDIFFG">     -0.01000000</i>
  <i type="int" name="NSW">     1</i>
  <i type="int" name="ISIF">     2</i>
  <i type="int" name="ISYM">     0</i>
  <i name="ENCUT">    600.00000000</i>
  <i name="POTIM">      1.00000000</i>
  <i type="string" name="LREAL">  Auto</i>
  <i type="int" name="ISMEAR">     0</i>
  <i name="SIGMA">      0.05000000</i>
  <i name="KSPACING">      0.30000000</i>
  <i type="logical" name="KGAMMA"> T  </i>
  <i type="logical" name="LWAVE"> F  </i>
  <i type="logical" name="LCHARG"> F  </i>
  <i type="logical" name="LSCALAPACK"> F  </i>
  <v type="int" name="KPOINT_BSE">    -1     0     0     0</v>
 </incar>
 <structure name="primitive_cell" >
  <crystal>
   <varray name="basis" >
    <v>      12.09378762       0.00000000       0.00000000 </v>
    <v>       0.00000000      12.09378762       0.00000000 </v>
    <v>       0.00000000       0.00000000      12.09378762 </v>
   </varray>
   <i name="volume">   1768.83373704 </i>
   <varray name="rec_basis" >
    <v>       0.08268708       0.00000000       0.00000000 </v>
    <v>       0.00000000       0.08268708       0.00000000 </v>
    <v>       0.00000000       0.00000000       0.08268708 </v>
   </varray>
  </crystal>
  <varray name="positions" >
   <v>       0.33904637       0.21056219       0.38175128 </v>
   <v>       0.18050639       0.18159065       0.33111392 </v>
   <v>       0.46368045       0.13921774       0.48743617 </v>
   <v>       0.30043874       0.32996266       0.22534281 </v>
   <v>       0.27288676       0.13519918      -0.44265677 </v>
   <v>      -0.47534544       0.16950842       0.27536323 </v>
   <v>       0.25624147       0.33135661      -0.44919854 </v>
   <v>      -0.45499474       0.08150909       0.38537057 </v>
   <v>       0.19413703       0.02717666       0.28908407 </v>
   <v>       0.46347412      -0.01748099       0.36453951 </v>
   <v>       0.19892420       0.22237688      -0.39307496 </v>
   <v>       0.33278993       0.22554800       0.11417648 </v>
   <v>       0.48156843       0.44365811       0.37465930 </v>
   <v>       0.44059247       0.38499241      -0.43145991 </v>
   <v>       0.33387966       0.09646038       0.12861259 </v>
   <v>       0.42838994       0.09911490      -0.35865645 </v>
   <v>       0.49502503       0.37659771       0.19110162 </v>
   <v>       0.11208106       0.40466212       0.40943549 </v>
   <v>       0.44771985       0.02099189       0.16496923 </v>
   <v>      -0.36466591       0.30254645       0.39306659 </v>
   <v>       0.11934946       0.23182319       0.14799755 </v>
   <v>       0.09510362       0.00139700       0.47023164 </v>
   <v>       0.33095599      -0.45234039       0.27811959 </v>
   <v>       0.14052799       0.45655914       0.22131849 </v>
   <v>       0.08628400       0.18289475      -0.36834065 </v>
   <v>       0.26310036       0.49735834       0.18174362 </v>
   <v>       0.35388602      -0.11477648       0.23072926 </v>
   <v>      -0.37496080       0.14808275       0.16964294 </v>
   <v>      -0.01474252       0.12735274       0.36745480 </v>
   <v>      -0.33935786       0.03997318       0.40598334 </v>
   <v>       0.39095224       0.34488961       0.04310261 </v>
   <v>       0.19308865      -0.06032239      -0.41195539 </v>
   <v>       0.31987757      -0.45739797      -0.43982983 </v>
   <v>      -0.34112836       0.28607180       0.19447154 </v>
   <v>       0.43744347      -0.42490816       0.35129744 </v>
   <v>      -0.48805214       0.14589047       0.04766381 </v>
   <v>       0.23629445       0.30536494      -0.25801832 </v>
   <v>       0.05340893       0.07238631       0.14754654 </v>
   <v>       0.29676293      -0.17993718       0.48381595 </v>
   <v>       0.33635804       0.08072345      -0.23315618 </v>
   <v>       0.08348100       0.45176202      -0.40093219 </v>
   <v>       0.27679828       0.15417560      -0.02314961 </v>
   <v>      -0.32799330       0.27790172      -0.38148106 </v>
   <v>      -0.44268030      -0.03973118       0.12547904 </v>
   <v>      -0.45143489       0.01835087      -0.30833132 </v>
   <v>      -0.25688563       0.30498599       0.29867259 </v>
   <v>      -0.04216492       0.30401680       0.22321736 </v>
   <v>      -0.27389883       0.35237904       0.49893383 </v>
   <v>       0.11796999       0.39931703      -0.29742284 </v>
   <v>      -0.49001357      -0.19039840       0.37550714 </v>
   <v>       0.09906831      -0.11915204       0.20740426 </v>
   <v>       0.48618104       0.28699546      -0.20510491 </v>
   <v>      -0.28078698       0.05113223       0.18158802 </v>
   <v>      -0.48123199      -0.48147937       0.09221458 </v>
   <v>       0.25636606      -0.23762446       0.29841733 </v>
   <v>       0.19010674       0.13748373      -0.18195247 </v>
   <v>       0.07036065       0.25857127      -0.00049790 </v>
   <v>      -0.05389538       0.47273042       0.39752993 </v>
   <v>      -0.33358808      -0.07838709      -0.42741689 </v>
   <v>       0.37506860      -0.31265405       0.41578638 </v>
   <v>      -0.02810429      -0.08708100       0.48129913 </v>
   <v>      -0.17768533       0.20919545       0.37796734 </v>
   <v>      -0.01841169      -0.02491406       0.15662440 </v>
   <v>       0.31341403      -0.44207099       0.04068399 </v>
   <v>       0.47647269      -0.35167431       0.21155415 </v>
   <v>      -0.07830669       0.43983381       0.26778691 </v>
   <v>      -0.47157833      -0.49898312      -0.26616930 </v>
   <v>      -0.42561939      -0.35601782       0.43063081 </v>
   <v>      -0.26012809       0.49059153       0.47922310 </v>
   <v>       0.16630925      -0.35360788       0.19325691 </v>
   <v>      -0.09086542      -0.03484843       0.27689522 </v>
   <v>      -0.14589691       0.16107920      -0.46200924 </v>
   <v>       0.34573344      -0.29857921      -0.46899207 </v>
   <v>       0.24304058       0.38465802      -0.09179326 </v>
   <v>      -0.47580387       0.41362485      -0.18200403 </v>
   <v>      -0.20983525       0.41636942       0.23444729 </v>
   <v>       0.46881061      -0.15534823      -0.27512722 </v>
   <v>       0.03394636      -0.20966873       0.37859680 </v>
   <v>       0.16815576      -0.04966118      -0.20126075 </v>
   <v>       0.04810323      -0.49999341       0.06091677 </v>
   <v>       0.43965587      -0.47348563      -0.02363638 </v>
   <v>       0.08398888      -0.05808710       0.00620960 </v>
   <v>      -0.30967020       0.30717458      -0.23655591 </v>
   <v>      -0.14817481       0.32747573      -0.44345859 </v>
   <v>       0.25361296      -0.24026277      -0.34399109 </v>
   <v>       0.43135172      -0.26225368      -0.38356038 </v>
   <v>      -0.46260867       0.12144404      -0.11227002 </v>
   <v>       0.15871436      -0.48371978      -0.21105477 </v>
   <v>      -0.37203455      -0.38847238      -0.39741927 </v>
   <v>       0.39447711       0.46421805      -0.13523316 </v>
   <v>      -0.29705048       0.10131631      -0.02029403 </v>
   <v>      -0.06887474      -0.47385630       0.17649301 </v>
   <v>       0.01259831      -0.19724336      -0.42900392 </v>
   <v>      -0.02268662      -0.39676304      -0.46330767 </v>
   <v>      -0.31950643       0.18189379      -0.17074079 </v>
   <v>      -0.04152824       0.19244324      -0.03508787 </v>
   <v>      -0.15278129      -0.04901905       0.48156584 </v>
   <v>       0.25616233      -0.25707696       0.07548699 </v>
   <v>      -0.24836409      -0.40513627       0.34003869 </v>
   <v>       0.35518657      -0.35620500      -0.25353542 </v>
   <v>       0.09413149      -0.33440733      -0.34880667 </v>
   <v>      -0.41460955      -0.32033398       0.13643752 </v>
   <v>      -0.08532783      -0.18611543       0.30296901 </v>
   <v>       0.04600520      -0.21521160       0.09864270 </v>
   <v>      -0.47080709      -0.08209080      -0.09889487 </v>
   <v>      -0.16678190       0.05614522      -0.30821898 </v>
   <v>      -0.36616094       0.40128597      -0.12279550 </v>
   <v>      -0.25872012      -0.15469332       0.09615932 </v>
   <v>      -0.13939377       0.48421302      -0.34747597 </v>
   <v>      -0.11109506      -0.08488288       0.08531135 </v>
   <v>      -0.28330857      -0.12533282      -0.26755200 </v>
   <v>      -0.43258419      -0.24438849       0.02451356 </v>
   <v>      -0.03834047      -0.07766107      -0.20810316 </v>
   <v>      -0.13447634       0.27791681      -0.03001567 </v>
   <v>       0.43395270      -0.35380254      -0.06779270 </v>
   <v>      -0.23060459       0.44562454      -0.01967227 </v>
   <v>      -0.21511020       0.38454004      -0.19900616 </v>
   <v>      -0.28868368      -0.31729103       0.17040579 </v>
   <v>       0.34809739      -0.21025477      -0.10634975 </v>
   <v>       0.47852291      -0.21310901      -0.08652808 </v>
   <v>       0.06787863      -0.10477665      -0.11964253 </v>
   <v>      -0.09648134       0.09835360      -0.12171779 </v>
   <v>      -0.15505279      -0.24905562       0.43495238 </v>
   <v>      -0.09850058      -0.29972156      -0.45238431 </v>
   <v>      -0.14239619      -0.01086576      -0.19160653 </v>
   <v>      -0.04504079      -0.36687970      -0.24406903 </v>
   <v>      -0.23594947      -0.05504557      -0.08525921 </v>
   <v>      -0.04093255      -0.40911128      -0.04694926 </v>
   <v>      -0.22055647      -0.32257695      -0.36007740 </v>
   <v>      -0.14102640      -0.26553796       0.22522678 </v>
   <v>      -0.40237389      -0.28454697      -0.18971838 </v>
   <v>       0.06861579      -0.23411860      -0.12187826 </v>
   <v>      -0.28612335      -0.19229315      -0.15042760 </v>
   <v>      -0.04505036      -0.31214163      -0.12948697 </v>
   <v>      -0.18852372      -0.25908599      -0.06932277 </v>
  </varray>
 </structure>
 <varray name="primitive_index" >
  <v type="int" >        1 </v>
  <v type="int" >       86 </v>
  <v type="int" >       60 </v>
  <v type="int" >       74 </v>
  <v type="int" >       85 </v>
  <v type="int" >      112 </v>
  <v type="int" >       91 </v>
  <v type="int" >       50 </v>
  <v type="int" >        7 </v>
  <v type="int" >       66 </v>
  <v type="int" >       48 </v>
  <v type="int" >       45 </v>
  <v type="int" >      120 </v>
  <v type="int" >        2 </v>
  <v type="int" >      109 </v>
  <v type="int" >       54 </v>
  <v type="int" >       27 </v>
  <v type="int" >       26 </v>
  <v type="int" >       53 </v>
  <v type="int" >       96 </v>
  <v type="int" >       10 </v>
  <v type="int" >      106 </v>
  <v type="int" >       87 </v>
  <v type="int" >       97 </v>
  <v type="int" >      100 </v>
  <v type="int" >       30 </v>
  <v type="int" >       63 </v>
  <v type="int" >       47 </v>
  <v type="int" >       18 </v>
  <v type="int" >       56 </v>
  <v type="int" >       90 </v>
  <v type="int" >       25 </v>
  <v type="int" >       62 </v>
  <v type="int" >      108 </v>
  <v type="int" >       40 </v>
  <v type="int" >       72 </v>
  <v type="int" >       70 </v>
  <v type="int" >       81 </v>
  <v type="int" >      119 </v>
  <v type="int" >      110 </v>
  <v type="int" >      103 </v>
  <v type="int" >       88 </v>
  <v type="int" >       64 </v>
  <v type="int" >       75 </v>
  <v type="int" >       59 </v>
  <v type="int" >       29 </v>
  <v type="int" >       76 </v>
  <v type="int" >       41 </v>
  <v type="int" >       34 </v>
  <v type="int" >       17 </v>
  <v type="int" >       84 </v>
  <v type="int" >       55 </v>
  <v type="int" >       79 </v>
  <v type="int" >      135 </v>
  <v type="int" >       20 </v>
  <v type="int" >       21 </v>
  <v type="int" >       93 </v>
  <v type="int" >       82 </v>
  <v type="int" >        9 </v>
  <v type="int" >      116 </v>
  <v type="int" >       28 </v>
  <v type="int" >      115 </v>
  <v type="int" >       32 </v>
  <v type="int" >      125 </v>
  <v type="int" >       67 </v>
  <v type="int" >       44 </v>
  <v type="int" >      133 </v>
  <v type="int" >      113 </v>
  <v type="int" >       69 </v>
  <v type="int" >      117 </v>
  <v type="int" >      102 </v>
  <v type="int" >       24 </v>
  <v type="int" >       42 </v>
  <v type="int" >       12 </v>
  <v type="int" >       38 </v>
  <v type="int" >       94 </v>
  <v type="int" >       22 </v>
  <v type="int" >      114 </v>
  <v type="int" >      123 </v>
  <v type="int" >        5 </v>
  <v type="int" >       37 </v>
  <v type="int" >      118 </v>
  <v type="int" >       31 </v>
  <v type="int" >      124 </v>
  <v type="int" >       77 </v>
  <v type="int" >       80 </v>
  <v type="int" >        8 </v>
  <v type="int" >      128 </v>
  <v type="int" >       16 </v>
  <v type="int" >      132 </v>
  <v type="int" >        6 </v>
  <v type="int" >       98 </v>
  <v type="int" >       89 </v>
  <v type="int" >      105 </v>
  <v type="int" >      131 </v>
  <v type="int" >       35 </v>
  <v type="int" >       57 </v>
  <v type="int" >       15 </v>
  <v type="int" >       11 </v>
  <v type="int" >       14 </v>
  <v type="int" >       19 </v>
  <v type="int" >       39 </v>
  <v type="int" >       43 </v>
  <v type="int" >        3 </v>
  <v type="int" >      130 </v>
  <v type="int" >       83 </v>
  <v type="int" >       65 </v>
  <v type="int" >        4 </v>
  <v type="int" >       23 </v>
  <v type="int" >      134 </v>
  <v type="int" >       95 </v>
  <v type="int" >       58 </v>
  <v type="int" >      129 </v>
  <v type="int" >      126 </v>
  <v type="int" >       68 </v>
  <v type="int" >       13 </v>
  <v type="int" >       61 </v>
  <v type="int" >      122 </v>
  <v type="int" >      111 </v>
  <v type="int" >       49 </v>
  <v type="int" >       51 </v>
  <v type="int" >       78 </v>
  <v type="int" >      127 </v>
  <v type="int" >       33 </v>
  <v type="int" >       52 </v>
  <v type="int" >      101 </v>
  <v type="int" >       73 </v>
  <v type="int" >       99 </v>
  <v type="int" >      104 </v>
  <v type="int" >      107 </v>
  <v type="int" >      121 </v>
  <v type="int" >       71 </v>
  <v type="int" >       46 </v>
  <v type="int" >       36 </v>
  <v type="int" >       92 </v>
 </varray>
 <kpoints>
  <generation param="Gamma">
   <v type="int" name="divisions">       2        2        2 </v>
   <v name="usershift">      0.00000000       0.00000000       0.00000000 </v>
   <v name="genvec1">      0.50000000       0.00000000       0.00000000 </v>
   <v name="genvec2">      0.00000000       0.50000000       0.00000000 </v>
   <v name="genvec3">      0.00000000       0.00000000       0.50000000 </v>
   <v name="shift">      0.00000000       0.00000000       0.00000000 </v>
  </generation>
  <varray name="kpointlist" >
   <v>       0.00000000       0.00000000       0.00000000 </v>
   <v>       0.50000000       0.00000000       0.00000000 </v>
   <v>       0.00000000       0.50000000       0.00000000 </v>
   <v>       0.50000000       0.50000000       0.00000000 </v>
   <v>       0.00000000       0.00000000       0.50000000 </v>
   <v>       0.50000000       0.00000000       0.50000000 </v>
   <v>       0.00000000       0.50000000       0.50000000 </v>
   <v>       0.50000000       0.50000000       0.50000000 </v>
  </varray>
  <varray name="weights" >
   <v>       0.12500000 </v>
   <v>       0.12500000 </v>
   <v>       0.12500000 </v>
   <v>       0.12500000 </v>
   <v>       0.12500000 </v>
   <v>       0.12500000 </v>
   <v>       0.12500000 </v>
   <v>       0.12500000 </v>
  </varray>
 </kpoints>
 <parameters>
  <separator name="general" >
   <i type="string" name="SYSTEM">unknown system</i>
   <i type="logical" name="LCOMPAT"> F  </i>
  </separator>
  <separator name="electronic" >
   <i type="string" name="PREC">a</i>
   <i name="ENMAX">    600.00000000</i>
   <i name="ENAUG">    605.39200000</i>
   <i name="EDIFF">      0.00000100</i>
   <i type="int" name="IALGO">    38</i>
   <i type="int" name="IWAVPR">    10</i>
   <i type="int" name="NBANDS">   520</i>
   <i name="NELECT">    864.00000000</i>
   <i type="int" name="TURBO">     0</i>
   <i type="int" name="IRESTART">     0</i>
   <i type="int" name="NREBOOT">     0</i>
   <i type="int" name="NMIN">     0</i>
   <i name="EREF">      0.00000000</i>
   <separator name="electronic smearing" >
    <i type="int" name="ISMEAR">     0</i>
    <i name="SIGMA">      0.05000000</i>
    <i name="KSPACING">      0.30000000</i>
    <i type="logical" name="KGAMMA"> T  </i>
   </separator>
   <separator name="electronic projectors" >
    <i type="logical" name="LREAL"> T  </i>
    <v name="ROPT">     -0.00025000     -0.00025000     -0.00025000</v>
    <i type="int" name="LMAXPAW">  -100</i>
    <i type="int" name="LMAXMIX">     2</i>
    <i type="logical" name="NLSPLINE"> F  </i>
   </separator>
   <separator name="electronic startup" >
    <i type="int" name="ISTART">     0</i>
    <i type="int" name="ICHARG">     2</i>
    <i type="int" name="INIWAV">     1</i>
   </separator>
   <separator name="electronic spin" >
    <i type="int" name="ISPIN">     1</i>
    <i type="logical" name="LNONCOLLINEAR"> F  </i>
    <v name="MAGMOM">      1.00000000      1.00000000      1.00000000      1.00000000      1.00000000      1.00000000      1.00000000      1.00000000      1.00000000      1.00000000      1.00000000      1.00000000      1.00000000      1.00000000      1.00000000      1.00000000      1.00000000      1.00000000      1.00000000      1.00000000
      1.00000000      1.00000000      1.00000000      1.00000000      1.00000000      1.00000000      1.00000000      1.00000000      1.00000000      1.00000000      1.00000000      1.00000000      1.00000000      1.00000000      1.00000000      1.00000000      1.00000000      1.00000000      1.00000000      1.00000000
      1.00000000      1.00000000      1.00000000      1.00000000      1.00000000      1.00000000      1.00000000      1.00000000      1.00000000      1.00000000      1.00000000      1.00000000      1.00000000      1.00000000      1.00000000      1.00000000      1.00000000      1.00000000      1.00000000      1.00000000
      1.00000000      1.00000000      1.00000000      1.00000000      1.00000000      1.00000000      1.00000000      1.00000000      1.00000000      1.00000000      1.00000000      1.00000000      1.00000000      1.00000000      1.00000000      1.00000000      1.00000000      1.00000000      1.00000000      1.00000000
      1.00000000      1.00000000      1.00000000      1.00000000      1.00000000      1.00000000      1.00000000      1.00000000      1.00000000      1.00000000      1.00000000      1.00000000      1.00000000      1.00000000      1.00000000      1.00000000      1.00000000      1.00000000      1.00000000      1.00000000
      1.00000000      1.00000000      1.00000000      1.00000000      1.00000000      1.00000000      1.00000000      1.00000000      1.00000000      1.00000000      1.00000000      1.00000000      1.00000000      1.00000000      1.00000000      1.00000000      1.00000000      1.00000000      1.00000000      1.00000000
      1.00000000      1.00000000      1.00000000      1.00000000      1.00000000      1.00000000      1.00000000      1.00000000      1.00000000      1.00000000      1.00000000      1.00000000      1.00000000      1.00000000      1.00000000</v>
    <i name="NUPDOWN">     -1.00000000</i>
    <i type="logical" name="LSORBIT"> F  </i>
    <v name="SAXIS">      0.00000000      0.00000000      1.00000000</v>
    <i type="logical" name="LSPIRAL"> F  </i>
    <v name="QSPIRAL">      0.00000000      0.00000000      0.00000000</v>
    <i type="logical" name="LZEROZ"> F  </i>
   </separator>
   <separator name="electronic exchange-correlation" >
    <i type="logical" name="LASPH"> F  </i>
    <i type="logical" name="LMETAGGA"> F  </i>
   </separator>
   <separator name="electronic convergence" >
    <i type="int" name="NELM">    60</i>
    <i type="int" name="NELMDL">    -5</i>
    <i type="int" name="NELMIN">     2</i>
    <i name="ENINI">    600.00000000</i>
    <separator name="electronic convergence detail" >
     <i type="logical" name="LDIAG"> T  </i>
     <i type="logical" name="LSUBROT"> F  </i>
     <i name="WEIMIN">      0.00000000</i>
     <i name="EBREAK">      0.00000000</i>
     <i name="DEPER">      0.30000000</i>
     <i type="int" name="NRMM">     4</i>
     <i name="TIME">      0.40000000</i>
    </separator>
   </separator>
   <separator name="electronic mixer" >
    <i name="AMIX">      0.40000000</i>
    <i name="BMIX">      1.00000000</i>
    <i name="AMIN">      0.10000000</i>
    <i name="AMIX_MAG">      1.60000000</i>
    <i name="BMIX_MAG">      1.00000000</i>
    <separator name="electronic mixer details" >
     <i type="int" name="IMIX">     4</i>
     <i type="logical" name="MIXFIRST"> F  </i>
     <i type="int" name="MAXMIX">   -45</i>
     <i name="WC">    100.00000000</i>
     <i type="int" name="INIMIX">     1</i>
     <i type="int" name="MIXPRE">     1</i>
     <i type="int" name="MREMOVE">     5</i>
    </separator>
   </separator>
   <separator name="electronic dipolcorrection" >
    <i type="logical" name="LDIPOL"> F  </i>
    <i type="logical" name="LMONO"> F  </i>
    <i type="int" name="IDIPOL">     0</i>
    <i name="EPSILON">      1.00000000</i>
    <v name="DIPOL">   -100.00000000   -100.00000000   -100.00000000</v>
    <i name="EFIELD">      0.00000000</i>
   </separator>
  </separator>
  <separator name="grids" >
   <i type="int" name="NGX">    98</i>
   <i type="int" name="NGY">    98</i>
   <i type="int" name="NGZ">    98</i>
   <i type="int" name="NGXF">   196</i>
   <i type="int" name="NGYF">   196</i>
   <i type="int" name="NGZF">   196</i>
   <i type="logical" name="ADDGRID"> T  </i>
  </separator>
  <separator name="ionic" >
   <i type="int" name="NSW">     1</i>
   <i type="int" name="IBRION">    -1</i>
   <i type="int" name="MDALGO">     0</i>
   <i type="int" name="ISIF">     2</i>
   <i name="PSTRESS">      0.00000000</i>
   <i name="EDIFFG">     -0.01000000</i>
   <i type="int" name="NFREE">     0</i>
   <i name="POTIM">      1.00000000</i>
   <i name="SMASS">     -3.00000000</i>
   <i name="SCALEE">      1.00000000</i>
  </separator>
  <separator name="ionic md" >
   <i name="TEBEG">      0.00010000</i>
   <i name="TEEND">      0.00010000</i>
   <i type="int" name="NBLOCK">     1</i>
   <i type="int" name="KBLOCK">     1</i>
   <i type="int" name="NPACO">   256</i>
   <i name="APACO">     16.00000000</i>
  </separator>
  <separator name="symmetry" >
   <i type="int" name="ISYM">     0</i>
   <i name="SYMPREC">      0.00001000</i>
  </separator>
  <separator name="dos" >
   <i type="int" name="LORBIT">     0</i>
   <v name="RWIGS">     -1.00000000     -1.00000000     -1.00000000</v>
   <i type="int" name="NEDOS">   301</i>
   <i name="EMIN">     10.00000000</i>
   <i name="EMAX">    -10.00000000</i>
   <i name="EFERMI">      0.00000000</i>
  </separator>
  <separator name="writing" >
   <i type="int" name="NWRITE">     2</i>
   <i type="logical" name="LWAVE"> F  </i>
   <i type="logical" name="LDOWNSAMPLE"> F  </i>
   <i type="logical" name="LCHARG"> F  </i>
   <i type="logical" name="LPARD"> F  </i>
   <i type="logical" name="LVTOT"> F  </i>
   <i type="logical" name="LVHAR"> F  </i>
   <i type="logical" name="LELF"> F  </i>
   <i type="logical" name="LOPTICS"> F  </i>
   <v name="STM">      0.00000000      0.00000000      0.00000000      0.00000000      0.00000000      0.00000000      0.00000000</v>
  </separator>
  <separator name="performance" >
   <i type="int" name="NPAR">     4</i>
   <i type="int" name="NSIM">     4</i>
   <i type="int" name="NBLK">    -1</i>
   <i type="logical" name="LPLANE"> T  </i>
   <i type="logical" name="LSCALAPACK"> F  </i>
   <i type="logical" name="LSCAAWARE"> F  </i>
   <i type="logical" name="LSCALU"> F  </i>
   <i type="logical" name="LASYNC"> F  </i>
   <i type="logical" name="LORBITALREAL"> F  </i>
  </separator>
  <separator name="miscellaneous" >
   <i type="int" name="IDIOT">     3</i>
   <i type="int" name="ISPECIAL">     0</i>
   <i type="logical" name="LMUSIC"> F  </i>
   <v name="POMASS">     40.07800000     28.08500000     16.00000000</v>
   <v name="DARWINR">      0.00000000      0.00000000      0.00000000</v>
   <v name="DARWINV">      1.00000000      1.00000000      1.00000000</v>
   <i type="logical" name="LCORR"> T  </i>
  </separator>
  <i type="logical" name="GGA_COMPAT"> T  </i>
  <i type="logical" name="LBERRY"> F  </i>
  <i type="int" name="ICORELEVEL">     0</i>
  <i type="logical" name="LDAU"> F  </i>
  <i type="int" name="I_CONSTRAINED_M">     0</i>
  <separator name="electronic exchange-correlation" >
   <i type="string" name="GGA">--</i>
   <i type="int" name="VOSKOWN">     0</i>
   <i type="logical" name="LHFCALC"> F  </i>
   <i type="string" name="PRECFOCK"></i>
   <i type="logical" name="LSYMGRAD"> F  </i>
   <i type="logical" name="LHFONE"> F  </i>
   <i type="logical" name="LRHFCALC"> F  </i>
   <i type="logical" name="LTHOMAS"> F  </i>
   <i type="logical" name="LMODELHF"> F  </i>
   <i name="ENCUT4O">     -1.00000000</i>
   <i type="int" name="EXXOEP">     0</i>
   <i type="int" name="FOURORBIT">     0</i>
   <i name="AEXX">      0.00000000</i>
   <i name="HFALPHA">      0.00000000</i>
   <i name="MCALPHA">      0.00000000</i>
   <i name="ALDAX">      1.00000000</i>
   <i name="AGGAX">      1.00000000</i>
   <i name="ALDAC">      1.00000000</i>
   <i name="AGGAC">      1.00000000</i>
   <i type="int" name="NKREDX">     1</i>
   <i type="int" name="NKREDY">     1</i>
   <i type="int" name="NKREDZ">     1</i>
   <i type="logical" name="SHIFTRED"> F  </i>
   <i type="logical" name="ODDONLY"> F  </i>
   <i type="logical" name="EVENONLY"> F  </i>
   <i type="int" name="LMAXFOCK">     0</i>
   <i type="int" name="NMAXFOCKAE">     0</i>
   <i type="logical" name="LFOCKAEDFT"> F  </i>
   <i name="HFSCREEN">      0.00000000</i>
   <i name="HFSCREENC">      0.00000000</i>
   <i type="int" name="NBANDSGWLOW">     0</i>
  </separator>
  <separator name="vdW DFT" >
   <i type="logical" name="LUSE_VDW"> F  </i>
   <i name="Zab_VDW">     -0.84910000</i>
   <i name="PARAM1">      0.12340000</i>
   <i name="PARAM2">      1.00000000</i>
   <i name="PARAM3">      0.00000000</i>
  </separator>
  <separator name="model GW" >
   <i type="int" name="MODEL_GW">     0</i>
   <i name="MODEL_EPS0">      7.86148328</i>
   <i name="MODEL_ALPHA">      1.00000000</i>
  </separator>
  <separator name="linear response parameters" >
   <i type="logical" name="LEPSILON"> F  </i>
   <i type="logical" name="LRPA"> F  </i>
   <i type="logical" name="LNABLA"> F  </i>
   <i type="logical" name="LVEL"> F  </i>
   <i type="int" name="KINTER">     0</i>
   <i name="CSHIFT">      0.10000000</i>
   <i name="OMEGAMAX">     -1.00000000</i>
   <i name="DEG_THRESHOLD">      0.00200000</i>
   <i name="RTIME">     -0.10000000</i>
   <i name="WPLASMAI">      0.00000000</i>
   <v name="DFIELD">      0.00000000      0.00000000      0.00000000</v>
   <v name="WPLASMA">      0.00000000      0.00000000      0.00000000      0.00000000      0.00000000      0.00000000      0.00000000      0.00000000      0.00000000</v>
  </separator>
  <separator name="orbital magnetization" >
   <i type="logical" name="NUCIND"> F  </i>
   <v name="MAGPOS">      0.00000000      0.00000000      0.00000000</v>
   <i type="logical" name="LNICSALL"> T  </i>
   <i type="logical" name="ORBITALMAG"> F  </i>
   <i type="logical" name="LMAGBLOCH"> F  </i>
   <i type="logical" name="LCHIMAG"> F  </i>
   <i type="logical" name="LGAUGE"> T  </i>
   <i type="int" name="MAGATOM">     0</i>
   <v name="MAGDIPOL">      0.00000000      0.00000000      0.00000000</v>
   <v name="AVECCONST">      0.00000000      0.00000000      0.00000000</v>
  </separator>
  <separator name="response functions" >
   <i type="logical" name="LADDER"> F  </i>
   <i type="logical" name="LRPAFORCE"> F  </i>
   <i type="logical" name="LFXC"> F  </i>
   <i type="logical" name="LHARTREE"> T  </i>
   <i type="int" name="IBSE">     0</i>
   <v type="int" name="KPOINT">    -1     0     0     0</v>
   <i type="logical" name="LTCTE"> F  </i>
   <i type="logical" name="LTETE"> F  </i>
   <i type="logical" name="LTRIPLET"> F  </i>
   <i type="logical" name="LFXCEPS"> F  </i>
   <i type="logical" name="LFXHEG"> F  </i>
   <i type="int" name="NATURALO">     2</i>
   <i type="logical" name="L2ORDER"> F  </i>
   <i type="logical" name="LMP2LT"> F  </i>
   <i type="logical" name="LUSEW"> F  </i>
   <i name="ENCUTGW">     -2.00000000</i>
   <i name="ENCUTGWSOFT">     -2.00000000</i>
   <i name="ENCUTLF">     -1.00000000</i>
   <i type="int" name="LMAXMP2">    -1</i>
   <i name="SCISSOR">      0.00000000</i>
   <i type="int" name="NOMEGA">     0</i>
   <i type="int" name="NOMEGAR">     0</i>
   <i type="int" name="NBANDSGW">    -1</i>
   <i type="int" name="NBANDSO">    -1</i>
   <i type="int" name="NBANDSV">    -1</i>
   <i type="int" name="NELM">     1</i>
   <i type="int" name="NELMHF">     1</i>
   <i type="int" name="DIM">     3</i>
   <i type="int" name="ANTIRES">     0</i>
   <i name="OMEGAMAX">    -30.00000000</i>
   <i name="OMEGAMIN">    -30.00000000</i>
   <i name="OMEGATL">   -200.00000000</i>
   <i type="int" name="OMEGAGRID">   140</i>
   <i name="CSHIFT">     -0.10000000</i>
   <i type="logical" name="SELFENERGY"> F  </i>
   <i type="logical" name="LSPECTRAL"> F  </i>
   <i type="logical" name="LSPECTRALGW"> F  </i>
   <i type="logical" name="LSINGLES"> F  </i>
   <i type="logical" name="LFERMIGW"> F  </i>
   <i type="logical" name="ODDONLYGW"> F  </i>
   <i type="logical" name="EVENONLYGW"> F  </i>
   <i type="int" name="NKREDLFX">     1</i>
   <i type="int" name="NKREDLFY">     1</i>
   <i type="int" name="NKREDLFZ">     1</i>
   <i type="int" name="MAXMEM">  2800</i>
   <i type="int" name="TELESCOPE">     0</i>
   <i type="int" name="TAUPAR">     1</i>
   <i type="int" name="OMEGAPAR">    -1</i>
   <i name="LAMBDA">      1.00000000</i>
  </separator>
  <separator name="External order field" >
   <i name="OFIELD_KAPPA">      0.00000000</i>
   <v name="OFIELD_K">      0.00000000      0.00000000      0.00000000</v>
   <i name="OFIELD_Q6_NEAR">      0.00000000</i>
   <i name="OFIELD_Q6_FAR">      0.00000000</i>
   <i name="OFIELD_A">      0.00000000</i>
  </separator>
 </parameters>
 <atominfo>
  <atoms>     135 </atoms>
  <types>       3 </types>
  <array name="atoms" >
   <dimension dim="1">ion</dimension>
   <field type="string">element</field>
   <field type="int">atomtype</field>
   <set>
    <rc><c>Ca</c><c>   1</c></rc>
    <rc><c>Ca</c><c>   1</c></rc>
    <rc><c>Ca</c><c>   1</c></rc>
    <rc><c>Ca</c><c>   1</c></rc>
    <rc><c>Ca</c><c>   1</c></rc>
    <rc><c>Ca</c><c>   1</c></rc>
    <rc><c>Ca</c><c>   1</c></rc>
    <rc><c>Ca</c><c>   1</c></rc>
    <rc><c>Ca</c><c>   1</c></rc>
    <rc><c>Ca</c><c>   1</c></rc>
    <rc><c>Ca</c><c>   1</c></rc>
    <rc><c>Ca</c><c>   1</c></rc>
    <rc><c>Ca</c><c>   1</c></rc>
    <rc><c>Ca</c><c>   1</c></rc>
    <rc><c>Ca</c><c>   1</c></rc>
    <rc><c>Ca</c><c>   1</c></rc>
    <rc><c>Ca</c><c>   1</c></rc>
    <rc><c>Ca</c><c>   1</c></rc>
    <rc><c>Ca</c><c>   1</c></rc>
    <rc><c>Ca</c><c>   1</c></rc>
    <rc><c>Ca</c><c>   1</c></rc>
    <rc><c>Ca</c><c>   1</c></rc>
    <rc><c>Ca</c><c>   1</c></rc>
    <rc><c>Ca</c><c>   1</c></rc>
    <rc><c>Ca</c><c>   1</c></rc>
    <rc><c>Ca</c><c>   1</c></rc>
    <rc><c>Ca</c><c>   1</c></rc>
    <rc><c>Si</c><c>   2</c></rc>
    <rc><c>Si</c><c>   2</c></rc>
    <rc><c>Si</c><c>   2</c></rc>
    <rc><c>Si</c><c>   2</c></rc>
    <rc><c>Si</c><c>   2</c></rc>
    <rc><c>Si</c><c>   2</c></rc>
    <rc><c>Si</c><c>   2</c></rc>
    <rc><c>Si</c><c>   2</c></rc>
    <rc><c>Si</c><c>   2</c></rc>
    <rc><c>Si</c><c>   2</c></rc>
    <rc><c>Si</c><c>   2</c></rc>
    <rc><c>Si</c><c>   2</c></rc>
    <rc><c>Si</c><c>   2</c></rc>
    <rc><c>Si</c><c>   2</c></rc>
    <rc><c>Si</c><c>   2</c></rc>
    <rc><c>Si</c><c>   2</c></rc>
    <rc><c>Si</c><c>   2</c></rc>
    <rc><c>Si</c><c>   2</c></rc>
    <rc><c>Si</c><c>   2</c></rc>
    <rc><c>Si</c><c>   2</c></rc>
    <rc><c>Si</c><c>   2</c></rc>
    <rc><c>Si</c><c>   2</c></rc>
    <rc><c>Si</c><c>   2</c></rc>
    <rc><c>Si</c><c>   2</c></rc>
    <rc><c>Si</c><c>   2</c></rc>
    <rc><c>Si</c><c>   2</c></rc>
    <rc><c>Si</c><c>   2</c></rc>
    <rc><c>O </c><c>   3</c></rc>
    <rc><c>O </c><c>   3</c></rc>
    <rc><c>O </c><c>   3</c></rc>
    <rc><c>O </c><c>   3</c></rc>
    <rc><c>O </c><c>   3</c></rc>
    <rc><c>O </c><c>   3</c></rc>
    <rc><c>O </c><c>   3</c></rc>
    <rc><c>O </c><c>   3</c></rc>
    <rc><c>O </c><c>   3</c></rc>
    <rc><c>O </c><c>   3</c></rc>
    <rc><c>O </c><c>   3</c></rc>
    <rc><c>O </c><c>   3</c></rc>
    <rc><c>O </c><c>   3</c></rc>
    <rc><c>O </c><c>   3</c></rc>
    <rc><c>O </c><c>   3</c></rc>
    <rc><c>O </c><c>   3</c></rc>
    <rc><c>O </c><c>   3</c></rc>
    <rc><c>O </c><c>   3</c></rc>
    <rc><c>O </c><c>   3</c></rc>
    <rc><c>O </c><c>   3</c></rc>
    <rc><c>O </c><c>   3</c></rc>
    <rc><c>O </c><c>   3</c></rc>
    <rc><c>O </c><c>   3</c></rc>
    <rc><c>O </c><c>   3</c></rc>
    <rc><c>O </c><c>   3</c></rc>
    <rc><c>O </c><c>   3</c></rc>
    <rc><c>O </c><c>   3</c></rc>
    <rc><c>O </c><c>   3</c></rc>
    <rc><c>O </c><c>   3</c></rc>
    <rc><c>O </c><c>   3</c></rc>
    <rc><c>O </c><c>   3</c></rc>
    <rc><c>O </c><c>   3</c></rc>
    <rc><c>O </c><c>   3</c></rc>
    <rc><c>O </c><c>   3</c></rc>
    <rc><c>O </c><c>   3</c></rc>
    <rc><c>O </c><c>   3</c></rc>
    <rc><c>O </c><c>   3</c></rc>
    <rc><c>O </c><c>   3</c></rc>
    <rc><c>O </c><c>   3</c></rc>
    <rc><c>O </c><c>   3</c></rc>
    <rc><c>O </c><c>   3</c></rc>
    <rc><c>O </c><c>   3</c></rc>
    <rc><c>O </c><c>   3</c></rc>
    <rc><c>O </c><c>   3</c></rc>
    <rc><c>O </c><c>   3</c></rc>
    <rc><c>O </c><c>   3</c></rc>
    <rc><c>O </c><c>   3</c></rc>
    <rc><c>O </c><c>   3</c></rc>
    <rc><c>O </c><c>   3</c></rc>
    <rc><c>O </c><c>   3</c></rc>
    <rc><c>O </c><c>   3</c></rc>
    <rc><c>O </c><c>   3</c></rc>
    <rc><c>O </c><c>   3</c></rc>
    <rc><c>O </c><c>   3</c></rc>
    <rc><c>O </c><c>   3</c></rc>
    <rc><c>O </c><c>   3</c></rc>
    <rc><c>O </c><c>   3</c></rc>
    <rc><c>O </c><c>   3</c></rc>
    <rc><c>O </c><c>   3</c></rc>
    <rc><c>O </c><c>   3</c></rc>
    <rc><c>O </c><c>   3</c></rc>
    <rc><c>O </c><c>   3</c></rc>
    <rc><c>O </c><c>   3</c></rc>
    <rc><c>O </c><c>   3</c></rc>
    <rc><c>O </c><c>   3</c></rc>
    <rc><c>O </c><c>   3</c></rc>
    <rc><c>O </c><c>   3</c></rc>
    <rc><c>O </c><c>   3</c></rc>
    <rc><c>O </c><c>   3</c></rc>
    <rc><c>O </c><c>   3</c></rc>
    <rc><c>O </c><c>   3</c></rc>
    <rc><c>O </c><c>   3</c></rc>
    <rc><c>O </c><c>   3</c></rc>
    <rc><c>O </c><c>   3</c></rc>
    <rc><c>O </c><c>   3</c></rc>
    <rc><c>O </c><c>   3</c></rc>
    <rc><c>O </c><c>   3</c></rc>
    <rc><c>O </c><c>   3</c></rc>
    <rc><c>O </c><c>   3</c></rc>
    <rc><c>O </c><c>   3</c></rc>
    <rc><c>O </c><c>   3</c></rc>
   </set>
  </array>
  <array name="atomtypes" >
   <dimension dim="1">type</dimension>
   <field type="int">atomspertype</field>
   <field type="string">element</field>
   <field>mass</field>
   <field>valence</field>
   <field type="string">pseudopotential</field>
   <set>
    <rc><c>  27</c><c>Ca</c><c>     40.07800000</c><c>     10.00000000</c><c>  PAW_PBE Ca_sv 06Sep2000               </c></rc>
    <rc><c>  27</c><c>Si</c><c>     28.08500000</c><c>      4.00000000</c><c>  PAW_PBE Si 05Jan2001                  </c></rc>
    <rc><c>  81</c><c>O </c><c>     16.00000000</c><c>      6.00000000</c><c>  PAW_PBE O 08Apr2002                   </c></rc>
   </set>
  </array>
 </atominfo>
 <structure name="initialpos" >
  <crystal>
   <varray name="basis" >
    <v>      12.09378762       0.00000000       0.00000000 </v>
    <v>       0.00000000      12.09378762       0.00000000 </v>
    <v>       0.00000000       0.00000000      12.09378762 </v>
   </varray>
   <i name="volume">   1768.83373704 </i>
   <varray name="rec_basis" >
    <v>       0.08268708       0.00000000       0.00000000 </v>
    <v>       0.00000000       0.08268708       0.00000000 </v>
    <v>       0.00000000       0.00000000       0.08268708 </v>
   </varray>
  </crystal>
  <varray name="positions" >
   <v>       0.33904637       0.21056219       0.38175128 </v>
   <v>       0.44059247       0.38499241       0.56854009 </v>
   <v>       0.04600520       0.78478840       0.09864270 </v>
   <v>       0.74127988       0.84530668       0.09615932 </v>
   <v>       0.04810323       0.50000659       0.06091677 </v>
   <v>       0.70294952       0.10131631       0.97970597 </v>
   <v>       0.19413703       0.02717666       0.28908407 </v>
   <v>       0.53739133       0.12144404       0.88772998 </v>
   <v>       0.66641192       0.92161291       0.57258311 </v>
   <v>       0.11934946       0.23182319       0.14799755 </v>
   <v>       0.75163591       0.59486373       0.34003869 </v>
   <v>       0.24304058       0.38465802       0.90820674 </v>
   <v>       0.76939541       0.44562454       0.98032773 </v>
   <v>       0.35518657       0.64379500       0.74646458 </v>
   <v>       0.25616233       0.74292304       0.07548699 </v>
   <v>       0.62796545       0.61152762       0.60258073 </v>
   <v>       0.50998643       0.80960160       0.37550714 </v>
   <v>       0.98525748       0.12735274       0.36745480 </v>
   <v>       0.09413149       0.66559267       0.65119333 </v>
   <v>       0.25636606       0.76237554       0.29841733 </v>
   <v>       0.19010674       0.13748373       0.81804753 </v>
   <v>       0.46881061       0.84465177       0.72487278 </v>
   <v>       0.86060623       0.48421302       0.65252403 </v>
   <v>       0.85410309       0.16107920       0.53799076 </v>
   <v>       0.19308865       0.93967761       0.58804461 </v>
   <v>       0.11208106       0.40466212       0.40943549 </v>
   <v>       0.49502503       0.37659771       0.19110162 </v>
   <v>       0.97189571       0.91291900       0.48129913 </v>
   <v>       0.74311437       0.30498599       0.29867259 </v>
   <v>       0.26310036       0.49735834       0.18174362 </v>
   <v>       0.69032980       0.30717458       0.76344409 </v>
   <v>       0.98158831       0.97508594       0.15662440 </v>
   <v>       0.90149942       0.70027844       0.54761569 </v>
   <v>       0.11796999       0.39931703       0.70257716 </v>
   <v>       0.95847176       0.19244324       0.96491213 </v>
   <v>       0.95494964       0.68785837       0.87051303 </v>
   <v>       0.43965587       0.52651437       0.97636362 </v>
   <v>       0.52419613       0.41362485       0.81799597 </v>
   <v>       0.58539045       0.67966602       0.13643752 </v>
   <v>       0.43744347       0.57509184       0.35129744 </v>
   <v>       0.72610117       0.35237904       0.49893383 </v>
   <v>       0.34573344       0.70142079       0.53100793 </v>
   <v>       0.91467217       0.81388457       0.30296901 </v>
   <v>       0.92169331       0.43983381       0.26778691 </v>
   <v>       0.33278993       0.22554800       0.11417648 </v>
   <v>       0.71387665       0.80770685       0.84957240 </v>
   <v>       0.62503920       0.14808275       0.16964294 </v>
   <v>       0.19892420       0.22237688       0.60692504 </v>
   <v>       0.47852291       0.78689099       0.91347192 </v>
   <v>       0.54500526       0.08150909       0.38537057 </v>
   <v>       0.06787863       0.89522335       0.88035747 </v>
   <v>       0.85760381       0.98913424       0.80839347 </v>
   <v>       0.44771985       0.02099189       0.16496923 </v>
   <v>       0.42838994       0.09911490       0.64134355 </v>
   <v>       0.48618104       0.28699546       0.79489509 </v>
   <v>       0.66064214       0.03997318       0.40598334 </v>
   <v>       0.84721871       0.95098095       0.48156584 </v>
   <v>       0.56741581       0.75561151       0.02451356 </v>
   <v>       0.54856511       0.01835087       0.69166868 </v>
   <v>       0.46368045       0.13921774       0.48743617 </v>
   <v>       0.78488980       0.38454004       0.80099384 </v>
   <v>       0.31987757       0.54260203       0.56017017 </v>
   <v>       0.35388602       0.88522352       0.23072926 </v>
   <v>       0.67200670       0.27790172       0.61851894 </v>
   <v>       0.63383906       0.40128597       0.87720450 </v>
   <v>       0.46347412       0.98251901       0.36453951 </v>
   <v>       0.47647269       0.64832569       0.21155415 </v>
   <v>       0.43395270       0.64619746       0.93220730 </v>
   <v>       0.73987191       0.49059153       0.47922310 </v>
   <v>       0.23629445       0.30536494       0.74198168 </v>
   <v>       0.06861579       0.76588140       0.87812174 </v>
   <v>       0.51194786       0.14589047       0.04766381 </v>
   <v>       0.76405053       0.94495443       0.91474079 </v>
   <v>       0.30043874       0.32996266       0.22534281 </v>
   <v>       0.55731970       0.96026882       0.12547904 </v>
   <v>       0.95783508       0.30401680       0.22321736 </v>
   <v>       0.25361296       0.75973723       0.65600891 </v>
   <v>       0.90351866       0.09835360       0.87828221 </v>
   <v>       0.71921302       0.05113223       0.18158802 </v>
   <v>       0.43135172       0.73774632       0.61643962 </v>
   <v>       0.05340893       0.07238631       0.14754654 </v>
   <v>       0.94610462       0.47273042       0.39752993 </v>
   <v>       0.83321810       0.05614522       0.69178102 </v>
   <v>       0.09906831       0.88084796       0.20740426 </v>
   <v>       0.27288676       0.13519918       0.55734323 </v>
   <v>       0.18050639       0.18159065       0.33111392 </v>
   <v>       0.33095599       0.54765961       0.27811959 </v>
   <v>       0.27679828       0.15417560       0.97685039 </v>
   <v>       0.01259831       0.80275664       0.57099608 </v>
   <v>       0.39095224       0.34488961       0.04310261 </v>
   <v>       0.25624147       0.33135661       0.55080146 </v>
   <v>       0.81147628       0.74091401       0.93067723 </v>
   <v>       0.07036065       0.25857127       0.99950210 </v>
   <v>       0.79016475       0.41636942       0.23444729 </v>
   <v>       0.71669143       0.87466718       0.73244800 </v>
   <v>       0.63533409       0.30254645       0.39306659 </v>
   <v>       0.14052799       0.45655914       0.22131849 </v>
   <v>       0.93112526       0.52614370       0.17649301 </v>
   <v>       0.95906745       0.59088872       0.95305074 </v>
   <v>       0.08628400       0.18289475       0.63165935 </v>
   <v>       0.95495921       0.63312030       0.75593097 </v>
   <v>       0.90913458       0.96515157       0.27689522 </v>
   <v>       0.08348100       0.45176202       0.59906781 </v>
   <v>       0.77944353       0.67742305       0.63992260 </v>
   <v>       0.97731338       0.60323696       0.53669233 </v>
   <v>       0.09510362       0.00139700       0.47023164 </v>
   <v>       0.85897360       0.73446204       0.22522678 </v>
   <v>       0.65887164       0.28607180       0.19447154 </v>
   <v>       0.33387966       0.09646038       0.12861259 </v>
   <v>       0.33635804       0.08072345       0.76684382 </v>
   <v>       0.34809739       0.78974523       0.89365025 </v>
   <v>       0.52465456       0.16950842       0.27536323 </v>
   <v>       0.57438061       0.64398218       0.43063081 </v>
   <v>       0.03394636       0.79033127       0.37859680 </v>
   <v>       0.82231467       0.20919545       0.37796734 </v>
   <v>       0.37506860       0.68734595       0.41578638 </v>
   <v>       0.16630925       0.64639212       0.19325691 </v>
   <v>       0.08398888       0.94191290       0.00620960 </v>
   <v>       0.29676293       0.82006282       0.48381595 </v>
   <v>       0.48156843       0.44365811       0.37465930 </v>
   <v>       0.59762611       0.71545303       0.81028162 </v>
   <v>       0.71131632       0.68270897       0.17040579 </v>
   <v>       0.16815576       0.95033882       0.79873925 </v>
   <v>       0.85182519       0.32747573       0.55654141 </v>
   <v>       0.31341403       0.55792901       0.04068399 </v>
   <v>       0.86552366       0.27791681       0.96998433 </v>
   <v>       0.84494721       0.75094438       0.43495238 </v>
   <v>       0.15871436       0.51628022       0.78894523 </v>
   <v>       0.96165953       0.92233893       0.79189684 </v>
   <v>       0.52919291       0.91790920       0.90110513 </v>
   <v>       0.68049357       0.18189379       0.82925921 </v>
   <v>       0.39447711       0.46421805       0.86476684 </v>
   <v>       0.52842167       0.50101688       0.73383070 </v>
   <v>       0.88890494       0.91511712       0.08531135 </v>
   <v>       0.51876801       0.51852063       0.09221458 </v>
  </varray>
  <varray name="velocities" >
   <v>       0.00000000       0.00000000       0.00000000 </v>
   <v>       0.00000000       0.00000000       0.00000000 </v>
   <v>       0.00000000       0.00000000       0.00000000 </v>
   <v>       0.00000000       0.00000000       0.00000000 </v>
   <v>       0.00000000       0.00000000       0.00000000 </v>
   <v>       0.00000000       0.00000000       0.00000000 </v>
   <v>       0.00000000       0.00000000       0.00000000 </v>
   <v>       0.00000000       0.00000000       0.00000000 </v>
   <v>       0.00000000       0.00000000       0.00000000 </v>
   <v>       0.00000000       0.00000000       0.00000000 </v>
   <v>       0.00000000       0.00000000       0.00000000 </v>
   <v>       0.00000000       0.00000000       0.00000000 </v>
   <v>       0.00000000       0.00000000       0.00000000 </v>
   <v>       0.00000000       0.00000000       0.00000000 </v>
   <v>       0.00000000       0.00000000       0.00000000 </v>
   <v>       0.00000000       0.00000000       0.00000000 </v>
   <v>       0.00000000       0.00000000       0.00000000 </v>
   <v>       0.00000000       0.00000000       0.00000000 </v>
   <v>       0.00000000       0.00000000       0.00000000 </v>
   <v>       0.00000000       0.00000000       0.00000000 </v>
   <v>       0.00000000       0.00000000       0.00000000 </v>
   <v>       0.00000000       0.00000000       0.00000000 </v>
   <v>       0.00000000       0.00000000       0.00000000 </v>
   <v>       0.00000000       0.00000000       0.00000000 </v>
   <v>       0.00000000       0.00000000       0.00000000 </v>
   <v>       0.00000000       0.00000000       0.00000000 </v>
   <v>       0.00000000       0.00000000       0.00000000 </v>
   <v>       0.00000000       0.00000000       0.00000000 </v>
   <v>       0.00000000       0.00000000       0.00000000 </v>
   <v>       0.00000000       0.00000000       0.00000000 </v>
   <v>       0.00000000       0.00000000       0.00000000 </v>
   <v>       0.00000000       0.00000000       0.00000000 </v>
   <v>       0.00000000       0.00000000       0.00000000 </v>
   <v>       0.00000000       0.00000000       0.00000000 </v>
   <v>       0.00000000       0.00000000       0.00000000 </v>
   <v>       0.00000000       0.00000000       0.00000000 </v>
   <v>       0.00000000       0.00000000       0.00000000 </v>
   <v>       0.00000000       0.00000000       0.00000000 </v>
   <v>       0.00000000       0.00000000       0.00000000 </v>
   <v>       0.00000000       0.00000000       0.00000000 </v>
   <v>       0.00000000       0.00000000       0.00000000 </v>
   <v>       0.00000000       0.00000000       0.00000000 </v>
   <v>       0.00000000       0.00000000       0.00000000 </v>
   <v>       0.00000000       0.00000000       0.00000000 </v>
   <v>       0.00000000       0.00000000       0.00000000 </v>
   <v>       0.00000000       0.00000000       0.00000000 </v>
   <v>       0.00000000       0.00000000       0.00000000 </v>
   <v>       0.00000000       0.00000000       0.00000000 </v>
   <v>       0.00000000       0.00000000       0.00000000 </v>
   <v>       0.00000000       0.00000000       0.00000000 </v>
   <v>       0.00000000       0.00000000       0.00000000 </v>
   <v>       0.00000000       0.00000000       0.00000000 </v>
   <v>       0.00000000       0.00000000       0.00000000 </v>
   <v>       0.00000000       0.00000000       0.00000000 </v>
   <v>       0.00000000       0.00000000       0.00000000 </v>
   <v>       0.00000000       0.00000000       0.00000000 </v>
   <v>       0.00000000       0.00000000       0.00000000 </v>
   <v>       0.00000000       0.00000000       0.00000000 </v>
   <v>       0.00000000       0.00000000       0.00000000 </v>
   <v>       0.00000000       0.00000000       0.00000000 </v>
   <v>       0.00000000       0.00000000       0.00000000 </v>
   <v>       0.00000000       0.00000000       0.00000000 </v>
   <v>       0.00000000       0.00000000       0.00000000 </v>
   <v>       0.00000000       0.00000000       0.00000000 </v>
   <v>       0.00000000       0.00000000       0.00000000 </v>
   <v>       0.00000000       0.00000000       0.00000000 </v>
   <v>       0.00000000       0.00000000       0.00000000 </v>
   <v>       0.00000000       0.00000000       0.00000000 </v>
   <v>       0.00000000       0.00000000       0.00000000 </v>
   <v>       0.00000000       0.00000000       0.00000000 </v>
   <v>       0.00000000       0.00000000       0.00000000 </v>
   <v>       0.00000000       0.00000000       0.00000000 </v>
   <v>       0.00000000       0.00000000       0.00000000 </v>
   <v>       0.00000000       0.00000000       0.00000000 </v>
   <v>       0.00000000       0.00000000       0.00000000 </v>
   <v>       0.00000000       0.00000000       0.00000000 </v>
   <v>       0.00000000       0.00000000       0.00000000 </v>
   <v>       0.00000000       0.00000000       0.00000000 </v>
   <v>       0.00000000       0.00000000       0.00000000 </v>
   <v>       0.00000000       0.00000000       0.00000000 </v>
   <v>       0.00000000       0.00000000       0.00000000 </v>
   <v>       0.00000000       0.00000000       0.00000000 </v>
   <v>       0.00000000       0.00000000       0.00000000 </v>
   <v>       0.00000000       0.00000000       0.00000000 </v>
   <v>       0.00000000       0.00000000       0.00000000 </v>
   <v>       0.00000000       0.00000000       0.00000000 </v>
   <v>       0.00000000       0.00000000       0.00000000 </v>
   <v>       0.00000000       0.00000000       0.00000000 </v>
   <v>       0.00000000       0.00000000       0.00000000 </v>
   <v>       0.00000000       0.00000000       0.00000000 </v>
   <v>       0.00000000       0.00000000       0.00000000 </v>
   <v>       0.00000000       0.00000000       0.00000000 </v>
   <v>       0.00000000       0.00000000       0.00000000 </v>
   <v>       0.00000000       0.00000000       0.00000000 </v>
   <v>       0.00000000       0.00000000       0.00000000 </v>
   <v>       0.00000000       0.00000000       0.00000000 </v>
   <v>       0.00000000       0.00000000       0.00000000 </v>
   <v>       0.00000000       0.00000000       0.00000000 </v>
   <v>       0.00000000       0.00000000       0.00000000 </v>
   <v>       0.00000000       0.00000000       0.00000000 </v>
   <v>       0.00000000       0.00000000       0.00000000 </v>
   <v>       0.00000000       0.00000000       0.00000000 </v>
   <v>       0.00000000       0.00000000       0.00000000 </v>
   <v>       0.00000000       0.00000000       0.00000000 </v>
   <v>       0.00000000       0.00000000       0.00000000 </v>
   <v>       0.00000000       0.00000000       0.00000000 </v>
   <v>       0.00000000       0.00000000       0.00000000 </v>
   <v>       0.00000000       0.00000000       0.00000000 </v>
   <v>       0.00000000       0.00000000       0.00000000 </v>
   <v>       0.00000000       0.00000000       0.00000000 </v>
   <v>       0.00000000       0.00000000       0.00000000 </v>
   <v>       0.00000000       0.00000000       0.00000000 </v>
   <v>       0.00000000       0.00000000       0.00000000 </v>
   <v>       0.00000000       0.00000000       0.00000000 </v>
   <v>       0.00000000       0.00000000       0.00000000 </v>
   <v>       0.00000000       0.00000000       0.00000000 </v>
   <v>       0.00000000       0.00000000       0.00000000 </v>
   <v>       0.00000000       0.00000000       0.00000000 </v>
   <v>       0.00000000       0.00000000       0.00000000 </v>
   <v>       0.00000000       0.00000000       0.00000000 </v>
   <v>       0.00000000       0.00000000       0.00000000 </v>
   <v>       0.00000000       0.00000000       0.00000000 </v>
   <v>       0.00000000       0.00000000       0.00000000 </v>
   <v>       0.00000000       0.00000000       0.00000000 </v>
   <v>       0.00000000       0.00000000       0.00000000 </v>
   <v>       0.00000000       0.00000000       0.00000000 </v>
   <v>       0.00000000       0.00000000       0.00000000 </v>
   <v>       0.00000000       0.00000000       0.00000000 </v>
   <v>       0.00000000       0.00000000       0.00000000 </v>
   <v>       0.00000000       0.00000000       0.00000000 </v>
   <v>       0.00000000       0.00000000       0.00000000 </v>
   <v>       0.00000000       0.00000000       0.00000000 </v>
   <v>       0.00000000       0.00000000       0.00000000 </v>
   <v>       0.00000000       0.00000000       0.00000000 </v>
   <v>       0.00000000       0.00000000       0.00000000 </v>
  </varray>
 </structure>
 <calculation>
  <scstep>
   <time name="dav">   36.13   36.13</time>
   <time name="total">   36.64   36.65</time>
   <energy>
    <i name="alphaZ">   2701.53174423 </i>
    <i name="ewald"> -45150.17591487 </i>
    <i name="hartreedc"> -18247.31913712 </i>
    <i name="XCdc">   3169.36644778 </i>
    <i name="pawpsdc">  50594.51003143 </i>
    <i name="pawaedc"> -49994.65612350 </i>
    <i name="eentropy">     -0.03535203 </i>
    <i name="bandstr">   1523.86117567 </i>
    <i name="atom">  64968.54023382 </i>
    <i name="e_fr_energy">   9565.62310541 </i>
    <i name="e_wo_entrp">   9565.65845744 </i>
    <i name="e_0_energy">   9565.64078143 </i>
   </energy>
  </scstep>
  <scstep>
   <time name="dav">   41.22   41.24</time>
   <time name="total">   41.22   41.24</time>
   <energy>
    <i name="e_fr_energy">     71.51088483 </i>
    <i name="e_wo_entrp">     71.51088483 </i>
    <i name="e_0_energy">     71.51088483 </i>
   </energy>
  </scstep>
  <scstep>
   <time name="dav">   42.51   42.52</time>
   <time name="total">   42.52   42.52</time>
   <energy>
    <i name="e_fr_energy">   -978.08653548 </i>
    <i name="e_wo_entrp">   -978.08653548 </i>
    <i name="e_0_energy">   -978.08653548 </i>
   </energy>
  </scstep>
  <scstep>
   <time name="dav">   46.02   46.03</time>
   <time name="total">   46.02   46.03</time>
   <energy>
    <i name="e_fr_energy">  -1030.32413016 </i>
    <i name="e_wo_entrp">  -1030.32413016 </i>
    <i name="e_0_energy">  -1030.32413016 </i>
   </energy>
  </scstep>
  <scstep>
   <time name="dav">   55.93   55.93</time>
   <time name="total">   57.29   57.29</time>
   <energy>
    <i name="e_fr_energy">  -1036.17343183 </i>
    <i name="e_wo_entrp">  -1036.17343183 </i>
    <i name="e_0_energy">  -1036.17343183 </i>
   </energy>
  </scstep>
  <scstep>
   <time name="dav">   40.73   40.73</time>
   <time name="total">   42.61   42.62</time>
   <energy>
    <i name="e_fr_energy">   -881.58949936 </i>
    <i name="e_wo_entrp">   -881.58949936 </i>
    <i name="e_0_energy">   -881.58949936 </i>
   </energy>
  </scstep>
  <scstep>
   <time name="dav">   41.91   41.91</time>
   <time name="total">   43.75   43.76</time>
   <energy>
    <i name="e_fr_energy">   -883.11727303 </i>
    <i name="e_wo_entrp">   -883.11649100 </i>
    <i name="e_0_energy">   -883.11688202 </i>
   </energy>
  </scstep>
  <scstep>
   <time name="dav">   45.62   45.62</time>
   <time name="total">   47.45   47.47</time>
   <energy>
    <i name="e_fr_energy">   -884.67452379 </i>
    <i name="e_wo_entrp">   -884.67452379 </i>
    <i name="e_0_energy">   -884.67452379 </i>
   </energy>
  </scstep>
  <scstep>
   <time name="dav">   44.60   44.60</time>
   <time name="total">   46.40   46.41</time>
   <energy>
    <i name="e_fr_energy">   -882.21505526 </i>
    <i name="e_wo_entrp">   -882.21505526 </i>
    <i name="e_0_energy">   -882.21505526 </i>
   </energy>
  </scstep>
  <scstep>
   <time name="dav">   42.98   42.98</time>
   <time name="total">   44.85   44.86</time>
   <energy>
    <i name="e_fr_energy">   -881.03701300 </i>
    <i name="e_wo_entrp">   -881.03701300 </i>
    <i name="e_0_energy">   -881.03701300 </i>
   </energy>
  </scstep>
  <scstep>
   <time name="dav">   41.85   41.85</time>
   <time name="total">   43.73   43.74</time>
   <energy>
    <i name="e_fr_energy">   -880.91749272 </i>
    <i name="e_wo_entrp">   -880.91745276 </i>
    <i name="e_0_energy">   -880.91747274 </i>
   </energy>
  </scstep>
  <scstep>
   <time name="dav">   45.42   45.42</time>
   <time name="total">   47.28   47.29</time>
   <energy>
    <i name="e_fr_energy">   -880.83063502 </i>
    <i name="e_wo_entrp">   -880.80023125 </i>
    <i name="e_0_energy">   -880.81543314 </i>
   </energy>
  </scstep>
  <scstep>
   <time name="dav">   44.79   44.79</time>
   <time name="total">   46.62   46.62</time>
   <energy>
    <i name="e_fr_energy">   -880.89143576 </i>
    <i name="e_wo_entrp">   -880.89142722 </i>
    <i name="e_0_energy">   -880.89143149 </i>
   </energy>
  </scstep>
  <scstep>
   <time name="dav">   43.70   43.70</time>
   <time name="total">   45.60   45.61</time>
   <energy>
    <i name="e_fr_energy">   -880.83595494 </i>
    <i name="e_wo_entrp">   -880.79505981 </i>
    <i name="e_0_energy">   -880.81550737 </i>
   </energy>
  </scstep>
  <scstep>
   <time name="dav">   42.30   42.30</time>
   <time name="total">   44.17   44.18</time>
   <energy>
    <i name="e_fr_energy">   -880.84734340 </i>
    <i name="e_wo_entrp">   -880.84589659 </i>
    <i name="e_0_energy">   -880.84662000 </i>
   </energy>
  </scstep>
  <scstep>
   <time name="dav">   40.85   40.85</time>
   <time name="total">   42.68   42.69</time>
   <energy>
    <i name="e_fr_energy">   -880.82642977 </i>
    <i name="e_wo_entrp">   -880.79880469 </i>
    <i name="e_0_energy">   -880.81261723 </i>
   </energy>
  </scstep>
  <scstep>
   <time name="dav">   42.02   42.02</time>
   <time name="total">   43.84   43.84</time>
   <energy>
    <i name="e_fr_energy">   -880.82767870 </i>
    <i name="e_wo_entrp">   -880.81306036 </i>
    <i name="e_0_energy">   -880.82036953 </i>
   </energy>
  </scstep>
  <scstep>
   <time name="dav">   40.68   40.68</time>
   <time name="total">   42.51   42.53</time>
   <energy>
    <i name="e_fr_energy">   -880.82675862 </i>
    <i name="e_wo_entrp">   -880.80150401 </i>
    <i name="e_0_energy">   -880.81413132 </i>
   </energy>
  </scstep>
  <scstep>
   <time name="dav">   44.87   44.87</time>
   <time name="total">   46.71   46.71</time>
   <energy>
    <i name="e_fr_energy">   -880.82681326 </i>
    <i name="e_wo_entrp">   -880.80770286 </i>
    <i name="e_0_energy">   -880.81725806 </i>
   </energy>
  </scstep>
  <scstep>
   <time name="dav">   47.22   47.22</time>
   <time name="total">   49.09   49.10</time>
   <energy>
    <i name="e_fr_energy">   -880.82680721 </i>
    <i name="e_wo_entrp">   -880.80247042 </i>
    <i name="e_0_energy">   -880.81463881 </i>
   </energy>
  </scstep>
  <scstep>
   <time name="dav">   44.30   44.30</time>
   <time name="total">   46.18   46.18</time>
   <energy>
    <i name="e_fr_energy">   -880.82667290 </i>
    <i name="e_wo_entrp">   -880.80617330 </i>
    <i name="e_0_energy">   -880.81642310 </i>
   </energy>
  </scstep>
  <scstep>
   <time name="dav">   41.41   41.41</time>
   <time name="total">   43.32   43.34</time>
   <energy>
    <i name="e_fr_energy">   -880.82663467 </i>
    <i name="e_wo_entrp">   -880.80504802 </i>
    <i name="e_0_energy">   -880.81584134 </i>
   </energy>
  </scstep>
  <scstep>
   <time name="dav">   43.50   43.50</time>
   <time name="total">   45.35   45.35</time>
   <energy>
    <i name="e_fr_energy">   -880.82663525 </i>
    <i name="e_wo_entrp">   -880.80495218 </i>
    <i name="e_0_energy">   -880.81579372 </i>
   </energy>
  </scstep>
  <scstep>
   <time name="dav">   31.87   31.87</time>
   <time name="total">   33.77   33.78</time>
   <energy>
    <i name="e_fr_energy">   -880.82663663 </i>
    <i name="e_wo_entrp">   -880.80469861 </i>
    <i name="e_0_energy">   -880.81566762 </i>
   </energy>
  </scstep>
  <scstep>
   <time name="dav">   29.20   29.20</time>
   <time name="total">   29.68   29.68</time>
   <energy>
    <i name="alphaZ">   2701.53174423 </i>
    <i name="ewald"> -45150.17591487 </i>
    <i name="hartreedc"> -19842.49376975 </i>
    <i name="XCdc">   3267.49359911 </i>
    <i name="pawpsdc">  91261.24048409 </i>
    <i name="pawaedc"> -90915.22602880 </i>
    <i name="eentropy">     -0.02166098 </i>
    <i name="bandstr">  -7171.71532303 </i>
    <i name="atom">  64968.54023382 </i>
    <i name="e_fr_energy">   -880.82663617 </i>
    <i name="e_wo_entrp">   -880.80497519 </i>
    <i name="e_0_energy">   -880.81580568 </i>
   </energy>
  </scstep>
  <structure>
   <crystal>
    <varray name="basis" >
     <v>      12.09378762       0.00000000       0.00000000 </v>
     <v>       0.00000000      12.09378762       0.00000000 </v>
     <v>       0.00000000       0.00000000      12.09378762 </v>
    </varray>
    <i name="volume">   1768.83373704 </i>
    <varray name="rec_basis" >
     <v>       0.08268708       0.00000000       0.00000000 </v>
     <v>       0.00000000       0.08268708       0.00000000 </v>
     <v>       0.00000000       0.00000000       0.08268708 </v>
    </varray>
   </crystal>
   <varray name="positions" >
    <v>       0.33904637       0.21056219       0.38175128 </v>
    <v>       0.44059247       0.38499241       0.56854009 </v>
    <v>       0.04600520       0.78478840       0.09864270 </v>
    <v>       0.74127988       0.84530668       0.09615932 </v>
    <v>       0.04810323       0.50000659       0.06091677 </v>
    <v>       0.70294952       0.10131631       0.97970597 </v>
    <v>       0.19413703       0.02717666       0.28908407 </v>
    <v>       0.53739133       0.12144404       0.88772998 </v>
    <v>       0.66641192       0.92161291       0.57258311 </v>
    <v>       0.11934946       0.23182319       0.14799755 </v>
    <v>       0.75163591       0.59486373       0.34003869 </v>
    <v>       0.24304058       0.38465802       0.90820674 </v>
    <v>       0.76939541       0.44562454       0.98032773 </v>
    <v>       0.35518657       0.64379500       0.74646458 </v>
    <v>       0.25616233       0.74292304       0.07548699 </v>
    <v>       0.62796545       0.61152762       0.60258073 </v>
    <v>       0.50998643       0.80960160       0.37550714 </v>
    <v>       0.98525748       0.12735274       0.36745480 </v>
    <v>       0.09413149       0.66559267       0.65119333 </v>
    <v>       0.25636606       0.76237554       0.29841733 </v>
    <v>       0.19010674       0.13748373       0.81804753 </v>
    <v>       0.46881061       0.84465177       0.72487278 </v>
    <v>       0.86060623       0.48421302       0.65252403 </v>
    <v>       0.85410309       0.16107920       0.53799076 </v>
    <v>       0.19308865       0.93967761       0.58804461 </v>
    <v>       0.11208106       0.40466212       0.40943549 </v>
    <v>       0.49502503       0.37659771       0.19110162 </v>
    <v>       0.97189571       0.91291900       0.48129913 </v>
    <v>       0.74311437       0.30498599       0.29867259 </v>
    <v>       0.26310036       0.49735834       0.18174362 </v>
    <v>       0.69032980       0.30717458       0.76344409 </v>
    <v>       0.98158831       0.97508594       0.15662440 </v>
    <v>       0.90149942       0.70027844       0.54761569 </v>
    <v>       0.11796999       0.39931703       0.70257716 </v>
    <v>       0.95847176       0.19244324       0.96491213 </v>
    <v>       0.95494964       0.68785837       0.87051303 </v>
    <v>       0.43965587       0.52651437       0.97636362 </v>
    <v>       0.52419613       0.41362485       0.81799597 </v>
    <v>       0.58539045       0.67966602       0.13643752 </v>
    <v>       0.43744347       0.57509184       0.35129744 </v>
    <v>       0.72610117       0.35237904       0.49893383 </v>
    <v>       0.34573344       0.70142079       0.53100793 </v>
    <v>       0.91467217       0.81388457       0.30296901 </v>
    <v>       0.92169331       0.43983381       0.26778691 </v>
    <v>       0.33278993       0.22554800       0.11417648 </v>
    <v>       0.71387665       0.80770685       0.84957240 </v>
    <v>       0.62503920       0.14808275       0.16964294 </v>
    <v>       0.19892420       0.22237688       0.60692504 </v>
    <v>       0.47852291       0.78689099       0.91347192 </v>
    <v>       0.54500526       0.08150909       0.38537057 </v>
    <v>       0.06787863       0.89522335       0.88035747 </v>
    <v>       0.85760381       0.98913424       0.80839347 </v>
    <v>       0.44771985       0.02099189       0.16496923 </v>
    <v>       0.42838994       0.09911490       0.64134355 </v>
    <v>       0.48618104       0.28699546       0.79489509 </v>
    <v>       0.66064214       0.03997318       0.40598334 </v>
    <v>       0.84721871       0.95098095       0.48156584 </v>
    <v>       0.56741581       0.75561151       0.02451356 </v>
    <v>       0.54856511       0.01835087       0.69166868 </v>
    <v>       0.46368045       0.13921774       0.48743617 </v>
    <v>       0.78488980       0.38454004       0.80099384 </v>
    <v>       0.31987757       0.54260203       0.56017017 </v>
    <v>       0.35388602       0.88522352       0.23072926 </v>
    <v>       0.67200670       0.27790172       0.61851894 </v>
    <v>       0.63383906       0.40128597       0.87720450 </v>
    <v>       0.46347412       0.98251901       0.36453951 </v>
    <v>       0.47647269       0.64832569       0.21155415 </v>
    <v>       0.43395270       0.64619746       0.93220730 </v>
    <v>       0.73987191       0.49059153       0.47922310 </v>
    <v>       0.23629445       0.30536494       0.74198168 </v>
    <v>       0.06861579       0.76588140       0.87812174 </v>
    <v>       0.51194786       0.14589047       0.04766381 </v>
    <v>       0.76405053       0.94495443       0.91474079 </v>
    <v>       0.30043874       0.32996266       0.22534281 </v>
    <v>       0.55731970       0.96026882       0.12547904 </v>
    <v>       0.95783508       0.30401680       0.22321736 </v>
    <v>       0.25361296       0.75973723       0.65600891 </v>
    <v>       0.90351866       0.09835360       0.87828221 </v>
    <v>       0.71921302       0.05113223       0.18158802 </v>
    <v>       0.43135172       0.73774632       0.61643962 </v>
    <v>       0.05340893       0.07238631       0.14754654 </v>
    <v>       0.94610462       0.47273042       0.39752993 </v>
    <v>       0.83321810       0.05614522       0.69178102 </v>
    <v>       0.09906831       0.88084796       0.20740426 </v>
    <v>       0.27288676       0.13519918       0.55734323 </v>
    <v>       0.18050639       0.18159065       0.33111392 </v>
    <v>       0.33095599       0.54765961       0.27811959 </v>
    <v>       0.27679828       0.15417560       0.97685039 </v>
    <v>       0.01259831       0.80275664       0.57099608 </v>
    <v>       0.39095224       0.34488961       0.04310261 </v>
    <v>       0.25624147       0.33135661       0.55080146 </v>
    <v>       0.81147628       0.74091401       0.93067723 </v>
    <v>       0.07036065       0.25857127       0.99950210 </v>
    <v>       0.79016475       0.41636942       0.23444729 </v>
    <v>       0.71669143       0.87466718       0.73244800 </v>
    <v>       0.63533409       0.30254645       0.39306659 </v>
    <v>       0.14052799       0.45655914       0.22131849 </v>
    <v>       0.93112526       0.52614370       0.17649301 </v>
    <v>       0.95906745       0.59088872       0.95305074 </v>
    <v>       0.08628400       0.18289475       0.63165935 </v>
    <v>       0.95495921       0.63312030       0.75593097 </v>
    <v>       0.90913458       0.96515157       0.27689522 </v>
    <v>       0.08348100       0.45176202       0.59906781 </v>
    <v>       0.77944353       0.67742305       0.63992260 </v>
    <v>       0.97731338       0.60323696       0.53669233 </v>
    <v>       0.09510362       0.00139700       0.47023164 </v>
    <v>       0.85897360       0.73446204       0.22522678 </v>
    <v>       0.65887164       0.28607180       0.19447154 </v>
    <v>       0.33387966       0.09646038       0.12861259 </v>
    <v>       0.33635804       0.08072345       0.76684382 </v>
    <v>       0.34809739       0.78974523       0.89365025 </v>
    <v>       0.52465456       0.16950842       0.27536323 </v>
    <v>       0.57438061       0.64398218       0.43063081 </v>
    <v>       0.03394636       0.79033127       0.37859680 </v>
    <v>       0.82231467       0.20919545       0.37796734 </v>
    <v>       0.37506860       0.68734595       0.41578638 </v>
    <v>       0.16630925       0.64639212       0.19325691 </v>
    <v>       0.08398888       0.94191290       0.00620960 </v>
    <v>       0.29676293       0.82006282       0.48381595 </v>
    <v>       0.48156843       0.44365811       0.37465930 </v>
    <v>       0.59762611       0.71545303       0.81028162 </v>
    <v>       0.71131632       0.68270897       0.17040579 </v>
    <v>       0.16815576       0.95033882       0.79873925 </v>
    <v>       0.85182519       0.32747573       0.55654141 </v>
    <v>       0.31341403       0.55792901       0.04068399 </v>
    <v>       0.86552366       0.27791681       0.96998433 </v>
    <v>       0.84494721       0.75094438       0.43495238 </v>
    <v>       0.15871436       0.51628022       0.78894523 </v>
    <v>       0.96165953       0.92233893       0.79189684 </v>
    <v>       0.52919291       0.91790920       0.90110513 </v>
    <v>       0.68049357       0.18189379       0.82925921 </v>
    <v>       0.39447711       0.46421805       0.86476684 </v>
    <v>       0.52842167       0.50101688       0.73383070 </v>
    <v>       0.88890494       0.91511712       0.08531135 </v>
    <v>       0.51876801       0.51852063       0.09221458 </v>
   </varray>
  </structure>
  <varray name="forces" >
   <v>      -0.32606542       1.79523090       0.60354667 </v>
   <v>      -1.02383760       1.34422617       0.05515158 </v>
   <v>      -3.49802093      -4.76776144      -2.49347139 </v>
   <v>      -0.99509721       0.63961233       0.11194548 </v>
   <v>       0.80013762      -0.80007895       0.85144573 </v>
   <v>       5.13837200      -1.35933397       0.92814279 </v>
   <v>       0.97940516      -4.99046205      -1.07128732 </v>
   <v>      -6.98025598      -1.54531418      -5.71413316 </v>
   <v>       2.60481678       1.54188845      -0.20029333 </v>
   <v>      -0.14584024       1.48898526       4.72493767 </v>
   <v>       0.57638202       1.41076877      -0.54164985 </v>
   <v>       0.39762514      -0.78301851       0.56845584 </v>
   <v>       1.68270116       0.09889838       0.38874475 </v>
   <v>      -1.37715273      -2.83439034       1.84205528 </v>
   <v>       2.90734252       0.65906632      -2.52624886 </v>
   <v>      -1.40173949      -0.15137397       0.23285626 </v>
   <v>      -0.58678798       0.42427352      -1.21286516 </v>
   <v>       0.59698837       0.65925745      -2.44196449 </v>
   <v>       2.64488364      -1.11035497       0.90555927 </v>
   <v>      -2.40224392       0.21316097       2.54522350 </v>
   <v>      -2.09371217      -1.52962799       2.28078103 </v>
   <v>       0.35524628       5.50502374       1.22796459 </v>
   <v>       1.54258037       1.14324876      -0.13662039 </v>
   <v>      -0.70840886      -3.09426863       4.36880046 </v>
   <v>       1.90307520      -1.87579374       3.37462635 </v>
   <v>       0.55394280       0.59007983       0.65500650 </v>
   <v>       0.33634595       0.11100293       1.43417211 </v>
   <v>       4.47600946      -3.69604986       0.52010533 </v>
   <v>       1.35673253      -2.52564839       1.48384127 </v>
   <v>      -3.15574741       1.47448614      -1.41916593 </v>
   <v>      -0.89958612      -5.10470732      -0.02717928 </v>
   <v>      -1.89410423      -6.08232798       0.60053273 </v>
   <v>      -4.18399200       4.04556307       1.25370784 </v>
   <v>       5.82195367       1.08912603       6.66031987 </v>
   <v>      -0.49558307      -0.53843810      -1.43897796 </v>
   <v>      -2.30943414       0.16676012       0.02811255 </v>
   <v>      -1.71149514       0.07181911       4.49126906 </v>
   <v>      -6.90400368      -4.19563283       1.34040368 </v>
   <v>      -3.13290242      -2.46220950      -1.79765453 </v>
   <v>       4.51171018      -0.14577828       1.76202015 </v>
   <v>       0.81887616       0.72231958       2.12076169 </v>
   <v>      -8.40004101      -0.68879395       8.94354475 </v>
   <v>       3.25031393       1.32246327       6.02321539 </v>
   <v>       2.04387429      -4.11554697       1.34629436 </v>
   <v>       1.10281567       5.41257972      -7.14801239 </v>
   <v>      -0.85489919       0.32124480      -1.68780653 </v>
   <v>      -1.43469939      -0.62827820       2.08598282 </v>
   <v>       4.32141821       6.56309927       0.00285820 </v>
   <v>       3.34247850      -1.19096025       4.51705613 </v>
   <v>      -1.65648304       1.02978665       1.47277935 </v>
   <v>       3.28923510       6.13406467      -2.93819487 </v>
   <v>      -5.35561225       3.24171292      -2.16074538 </v>
   <v>      -1.72494012      -4.14534747       0.91657903 </v>
   <v>      -0.23440611      -1.28018017       1.90378389 </v>
   <v>       0.54312470      -0.30889786      -1.75319765 </v>
   <v>       2.89328078      -1.01922669       1.84502943 </v>
   <v>       1.21473437       1.62374967       0.56585880 </v>
   <v>       0.49810001      -0.15765088       1.92672953 </v>
   <v>      -3.65521413       1.93896188      -2.88045602 </v>
   <v>       1.28388834       0.46618892       3.22765970 </v>
   <v>       4.84440335       1.48325673      -2.50945800 </v>
   <v>       1.20841646       3.31449761      -0.08599229 </v>
   <v>       0.82742983       1.94749833      -2.79914146 </v>
   <v>      -1.46144230       2.01721946       0.97435344 </v>
   <v>       0.13817163      -0.23852831       4.09708938 </v>
   <v>      -1.47376367      -0.19444614      -1.27566928 </v>
   <v>       0.99403197       2.80897704       3.00694675 </v>
   <v>       2.85161642       0.87760870      -1.49642677 </v>
   <v>      -1.77805408      -3.08498141       2.40202533 </v>
   <v>      -3.13694463       0.01461685      -0.74009102 </v>
   <v>      -0.49617505      -3.49839514       1.36408877 </v>
   <v>       3.03236884       1.38417454       6.02197396 </v>
   <v>      -0.09482287      -0.61443475      -1.51125342 </v>
   <v>       1.21535350      -2.37743260      -1.72979650 </v>
   <v>      -1.44219944      -0.17718114       0.77167514 </v>
   <v>       1.05832652       1.16079616       1.33374933 </v>
   <v>      -1.39220530      -1.05997537       0.41711805 </v>
   <v>       2.32598430       2.37631144       3.12965813 </v>
   <v>      -0.58026495       3.89910644      -1.44597442 </v>
   <v>       7.11349170      -1.66849761      -0.95004366 </v>
   <v>       2.21336380       6.78052725       0.92007923 </v>
   <v>      -0.31380418      -1.33307656      -3.21670139 </v>
   <v>      -0.41020997      -0.45125178       0.58308696 </v>
   <v>       0.03057151       3.02401235       1.44417634 </v>
   <v>       4.82794676      -6.03109887      -0.92094057 </v>
   <v>      -2.31005823       2.01387838       0.48644202 </v>
   <v>      -0.68461441      -0.54670229       0.73305931 </v>
   <v>      -0.41414852       4.21702834       1.38720605 </v>
   <v>      -2.89823259       2.98573082       0.38538569 </v>
   <v>      -0.95232231      -2.19337787       0.90323967 </v>
   <v>      -0.16697613      -0.09796612      -2.60477849 </v>
   <v>       0.07595257       0.03886856      -2.61402214 </v>
   <v>      -0.96780282       0.01235625      -5.25457723 </v>
   <v>      -2.72479547      -0.04128711       2.49036460 </v>
   <v>       0.77628976      -1.02468819       0.88247052 </v>
   <v>       3.36929710       1.52644905       1.85790271 </v>
   <v>       1.00288753      -2.02250896      -1.06154013 </v>
   <v>       0.19689048       3.03072199      -2.39684369 </v>
   <v>      -0.48953474      -0.97899197       2.20166124 </v>
   <v>      -6.08011448      -0.90409316       1.35936933 </v>
   <v>      -1.13266168      -0.18289977      -1.89224302 </v>
   <v>       0.81917946      -1.39362192       1.30352226 </v>
   <v>      -2.62438821       0.73780070      -4.68401978 </v>
   <v>       3.32888647       0.51276622      -2.54567822 </v>
   <v>       0.81735166      -2.94170859      -0.14170664 </v>
   <v>      -5.38320407      -0.40559183      -2.17634326 </v>
   <v>       1.63583123       0.15902739      -2.14008296 </v>
   <v>       0.00929191      -3.25659912      -3.40046045 </v>
   <v>       1.50627869      -4.15227831       5.42372210 </v>
   <v>       5.48451202      -0.20371047      -4.93386261 </v>
   <v>      -1.51231078       2.89091794      -1.27242059 </v>
   <v>      -0.64669777      -1.61947584      -0.90754478 </v>
   <v>      -0.70777677      -0.04906015      -1.81264240 </v>
   <v>      -2.40344391       2.79150974      -1.13573341 </v>
   <v>      -2.05650495       2.85204080      -3.71694277 </v>
   <v>       4.75631180      -5.47000589     -11.85419466 </v>
   <v>       0.63210937       0.58499953      -2.75977557 </v>
   <v>      -0.28764324      -1.28133206      -1.75739118 </v>
   <v>      -1.54671921       3.47824563      -0.84683304 </v>
   <v>      -0.96437114       1.74306617       0.04820975 </v>
   <v>       0.03386060       2.55283640       1.80629766 </v>
   <v>      -4.00641824      -2.05284521      -0.26238805 </v>
   <v>      -1.76297343      -0.39846137       0.68118763 </v>
   <v>      -0.67116174       1.32294838      -0.77581435 </v>
   <v>      -2.68941101      -2.88042685       3.22830480 </v>
   <v>      -2.85863288       1.73146468       1.56805730 </v>
   <v>      -1.67833764       0.03557263      -1.21610957 </v>
   <v>      -0.52561194      -3.31767392      -0.34099404 </v>
   <v>       3.48159632      -4.01360635       1.06845352 </v>
   <v>      -0.32148016      -1.95899278      -0.56924319 </v>
   <v>       1.74527305       3.30746628      -1.90055142 </v>
   <v>       1.51805295      -1.04390157       0.71471423 </v>
   <v>       1.11418824       4.56821795      -7.52214384 </v>
   <v>       2.71464271       0.71339204      -0.72346092 </v>
   <v>       2.10198950       0.14400242      -3.64169700 </v>
  </varray>
  <varray name="stress" >
   <v>     105.48564790       1.08389975      13.50855002 </v>
   <v>       1.08389974      69.97055356       7.81307296 </v>
   <v>      13.50855006       7.81307295      94.23026790 </v>
  </varray>
  <energy>
[...]
       <r>     4.2642     9.5570   867.6276 </r>
       <r>     4.4346     2.1860   868.0000 </r>
       <r>     4.6050     0.0000   868.0000 </r>
       <r>     4.7753     1.5288   868.2604 </r>
       <r>     4.9457     9.7994   869.9299 </r>
       <r>     5.1160     7.6425   871.2318 </r>
       <r>     5.2864    15.1849   873.8187 </r>
       <r>     5.4568     9.3130   875.4053 </r>
       <r>     5.6271    14.7245   877.9138 </r>
       <r>     5.7975     6.3906   879.0025 </r>
       <r>     5.9678    30.0915   884.1288 </r>
       <r>     6.1382    10.9795   885.9993 </r>
       <r>     6.3086     5.6068   886.9545 </r>
       <r>     6.4789    23.5605   890.9682 </r>
       <r>     6.6493    21.9962   894.7155 </r>
       <r>     6.8196    19.4953   898.0367 </r>
       <r>     6.9900    34.8268   903.9698 </r>
       <r>     7.1604    37.4150   910.3438 </r>
       <r>     7.3307    36.0728   916.4892 </r>
       <r>     7.5011    31.4099   921.8402 </r>
       <r>     7.6714    42.8645   929.1426 </r>
       <r>     7.8418    47.6519   937.2605 </r>
       <r>     8.0122    63.0265   947.9977 </r>
       <r>     8.1825    58.7659   958.0091 </r>
       <r>     8.3529    62.8376   968.7141 </r>
       <r>     8.5232    71.1361   980.8328 </r>
       <r>     8.6936    64.9560   991.8987 </r>
       <r>     8.8640    58.6638  1001.8927 </r>
       <r>     9.0343    65.5825  1013.0653 </r>
       <r>     9.2047    74.7299  1025.7963 </r>
       <r>     9.3750    64.7781  1036.8318 </r>
       <r>     9.5454    18.5922  1039.9992 </r>
       <r>     9.7158     0.0046  1040.0000 </r>
       <r>     9.8861     0.0000  1040.0000 </r>
       <r>    10.0565     0.0000  1040.0000 </r>
       <r>    10.2268     0.0000  1040.0000 </r>
       <r>    10.3972     0.0000  1040.0000 </r>
       <r>    10.5676     0.0000  1040.0000 </r>
       <r>    10.7379     0.0000  1040.0000 </r>
       <r>    10.9083     0.0000  1040.0000 </r>
       <r>    11.0786     0.0000  1040.0000 </r>
       <r>    11.2490     0.0000  1040.0000 </r>
       <r>    11.4194     0.0000  1040.0000 </r>
       <r>    11.5897     0.0000  1040.0000 </r>
       <r>    11.7601     0.0000  1040.0000 </r>
      </set>
     </set>
    </array>
   </total>
  </dos>
 </calculation>
 <structure name="finalpos" >
  <crystal>
   <varray name="basis" >
    <v>      12.09378762       0.00000000       0.00000000 </v>
    <v>       0.00000000      12.09378762       0.00000000 </v>
    <v>       0.00000000       0.00000000      12.09378762 </v>
   </varray>
   <i name="volume">   1768.83373704 </i>
   <varray name="rec_basis" >
    <v>       0.08268708       0.00000000       0.00000000 </v>
    <v>       0.00000000       0.08268708       0.00000000 </v>
    <v>       0.00000000       0.00000000       0.08268708 </v>
   </varray>
  </crystal>
  <varray name="positions" >
   <v>       0.33904637       0.21056219       0.38175128 </v>
   <v>       0.44059247       0.38499241       0.56854009 </v>
   <v>       0.04600520       0.78478840       0.09864270 </v>
   <v>       0.74127988       0.84530668       0.09615932 </v>
   <v>       0.04810323       0.50000659       0.06091677 </v>
   <v>       0.70294952       0.10131631       0.97970597 </v>
   <v>       0.19413703       0.02717666       0.28908407 </v>
   <v>       0.53739133       0.12144404       0.88772998 </v>
   <v>       0.66641192       0.92161291       0.57258311 </v>
   <v>       0.11934946       0.23182319       0.14799755 </v>
   <v>       0.75163591       0.59486373       0.34003869 </v>
   <v>       0.24304058       0.38465802       0.90820674 </v>
   <v>       0.76939541       0.44562454       0.98032773 </v>
   <v>       0.35518657       0.64379500       0.74646458 </v>
   <v>       0.25616233       0.74292304       0.07548699 </v>
   <v>       0.62796545       0.61152762       0.60258073 </v>
   <v>       0.50998643       0.80960160       0.37550714 </v>
   <v>       0.98525748       0.12735274       0.36745480 </v>
   <v>       0.09413149       0.66559267       0.65119333 </v>
   <v>       0.25636606       0.76237554       0.29841733 </v>
   <v>       0.19010674       0.13748373       0.81804753 </v>
   <v>       0.46881061       0.84465177       0.72487278 </v>
   <v>       0.86060623       0.48421302       0.65252403 </v>
   <v>       0.85410309       0.16107920       0.53799076 </v>
   <v>       0.19308865       0.93967761       0.58804461 </v>
   <v>       0.11208106       0.40466212       0.40943549 </v>
   <v>       0.49502503       0.37659771       0.19110162 </v>
   <v>       0.97189571       0.91291900       0.48129913 </v>
   <v>       0.74311437       0.30498599       0.29867259 </v>
   <v>       0.26310036       0.49735834       0.18174362 </v>
   <v>       0.69032980       0.30717458       0.76344409 </v>
   <v>       0.98158831       0.97508594       0.15662440 </v>
   <v>       0.90149942       0.70027844       0.54761569 </v>
   <v>       0.11796999       0.39931703       0.70257716 </v>
   <v>       0.95847176       0.19244324       0.96491213 </v>
   <v>       0.95494964       0.68785837       0.87051303 </v>
   <v>       0.43965587       0.52651437       0.97636362 </v>
   <v>       0.52419613       0.41362485       0.81799597 </v>
   <v>       0.58539045       0.67966602       0.13643752 </v>
   <v>       0.43744347       0.57509184       0.35129744 </v>
   <v>       0.72610117       0.35237904       0.49893383 </v>
   <v>       0.34573344       0.70142079       0.53100793 </v>
   <v>       0.91467217       0.81388457       0.30296901 </v>
   <v>       0.92169331       0.43983381       0.26778691 </v>
   <v>       0.33278993       0.22554800       0.11417648 </v>
   <v>       0.71387665       0.80770685       0.84957240 </v>
   <v>       0.62503920       0.14808275       0.16964294 </v>
   <v>       0.19892420       0.22237688       0.60692504 </v>
   <v>       0.47852291       0.78689099       0.91347192 </v>
   <v>       0.54500526       0.08150909       0.38537057 </v>
   <v>       0.06787863       0.89522335       0.88035747 </v>
   <v>       0.85760381       0.98913424       0.80839347 </v>
   <v>       0.44771985       0.02099189       0.16496923 </v>
   <v>       0.42838994       0.09911490       0.64134355 </v>
   <v>       0.48618104       0.28699546       0.79489509 </v>
   <v>       0.66064214       0.03997318       0.40598334 </v>
   <v>       0.84721871       0.95098095       0.48156584 </v>
   <v>       0.56741581       0.75561151       0.02451356 </v>
   <v>       0.54856511       0.01835087       0.69166868 </v>
   <v>       0.46368045       0.13921774       0.48743617 </v>
   <v>       0.78488980       0.38454004       0.80099384 </v>
   <v>       0.31987757       0.54260203       0.56017017 </v>
   <v>       0.35388602       0.88522352       0.23072926 </v>
   <v>       0.67200670       0.27790172       0.61851894 </v>
   <v>       0.63383906       0.40128597       0.87720450 </v>
   <v>       0.46347412       0.98251901       0.36453951 </v>
   <v>       0.47647269       0.64832569       0.21155415 </v>
   <v>       0.43395270       0.64619746       0.93220730 </v>
   <v>       0.73987191       0.49059153       0.47922310 </v>
   <v>       0.23629445       0.30536494       0.74198168 </v>
   <v>       0.06861579       0.76588140       0.87812174 </v>
   <v>       0.51194786       0.14589047       0.04766381 </v>
   <v>       0.76405053       0.94495443       0.91474079 </v>
   <v>       0.30043874       0.32996266       0.22534281 </v>
   <v>       0.55731970       0.96026882       0.12547904 </v>
   <v>       0.95783508       0.30401680       0.22321736 </v>
   <v>       0.25361296       0.75973723       0.65600891 </v>
   <v>       0.90351866       0.09835360       0.87828221 </v>
   <v>       0.71921302       0.05113223       0.18158802 </v>
   <v>       0.43135172       0.73774632       0.61643962 </v>
   <v>       0.05340893       0.07238631       0.14754654 </v>
   <v>       0.94610462       0.47273042       0.39752993 </v>
   <v>       0.83321810       0.05614522       0.69178102 </v>
   <v>       0.09906831       0.88084796       0.20740426 </v>
   <v>       0.27288676       0.13519918       0.55734323 </v>
   <v>       0.18050639       0.18159065       0.33111392 </v>
   <v>       0.33095599       0.54765961       0.27811959 </v>
   <v>       0.27679828       0.15417560       0.97685039 </v>
   <v>       0.01259831       0.80275664       0.57099608 </v>
   <v>       0.39095224       0.34488961       0.04310261 </v>
   <v>       0.25624147       0.33135661       0.55080146 </v>
   <v>       0.81147628       0.74091401       0.93067723 </v>
   <v>       0.07036065       0.25857127       0.99950210 </v>
   <v>       0.79016475       0.41636942       0.23444729 </v>
   <v>       0.71669143       0.87466718       0.73244800 </v>
   <v>       0.63533409       0.30254645       0.39306659 </v>
   <v>       0.14052799       0.45655914       0.22131849 </v>
   <v>       0.93112526       0.52614370       0.17649301 </v>
   <v>       0.95906745       0.59088872       0.95305074 </v>
   <v>       0.08628400       0.18289475       0.63165935 </v>
   <v>       0.95495921       0.63312030       0.75593097 </v>
   <v>       0.90913458       0.96515157       0.27689522 </v>
   <v>       0.08348100       0.45176202       0.59906781 </v>
   <v>       0.77944353       0.67742305       0.63992260 </v>
   <v>       0.97731338       0.60323696       0.53669233 </v>
   <v>       0.09510362       0.00139700       0.47023164 </v>
   <v>       0.85897360       0.73446204       0.22522678 </v>
   <v>       0.65887164       0.28607180       0.19447154 </v>
   <v>       0.33387966       0.09646038       0.12861259 </v>
   <v>       0.33635804       0.08072345       0.76684382 </v>
   <v>       0.34809739       0.78974523       0.89365025 </v>
   <v>       0.52465456       0.16950842       0.27536323 </v>
   <v>       0.57438061       0.64398218       0.43063081 </v>
   <v>       0.03394636       0.79033127       0.37859680 </v>
   <v>       0.82231467       0.20919545       0.37796734 </v>
   <v>       0.37506860       0.68734595       0.41578638 </v>
   <v>       0.16630925       0.64639212       0.19325691 </v>
   <v>       0.08398888       0.94191290       0.00620960 </v>
   <v>       0.29676293       0.82006282       0.48381595 </v>
   <v>       0.48156843       0.44365811       0.37465930 </v>
   <v>       0.59762611       0.71545303       0.81028162 </v>
   <v>       0.71131632       0.68270897       0.17040579 </v>
   <v>       0.16815576       0.95033882       0.79873925 </v>
   <v>       0.85182519       0.32747573       0.55654141 </v>
   <v>       0.31341403       0.55792901       0.04068399 </v>
   <v>       0.86552366       0.27791681       0.96998433 </v>
   <v>       0.84494721       0.75094438       0.43495238 </v>
   <v>       0.15871436       0.51628022       0.78894523 </v>
   <v>       0.96165953       0.92233893       0.79189684 </v>
   <v>       0.52919291       0.91790920       0.90110513 </v>
   <v>       0.68049357       0.18189379       0.82925921 </v>
   <v>       0.39447711       0.46421805       0.86476684 </v>
   <v>       0.52842167       0.50101688       0.73383070 </v>
   <v>       0.88890494       0.91511712       0.08531135 </v>
   <v>       0.51876801       0.51852063       0.09221458 </v>
  </varray>
  <varray name="velocities" >
   <v>       0.00000000       0.00000000       0.00000000 </v>
   <v>       0.00000000       0.00000000       0.00000000 </v>
   <v>       0.00000000       0.00000000       0.00000000 </v>
   <v>       0.00000000       0.00000000       0.00000000 </v>
   <v>       0.00000000       0.00000000       0.00000000 </v>
   <v>       0.00000000       0.00000000       0.00000000 </v>
   <v>       0.00000000       0.00000000       0.00000000 </v>
   <v>       0.00000000       0.00000000       0.00000000 </v>
   <v>       0.00000000       0.00000000       0.00000000 </v>
   <v>       0.00000000       0.00000000       0.00000000 </v>
   <v>       0.00000000       0.00000000       0.00000000 </v>
   <v>       0.00000000       0.00000000       0.00000000 </v>
   <v>       0.00000000       0.00000000       0.00000000 </v>
   <v>       0.00000000       0.00000000       0.00000000 </v>
   <v>       0.00000000       0.00000000       0.00000000 </v>
   <v>       0.00000000       0.00000000       0.00000000 </v>
   <v>       0.00000000       0.00000000       0.00000000 </v>
   <v>       0.00000000       0.00000000       0.00000000 </v>
   <v>       0.00000000       0.00000000       0.00000000 </v>
   <v>       0.00000000       0.00000000       0.00000000 </v>
   <v>       0.00000000       0.00000000       0.00000000 </v>
   <v>       0.00000000       0.00000000       0.00000000 </v>
   <v>       0.00000000       0.00000000       0.00000000 </v>
   <v>       0.00000000       0.00000000       0.00000000 </v>
   <v>       0.00000000       0.00000000       0.00000000 </v>
   <v>       0.00000000       0.00000000       0.00000000 </v>
   <v>       0.00000000       0.00000000       0.00000000 </v>
   <v>       0.00000000       0.00000000       0.00000000 </v>
   <v>       0.00000000       0.00000000       0.00000000 </v>
   <v>       0.00000000       0.00000000       0.00000000 </v>
   <v>       0.00000000       0.00000000       0.00000000 </v>
   <v>       0.00000000       0.00000000       0.00000000 </v>
   <v>       0.00000000       0.00000000       0.00000000 </v>
   <v>       0.00000000       0.00000000       0.00000000 </v>
   <v>       0.00000000       0.00000000       0.00000000 </v>
   <v>       0.00000000       0.00000000       0.00000000 </v>
   <v>       0.00000000       0.00000000       0.00000000 </v>
   <v>       0.00000000       0.00000000       0.00000000 </v>
   <v>       0.00000000       0.00000000       0.00000000 </v>
   <v>       0.00000000       0.00000000       0.00000000 </v>
   <v>       0.00000000       0.00000000       0.00000000 </v>
   <v>       0.00000000       0.00000000       0.00000000 </v>
   <v>       0.00000000       0.00000000       0.00000000 </v>
   <v>       0.00000000       0.00000000       0.00000000 </v>
   <v>       0.00000000       0.00000000       0.00000000 </v>
   <v>       0.00000000       0.00000000       0.00000000 </v>
   <v>       0.00000000       0.00000000       0.00000000 </v>
   <v>       0.00000000       0.00000000       0.00000000 </v>
   <v>       0.00000000       0.00000000       0.00000000 </v>
   <v>       0.00000000       0.00000000       0.00000000 </v>
   <v>       0.00000000       0.00000000       0.00000000 </v>
   <v>       0.00000000       0.00000000       0.00000000 </v>
   <v>       0.00000000       0.00000000       0.00000000 </v>
   <v>       0.00000000       0.00000000       0.00000000 </v>
   <v>       0.00000000       0.00000000       0.00000000 </v>
   <v>       0.00000000       0.00000000       0.00000000 </v>
   <v>       0.00000000       0.00000000       0.00000000 </v>
   <v>       0.00000000       0.00000000       0.00000000 </v>
   <v>       0.00000000       0.00000000       0.00000000 </v>
   <v>       0.00000000       0.00000000       0.00000000 </v>
   <v>       0.00000000       0.00000000       0.00000000 </v>
   <v>       0.00000000       0.00000000       0.00000000 </v>
   <v>       0.00000000       0.00000000       0.00000000 </v>
   <v>       0.00000000       0.00000000       0.00000000 </v>
   <v>       0.00000000       0.00000000       0.00000000 </v>
   <v>       0.00000000       0.00000000       0.00000000 </v>
   <v>       0.00000000       0.00000000       0.00000000 </v>
   <v>       0.00000000       0.00000000       0.00000000 </v>
   <v>       0.00000000       0.00000000       0.00000000 </v>
   <v>       0.00000000       0.00000000       0.00000000 </v>
   <v>       0.00000000       0.00000000       0.00000000 </v>
   <v>       0.00000000       0.00000000       0.00000000 </v>
   <v>       0.00000000       0.00000000       0.00000000 </v>
   <v>       0.00000000       0.00000000       0.00000000 </v>
   <v>       0.00000000       0.00000000       0.00000000 </v>
   <v>       0.00000000       0.00000000       0.00000000 </v>
   <v>       0.00000000       0.00000000       0.00000000 </v>
   <v>       0.00000000       0.00000000       0.00000000 </v>
   <v>       0.00000000       0.00000000       0.00000000 </v>
   <v>       0.00000000       0.00000000       0.00000000 </v>
   <v>       0.00000000       0.00000000       0.00000000 </v>
   <v>       0.00000000       0.00000000       0.00000000 </v>
   <v>       0.00000000       0.00000000       0.00000000 </v>
   <v>       0.00000000       0.00000000       0.00000000 </v>
   <v>       0.00000000       0.00000000       0.00000000 </v>
   <v>       0.00000000       0.00000000       0.00000000 </v>
   <v>       0.00000000       0.00000000       0.00000000 </v>
   <v>       0.00000000       0.00000000       0.00000000 </v>
   <v>       0.00000000       0.00000000       0.00000000 </v>
   <v>       0.00000000       0.00000000       0.00000000 </v>
   <v>       0.00000000       0.00000000       0.00000000 </v>
   <v>       0.00000000       0.00000000       0.00000000 </v>
   <v>       0.00000000       0.00000000       0.00000000 </v>
   <v>       0.00000000       0.00000000       0.00000000 </v>
   <v>       0.00000000       0.00000000       0.00000000 </v>
   <v>       0.00000000       0.00000000       0.00000000 </v>
   <v>       0.00000000       0.00000000       0.00000000 </v>
   <v>       0.00000000       0.00000000       0.00000000 </v>
   <v>       0.00000000       0.00000000       0.00000000 </v>
   <v>       0.00000000       0.00000000       0.00000000 </v>
   <v>       0.00000000       0.00000000       0.00000000 </v>
   <v>       0.00000000       0.00000000       0.00000000 </v>
   <v>       0.00000000       0.00000000       0.00000000 </v>
   <v>       0.00000000       0.00000000       0.00000000 </v>
   <v>       0.00000000       0.00000000       0.00000000 </v>
   <v>       0.00000000       0.00000000       0.00000000 </v>
   <v>       0.00000000       0.00000000       0.00000000 </v>
   <v>       0.00000000       0.00000000       0.00000000 </v>
   <v>       0.00000000       0.00000000       0.00000000 </v>
   <v>       0.00000000       0.00000000       0.00000000 </v>
   <v>       0.00000000       0.00000000       0.00000000 </v>
   <v>       0.00000000       0.00000000       0.00000000 </v>
   <v>       0.00000000       0.00000000       0.00000000 </v>
   <v>       0.00000000       0.00000000       0.00000000 </v>
   <v>       0.00000000       0.00000000       0.00000000 </v>
   <v>       0.00000000       0.00000000       0.00000000 </v>
   <v>       0.00000000       0.00000000       0.00000000 </v>
   <v>       0.00000000       0.00000000       0.00000000 </v>
   <v>       0.00000000       0.00000000       0.00000000 </v>
   <v>       0.00000000       0.00000000       0.00000000 </v>
   <v>       0.00000000       0.00000000       0.00000000 </v>
   <v>       0.00000000       0.00000000       0.00000000 </v>
   <v>       0.00000000       0.00000000       0.00000000 </v>
   <v>       0.00000000       0.00000000       0.00000000 </v>
   <v>       0.00000000       0.00000000       0.00000000 </v>
   <v>       0.00000000       0.00000000       0.00000000 </v>
   <v>       0.00000000       0.00000000       0.00000000 </v>
   <v>       0.00000000       0.00000000       0.00000000 </v>
   <v>       0.00000000       0.00000000       0.00000000 </v>
   <v>       0.00000000       0.00000000       0.00000000 </v>
   <v>       0.00000000       0.00000000       0.00000000 </v>
   <v>       0.00000000       0.00000000       0.00000000 </v>
   <v>       0.00000000       0.00000000       0.00000000 </v>
   <v>       0.00000000       0.00000000       0.00000000 </v>
   <v>       0.00000000       0.00000000       0.00000000 </v>
  </varray>
 </structure>
</modeling>
