 vasp.5.4.4.18Apr17-6-g9f103f2a35 (build Oct 31 2019 15:01:46) complex          
  
 executed on             LinuxIFC date 2024.04.29  17:39:33
 running on   52 total cores
 distrk:  each k-point on   52 cores,    1 groups
 distr:  one band on NCORES_PER_BAND=  13 cores,    4 groups


--------------------------------------------------------------------------------------------------------


 INCAR:
 POTCAR:    PAW_PBE Ca_sv 06Sep2000               
 POTCAR:    PAW_PBE Si 05Jan2001                  
 POTCAR:    PAW_PBE O 08Apr2002                   
 POTCAR:    PAW_PBE Ca_sv 06Sep2000               
   SHA256 =  a47365830e737f14e0e6c5cf1ed81b94e081eecf0a33df105380881bc9da05d5 Ca
   COPYR  = (c) Copyright 06Sep2000 Georg Kresse                                
   COPYR  = This file is part of the software VASP. Any use, copying, and all ot
   COPYR  = If you do not have a valid VASP license, you may not use, copy or di
   VRHFIN =Ca: 3s3p4s                                                           
   LEXCH  = PE                                                                  
   EATOM  =  1006.0909 eV,   73.9456 Ry                                         
                                                                                
   TITEL  = PAW_PBE Ca_sv 06Sep2000                                             
   LULTRA =        F    use ultrasoft PP ?                                      
   IUNSCR =        1    unscreen: 0-lin 1-nonlin 2-no                           
   RPACOR =    2.000    partial core radius                                     
   POMASS =   40.078; ZVAL   =   10.000    mass and valenz                      
   RCORE  =    2.300    outmost cutoff radius                                   
   RWIGS  =    2.500; RWIGS  =    1.323    wigner-seitz radius (au A)           
   ENMAX  =  266.622; ENMIN  =  199.967 eV                                      
   RCLOC  =    1.808    cutoff for local pot                                    
   LCOR   =        T    correct aug charges                                     
   LPAW   =        T    paw PP                                                  
   EAUG   =  420.852                                                            
   RMAX   =    2.359    core radius for proj-oper                               
   RAUG   =    1.300    factor for augmentation sphere                          
   RDEP   =    2.392    radius for radial grids                                 
   RDEPT  =    1.987    core radius for aug-charge                              
                                                                                
   Atomic configuration                                                         
    7 entries                                                                   
     n  l   j            E        occ.                                          
     1  0  0.50     -3949.1705   2.0000                                         
     2  0  0.50      -414.3434   2.0000                                         
     2  1  1.50      -334.7047   6.0000                                         
     3  0  0.50       -47.0896   2.0000                                         
     4  0  0.50        -3.7663   2.0000                                         
     3  1  1.50       -28.0061   6.0000                                         
     3  2  1.50        -4.0817   0.0000                                         
   Description                                                                  
     l       E           TYP  RCUT    TYP  RCUT                                 
     0    -47.0896403     23  2.300                                             
     0     -3.7663320     23  2.300                                             
     1    -28.0060855     23  2.300                                             
     1      6.8029130     23  2.300                                             
     2     -4.0817478     23  2.300                                             
     2      0.4464412     23  2.300                                             
  local pseudopotential read in
  partial core-charges read in
  partial kinetic energy density read in
  atomic valenz-charges read in
  non local Contribution for L=           0  read in
    real space projection operators read in
  non local Contribution for L=           0  read in
    real space projection operators read in
  non local Contribution for L=           1  read in
    real space projection operators read in
  non local Contribution for L=           1  read in
    real space projection operators read in
  non local Contribution for L=           2  read in
    real space projection operators read in
  non local Contribution for L=           2  read in
    real space projection operators read in
    PAW grid and wavefunctions read in
 
   number of l-projection  operators is LMAX  =           6
   number of lm-projection operators is LMMAX =          18
 
 POTCAR:    PAW_PBE Si 05Jan2001                  
   SHA256 =  79d9987ad8750f624c4d6acb2a16d13abf6a777132adc04dc6c8399be72b42bb Si
   COPYR  = (c) Copyright 05Jan2001 Georg Kresse                                
   COPYR  = This file is part of the software VASP. Any use, copying, and all ot
   COPYR  = If you do not have a valid VASP license, you may not use, copy or di
   VRHFIN =Si: s2p2                                                             
   LEXCH  = PE                                                                  
   EATOM  =   103.0669 eV,    7.5752 Ry                                         
                                                                                
   TITEL  = PAW_PBE Si 05Jan2001                                                
   LULTRA =        F    use ultrasoft PP ?                                      
   IUNSCR =        1    unscreen: 0-lin 1-nonlin 2-no                           
   RPACOR =    1.500    partial core radius                                     
   POMASS =   28.085; ZVAL   =    4.000    mass and valenz                      
   RCORE  =    1.900    outmost cutoff radius                                   
   RWIGS  =    2.480; RWIGS  =    1.312    wigner-seitz radius (au A)           
   ENMAX  =  245.345; ENMIN  =  184.009 eV                                      
   ICORE  =        2    local potential                                         
   LCOR   =        T    correct aug charges                                     
   LPAW   =        T    paw PP                                                  
   EAUG   =  322.069                                                            
   DEXC   =    0.000                                                            
   RMAX   =    1.950    core radius for proj-oper                               
   RAUG   =    1.300    factor for augmentation sphere                          
   RDEP   =    1.993    radius for radial grids                                 
   RDEPT  =    1.837    core radius for aug-charge                              
                                                                                
   Atomic configuration                                                         
    6 entries                                                                   
     n  l   j            E        occ.                                          
     1  0  0.50     -1785.8828   2.0000                                         
     2  0  0.50      -139.4969   2.0000                                         
     2  1  1.50       -95.5546   6.0000                                         
     3  0  0.50       -10.8127   2.0000                                         
     3  1  0.50        -4.0811   2.0000                                         
     3  2  1.50        -4.0817   0.0000                                         
   Description                                                                  
     l       E           TYP  RCUT    TYP  RCUT                                 
     0    -10.8127223     23  1.900                                             
     0     -7.6451159     23  1.900                                             
     1     -4.0811372     23  1.900                                             
     1      2.4879257     23  1.900                                             
     2     -4.0817478      7  1.900                                             
  local pseudopotential read in
  partial core-charges read in
  partial kinetic energy density read in
  atomic valenz-charges read in
  non local Contribution for L=           0  read in
    real space projection operators read in
  non local Contribution for L=           0  read in
    real space projection operators read in
  non local Contribution for L=           1  read in
    real space projection operators read in
  non local Contribution for L=           1  read in
    real space projection operators read in
    PAW grid and wavefunctions read in
 
   number of l-projection  operators is LMAX  =           4
   number of lm-projection operators is LMMAX =           8
 
 POTCAR:    PAW_PBE O 08Apr2002                   
   SHA256 =  818f92134a0a090dccd8ba1447fa70422a3b330e708bb4f08108d8ae51209ddf O/
   COPYR  = (c) Copyright 08Apr2002 Georg Kresse                                
   COPYR  = This file is part of the software VASP. Any use, copying, and all ot
   COPYR  = If you do not have a valid VASP license, you may not use, copy or di
   VRHFIN =O: s2p4                                                              
   LEXCH  = PE                                                                  
   EATOM  =   432.3788 eV,   31.7789 Ry                                         
                                                                                
   TITEL  = PAW_PBE O 08Apr2002                                                 
   LULTRA =        F    use ultrasoft PP ?                                      
   IUNSCR =        1    unscreen: 0-lin 1-nonlin 2-no                           
   RPACOR =    1.200    partial core radius                                     
   POMASS =   16.000; ZVAL   =    6.000    mass and valenz                      
   RCORE  =    1.520    outmost cutoff radius                                   
   RWIGS  =    1.550; RWIGS  =    0.820    wigner-seitz radius (au A)           
   ENMAX  =  400.000; ENMIN  =  300.000 eV                                      
   ICORE  =        2    local potential                                         
   LCOR   =        T    correct aug charges                                     
   LPAW   =        T    paw PP                                                  
   EAUG   =  605.392                                                            
   DEXC   =    0.000                                                            
   RMAX   =    1.553    core radius for proj-oper                               
   RAUG   =    1.300    factor for augmentation sphere                          
   RDEP   =    1.550    radius for radial grids                                 
   RDEPT  =    1.329    core radius for aug-charge                              
                                                                                
   Atomic configuration                                                         
    4 entries                                                                   
     n  l   j            E        occ.                                          
     1  0  0.50      -514.6923   2.0000                                         
     2  0  0.50       -23.9615   2.0000                                         
     2  1  0.50        -9.0305   4.0000                                         
     3  2  1.50        -9.5241   0.0000                                         
   Description                                                                  
     l       E           TYP  RCUT    TYP  RCUT                                 
     0    -23.9615318     23  1.200                                             
     0     -9.5240782     23  1.200                                             
     1     -9.0304911     23  1.520                                             
     1      8.1634956     23  1.520                                             
     2     -9.5240782      7  1.500                                             
  local pseudopotential read in
  partial core-charges read in
  partial kinetic energy density read in
  kinetic energy density of atom read in
  atomic valenz-charges read in
  non local Contribution for L=           0  read in
    real space projection operators read in
  non local Contribution for L=           0  read in
    real space projection operators read in
  non local Contribution for L=           1  read in
    real space projection operators read in
  non local Contribution for L=           1  read in
    real space projection operators read in
    PAW grid and wavefunctions read in
 
   number of l-projection  operators is LMAX  =           4
   number of lm-projection operators is LMMAX =           8
 
 Optimization of the real space projectors (new method)

 maximal supplied QI-value         = 16.25
 optimisation between [QCUT,QGAM] = [ 12.51, 25.03] = [ 43.85,175.40] Ry 
 Optimized for a Real-space Cutoff    1.47 Angstroem

   l    n(q)    QCUT    max X(q) W(low)/X(q) W(high)/X(q)  e(spline) 
   0     11    12.514    11.817    0.25E-04    0.32E-05    0.87E-07
   0     11    12.514     8.461    0.39E-04    0.59E-05    0.18E-06
   1     11    12.514     3.957    0.97E-05    0.57E-05    0.28E-07
   1     11    12.514     4.314    0.42E-04    0.14E-04    0.23E-06
   2     10    12.514    14.565    0.79E-04    0.50E-03    0.16E-05
   2     10    12.514    14.552    0.75E-04    0.48E-03    0.15E-05
 Optimization of the real space projectors (new method)

 maximal supplied QI-value         = 19.84
 optimisation between [QCUT,QGAM] = [ 12.50, 25.00] = [ 43.76,175.03] Ry 
 Optimized for a Real-space Cutoff    1.16 Angstroem

   l    n(q)    QCUT    max X(q) W(low)/X(q) W(high)/X(q)  e(spline) 
   0      9    12.501   159.560    0.10E-03    0.83E-04    0.71E-07
   0      9    12.501   115.863    0.99E-04    0.81E-04    0.70E-07
   1      8    12.501    88.339    0.20E-03    0.25E-03    0.76E-07
   1      8    12.501    48.592    0.20E-03    0.24E-03    0.75E-07
 Optimization of the real space projectors (new method)

 maximal supplied QI-value         = 24.76
 optimisation between [QCUT,QGAM] = [ 12.38, 25.00] = [ 42.90,175.06] Ry 
 Optimized for a Real-space Cutoff    1.16 Angstroem

   l    n(q)    QCUT    max X(q) W(low)/X(q) W(high)/X(q)  e(spline) 
   0      9    12.378    20.381    0.16E-03    0.67E-05    0.31E-06
   0      9    12.378    15.268    0.17E-03    0.81E-05    0.33E-06
   1      8    12.378     5.964    0.20E-03    0.16E-03    0.30E-06
   1      8    12.378     5.382    0.18E-03    0.14E-03    0.26E-06
  PAW_PBE Ca_sv 06Sep2000               :
 energy of atom  1       EATOM=-1006.0909
 kinetic energy error for atom=    0.0012 (will be added to EATOM!!)
  PAW_PBE Si 05Jan2001                  :
 energy of atom  2       EATOM= -103.0669
 kinetic energy error for atom=    0.0003 (will be added to EATOM!!)
  PAW_PBE O 08Apr2002                   :
 energy of atom  3       EATOM= -432.3788
 kinetic energy error for atom=    0.0168 (will be added to EATOM!!)
 
 
 POSCAR: Ca Si  O                                
  positions in direct lattice
  No initial velocities read in
 exchange correlation table for  LEXCH =        8
   RHO(1)=    0.500       N(1)  =     2000
   RHO(2)=  100.500       N(2)  =     4000
 


--------------------------------------------------------------------------------------------------------


 ion  position               nearest neighbor table
   1  0.554  0.197  0.806-  85 2.00 103 2.37  67 2.57  37 2.72  30 2.76
   2  0.008  0.112  0.557- 127 2.20  62 2.30 131 2.52 101 2.54  29 3.02  18 3.04  26 3.12
   3  0.179  0.253  0.097- 108 2.35 125 2.50
   4  0.302  0.443  0.769-  67 2.00  96 2.11  55 2.39 133 2.41  53 2.76
   5  0.312  0.111  0.639- 119 2.12  62 2.23 104 2.24 117 2.55  15 2.89  33 2.98
   6  0.450  0.855  0.204-  75 2.03  66 2.24
   7  0.373  0.621  0.372- 124 2.10 128 2.23  56 2.37  82 2.39  49 2.82  41 3.09  20 3.14
   8  0.149  0.323  0.350-  58 1.90 125 2.08  74 2.27  68 2.34 113 2.54  50 2.74  38 2.75  29 2.93
                            41 3.00
   9  0.480  0.808  0.859- 132 2.22  65 2.23  69 2.32  53 2.75
  10  0.893  0.979  0.086- 107 2.04  64 2.38  94 2.40  92 2.51 102 2.55  51 2.93  34 3.04  24 3.16

  11  0.513  0.579  0.121-  82 2.21  65 2.27  73 2.55 128 2.57
  12  0.686  0.923  0.422- 114 2.29  80 2.34  57 2.37  66 2.53  39 3.16  26 3.17
  13  0.118  0.640  0.871- 135 2.29
  14  0.042  0.411  0.619-  95 1.86  68 2.12  90 2.49  87 2.52  32 2.67
  15  0.163  0.980  0.757- 127 2.08 109 2.46 121 2.48  62 2.48  98 2.55   5 2.89  33 2.94
  16  0.096  0.633  0.124-  89 2.26 135 2.40 129 2.52
  17  0.709  0.881  0.674-  57 2.02  78 2.09  59 2.32  36 2.79
  18  0.002  0.885  0.471-  60 2.12 127 2.38 122 2.39 115 2.47   2 3.04  23 3.08  28 3.09
  19  0.653  0.442  0.776-  71 1.94  77 2.18  85 2.45  52 3.08
  20  0.470  0.639  0.602-  59 2.13 124 2.13  81 2.19 111 2.25  56 2.57  49 2.79  36 2.81  35 2.89
                             7 3.14
  21  0.944  0.409  0.967- 135 2.10 130 2.27  97 2.34
  22  0.808  0.495  0.566-  79 2.16 120 2.19  90 2.22  39 2.81
  23  0.977  0.779  0.691-  60 2.45  86 2.48 127 2.54  32 2.85  18 3.08
  24  0.671  0.981  0.966- 107 2.15  94 2.21 126 2.44  51 2.52  10 3.16
  25  0.478  0.076  0.397- 117 2.42  93 2.48 112 2.52  80 2.56  48 3.13
  26  0.775  0.152  0.481-  80 2.02 131 2.18 101 2.44  88 2.46  52 3.11   2 3.12  12 3.17
  27  0.562  0.313  0.211- 106 1.78  73 2.30 118 2.43  42 2.47  48 2.71  41 2.79
  28  0.229  0.902  0.375-  75 1.56  83 1.62 122 1.67  34 2.94  18 3.09
  29  0.030  0.124  0.317- 102 1.48  88 1.51  58 1.68   8 2.93  34 2.99   2 3.02
  30  0.425  0.293  0.956-  76 1.83 103 1.85 108 1.90  67 2.06  77 2.24   1 2.76  44 3.09
  31  0.732  0.809  0.200- 100 1.58  66 1.59  64 1.89  70 1.90  40 2.63
  32  0.086  0.615  0.576-  95 1.58  90 1.68 134 1.75  56 2.46  35 2.55  14 2.67  43 2.74  23 2.85

  33  0.154  0.213  0.784-  62 1.58  55 1.70 123 1.74 104 2.24  54 2.60  15 2.94   5 2.98
  34  0.118  0.955  0.175-  92 1.59 116 1.68 102 1.84 122 1.85  45 2.68  28 2.94  29 2.99  10 3.04

  35  0.254  0.710  0.641-  56 1.66 111 1.67  98 1.71  32 2.55  20 2.89
  36  0.497  0.862  0.605-  59 1.64  57 1.69 119 1.80 111 1.95  99 1.96  17 2.79  20 2.81
  37  0.694  0.268  0.956- 105 1.76  97 1.94  77 2.05 103 2.30  42 2.67   1 2.72
  38  0.309  0.331  0.500- 113 1.47 133 1.74  68 1.76 117 1.97   8 2.75  41 3.03  47 3.14
  39  0.785  0.696  0.470- 114 1.53 120 1.67  63 1.83  60 1.88  49 2.58  22 2.81  12 3.16
  40  0.715  0.724  0.009-  64 1.68  84 1.85  69 1.89  91 1.90  70 2.03  46 2.50  31 2.63
  41  0.364  0.395  0.273- 106 1.53 128 1.55  74 1.63 113 1.98  27 2.79   8 3.00  38 3.03   7 3.09

  42  0.744  0.351  0.146-  73 1.54  97 1.67 118 1.88  61 1.92  27 2.47  37 2.67
  43  0.013  0.640  0.371- 115 1.41 134 1.58  63 1.71  89 2.19  32 2.74  50 2.98
  44  0.369  0.055  0.927- 132 1.65  72 1.74 104 1.80 108 2.03  30 3.09
  45  0.209  0.872  1.000-  72 1.53 129 1.59 109 1.70 116 2.11  92 2.16  34 2.68
  46  0.811  0.642  0.854-  86 1.55  91 1.78  84 1.79 110 1.85  40 2.50
  47  0.546  0.317  0.581- 112 1.55  71 1.70  85 2.02 133 2.19  38 3.14
  48  0.655  0.119  0.227- 118 1.57  93 1.58  80 1.75  94 1.80  27 2.71  25 3.13
  49  0.589  0.665  0.416- 124 1.50 114 1.61  82 1.98  99 2.02 120 2.06  39 2.58  20 2.79   7 2.82

  50  0.961  0.421  0.295-  61 1.57  89 1.61  87 1.68 125 1.89   8 2.74  43 2.98
  51  0.841  0.004  0.860- 107 1.58  78 1.64 121 1.82 126 1.95  24 2.52  54 2.54  10 2.93
  52  0.790  0.248  0.710-  79 1.67 101 1.70 105 1.78  85 1.81  19 3.08  26 3.11
  53  0.391  0.609  0.884-  96 1.58  81 1.65  65 1.66   9 2.75   4 2.76
  54  0.003  0.121  0.893- 123 1.55 121 1.59 130 1.61  51 2.54  33 2.60
  55  0.146  0.345  0.817-  33 1.70   4 2.39
  56  0.277  0.636  0.534-  35 1.66   7 2.37  32 2.46  20 2.57
  57  0.594  0.953  0.585-  36 1.69  17 2.02  12 2.37
  58  0.126  0.180  0.393-  29 1.68   8 1.90
  59  0.564  0.766  0.664-  36 1.64  20 2.13  17 2.32
  60  0.865  0.807  0.533-  39 1.88  18 2.12  23 2.45
  61  0.849  0.387  0.252-  50 1.57  42 1.92
  62  0.144  0.158  0.672-  33 1.58   5 2.23   2 2.30  15 2.48
  63  0.877  0.627  0.380-  43 1.71  39 1.83
  64  0.790  0.822  0.061-  40 1.68  31 1.89  10 2.38
  65  0.479  0.665  0.965-  53 1.66   9 2.23  11 2.27
  66  0.625  0.866  0.237-  31 1.59   6 2.24  12 2.53
  67  0.382  0.308  0.798-   4 2.00  30 2.06   1 2.57
  68  0.174  0.351  0.533-  38 1.76  14 2.12   8 2.34
  69  0.584  0.798  0.012-  40 1.89   9 2.32
  70  0.711  0.665  0.160-  31 1.90  40 2.03
  71  0.602  0.431  0.630-  47 1.70  19 1.94
  72  0.285  0.945  0.937-  45 1.53  44 1.74
  73  0.664  0.442  0.129-  42 1.54  27 2.30  11 2.55
  74  0.301  0.281  0.260-  41 1.63   8 2.27
  75  0.331  0.866  0.314-  28 1.56   6 2.03
  76  0.386  0.384  0.064-  30 1.83
  77  0.578  0.379  0.920-  37 2.05  19 2.18  30 2.24
  78  0.834  0.899  0.782-  51 1.64  17 2.09
  79  0.774  0.331  0.606-  52 1.67  22 2.16
  80  0.678  0.100  0.363-  48 1.75  26 2.02  12 2.34  25 2.56
  81  0.457  0.594  0.771-  53 1.65  20 2.19
  82  0.527  0.671  0.271-  49 1.98  11 2.21   7 2.39
  83  0.245  0.927  0.500-  28 1.62
  84  0.786  0.597  0.987-  46 1.79  40 1.85
  85  0.647  0.264  0.694-  52 1.81   1 2.00  47 2.02  19 2.45
  86  0.900  0.728  0.866-  46 1.55  23 2.48
  87  0.980  0.417  0.428-  50 1.68  14 2.52
  88  0.922  0.097  0.364-  29 1.51  26 2.46
  89  0.027  0.519  0.246-  50 1.61  43 2.19  16 2.26
  90  0.955  0.588  0.594-  32 1.68  22 2.22  14 2.49
  91  0.697  0.727  0.858-  46 1.78  40 1.90
  92  0.064  0.874  0.092-  34 1.59  45 2.16  10 2.51
  93  0.531  0.108  0.209-  48 1.58  25 2.48
  94  0.713  0.029  0.130-  48 1.80  24 2.21  10 2.40
  95  0.150  0.512  0.609-  32 1.58  14 1.86
  96  0.302  0.526  0.916-  53 1.58   4 2.11
  97  0.816  0.298  0.046-  42 1.67  37 1.94  21 2.34
  98  0.180  0.779  0.733-  35 1.71  15 2.55
  99  0.506  0.795  0.465-  36 1.96  49 2.02
 100  0.816  0.874  0.269-  31 1.58
 101  0.837  0.129  0.665-  52 1.70  26 2.44   2 2.54
 102  0.025  0.059  0.218-  29 1.48  34 1.84  10 2.55
 103  0.529  0.195  0.993-  30 1.85  37 2.30   1 2.37
 104  0.302  0.119  0.817-  44 1.80   5 2.24  33 2.24
 105  0.783  0.282  0.848-  37 1.76  52 1.78
 106  0.484  0.400  0.292-  41 1.53  27 1.78
 107  0.820  0.065  0.969-  51 1.58  10 2.04  24 2.15
 108  0.334  0.187  0.014-  30 1.90  44 2.03   3 2.35
 109  0.128  0.845  0.894-  45 1.70  15 2.46
 110  0.854  0.510  0.802-  46 1.85
 111  0.364  0.783  0.619-  35 1.67  36 1.95  20 2.25
 112  0.564  0.227  0.498-  47 1.55  25 2.52
 113  0.314  0.418  0.422-  38 1.47  41 1.98   8 2.54
 114  0.693  0.741  0.404-  39 1.53  49 1.61  12 2.29
 115  0.053  0.742  0.345-  43 1.41  18 2.47
 116  0.240  0.981  0.124-  34 1.68  45 2.11
 117  0.325  0.183  0.449-  38 1.97  25 2.42   5 2.55
 118  0.730  0.218  0.214-  48 1.57  42 1.88  27 2.43
 119  0.416  0.979  0.625-  36 1.80   5 2.12
 120  0.694  0.624  0.536-  39 1.67  49 2.06  22 2.19
 121  0.982  0.014  0.827-  54 1.59  51 1.82  15 2.48
 122  0.110  0.930  0.320-  28 1.67  34 1.85  18 2.39
 123  0.126  0.132  0.893-  54 1.55  33 1.74
 124  0.515  0.577  0.450-  49 1.50   7 2.10  20 2.13
 125  0.039  0.311  0.226-  50 1.89   8 2.08   3 2.50
 126  0.711  0.053  0.790-  51 1.95  24 2.44
 127  0.048  0.961  0.639-  15 2.08   2 2.20  18 2.38  23 2.54
 128  0.355  0.511  0.233-  41 1.55   7 2.23  11 2.57
 129  0.225  0.782  0.088-  45 1.59  16 2.52
 130  0.962  0.242  0.899-  54 1.61  21 2.27
 131  0.841  0.002  0.540-  26 2.18   2 2.52
 132  0.472  0.982  0.890-  44 1.65   9 2.22
 133  0.382  0.368  0.612-  38 1.74  47 2.19   4 2.41
 134  0.084  0.566  0.445-  43 1.58  32 1.75
 135  0.083  0.501  0.985-  21 2.10  13 2.29  16 2.40
 

IMPORTANT INFORMATION: All symmetrisations will be switched off!
NOSYMM: (Re-)initialisation of all symmetry stuff for point group C_1.

 
 

Automatic generation of k-mesh.
 generate k-points for:    2    2    2
Space group operators:
 irot       det(A)        alpha          n_x          n_y          n_z        tau_x        tau_y        tau_z
    1     1.000000     0.000001     1.000000     0.000000     0.000000     0.000000     0.000000     0.000000
 
 Subroutine IBZKPT returns following result:
 ===========================================
 
 Found      8 irreducible k-points:
 
 Following reciprocal coordinates:
            Coordinates               Weight
  0.000000  0.000000  0.000000      1.000000
  0.500000  0.000000  0.000000      1.000000
  0.000000  0.500000  0.000000      1.000000
  0.500000  0.500000  0.000000      1.000000
  0.000000  0.000000  0.500000      1.000000
  0.500000  0.000000  0.500000      1.000000
  0.000000  0.500000  0.500000      1.000000
  0.500000  0.500000  0.500000      1.000000
 
 Following cartesian coordinates:
            Coordinates               Weight
  0.000000  0.000000  0.000000      1.000000
  0.039917  0.000000  0.000000      1.000000
  0.000000  0.039917  0.000000      1.000000
  0.039917  0.039917  0.000000      1.000000
  0.000000  0.000000  0.039917      1.000000
  0.039917  0.000000  0.039917      1.000000
  0.000000  0.039917  0.039917      1.000000
  0.039917  0.039917  0.039917      1.000000
 


--------------------------------------------------------------------------------------------------------




 Dimension of arrays:
   k-points           NKPTS =      8   k-points in BZ     NKDIM =      8   number of bands    NBANDS=    520
   number of dos      NEDOS =    301   number of ions     NIONS =    135
   non local maximal  LDIM  =      6   non local SUM 2l+1 LMDIM =     18
   total plane-waves  NPLWV = ******
   max r-space proj   IRMAX =   6830   max aug-charges    IRDMAX= 194386
   dimension x,y,z NGX =   100 NGY =  100 NGZ =  100
   dimension x,y,z NGXF=   200 NGYF=  200 NGZF=  200
   support grid    NGXF=   400 NGYF=  400 NGZF=  400
   ions per type =              27  27  81
   NGX,Y,Z   is equivalent  to a cutoff of  13.27, 13.27, 13.27 a.u.
   NGXF,Y,Z  is equivalent  to a cutoff of  26.54, 26.54, 26.54 a.u.

 SYSTEM =  unknown system                          
 POSCAR =  Ca Si  O                                

 Startparameter for this run:
   NWRITE =      2    write-flag & timer
   PREC   = a         normal or accurate (medium, high low for compatibility)
   ISTART =      0    job   : 0-new  1-cont  2-samecut
   ICHARG =      2    charge: 1-file 2-atom 10-const
   ISPIN  =      1    spin polarized calculation?
   LNONCOLLINEAR =      F non collinear calculations
   LSORBIT =      F    spin-orbit coupling
   INIWAV =      1    electr: 0-lowe 1-rand  2-diag
   LASPH  =      F    aspherical Exc in radial PAW
   METAGGA=      F    non-selfconsistent MetaGGA calc.

 Electronic Relaxation 1
   ENCUT  =  600.0 eV  44.10 Ry    6.64 a.u.  25.02 25.02 25.02*2*pi/ulx,y,z
   ENINI  =  600.0     initial cutoff
   ENAUG  =  605.4 eV  augmentation charge cutoff
   NELM   =     60;   NELMIN=  2; NELMDL= -5     # of ELM steps 
   EDIFF  = 0.1E-05   stopping-criterion for ELM
   LREAL  =      T    real-space projection
   NLSPLINE    = F    spline interpolate recip. space projectors
   LCOMPAT=      F    compatible to vasp.4.4
   GGA_COMPAT  = T    GGA compatible to vasp.4.4-vasp.4.6
   LMAXPAW     = -100 max onsite density
   LMAXMIX     =    2 max onsite mixed and CHGCAR
   VOSKOWN=      0    Vosko Wilk Nusair interpolation
   ROPT   =   -0.00025  -0.00025  -0.00025
 Ionic relaxation
   EDIFFG = -.1E-01   stopping-criterion for IOM
   NSW    =      1    number of steps for IOM
   NBLOCK =      1;   KBLOCK =      1    inner block; outer block 
   IBRION =     -1    ionic relax: 0-MD 1-quasi-New 2-CG
   NFREE  =      0    steps in history (QN), initial steepest desc. (CG)
   ISIF   =      2    stress and relaxation
   IWAVPR =     10    prediction:  0-non 1-charg 2-wave 3-comb
   ISYM   =      0    0-nonsym 1-usesym 2-fastsym
   LCORR  =      T    Harris-Foulkes like correction to forces

   POTIM  = 1.0000    time-step for ionic-motion
   TEIN   =    0.0    initial temperature
   TEBEG  =    0.0;   TEEND  =   0.0 temperature during run
   SMASS  =  -3.00    Nose mass-parameter (am)
   estimated Nose-frequenzy (Omega)   =  0.10E-29 period in steps =****** mass=  -0.359E-26a.u.
   SCALEE = 1.0000    scale energy and forces
   NPACO  =    256;   APACO  = 16.0  distance and # of slots for P.C.
   PSTRESS=    0.0 pullay stress

  Mass of Ions in am
   POMASS =  40.08 28.09 16.00
  Ionic Valenz
   ZVAL   =  10.00  4.00  6.00
  Atomic Wigner-Seitz radii
   RWIGS  =  -1.00 -1.00 -1.00
  virtual crystal weights 
   VCA    =   1.00  1.00  1.00
   NELECT =     864.0000    total number of electrons
   NUPDOWN=      -1.0000    fix difference up-down

 DOS related values:
   EMIN   =  10.00;   EMAX   =-10.00  energy-range for DOS
   EFERMI =   0.00
   ISMEAR =     0;   SIGMA  =   0.05  broadening in eV -4-tet -1-fermi 0-gaus

 Electronic relaxation 2 (details)
   IALGO  =     38    algorithm
   LDIAG  =      T    sub-space diagonalisation (order eigenvalues)
   LSUBROT=      F    optimize rotation matrix (better conditioning)
   TURBO    =      0    0=normal 1=particle mesh
   IRESTART =      0    0=no restart 2=restart with 2 vectors
   NREBOOT  =      0    no. of reboots
   NMIN     =      0    reboot dimension
   EREF     =   0.00    reference energy to select bands
   IMIX   =      4    mixing-type and parameters
     AMIX     =   0.40;   BMIX     =  1.00
     AMIX_MAG =   1.60;   BMIX_MAG =  1.00
     AMIN     =   0.10
     WC   =   100.;   INIMIX=   1;  MIXPRE=   1;  MAXMIX= -45

 Intra band minimization:
   WEIMIN = 0.0000     energy-eigenvalue tresh-hold
   EBREAK =  0.48E-09  absolut break condition
   DEPER  =   0.30     relativ break condition  

   TIME   =   0.40     timestep for ELM

  volume/ion in A,a.u.               =      14.56        98.24
  Fermi-wavevector in a.u.,A,eV,Ry     =   1.244795  2.352322 21.082433  1.549515
  Thomas-Fermi vector in A             =   2.379046
 
 Write flags
   LWAVE        =      F    write WAVECAR
   LDOWNSAMPLE  =      F    k-point downsampling of WAVECAR
   LCHARG       =      F    write CHGCAR
   LVTOT        =      F    write LOCPOT, total local potential
   LVHAR        =      F    write LOCPOT, Hartree potential only
   LELF         =      F    write electronic localiz. function (ELF)
   LORBIT       =      0    0 simple, 1 ext, 2 COOP (PROOUT), +10 PAW based schemes


 Dipole corrections
   LMONO  =      F    monopole corrections only (constant potential shift)
   LDIPOL =      F    correct potential (dipole corrections)
   IDIPOL =      0    1-x, 2-y, 3-z, 4-all directions 
   EPSILON=  1.0000000 bulk dielectric constant

 Exchange correlation treatment:
   GGA     =    --    GGA type
   LEXCH   =     8    internal setting for exchange type
   VOSKOWN=      0    Vosko Wilk Nusair interpolation
   LHFCALC =     F    Hartree Fock is set to
   LHFONE  =     F    Hartree Fock one center treatment
   AEXX    =    0.0000 exact exchange contribution

 Linear response parameters
   LEPSILON=     F    determine dielectric tensor
   LRPA    =     F    only Hartree local field effects (RPA)
   LNABLA  =     F    use nabla operator in PAW spheres
   LVEL    =     F    velocity operator in full k-point grid
   LINTERFAST=   F  fast interpolation
   KINTER  =     0    interpolate to denser k-point grid
   CSHIFT  =0.1000    complex shift for real part using Kramers Kronig
   OMEGAMAX=  -1.0    maximum frequency
   DEG_THRESHOLD= 0.2000000E-02 threshold for treating states as degnerate
   RTIME   =   -0.100 relaxation time in fs
  (WPLASMAI=    0.000 imaginary part of plasma frequency in eV, 0.658/RTIME)
   DFIELD  = 0.0000000 0.0000000 0.0000000 field for delta impulse in time
 
 Orbital magnetization related:
   ORBITALMAG=     F  switch on orbital magnetization
   LCHIMAG   =     F  perturbation theory with respect to B field
   DQ        =  0.001000  dq finite difference perturbation B field
   LLRAUG    =     F  two centre corrections for induced B field



--------------------------------------------------------------------------------------------------------


 Static calculation
 charge density and potential will be updated during run
 non-spin polarized calculation
 Variant of blocked Davidson
 Davidson routine will perform the subspace rotation
 perform sub-space diagonalisation
    after iterative eigenvector-optimisation
 modified Broyden-mixing scheme, WC =      100.0
 initial mixing is a Kerker type mixing with AMIX =  0.4000 and BMIX =      1.0000
 Hartree-type preconditioning will be used
 using additional bands           88
 real space projection scheme for non local part
 use partial core corrections
 calculate Harris-corrections to forces 
   (improved forces if not selfconsistent)
 use gradient corrections 
 use of overlap-Matrix (Vanderbilt PP)
 Gauss-broadening in eV      SIGMA  =   0.05


--------------------------------------------------------------------------------------------------------


  energy-cutoff  :      600.00
  volume of cell :     1965.37
      direct lattice vectors                 reciprocal lattice vectors
    12.526070000  0.000000000  0.000000000     0.079833499  0.000000000  0.000000000
     0.000000000 12.526070000  0.000000000     0.000000000  0.079833499  0.000000000
     0.000000000  0.000000000 12.526070000     0.000000000  0.000000000  0.079833499

  length of vectors
    12.526070000 12.526070000 12.526070000     0.079833499  0.079833499  0.079833499


 
 k-points in units of 2pi/SCALE and weight: read from INCAR                         
   0.00000000  0.00000000  0.00000000       0.125
   0.03991675  0.00000000  0.00000000       0.125
   0.00000000  0.03991675  0.00000000       0.125
   0.03991675  0.03991675  0.00000000       0.125
   0.00000000  0.00000000  0.03991675       0.125
   0.03991675  0.00000000  0.03991675       0.125
   0.00000000  0.03991675  0.03991675       0.125
   0.03991675  0.03991675  0.03991675       0.125
 
 k-points in reciprocal lattice and weights: read from INCAR                         
   0.00000000  0.00000000  0.00000000       0.125
   0.50000000  0.00000000  0.00000000       0.125
   0.00000000  0.50000000  0.00000000       0.125
   0.50000000  0.50000000  0.00000000       0.125
   0.00000000  0.00000000  0.50000000       0.125
   0.50000000  0.00000000  0.50000000       0.125
   0.00000000  0.50000000  0.50000000       0.125
   0.50000000  0.50000000  0.50000000       0.125
 
 position of ions in fractional coordinates (direct lattice) 
   0.55408375  0.19735345  0.80561777
   0.00827845  0.11171222  0.55691699
   0.17916642  0.25300057  0.09711108
   0.30158635  0.44346363  0.76923348
   0.31178927  0.11116138  0.63886102
   0.44963056  0.85452221  0.20409634
   0.37313981  0.62101204  0.37175597
   0.14901263  0.32280766  0.34974332
   0.48033479  0.80773700  0.85910882
   0.89338475  0.97909065  0.08646507
   0.51339123  0.57860555  0.12089661
   0.68582842  0.92271121  0.42182742
   0.11779922  0.63961543  0.87146490
   0.04185091  0.41089332  0.61888209
   0.16330492  0.98024535  0.75664168
   0.09632247  0.63277377  0.12416582
   0.70852386  0.88123302  0.67403399
   0.00219406  0.88495190  0.47077712
   0.65329415  0.44163903  0.77609356
   0.46998771  0.63871752  0.60215769
   0.94382172  0.40870963  0.96749275
   0.80767336  0.49465835  0.56555837
   0.97666116  0.77877646  0.69106813
   0.67130417  0.98063527  0.96612136
   0.47756028  0.07625779  0.39685521
   0.77475999  0.15188097  0.48134093
   0.56180389  0.31331536  0.21100169
   0.22867986  0.90195196  0.37462746
   0.03018700  0.12427559  0.31716116
   0.42527655  0.29332181  0.95599424
   0.73211137  0.80908084  0.20007109
   0.08580313  0.61525590  0.57631885
   0.15351821  0.21346246  0.78447071
   0.11828808  0.95454351  0.17453670
   0.25421983  0.71015943  0.64073958
   0.49723705  0.86164089  0.60546946
   0.69371985  0.26794066  0.95603150
   0.30898653  0.33054944  0.49994115
   0.78529784  0.69611031  0.47015166
   0.71499795  0.72386726  0.00898239
   0.36398335  0.39466562  0.27318931
   0.74439087  0.35075010  0.14567070
   0.01300227  0.63968147  0.37138448
   0.36913005  0.05480905  0.92681526
   0.20950000  0.87202974  0.99955205
   0.81133624  0.64237585  0.85384573
   0.54627367  0.31737019  0.58062342
   0.65514219  0.11876298  0.22676216
   0.58914677  0.66521853  0.41624105
   0.96122437  0.42058883  0.29526068
   0.84062998  0.00391930  0.86022499
   0.78963309  0.24812699  0.70977293
   0.39124092  0.60900630  0.88365749
   0.00298665  0.12061478  0.89324404
   0.14597008  0.34477452  0.81739647
   0.27673697  0.63565453  0.53370339
   0.59429286  0.95284707  0.58506617
   0.12605848  0.17954301  0.39329207
   0.56402658  0.76589726  0.66420230
   0.86520118  0.80694386  0.53255013
   0.84887370  0.38705911  0.25156483
   0.14355769  0.15814914  0.67168479
   0.87733980  0.62691098  0.38021687
   0.79015025  0.82208130  0.06098603
   0.47884558  0.66512780  0.96512058
   0.62532662  0.86627480  0.23747966
   0.38161205  0.30822614  0.79782024
   0.17423313  0.35084637  0.53257892
   0.58405476  0.79835367  0.01248787
   0.71147064  0.66473637  0.15972687
   0.60189407  0.43118599  0.62999038
   0.28527800  0.94501867  0.93709827
   0.66373192  0.44181866  0.12914048
   0.30128262  0.28142443  0.26034411
   0.33091679  0.86570184  0.31409261
   0.38613724  0.38402338  0.06389722
   0.57839376  0.37857143  0.92014852
   0.83445848  0.89921468  0.78181773
   0.77408679  0.33087415  0.60634046
   0.67770617  0.09987430  0.36321890
   0.45740125  0.59427818  0.77079616
   0.52695448  0.67084303  0.27061477
   0.24471654  0.92692261  0.50027171
   0.78644179  0.59694333  0.98677557
   0.64670118  0.26411153  0.69446939
   0.89989621  0.72809591  0.86624895
   0.97996828  0.41685540  0.42786953
   0.92232076  0.09684570  0.36394121
   0.02716900  0.51871770  0.24568211
   0.95535167  0.58840360  0.59382456
   0.69680089  0.72650761  0.85823749
   0.06436202  0.87447993  0.09204296
   0.53065559  0.10788041  0.20868465
   0.71340532  0.02945860  0.13033314
   0.15024238  0.51201627  0.60933918
   0.30243381  0.52590305  0.91608817
   0.81584905  0.29788075  0.04643995
   0.18045624  0.77906279  0.73314749
   0.50649878  0.79480588  0.46467494
   0.81575701  0.87363068  0.26869198
   0.83730494  0.12919497  0.66459244
   0.02539407  0.05945792  0.21845877
   0.52900976  0.19537542  0.99348969
   0.30245956  0.11947953  0.81710436
   0.78305548  0.28154787  0.84811362
   0.48413072  0.39964307  0.29221773
   0.82040317  0.06525089  0.96875301
   0.33372791  0.18747692  0.01363552
   0.12772277  0.84501872  0.89421804
   0.85374503  0.51038046  0.80187141
   0.36409164  0.78261412  0.61896351
   0.56440956  0.22732150  0.49758997
   0.31363245  0.41768762  0.42157009
   0.69253114  0.74053185  0.40371494
   0.05318501  0.74167394  0.34492191
   0.23971279  0.98073761  0.12445342
   0.32499192  0.18300257  0.44877057
   0.73029839  0.21794467  0.21368183
   0.41582059  0.97861012  0.62491735
   0.69433839  0.62440200  0.53602803
   0.98159621  0.01418783  0.82747709
   0.11013911  0.92968667  0.31994667
   0.12642041  0.13186509  0.89326639
   0.51521720  0.57728233  0.44982706
   0.03878028  0.31094991  0.22628117
   0.71114798  0.05283137  0.78983236
   0.04789794  0.96118978  0.63852217
   0.35516562  0.51094735  0.23254002
   0.22545864  0.78236234  0.08757766
   0.96158175  0.24179437  0.89873757
   0.84096168  0.00200002  0.54004732
   0.47200273  0.98195516  0.88984911
   0.38221891  0.36817432  0.61182572
   0.08430768  0.56599744  0.44539660
   0.08287435  0.50124399  0.98533682
 
 position of ions in cartesian coordinates  (Angst):
   6.94049182  2.47206319 10.09122464
   0.10369645  1.39931503  6.97598116
   2.24425107  3.16910289  1.21642024
   3.77769172  5.55485652  9.63547246
   3.90549424  1.39241522  8.00241787
   5.63210384 10.70380499  2.55652503
   4.67397539  7.77884027  4.65664128
   1.86654261  4.04351135  4.38090930
   6.01670719 10.11777023 10.76125720
  11.19059993 12.26415803  1.08306750
   6.43077450  7.24765359  1.51435939
   8.59073482 11.55794519  5.28383979
   1.47556122  8.01186769 10.91603039
   0.52422745  5.14687847  7.75216040
   2.04556880 12.27862192  9.47774661
   1.20654194  7.92616852  1.55530974
   8.87501948 11.03838649  8.44299693
   0.02748289 11.08496945  5.89698710
   8.18320820  5.53200143  9.72140225
   5.88709893  8.00062037  7.54266939
  11.82237696  5.11952542 12.11888186
  10.11697310  6.19612518  7.08422376
  12.23372605  9.75500844  8.65636777
   8.40880302 12.28350605 12.10170382
   5.98195344  0.95521036  4.97103617
   9.70469781  1.90247165  6.02931021
   7.03719480  3.92461015  2.64302188
   2.86445993 11.29791338  4.69260980
   0.37812446  1.55668472  3.97278295
   5.32704386  3.67416947 11.97485079
   9.17047832 10.13460328  2.50610447
   1.07477602  7.70673842  7.21901026
   1.92297990  2.67384575  9.82633505
   1.48168478 11.95667886  2.18625891
   3.18437533  8.89550668  8.02594884
   6.22842605 10.79297413  7.58415281
   8.68958346  3.35624348 11.97531749
   3.87038690  4.14048539  6.26229787
   9.83669567  8.71952647  5.88915258
   8.95611436  9.06721193  0.11251400
   4.55928096  4.94360923  3.42198846
   9.32429211  4.39352034  1.82468137
   0.16286735  8.01269482  4.65198799
   4.62374890  0.68654198 11.60935284
   2.62421164 10.92310562 12.52045890
  10.16285454  8.04644484 10.69533136
   6.84266229  3.97540119  7.27292957
   8.20635699  1.48763346  2.84043867
   7.37969372  8.33257388  5.21386454
  12.04036375  5.26832507  3.69845595
  10.52978999  0.04909343 10.77523840
   9.89099932  3.10805603  8.89066540
   4.90071112  7.62845557 11.06875559
   0.03741096  1.51082922 11.18883735
   1.82843143  4.31866972 10.23876540
   3.46642660  7.96225316  6.68520607
   7.44415400 11.93542914  7.32857974
   1.57901738  2.24896828  4.92640399
   7.06503639  9.59368270  8.31984450
  10.83757058 10.10783524  6.67076022
  10.63305135  4.84832951  3.15111870
   1.79821367  1.98098723  8.41357070
  10.98961975  7.85273080  4.76262310
   9.89747736 10.29744794  0.76391534
   5.99805329  8.33143744 12.08916798
   7.83288502 10.85101878  2.97468682
   4.78009925  3.86086225  9.99355221
   2.18245635  4.39472617  6.67112089
   7.31591087 10.00023393  0.15642397
   8.91193110  8.32653436  2.00074992
   7.53936729  5.40106593  7.89130359
   3.57341225 11.83737002 11.73815848
   8.31395247  5.53425149  1.61762272
   3.77388724  3.52514217  3.26108856
   4.14508687 10.84384187  3.93434608
   4.83678207  4.81030372  0.80038099
   7.24500075  4.74201219 11.52584473
  10.45248533 11.26362600  9.79310366
   9.69626532  4.14455273  7.59506301
   8.48899487  1.25103253  4.54970532
   5.72944005  7.44397004  9.65504671
   6.60066870  8.40302679  3.38973959
   3.06533654 11.61069745  6.26643848
   9.85102495  7.47735391 12.36041986
   8.10062426  3.30827949  8.69897223
  11.27216292  9.12018028 10.85069499
  12.27515133  5.22155989  5.35952364
  11.55305438  1.21309602  4.55875303
   0.34032080  6.49749420  3.07743126
  11.96680190  7.37038468  7.43828802
   8.72817674  9.10028517 10.75034286
   0.80620311 10.95379687  1.15293658
   6.64702912  1.35131756  2.61399851
   8.93616492  0.36900047  1.63256200
   1.88194659  6.41355161  7.63262524
   3.78830709  6.58749848 11.47498454
  10.21938228  3.73127512  0.58171004
   2.26040745  9.75859510  9.18345672
   6.34443918  9.95579413  5.82055088
  10.21822939 10.94315907  3.36565459
  10.48814035  1.61830528  8.32473138
   0.31808796  0.74477403  2.73642979
   6.62641334  2.44728614 12.44452142
   3.78862960  1.49660891 10.23510635
   9.80860781  3.52668837 10.62353055
   6.06425528  5.00595705  3.66033968
  10.27642757  0.81733727 12.13466798
   4.18029914  2.34834904  0.17079950
   1.59986438 10.58476367 11.20103774
  10.69406999  6.39306134 10.04429737
   4.56063742  9.80307920  7.75318029
   7.06983369  2.84744496  6.23284678
   3.92858204  5.23198434  5.28061641
   8.67469359  9.27595383  5.05696156
   0.66619919  9.29025969  4.32051600
   3.00265925 12.28478797  1.55891222
   4.07087150  2.29230300  5.62133157
   9.14776875  2.72999014  2.67659360
   5.20859782 12.25813888  7.82775841
   8.69733131  7.82130313  6.71432458
  12.29554283  0.17771779 10.36503596
   1.37961019 11.64532029  4.00767441
   1.58355096  1.65175132 11.18911733
   6.45364669  7.23107887  5.63456523
   0.48576455  3.89498028  2.83441379
   8.90788940  0.66176942  9.89349537
   0.59997296 12.03993045  7.99817335
   4.44882938  6.40016222  2.91281263
   2.82411071  9.79992540  1.09700392
  12.04484031  3.02873325 11.25764975
  10.53394491  0.02505242  6.76467057
   5.91233927 12.30003911 11.14631225
   4.78770083  4.61177732  7.66377179
   1.05604387  7.08972352  5.57906898
   1.03808987  6.27861736 12.34239799
 


--------------------------------------------------------------------------------------------------------


 k-point  1 :   0.0000 0.0000 0.0000  plane waves:   65267
 k-point  2 :   0.5000 0.0000 0.0000  plane waves:   65554
 k-point  3 :   0.0000 0.5000 0.0000  plane waves:   65554
 k-point  4 :   0.5000 0.5000 0.0000  plane waves:   65600
 k-point  5 :   0.0000 0.0000 0.5000  plane waves:   65554
 k-point  6 :   0.5000 0.0000 0.5000  plane waves:   65600
 k-point  7 :   0.0000 0.5000 0.5000  plane waves:   65600
 k-point  8 :   0.5000 0.5000 0.5000  plane waves:   65752

 maximum and minimum number of plane-waves per node :      5080     4959

 maximum number of plane-waves:     65752
 maximum index in each direction: 
   IXMAX=   25   IYMAX=   25   IZMAX=   25
   IXMIN=  -25   IYMIN=  -25   IZMIN=  -25


 real space projection operators:
  total allocation   :      46841.31 KBytes
  max/ min on nodes  :       3799.52       3251.67


 parallel 3D FFT for wavefunctions:
    minimum data exchange during FFTs selected (reduces bandwidth)
 parallel 3D FFT for charge:
    minimum data exchange during FFTs selected (reduces bandwidth)


 total amount of memory used by VASP MPI-rank0   175615. kBytes
=======================================================================

   base      :      30000. kBytes
   nonlr-proj:      20285. kBytes
   fftplans  :      25568. kBytes
   grid      :      13529. kBytes
   one-center:        171. kBytes
   wavefun   :      86062. kBytes
 
     INWAV:  cpu time    0.0000: real time    0.0000
 Broyden mixing: mesh for mixing (old mesh)
   NGX = 51   NGY = 51   NGZ = 51
  (NGX  =200   NGY  =200   NGZ  =200)
  gives a total of 132651 points

 initial charge density was supplied:
 charge density of overlapping atoms calculated
 number of electron     864.0000000 magnetization 
 keeping initial charge density in first step


--------------------------------------------------------------------------------------------------------


 Maximum index for non-local projection operator          714
 Maximum index for augmentation-charges         5790 (set IRDMAX)


--------------------------------------------------------------------------------------------------------


 First call to EWALD:  gamma=   0.142
 Maximum number of real-space cells 3x 3x 3
 Maximum number of reciprocal cells 3x 3x 3

    FEWALD:  cpu time    0.0045: real time    0.0051


--------------------------------------- Iteration      1(   1)  ---------------------------------------


    POTLOK:  cpu time    0.1524: real time    0.1633
    SETDIJ:  cpu time    0.3676: real time    0.3678
     EDDAV:  cpu time   38.6378: real time   38.6378
       DOS:  cpu time    0.0026: real time    0.0026
    --------------------------------------------
      LOOP:  cpu time   39.1603: real time   39.1715

 eigenvalue-minimisations  :  8320
 total energy-change (2. order) : 0.9366799E+04  (-0.4722044E+05)
 number of electron     864.0000000 magnetization 
 augmentation part      864.0000000 magnetization 

 Free energy of the ion-electron system (eV)
  ---------------------------------------------------
  alpha Z        PSCENC =      2431.37857233
  Ewald energy   TEWEN  =    -42299.73085896
  -Hartree energ DENC   =    -20143.90106072
  -exchange      EXHF   =         0.00000000
  -V(xc)+E(xc)   XCENC  =      3146.48804902
  PAW double counting   =     50594.51003143   -49994.65612350
  entropy T*S    EENTRO =        -0.04209304
  eigenvalues    EBANDS =       664.21203927
  atomic energy  EATOM  =     64968.54023382
  Solvation  Ediel_sol  =         0.00000000
  ---------------------------------------------------
  free energy    TOTEN  =      9366.79878964 eV

  energy without entropy =     9366.84088269  energy(sigma->0) =     9366.81983617


--------------------------------------------------------------------------------------------------------




--------------------------------------- Iteration      1(   2)  ---------------------------------------


     EDDAV:  cpu time   44.3122: real time   44.3315
       DOS:  cpu time    0.0024: real time    0.0024
    --------------------------------------------
      LOOP:  cpu time   44.3146: real time   44.3339

 eigenvalue-minimisations  : 10016
 total energy-change (2. order) :-0.9315916E+04  (-0.9023734E+04)
 number of electron     864.0000000 magnetization 
 augmentation part      864.0000000 magnetization 

 Free energy of the ion-electron system (eV)
  ---------------------------------------------------
  alpha Z        PSCENC =      2431.37857233
  Ewald energy   TEWEN  =    -42299.73085896
  -Hartree energ DENC   =    -20143.90106072
  -exchange      EXHF   =         0.00000000
  -V(xc)+E(xc)   XCENC  =      3146.48804902
  PAW double counting   =     50594.51003143   -49994.65612350
  entropy T*S    EENTRO =        -0.00686083
  eigenvalues    EBANDS =     -8651.73953478
  atomic energy  EATOM  =     64968.54023382
  Solvation  Ediel_sol  =         0.00000000
  ---------------------------------------------------
  free energy    TOTEN  =        50.88244781 eV

  energy without entropy =       50.88930864  energy(sigma->0) =       50.88587822


--------------------------------------------------------------------------------------------------------




--------------------------------------- Iteration      1(   3)  ---------------------------------------


     EDDAV:  cpu time   45.6040: real time   45.6173
       DOS:  cpu time    0.0011: real time    0.0010
    --------------------------------------------
      LOOP:  cpu time   45.6050: real time   45.6184

 eigenvalue-minimisations  : 10256
 total energy-change (2. order) :-0.1035092E+04  (-0.1024016E+04)
 number of electron     864.0000000 magnetization 
 augmentation part      864.0000000 magnetization 

 Free energy of the ion-electron system (eV)
  ---------------------------------------------------
  alpha Z        PSCENC =      2431.37857233
  Ewald energy   TEWEN  =    -42299.73085896
  -Hartree energ DENC   =    -20143.90106072
  -exchange      EXHF   =         0.00000000
  -V(xc)+E(xc)   XCENC  =      3146.48804902
  PAW double counting   =     50594.51003143   -49994.65612350
  entropy T*S    EENTRO =        -0.00000000
  eigenvalues    EBANDS =     -9686.83858588
  atomic energy  EATOM  =     64968.54023382
  Solvation  Ediel_sol  =         0.00000000
  ---------------------------------------------------
  free energy    TOTEN  =      -984.20974246 eV

  energy without entropy =     -984.20974246  energy(sigma->0) =     -984.20974246


--------------------------------------------------------------------------------------------------------




--------------------------------------- Iteration      1(   4)  ---------------------------------------


     EDDAV:  cpu time   48.6003: real time   48.6190
       DOS:  cpu time    0.0010: real time    0.0010
    --------------------------------------------
      LOOP:  cpu time   48.6014: real time   48.6200

 eigenvalue-minimisations  : 11240
 total energy-change (2. order) :-0.4916423E+02  (-0.4897147E+02)
 number of electron     864.0000000 magnetization 
 augmentation part      864.0000000 magnetization 

 Free energy of the ion-electron system (eV)
  ---------------------------------------------------
  alpha Z        PSCENC =      2431.37857233
  Ewald energy   TEWEN  =    -42299.73085896
  -Hartree energ DENC   =    -20143.90106072
  -exchange      EXHF   =         0.00000000
  -V(xc)+E(xc)   XCENC  =      3146.48804902
  PAW double counting   =     50594.51003143   -49994.65612350
  entropy T*S    EENTRO =        -0.00000000
  eigenvalues    EBANDS =     -9736.00281622
  atomic energy  EATOM  =     64968.54023382
  Solvation  Ediel_sol  =         0.00000000
  ---------------------------------------------------
  free energy    TOTEN  =     -1033.37397280 eV

  energy without entropy =    -1033.37397280  energy(sigma->0) =    -1033.37397280


--------------------------------------------------------------------------------------------------------




--------------------------------------- Iteration      1(   5)  ---------------------------------------


     EDDAV:  cpu time   61.2012: real time   61.2153
       DOS:  cpu time    0.0011: real time    0.0011
    CHARGE:  cpu time    1.5835: real time    1.5835
    MIXING:  cpu time    0.0069: real time    0.0071
    --------------------------------------------
      LOOP:  cpu time   62.7928: real time   62.8070

 eigenvalue-minimisations  : 14952
 total energy-change (2. order) :-0.6002830E+01  (-0.5999603E+01)
 number of electron     864.0000007 magnetization 
 augmentation part      132.9748477 magnetization 

 Broyden mixing:
  rms(total) = 0.83430E+01    rms(broyden)= 0.83424E+01
  rms(prec ) = 0.10018E+02
  weight for this iteration     100.00

 Free energy of the ion-electron system (eV)
  ---------------------------------------------------
  alpha Z        PSCENC =      2431.37857233
  Ewald energy   TEWEN  =    -42299.73085896
  -Hartree energ DENC   =    -20143.90106072
  -exchange      EXHF   =         0.00000000
  -V(xc)+E(xc)   XCENC  =      3146.48804902
  PAW double counting   =     50594.51003143   -49994.65612350
  entropy T*S    EENTRO =        -0.00000000
  eigenvalues    EBANDS =     -9742.00564623
  atomic energy  EATOM  =     64968.54023382
  Solvation  Ediel_sol  =         0.00000000
  ---------------------------------------------------
  free energy    TOTEN  =     -1039.37680281 eV

  energy without entropy =    -1039.37680281  energy(sigma->0) =    -1039.37680281


--------------------------------------------------------------------------------------------------------




--------------------------------------- Iteration      1(   6)  ---------------------------------------


    POTLOK:  cpu time    0.1418: real time    0.1606
    SETDIJ:  cpu time    0.3527: real time    0.3527
     EDDAV:  cpu time   43.7211: real time   43.7210
       DOS:  cpu time    0.0021: real time    0.0021
    CHARGE:  cpu time    1.5802: real time    1.5802
    MIXING:  cpu time    0.0065: real time    0.0065
    --------------------------------------------
      LOOP:  cpu time   45.8044: real time   45.8232

 eigenvalue-minimisations  :  9896
 total energy-change (2. order) : 0.1525275E+03  (-0.7582562E+02)
 number of electron     864.0000007 magnetization 
 augmentation part      117.4461181 magnetization 

 Broyden mixing:
  rms(total) = 0.41692E+01    rms(broyden)= 0.41680E+01
  rms(prec ) = 0.48230E+01
  weight for this iteration     100.00

 eigenvalues of (default mixing * dielectric matrix)
  average eigenvalue GAMMA=   0.8691
  0.8691

 Free energy of the ion-electron system (eV)
  ---------------------------------------------------
  alpha Z        PSCENC =      2431.37857233
  Ewald energy   TEWEN  =    -42299.73085896
  -Hartree energ DENC   =    -21635.28131158
  -exchange      EXHF   =         0.00000000
  -V(xc)+E(xc)   XCENC  =      3241.30376333
  PAW double counting   =     63639.95249576   -63179.67655678
  entropy T*S    EENTRO =        -0.00005144
  eigenvalues    EBANDS =     -8053.33554114
  atomic energy  EATOM  =     64968.54023382
  Solvation  Ediel_sol  =         0.00000000
  ---------------------------------------------------
  free energy    TOTEN  =      -886.84925466 eV

  energy without entropy =     -886.84920322  energy(sigma->0) =     -886.84922894


--------------------------------------------------------------------------------------------------------




--------------------------------------- Iteration      1(   7)  ---------------------------------------


    POTLOK:  cpu time    0.1540: real time    0.1691
    SETDIJ:  cpu time    0.3684: real time    0.3685
     EDDAV:  cpu time   47.2394: real time   47.2416
       DOS:  cpu time    0.0024: real time    0.0024
    CHARGE:  cpu time    1.5854: real time    1.5854
    MIXING:  cpu time    0.0059: real time    0.0059
    --------------------------------------------
      LOOP:  cpu time   49.3555: real time   49.3728

 eigenvalue-minimisations  : 10864
 total energy-change (2. order) :-0.8661321E+01  (-0.9964320E+01)
 number of electron     864.0000007 magnetization 
 augmentation part      117.7837106 magnetization 

 Broyden mixing:
  rms(total) = 0.27041E+01    rms(broyden)= 0.27035E+01
  rms(prec ) = 0.32998E+01
  weight for this iteration     100.00

 eigenvalues of (default mixing * dielectric matrix)
  average eigenvalue GAMMA=   0.8155
  0.8684  0.7626

 Free energy of the ion-electron system (eV)
  ---------------------------------------------------
  alpha Z        PSCENC =      2431.37857233
  Ewald energy   TEWEN  =    -42299.73085896
  -Hartree energ DENC   =    -21607.29346787
  -exchange      EXHF   =         0.00000000
  -V(xc)+E(xc)   XCENC  =      3237.83185671
  PAW double counting   =     72539.15680793   -72122.51645843
  entropy T*S    EENTRO =        -0.02094431
  eigenvalues    EBANDS =     -8042.85631694
  atomic energy  EATOM  =     64968.54023382
  Solvation  Ediel_sol  =         0.00000000
  ---------------------------------------------------
  free energy    TOTEN  =      -895.51057571 eV

  energy without entropy =     -895.48963141  energy(sigma->0) =     -895.50010356


--------------------------------------------------------------------------------------------------------




--------------------------------------- Iteration      1(   8)  ---------------------------------------


    POTLOK:  cpu time    0.1456: real time    0.1668
    SETDIJ:  cpu time    0.3523: real time    0.3524
     EDDAV:  cpu time   48.0017: real time   48.0047
       DOS:  cpu time    0.0026: real time    0.0026
    CHARGE:  cpu time    1.5819: real time    1.5819
    MIXING:  cpu time    0.0063: real time    0.0063
    --------------------------------------------
      LOOP:  cpu time   50.0905: real time   50.1146

 eigenvalue-minimisations  : 11152
 total energy-change (2. order) : 0.1047140E+02  (-0.3170457E+01)
 number of electron     864.0000007 magnetization 
 augmentation part      117.7405214 magnetization 

 Broyden mixing:
  rms(total) = 0.16325E+01    rms(broyden)= 0.16322E+01
  rms(prec ) = 0.20047E+01
  weight for this iteration     100.00

 eigenvalues of (default mixing * dielectric matrix)
  average eigenvalue GAMMA=   0.9244
  1.2506  0.7612  0.7612

 Free energy of the ion-electron system (eV)
  ---------------------------------------------------
  alpha Z        PSCENC =      2431.37857233
  Ewald energy   TEWEN  =    -42299.73085896
  -Hartree energ DENC   =    -21622.76956592
  -exchange      EXHF   =         0.00000000
  -V(xc)+E(xc)   XCENC  =      3237.31385172
  PAW double counting   =     76465.80937932   -76072.84137987
  entropy T*S    EENTRO =        -0.02696813
  eigenvalues    EBANDS =     -7992.71243952
  atomic energy  EATOM  =     64968.54023382
  Solvation  Ediel_sol  =         0.00000000
  ---------------------------------------------------
  free energy    TOTEN  =      -885.03917523 eV

  energy without entropy =     -885.01220709  energy(sigma->0) =     -885.02569116


--------------------------------------------------------------------------------------------------------




--------------------------------------- Iteration      1(   9)  ---------------------------------------


    POTLOK:  cpu time    0.1481: real time    0.1598
    SETDIJ:  cpu time    0.3755: real time    0.3756
     EDDAV:  cpu time   47.6938: real time   47.6943
       DOS:  cpu time    0.0027: real time    0.0027
    CHARGE:  cpu time    1.5854: real time    1.5854
    MIXING:  cpu time    0.0067: real time    0.0066
    --------------------------------------------
      LOOP:  cpu time   49.8121: real time   49.8244

 eigenvalue-minimisations  : 10960
 total energy-change (2. order) : 0.1188442E+01  (-0.2631594E+01)
 number of electron     864.0000007 magnetization 
 augmentation part      117.1931784 magnetization 

 Broyden mixing:
  rms(total) = 0.15869E+01    rms(broyden)= 0.15864E+01
  rms(prec ) = 0.20324E+01
  weight for this iteration     100.00

 eigenvalues of (default mixing * dielectric matrix)
  average eigenvalue GAMMA=   0.9160
  1.7061  0.9964  0.4809  0.4809

 Free energy of the ion-electron system (eV)
  ---------------------------------------------------
  alpha Z        PSCENC =      2431.37857233
  Ewald energy   TEWEN  =    -42299.73085896
  -Hartree energ DENC   =    -21679.11940780
  -exchange      EXHF   =         0.00000000
  -V(xc)+E(xc)   XCENC  =      3239.53920482
  PAW double counting   =     80677.11120405   -80305.36708060
  entropy T*S    EENTRO =        -0.06249701
  eigenvalues    EBANDS =     -7916.14010344
  atomic energy  EATOM  =     64968.54023382
  Solvation  Ediel_sol  =         0.00000000
  ---------------------------------------------------
  free energy    TOTEN  =      -883.85073278 eV

  energy without entropy =     -883.78823578  energy(sigma->0) =     -883.81948428


--------------------------------------------------------------------------------------------------------




--------------------------------------- Iteration      1(  10)  ---------------------------------------


    POTLOK:  cpu time    0.1501: real time    0.1679
    SETDIJ:  cpu time    0.3660: real time    0.3661
     EDDAV:  cpu time   45.0588: real time   45.0602
       DOS:  cpu time    0.0024: real time    0.0023
    CHARGE:  cpu time    1.5831: real time    1.5831
    MIXING:  cpu time    0.0068: real time    0.0068
    --------------------------------------------
      LOOP:  cpu time   47.1671: real time   47.1863

 eigenvalue-minimisations  : 10232
 total energy-change (2. order) : 0.1595528E+01  (-0.1127079E+01)
 number of electron     864.0000007 magnetization 
 augmentation part      117.3931011 magnetization 

 Broyden mixing:
  rms(total) = 0.91620E+00    rms(broyden)= 0.91549E+00
  rms(prec ) = 0.12628E+01
  weight for this iteration     100.00

 eigenvalues of (default mixing * dielectric matrix)
  average eigenvalue GAMMA=   0.8573
  1.8587  0.9895  0.5273  0.5273  0.3837

 Free energy of the ion-electron system (eV)
  ---------------------------------------------------
  alpha Z        PSCENC =      2431.37857233
  Ewald energy   TEWEN  =    -42299.73085896
  -Hartree energ DENC   =    -21715.26396514
  -exchange      EXHF   =         0.00000000
  -V(xc)+E(xc)   XCENC  =      3240.91473237
  PAW double counting   =     84276.13993701   -83922.57508241
  entropy T*S    EENTRO =        -0.01773260
  eigenvalues    EBANDS =     -7861.64104120
  atomic energy  EATOM  =     64968.54023382
  Solvation  Ediel_sol  =         0.00000000
  ---------------------------------------------------
  free energy    TOTEN  =      -882.25520479 eV

  energy without entropy =     -882.23747219  energy(sigma->0) =     -882.24633849


--------------------------------------------------------------------------------------------------------




--------------------------------------- Iteration      1(  11)  ---------------------------------------


    POTLOK:  cpu time    0.1443: real time    0.1599
    SETDIJ:  cpu time    0.3531: real time    0.3531
     EDDAV:  cpu time   48.7067: real time   48.7077
       DOS:  cpu time    0.0025: real time    0.0025
    CHARGE:  cpu time    1.5881: real time    1.5881
    MIXING:  cpu time    0.0066: real time    0.0066
    --------------------------------------------
      LOOP:  cpu time   50.8012: real time   50.8179

 eigenvalue-minimisations  : 11360
 total energy-change (2. order) : 0.2937246E-01  (-0.1957122E+00)
 number of electron     864.0000007 magnetization 
 augmentation part      117.3819249 magnetization 

 Broyden mixing:
  rms(total) = 0.59954E+00    rms(broyden)= 0.59910E+00
  rms(prec ) = 0.84579E+00
  weight for this iteration     100.00

 eigenvalues of (default mixing * dielectric matrix)
  average eigenvalue GAMMA=   0.8273
  2.0347  0.9381  0.6411  0.6411  0.4295  0.2791

 Free energy of the ion-electron system (eV)
  ---------------------------------------------------
  alpha Z        PSCENC =      2431.37857233
  Ewald energy   TEWEN  =    -42299.73085896
  -Hartree energ DENC   =    -21731.34838829
  -exchange      EXHF   =         0.00000000
  -V(xc)+E(xc)   XCENC  =      3241.61464315
  PAW double counting   =     85056.85924625   -84707.15059749
  entropy T*S    EENTRO =        -0.01070935
  eigenvalues    EBANDS =     -7842.37797378
  atomic energy  EATOM  =     64968.54023382
  Solvation  Ediel_sol  =         0.00000000
  ---------------------------------------------------
  free energy    TOTEN  =      -882.22583232 eV

  energy without entropy =     -882.21512298  energy(sigma->0) =     -882.22047765


--------------------------------------------------------------------------------------------------------




--------------------------------------- Iteration      1(  12)  ---------------------------------------


    POTLOK:  cpu time    0.1468: real time    0.1646
    SETDIJ:  cpu time    0.3533: real time    0.3554
     EDDAV:  cpu time   49.8003: real time   49.8017
       DOS:  cpu time    0.0024: real time    0.0024
    CHARGE:  cpu time    1.5521: real time    1.5521
    MIXING:  cpu time    0.0068: real time    0.0068
    --------------------------------------------
      LOOP:  cpu time   51.8617: real time   51.8830

 eigenvalue-minimisations  : 11688
 total energy-change (2. order) : 0.6009407E+00  (-0.1076894E+00)
 number of electron     864.0000007 magnetization 
 augmentation part      117.1623150 magnetization 

 Broyden mixing:
  rms(total) = 0.45899E+00    rms(broyden)= 0.45873E+00
  rms(prec ) = 0.59896E+00
  weight for this iteration     100.00

 eigenvalues of (default mixing * dielectric matrix)
  average eigenvalue GAMMA=   0.8442
  2.1791  0.9614  0.9614  0.6028  0.6028  0.3010  0.3010

 Free energy of the ion-electron system (eV)
  ---------------------------------------------------
  alpha Z        PSCENC =      2431.37857233
  Ewald energy   TEWEN  =    -42299.73085896
  -Hartree energ DENC   =    -21752.87879456
  -exchange      EXHF   =         0.00000000
  -V(xc)+E(xc)   XCENC  =      3242.63694567
  PAW double counting   =     85787.18027933   -85441.17138789
  entropy T*S    EENTRO =        -0.07493855
  eigenvalues    EBANDS =     -7817.50494284
  atomic energy  EATOM  =     64968.54023382
  Solvation  Ediel_sol  =         0.00000000
  ---------------------------------------------------
  free energy    TOTEN  =      -881.62489165 eV

  energy without entropy =     -881.54995310  energy(sigma->0) =     -881.58742237


--------------------------------------------------------------------------------------------------------




--------------------------------------- Iteration      1(  13)  ---------------------------------------


    POTLOK:  cpu time    0.1451: real time    0.1586
    SETDIJ:  cpu time    0.3528: real time    0.3528
     EDDAV:  cpu time   47.2112: real time   47.2127
       DOS:  cpu time    0.0023: real time    0.0023
    CHARGE:  cpu time    1.5470: real time    1.5470
    MIXING:  cpu time    0.0068: real time    0.0068
    --------------------------------------------
      LOOP:  cpu time   49.2653: real time   49.2804

 eigenvalue-minimisations  : 10896
 total energy-change (2. order) :-0.1465181E+00  (-0.1567801E+00)
 number of electron     864.0000007 magnetization 
 augmentation part      117.1328959 magnetization 

 Broyden mixing:
  rms(total) = 0.44081E+00    rms(broyden)= 0.44064E+00
  rms(prec ) = 0.62075E+00
  weight for this iteration     100.00

 eigenvalues of (default mixing * dielectric matrix)
  average eigenvalue GAMMA=   0.8141
  2.2717  1.1646  0.9059  0.6160  0.6160  0.3406  0.3406  0.2572

 Free energy of the ion-electron system (eV)
  ---------------------------------------------------
  alpha Z        PSCENC =      2431.37857233
  Ewald energy   TEWEN  =    -42299.73085896
  -Hartree energ DENC   =    -21767.94383601
  -exchange      EXHF   =         0.00000000
  -V(xc)+E(xc)   XCENC  =      3243.28323804
  PAW double counting   =     86159.65440608   -85815.61635879
  entropy T*S    EENTRO =        -0.03648756
  eigenvalues    EBANDS =     -7801.30031871
  atomic energy  EATOM  =     64968.54023382
  Solvation  Ediel_sol  =         0.00000000
  ---------------------------------------------------
  free energy    TOTEN  =      -881.77140975 eV

  energy without entropy =     -881.73492219  energy(sigma->0) =     -881.75316597


--------------------------------------------------------------------------------------------------------




--------------------------------------- Iteration      1(  14)  ---------------------------------------


    POTLOK:  cpu time    0.1550: real time    0.1702
    SETDIJ:  cpu time    0.3619: real time    0.3619
     EDDAV:  cpu time   48.8872: real time   48.8932
       DOS:  cpu time    0.0024: real time    0.0024
    CHARGE:  cpu time    1.5596: real time    1.5596
    MIXING:  cpu time    0.0078: real time    0.0078
    --------------------------------------------
      LOOP:  cpu time   50.9740: real time   50.9951

 eigenvalue-minimisations  : 11400
 total energy-change (2. order) : 0.1120522E+00  (-0.5671395E-01)
 number of electron     864.0000007 magnetization 
 augmentation part      117.2186180 magnetization 

 Broyden mixing:
  rms(total) = 0.35374E+00    rms(broyden)= 0.35361E+00
  rms(prec ) = 0.52211E+00
  weight for this iteration     100.00

 eigenvalues of (default mixing * dielectric matrix)
  average eigenvalue GAMMA=   0.8230
  2.3472  1.4112  0.8257  0.8257  0.5527  0.5527  0.2971  0.2971  0.2975

 Free energy of the ion-electron system (eV)
  ---------------------------------------------------
  alpha Z        PSCENC =      2431.37857233
  Ewald energy   TEWEN  =    -42299.73085896
  -Hartree energ DENC   =    -21774.65094153
  -exchange      EXHF   =         0.00000000
  -V(xc)+E(xc)   XCENC  =      3243.60599660
  PAW double counting   =     86284.00156847   -85940.71989088
  entropy T*S    EENTRO =        -0.02844620
  eigenvalues    EBANDS =     -7794.05559116
  atomic energy  EATOM  =     64968.54023382
  Solvation  Ediel_sol  =         0.00000000
  ---------------------------------------------------
  free energy    TOTEN  =      -881.65935751 eV

  energy without entropy =     -881.63091131  energy(sigma->0) =     -881.64513441


--------------------------------------------------------------------------------------------------------




--------------------------------------- Iteration      1(  15)  ---------------------------------------


    POTLOK:  cpu time    0.1169: real time    0.1318
    SETDIJ:  cpu time    0.3450: real time    0.3450
     EDDAV:  cpu time   48.4799: real time   48.4901
       DOS:  cpu time    0.0027: real time    0.0027
    CHARGE:  cpu time    1.5621: real time    1.5621
    MIXING:  cpu time    0.0083: real time    0.0083
    --------------------------------------------
      LOOP:  cpu time   50.5149: real time   50.5400

 eigenvalue-minimisations  : 11288
 total energy-change (2. order) : 0.1631691E-01  (-0.2631108E-01)
 number of electron     864.0000007 magnetization 
 augmentation part      117.0802408 magnetization 

 Broyden mixing:
  rms(total) = 0.57741E+00    rms(broyden)= 0.57707E+00
  rms(prec ) = 0.80056E+00
  weight for this iteration     100.00

 eigenvalues of (default mixing * dielectric matrix)
  average eigenvalue GAMMA=   0.7825
  2.3409  1.4975  0.8549  0.8549  0.5396  0.5396  0.3671  0.3671  0.2319  0.2319

 Free energy of the ion-electron system (eV)
  ---------------------------------------------------
  alpha Z        PSCENC =      2431.37857233
  Ewald energy   TEWEN  =    -42299.73085896
  -Hartree energ DENC   =    -21781.63175065
  -exchange      EXHF   =         0.00000000
  -V(xc)+E(xc)   XCENC  =      3243.88210316
  PAW double counting   =     86303.13784854   -85959.97159395
  entropy T*S    EENTRO =        -0.04772222
  eigenvalues    EBANDS =     -7787.19987267
  atomic energy  EATOM  =     64968.54023382
  Solvation  Ediel_sol  =         0.00000000
  ---------------------------------------------------
  free energy    TOTEN  =      -881.64304060 eV

  energy without entropy =     -881.59531838  energy(sigma->0) =     -881.61917949


--------------------------------------------------------------------------------------------------------




--------------------------------------- Iteration      1(  16)  ---------------------------------------


    POTLOK:  cpu time    0.1470: real time    0.1655
    SETDIJ:  cpu time    0.3533: real time    0.3533
     EDDAV:  cpu time   47.3699: real time   47.3710
       DOS:  cpu time    0.0027: real time    0.0027
    CHARGE:  cpu time    1.5547: real time    1.5547
    MIXING:  cpu time    0.0082: real time    0.0082
    --------------------------------------------
      LOOP:  cpu time   49.4358: real time   49.4553

 eigenvalue-minimisations  : 10960
 total energy-change (2. order) : 0.3409379E-01  (-0.1805422E-01)
 number of electron     864.0000007 magnetization 
 augmentation part      117.0905941 magnetization 

 Broyden mixing:
  rms(total) = 0.55015E+00    rms(broyden)= 0.54969E+00
  rms(prec ) = 0.75374E+00
  weight for this iteration     100.00

 eigenvalues of (default mixing * dielectric matrix)
  average eigenvalue GAMMA=   0.7127
  2.3446  1.4957  0.8451  0.8451  0.4876  0.4876  0.3928  0.3928  0.2366  0.2366
  0.0745

 Free energy of the ion-electron system (eV)
  ---------------------------------------------------
  alpha Z        PSCENC =      2431.37857233
  Ewald energy   TEWEN  =    -42299.73085896
  -Hartree energ DENC   =    -21782.54366374
  -exchange      EXHF   =         0.00000000
  -V(xc)+E(xc)   XCENC  =      3243.91600461
  PAW double counting   =     86265.06722898   -85921.70661770
  entropy T*S    EENTRO =        -0.05687745
  eigenvalues    EBANDS =     -7786.47296870
  atomic energy  EATOM  =     64968.54023382
  Solvation  Ediel_sol  =         0.00000000
  ---------------------------------------------------
  free energy    TOTEN  =      -881.60894682 eV

  energy without entropy =     -881.55206936  energy(sigma->0) =     -881.58050809


--------------------------------------------------------------------------------------------------------




--------------------------------------- Iteration      1(  17)  ---------------------------------------


    POTLOK:  cpu time    0.1474: real time    0.1609
    SETDIJ:  cpu time    0.3537: real time    0.3537
     EDDAV:  cpu time   43.3134: real time   43.3146
       DOS:  cpu time    0.0027: real time    0.0027
    CHARGE:  cpu time    1.5887: real time    1.5887
    MIXING:  cpu time    0.0078: real time    0.0078
    --------------------------------------------
      LOOP:  cpu time   45.4137: real time   45.4284

 eigenvalue-minimisations  :  9784
 total energy-change (2. order) : 0.3992665E-01  (-0.4486842E-02)
 number of electron     864.0000007 magnetization 
 augmentation part      117.1043965 magnetization 

 Broyden mixing:
  rms(total) = 0.30847E+00    rms(broyden)= 0.30843E+00
  rms(prec ) = 0.41455E+00
  weight for this iteration     100.00

 eigenvalues of (default mixing * dielectric matrix)
  average eigenvalue GAMMA=   0.7027
  2.3544  1.5466  0.8486  0.8486  0.6991  0.4402  0.4402  0.3433  0.3433  0.2181
  0.2181  0.1322

 Free energy of the ion-electron system (eV)
  ---------------------------------------------------
  alpha Z        PSCENC =      2431.37857233
  Ewald energy   TEWEN  =    -42299.73085896
  -Hartree energ DENC   =    -21782.42232881
  -exchange      EXHF   =         0.00000000
  -V(xc)+E(xc)   XCENC  =      3243.91324140
  PAW double counting   =     86262.11718270   -85918.76821578
  entropy T*S    EENTRO =        -0.06440514
  eigenvalues    EBANDS =     -7786.53244172
  atomic energy  EATOM  =     64968.54023382
  Solvation  Ediel_sol  =         0.00000000
  ---------------------------------------------------
  free energy    TOTEN  =      -881.56902017 eV

  energy without entropy =     -881.50461502  energy(sigma->0) =     -881.53681759


--------------------------------------------------------------------------------------------------------




--------------------------------------- Iteration      1(  18)  ---------------------------------------


    POTLOK:  cpu time    0.1160: real time    0.1360
    SETDIJ:  cpu time    0.3449: real time    0.3449
     EDDAV:  cpu time   48.3325: real time   48.3331
       DOS:  cpu time    0.0027: real time    0.0027
    CHARGE:  cpu time    1.5682: real time    1.5682
    MIXING:  cpu time    0.0080: real time    0.0080
    --------------------------------------------
      LOOP:  cpu time   50.3723: real time   50.3928

 eigenvalue-minimisations  : 11256
 total energy-change (2. order) :-0.1556109E+00  (-0.3439081E-01)
 number of electron     864.0000007 magnetization 
 augmentation part      117.0777116 magnetization 

 Broyden mixing:
  rms(total) = 0.89759E+00    rms(broyden)= 0.89745E+00
  rms(prec ) = 0.12834E+01
  weight for this iteration     100.00

 eigenvalues of (default mixing * dielectric matrix)
  average eigenvalue GAMMA=   0.6613
  2.3108  1.5673  0.9119  0.9119  0.4986  0.4986  0.5031  0.3295  0.3295  0.2312
  0.2312  0.1988  0.0750

 Free energy of the ion-electron system (eV)
  ---------------------------------------------------
  alpha Z        PSCENC =      2431.37857233
  Ewald energy   TEWEN  =    -42299.73085896
  -Hartree energ DENC   =    -21784.57769467
  -exchange      EXHF   =         0.00000000
  -V(xc)+E(xc)   XCENC  =      3243.98515141
  PAW double counting   =     86238.71404319   -85895.19729706
  entropy T*S    EENTRO =        -0.05183229
  eigenvalues    EBANDS =     -7784.78494883
  atomic energy  EATOM  =     64968.54023382
  Solvation  Ediel_sol  =         0.00000000
  ---------------------------------------------------
  free energy    TOTEN  =      -881.72463106 eV

  energy without entropy =     -881.67279877  energy(sigma->0) =     -881.69871492


--------------------------------------------------------------------------------------------------------




--------------------------------------- Iteration      1(  19)  ---------------------------------------


    POTLOK:  cpu time    0.1570: real time    0.1726
    SETDIJ:  cpu time    0.3639: real time    0.3659
     EDDAV:  cpu time   45.2001: real time   45.2017
       DOS:  cpu time    0.0024: real time    0.0024
    CHARGE:  cpu time    1.5595: real time    1.5595
    MIXING:  cpu time    0.0081: real time    0.0081
    --------------------------------------------
      LOOP:  cpu time   47.2908: real time   47.3101

[...]
   0.635E+02 -.504E+02 0.101E+03   -.983E+02 0.388E+02 -.934E+02   0.321E+02 0.121E+02 -.391E+01   -.198E-01 -.231E-01 0.449E-01
   -.117E+02 -.667E+02 0.154E+03   0.264E+02 0.778E+02 -.169E+03   -.145E+02 -.772E+01 0.150E+02   -.150E-02 -.396E-02 -.280E-02
   0.587E+02 -.386E+02 -.891E+02   -.779E+02 0.366E+02 0.909E+02   0.199E+02 0.322E+01 -.193E+00   -.214E-01 0.141E-02 0.159E-02
   0.367E+02 0.703E+02 0.453E+02   -.549E+02 -.575E+02 -.578E+02   0.193E+02 -.144E+02 0.131E+02   0.351E-02 0.739E-02 -.147E-01
   0.782E+02 0.120E+03 -.155E+01   -.925E+02 -.144E+03 -.174E+02   0.122E+02 0.258E+02 0.194E+02   -.173E-02 0.644E-02 0.227E-02
   0.208E+03 0.335E+02 0.791E+02   -.239E+03 -.383E+02 -.908E+02   0.295E+02 0.564E+01 0.129E+02   0.388E-02 0.599E-02 0.238E-02
   0.236E+02 -.484E+02 -.610E+02   -.187E+02 0.379E+02 0.539E+02   -.564E+01 0.124E+02 0.897E+01   0.587E-02 0.156E-01 -.234E-02
   -.129E+03 -.707E+02 -.122E+03   0.156E+03 0.540E+02 0.124E+03   -.228E+02 0.187E+02 0.314E+01   -.343E-02 -.342E-02 0.107E-01
   0.876E+02 -.198E+02 -.203E+03   -.109E+03 -.166E+01 0.222E+03   0.210E+02 0.234E+02 -.186E+02   0.332E-03 -.436E-02 0.492E-03
   -.934E+02 -.807E+01 -.655E+02   0.117E+03 -.563E+01 0.562E+02   -.272E+02 0.144E+02 0.867E+01   -.144E-02 -.854E-02 -.735E-02
   -.531E+02 0.566E+02 -.334E+02   0.434E+02 -.437E+02 0.488E+02   0.108E+02 -.159E+02 -.174E+02   -.384E-02 0.106E-01 0.303E-02
   0.108E+03 -.850E+02 0.119E+03   -.116E+03 0.907E+02 -.130E+03   0.843E+01 -.651E+01 0.119E+02   0.103E-01 0.112E-01 0.126E-01
   -.193E+03 0.274E+02 0.913E+01   0.214E+03 -.101E+02 0.723E+01   -.187E+02 -.176E+02 -.157E+02   0.157E-01 0.234E-01 0.338E-01
   -.498E+02 -.589E+02 -.458E+02   0.553E+02 0.323E+02 0.435E+02   -.415E+01 0.304E+02 0.337E+01   -.399E-02 -.537E-01 -.688E-01
   -.167E+02 -.540E+02 0.140E+03   0.455E+00 0.443E+02 -.162E+03   0.187E+02 0.561E+01 0.121E+02   -.685E-02 0.205E-02 0.109E-01
   0.820E+01 0.611E+02 -.136E+03   -.312E+01 -.766E+02 0.150E+03   -.466E+01 0.165E+02 -.154E+02   0.742E-02 0.214E-03 -.623E-02
   -.644E+02 -.305E+02 -.741E+02   0.629E+02 0.387E+02 0.664E+02   0.224E+01 -.973E+01 0.792E+01   0.292E-03 0.122E-02 -.385E-03
   -.908E+02 -.609E+02 -.502E+02   0.108E+03 0.653E+02 0.575E+02   -.193E+02 -.447E+01 -.851E+01   0.344E-02 -.184E-01 -.188E-01
   -.982E+02 -.455E+02 -.126E+03   0.123E+03 0.588E+02 0.141E+03   -.236E+02 -.115E+02 -.107E+02   0.405E-02 -.102E-01 0.149E-02
   -.686E+02 -.168E+03 -.679E+02   0.609E+02 0.192E+03 0.908E+02   0.991E+01 -.231E+02 -.235E+02   -.236E-03 0.770E-02 -.168E-01
   0.402E+02 0.385E+02 -.126E+03   -.471E+02 -.384E+02 0.140E+03   0.838E+01 -.204E+01 -.164E+02   0.161E-02 -.580E-03 -.217E-02
   0.557E+02 0.906E+02 -.896E+02   -.719E+02 -.946E+02 0.725E+02   0.169E+02 0.381E+01 0.193E+02   -.776E-02 0.763E-02 0.183E-03
   -.749E+02 0.125E+02 -.194E+02   0.832E+02 -.273E+02 0.145E+02   -.103E+02 0.174E+02 0.480E+01   -.368E-02 -.896E-02 -.471E-02
   0.114E+03 -.921E+02 -.377E+02   -.108E+03 0.104E+03 0.304E+02   -.530E+01 -.123E+02 0.949E+01   0.882E-02 0.743E-02 0.868E-03
   0.163E+02 -.326E+02 0.906E+02   -.993E+01 0.889E+01 -.113E+03   -.692E+01 0.235E+02 0.212E+02   0.194E-01 -.103E-01 0.753E-02
   -.479E+02 -.968E+02 0.530E+02   0.455E+02 0.129E+03 -.653E+02   0.425E+01 -.275E+02 0.487E+01   0.796E-02 -.463E-02 -.518E-02
   -.583E+02 0.602E+02 0.148E+03   0.535E+02 -.341E+02 -.171E+03   0.430E+01 -.232E+02 0.182E+02   0.153E-01 0.165E-01 0.294E-01
   -.902E+02 -.351E+02 0.166E+03   0.107E+03 0.774E+02 -.180E+03   -.132E+02 -.333E+02 0.104E+02   -.743E-02 0.137E-01 0.327E-02
   -.114E+03 -.101E+03 -.688E+02   0.142E+03 0.110E+03 0.640E+02   -.305E+02 -.866E+01 0.585E+01   -.302E-02 0.499E-02 0.789E-03
   -.310E+02 0.802E+02 0.833E+02   0.261E+02 -.918E+02 -.937E+02   0.594E+01 0.148E+02 0.134E+02   0.388E-02 -.670E-02 -.106E-03
   -.132E+03 -.720E+02 -.373E+02   0.159E+03 0.775E+02 0.432E+02   -.258E+02 0.633E+00 -.736E+01   0.424E-02 -.468E-02 0.648E-02
   0.117E+02 -.317E+02 -.124E+02   -.180E+02 0.419E+02 0.136E+02   0.702E+01 -.121E+02 -.866E+00   0.106E-01 0.485E-02 0.374E-03
   -.516E+01 0.104E+03 -.620E+02   -.128E+02 -.116E+03 0.809E+02   0.194E+02 0.115E+02 -.187E+02   0.709E-02 0.686E-02 0.702E-02
   -.164E+02 0.432E+02 -.633E+02   0.257E+02 -.711E+02 0.416E+02   -.114E+02 0.285E+02 0.231E+02   -.190E-01 0.104E-01 -.216E-01
   -.475E+02 0.292E+02 0.659E+02   0.229E+02 -.277E+02 -.615E+02   0.272E+02 -.142E+01 -.589E+01   -.132E-01 0.850E-02 0.103E-01
   -.426E+02 -.434E+02 -.217E+03   0.741E+02 0.341E+02 0.235E+03   -.283E+02 0.955E+01 -.179E+02   -.833E-02 0.825E-03 -.524E-02
   -.739E+02 0.243E+03 0.557E+02   0.581E+02 -.277E+03 -.484E+02   0.145E+02 0.295E+02 -.585E+01   0.680E-02 -.478E-02 0.112E-01
   0.849E+02 0.213E+02 0.190E+03   -.852E+02 -.285E+02 -.201E+03   -.759E+00 0.706E+01 0.110E+02   -.529E-02 -.816E-02 -.159E-03
   0.952E+02 -.451E+02 0.182E+02   -.103E+03 0.505E+02 -.311E+02   0.884E+01 -.606E+01 0.163E+02   0.215E-01 0.861E-02 -.310E-01
   -.292E+02 0.606E+02 0.351E+02   0.267E+02 -.610E+02 -.336E+02   0.223E+01 -.843E+00 -.307E+01   -.456E-01 0.187E-01 -.178E-01
   0.173E+03 -.112E+03 0.179E+03   -.174E+03 0.138E+03 -.193E+03   -.119E+01 -.223E+02 0.121E+02   -.423E-02 -.653E-02 -.338E-02
   -.937E+02 0.164E+03 -.847E+02   0.979E+02 -.181E+03 0.108E+03   -.224E+01 0.147E+02 -.235E+02   -.247E-02 0.275E-02 0.735E-03
   -.372E+02 -.822E+02 -.521E+02   0.253E+02 0.108E+03 0.519E+02   0.129E+02 -.279E+02 0.238E+00   -.112E-01 -.794E-02 -.131E-01
   -.448E+01 0.321E+02 0.227E+02   0.615E+01 -.375E+02 -.170E+02   -.205E+01 0.479E+01 -.648E+01   -.276E-02 0.282E-01 0.462E-02
   -.859E+01 -.142E+02 -.403E+02   0.271E+02 0.229E+01 0.317E+02   -.183E+02 0.141E+02 0.943E+01   0.639E-02 0.711E-02 -.602E-02
   -.658E+02 -.483E+01 0.152E+02   0.695E+02 0.148E+02 0.316E+01   -.167E+01 -.122E+02 -.209E+02   0.120E-01 -.688E-02 0.519E-02
   -.101E+03 -.373E+02 0.143E+03   0.119E+03 0.871E+01 -.142E+03   -.172E+02 0.306E+02 -.178E+00   -.923E-02 0.309E-03 -.986E-02
   -.598E+02 0.179E+02 -.851E+02   0.659E+02 -.228E+02 0.849E+02   -.617E+01 0.730E+01 0.829E+00   -.195E-02 -.515E-02 -.845E-03
 -----------------------------------------------------------------------------------------------
   0.945E+02 0.996E+01 -.413E+02   -.412E-12 -.238E-12 0.725E-12   -.944E+02 -.100E+02 0.413E+02   -.282E-01 0.379E-01 -.436E-01
 
 
 POSITION                                       TOTAL-FORCE (eV/Angst)
 -----------------------------------------------------------------------------------
      6.94049      2.47206     10.09122        -1.648984     -2.760761     -0.154899
      0.10370      1.39932      6.97598        -0.676504     -0.502497      0.637008
      2.24425      3.16910      1.21642         1.516451      0.749070      0.557195
      3.77769      5.55486      9.63547        -1.335663     -0.674545     -2.676794
      3.90549      1.39242      8.00242         1.785840      0.344073     -2.536099
      5.63210     10.70380      2.55653         2.321383     -0.867551     -1.727841
      4.67398      7.77884      4.65664        -1.590849     -0.060135     -0.955967
      1.86654      4.04351      4.38091         1.964676      4.636162      1.080756
      6.01671     10.11777     10.76126         1.620361      0.230529     -0.113665
     11.19060     12.26416      1.08307        -0.076483     -2.103102      4.268648
      6.43077      7.24765      1.51436         0.491960     -0.908876      1.001099
      8.59073     11.55795      5.28384         0.934548      0.000891     -1.010679
      1.47556      8.01187     10.91603        -0.523282      0.180234      0.549945
      0.52423      5.14688      7.75216        -3.257181     -4.018829      0.080439
      2.04557     12.27862      9.47775         0.033885     -2.489846      1.065373
      1.20654      7.92617      1.55531         0.344703     -0.401140     -0.085511
      8.87502     11.03839      8.44300         1.955006     -0.064825      0.840997
      0.02748     11.08497      5.89699        -0.342679      0.910267     -0.660307
      8.18321      5.53200      9.72140         1.399668      1.056555      2.421761
      5.88710      8.00062      7.54267         0.096412     -1.541786      0.637445
     11.82238      5.11953     12.11888        -0.466354      0.810551     -0.988711
     10.11697      6.19613      7.08422         0.166146     -1.185472     -0.134543
     12.23373      9.75501      8.65637        -1.105866      1.787565      1.516054
      8.40880     12.28351     12.10170        -4.485532     -1.219884      1.633892
      5.98195      0.95521      4.97104        -0.585871      1.694166      0.725458
      9.70470      1.90247      6.02931         0.666180      1.425354      0.975694
      7.03719      3.92461      2.64302        -0.186482     -4.234528     -3.489460
      2.86446     11.29791      4.69261         0.218954      0.960200      3.361546
      0.37812      1.55668      3.97278         2.707954      5.999182      5.322423
      5.32704      3.67417     11.97485        -1.235654      1.404168      3.341645
      9.17048     10.13460      2.50610         0.162625     -2.343730     -1.850838
      1.07478      7.70674      7.21901        -0.599522     -0.900548     -3.485578
      1.92298      2.67385      9.82634         2.685814      3.836659      3.583764
      1.48168     11.95668      2.18626         1.222093      0.817557      2.100785
      3.18438      8.89551      8.02595         0.530643      3.658507     -1.967437
      6.22843     10.79297      7.58415        -2.675705      1.875206     -3.665508
      8.68958      3.35624     11.97532         0.412315      2.224686     -0.635460
      3.87039      4.14049      6.26230        -1.810728     -6.425370      5.784793
      9.83670      8.71953      5.88915         7.094557      0.501364      1.557854
      8.95611      9.06721      0.11251        -1.915203     -1.212808      0.928818
      4.55928      4.94361      3.42199        -3.525576     -1.319316      1.693515
      9.32429      4.39352      1.82468         7.724794     -1.844846      3.821168
      0.16287      8.01269      4.65199        -5.583836    -10.463052      0.650981
      4.62375      0.68654     11.60935        -2.793873      1.414195     -1.443488
      2.62421     10.92311     12.52046        -5.215585     -2.019070      1.555468
     10.16285      8.04644     10.69533        -0.450751     -3.749346      2.239795
      6.84266      3.97540      7.27293         1.354274      3.516637      3.537259
      8.20636      1.48763      2.84044         2.104529     -6.998847     -0.036747
      7.37969      8.33257      5.21386        -1.844091      5.399986     -3.524353
     12.04036      5.26833      3.69846         1.158971     -2.876218      0.907194
     10.52979      0.04909     10.77524        -1.385164     -1.043778     -9.709941
      9.89100      3.10806      8.89067        -2.944646     -1.717033     -1.553838
      4.90071      7.62846     11.06876         3.596178     -1.297535      0.999009
      0.03741      1.51083     11.18884        -3.075751      3.404591      0.652603
      1.82843      4.31867     10.23877         0.047028     -3.485532     -1.854212
      3.46643      7.96225      6.68521        -0.037767      0.591926      1.265902
      7.44415     11.93543      7.32858        -0.249203      0.467954     -2.215576
      1.57902      2.24897      4.92640        -3.596192     -6.524572     -0.562348
      7.06504      9.59368      8.31984         0.128088      1.662742      2.270436
     10.83757     10.10784      6.67076        -3.300091     -4.421311     -0.698562
     10.63305      4.84833      3.15112        -4.257364     -0.213658     -2.603645
      1.79821      1.98099      8.41357        -0.837865      0.287551      0.646118
     10.98962      7.85273      4.76262        -1.094356      1.084816      2.149274
      9.89748     10.29745      0.76392        -0.332695      0.810652      0.196885
      5.99805      8.33144     12.08917        -3.579395     -1.458519     -1.133195
      7.83289     10.85102      2.97469        -2.422556      0.624974      0.374023
      4.78010      3.86086      9.99355         3.459127     -2.093241      4.843859
      2.18246      4.39473      6.67112         2.305902     -2.868521      0.170577
      7.31591     10.00023      0.15642         2.939675      0.490755      0.299614
      8.91193      8.32653      2.00075        -0.096489      4.103548     -0.800987
      7.53937      5.40107      7.89130        -3.349037     -0.207899     -4.681803
      3.57341     11.83737     11.73816         3.952075      3.554905     -1.882177
      8.31395      5.53425      1.61762        -1.172859     -0.332149      0.248451
      3.77389      3.52514      3.26109        -0.488167      1.207342     -1.914679
      4.14509     10.84384      3.93435        -0.857626     -0.215093      0.077780
      4.83678      4.81030      0.80038         1.638865     -2.253122     -3.164567
      7.24500      4.74201     11.52584         1.281007     -2.765002      0.397707
     10.45249     11.26363      9.79310         1.096094      0.372159      2.407541
      9.69627      4.14455      7.59506         4.935185      0.264860     -0.015365
      8.48899      1.25103      4.54971        -2.338139     -1.811809     -2.852946
      5.72944      7.44397      9.65505        -2.162044     -0.289271      1.417408
      6.60067      8.40303      3.38974         0.053165      0.576959      2.466302
      3.06534     11.61070      6.26644        -1.709757     -0.223202     -2.275620
      9.85102      7.47735     12.36042        -1.073003      2.241330     -1.788022
      8.10062      3.30828      8.69897        -1.820183     -1.602688      0.584611
     11.27216      9.12018     10.85069         3.908039      0.157671     -1.637234
     12.27515      5.22156      5.35952        -1.579261     -1.734681     -1.976115
     11.55305      1.21310      4.55875        -2.725885      0.452664      3.458367
      0.34032      6.49749      3.07743         0.189984      3.366783      0.572966
     11.96680      7.37038      7.43829         0.566410      1.196644      1.581365
      8.72818      9.10029     10.75034         1.088309     -1.601429      0.642232
      0.80620     10.95380      1.15294        -2.155516      1.668665      0.365925
      6.64703      1.35132      2.61400        -1.403021      0.883039      1.235656
      8.93616      0.36900      1.63256        -0.780528      1.905717      1.820522
      1.88195      6.41355      7.63263         3.917693      2.071673      4.347282
      3.78831      6.58750     11.47498        -0.849501      1.909426      0.333514
     10.21938      3.73128      0.58171        -3.101962      0.650680     -0.667410
      2.26041      9.75860      9.18346         1.070140     -3.001107     -1.941330
      6.34444      9.95579      5.82055         0.735372     -0.741083      0.785941
     10.21823     10.94316      3.36565         2.088147     -0.219104      0.692413
     10.48814      1.61831      8.32473         1.301412      3.764930      0.991134
      0.31809      0.74477      2.73643         2.529256     -4.089099     -9.602786
      6.62641      2.44729     12.44452         0.421100      0.998427     -1.318549
      3.78863      1.49661     10.23511         0.665303     -1.475885      0.168467
      9.80861      3.52669     10.62353        -1.844607     -0.046542     -1.155603
      6.06426      5.00596      3.66034         1.653091      1.681815      4.472500
     10.27643      0.81734     12.13467         2.138215      1.174233     -0.728986
      4.18030      2.34835      0.17080         1.409668     -1.926339     -2.360882
      1.59986     10.58476     11.20104         0.678542     -0.259111      2.140483
     10.69407      6.39306     10.04430        -2.025841      2.616908     -0.102249
      4.56064      9.80308      7.75318         0.012243      0.145210      2.173782
      7.06983      2.84744      6.23285        -0.543549     -0.248560     -0.767347
      3.92858      5.23198      5.28062         1.803782      5.054317     -7.456939
      8.67469      9.27595      5.05696        -0.445267      2.958112     -4.418260
      0.66620      9.29026      4.32052         3.612536      9.035112     -2.799731
      3.00266     12.28479      1.55891        -2.876873      0.519627      1.032428
      4.07087      2.29230      5.62133         1.004674      3.125693      2.952135
      9.14777      2.72999      2.67659         0.242611      6.047004     -1.504457
      5.20860     12.25814      7.82776         0.697872     -1.969978      0.322996
      8.69733      7.82130      6.71432         1.461525     -0.477633      0.274840
     12.29554      0.17772     10.36504        -2.038858      0.585383      1.389352
      1.37961     11.64532      4.00767         2.609751      0.063287     -1.563756
      1.58355      1.65175     11.18912         3.248820      0.330156     -0.229102
      6.45365      7.23108      5.63457        -1.270956     -4.202427      1.473119
      0.48576      3.89498      2.83441        -1.000466     -0.117048     -0.587174
      8.90789      0.66177      9.89350         0.818971     -0.668692      3.422742
      0.59997     12.03993      7.99817        -0.352054     -1.301642     -1.554660
      4.44883      6.40016      2.91281        -2.758391      3.829806     -1.702828
      2.82411      9.79993      1.09700         1.991057     -2.941717     -0.459641
     12.04484      3.02873     11.25765         0.887626     -2.161572      0.029536
     10.53394      0.02505      6.76467        -0.381338     -0.546048     -0.844238
      5.91234     12.30004     11.14631         0.252717      2.278167      0.875764
      4.78770      4.61178      7.66377         2.012619     -2.251884     -2.508523
      1.05604      7.08972      5.57907         1.179598      1.968982      0.761058
      1.03809      6.27862     12.34240        -0.057737      2.371486      0.575774
 -----------------------------------------------------------------------------------
    total drift:                                0.022581     -0.006409      0.005292


--------------------------------------------------------------------------------------------------------



  FREE ENERGIE OF THE ION-ELECTRON SYSTEM (eV)
  ---------------------------------------------------
  free  energy   TOTEN  =      -881.55112439 eV

  energy  without entropy=     -881.48099077  energy(sigma->0) =     -881.51605758
 


--------------------------------------------------------------------------------------------------------


    POTLOK:  cpu time    0.4597: real time    0.4619


--------------------------------------------------------------------------------------------------------


     LOOP+:  cpu time 1589.4905: real time 1590.1183
    4ORBIT:  cpu time    0.0000: real time    0.0000

 total amount of memory used by VASP MPI-rank0   175615. kBytes
=======================================================================

   base      :      30000. kBytes
   nonlr-proj:      20285. kBytes
   fftplans  :      25568. kBytes
   grid      :      13529. kBytes
   one-center:        171. kBytes
   wavefun   :      86062. kBytes
 
  
  
 General timing and accounting informations for this job:
 ========================================================
  
                  Total CPU time used (sec):     1614.900
                            User time (sec):     1606.430
                          System time (sec):        8.470
                         Elapsed time (sec):     1615.749
  
                   Maximum memory used (kb):      323548.
                   Average memory used (kb):           0.
  
                          Minor page faults:       171080
                          Major page faults:            0
                 Voluntary context switches:         3092
