 running on   52 total cores
 distrk:  each k-point on   52 cores,    1 groups
 distr:  one band on   13 cores,    4 groups
 using from now: INCAR     
 vasp.5.4.4.18Apr17-6-g9f103f2a35 (build Oct 31 2019 15:01:46) complex          
  
 POSCAR found type information on POSCAR  Ca Si O 
 POSCAR found :  3 types and     135 ions
 scaLAPACK is switched off
 LDA part: xc-table for Pade appr. of Perdew
 generate k-points for:    2    2    2
 POSCAR, INCAR and KPOINTS ok, starting setup
 FFT: planning ...
 WAVECAR not read
 entering main loop
       N       E                     dE             d eps       ncg     rms          rms(c)
DAV:   1     0.932622120832E+04    0.93262E+04   -0.46692E+05  8320   0.176E+03
DAV:   2     0.528540935399E+02   -0.92734E+04   -0.89886E+04 10144   0.461E+02
DAV:   3    -0.989361653308E+03   -0.10422E+04   -0.10333E+04 10256   0.156E+02
DAV:   4    -0.103888343548E+04   -0.49522E+02   -0.49333E+02 11312   0.324E+01
DAV:   5    -0.104507192435E+04   -0.61885E+01   -0.61853E+01 14840   0.728E+00    0.860E+01
DAV:   6    -0.875043040753E+03    0.17003E+03   -0.82196E+02  9968   0.433E+01    0.414E+01
DAV:   7    -0.879930517921E+03   -0.48875E+01   -0.14983E+02 10168   0.171E+01    0.260E+01
DAV:   8    -0.871802168640E+03    0.81283E+01   -0.30818E+01 12112   0.106E+01    0.162E+01
DAV:   9    -0.873224004377E+03   -0.14218E+01   -0.27962E+01 10776   0.836E+00    0.295E+01
DAV:  10    -0.872519321900E+03    0.70468E+00   -0.25909E+01 10192   0.415E+00    0.152E+01
DAV:  11    -0.871303729262E+03    0.12156E+01   -0.59290E+00 10776   0.332E+00    0.114E+01
DAV:  12    -0.871011489862E+03    0.29224E+00   -0.32268E+00 10864   0.242E+00    0.821E+00
DAV:  13    -0.870440992213E+03    0.57050E+00   -0.22130E+00 11216   0.215E+00    0.978E+00
DAV:  14    -0.869415905033E+03    0.10251E+01   -0.91919E-01 10368   0.164E+00    0.456E+00
DAV:  15    -0.869265302083E+03    0.15060E+00   -0.57498E-01 10216   0.962E-01    0.489E+00
DAV:  16    -0.869026127207E+03    0.23917E+00   -0.34161E-01 10784   0.791E-01    0.364E+00
DAV:  17    -0.868995959630E+03    0.30168E-01   -0.10236E-01 10632   0.413E-01    0.308E+00
DAV:  18    -0.868951657204E+03    0.44302E-01   -0.55630E-01 10608   0.471E-01    0.304E+00
DAV:  19    -0.868950900155E+03    0.75705E-03   -0.39202E-01 10600   0.626E-01    0.600E+00
DAV:  20    -0.868910269153E+03    0.40631E-01   -0.27519E-02  9728   0.255E-01    0.510E+00
DAV:  21    -0.868926779473E+03   -0.16510E-01   -0.15996E-01 10664   0.579E-01    0.599E+00
DAV:  22    -0.868877728525E+03    0.49051E-01   -0.67321E-02  9824   0.321E-01    0.486E+00
DAV:  23    -0.868844703143E+03    0.33025E-01   -0.88389E-02 11264   0.435E-01    0.260E+00
DAV:  24    -0.868829727944E+03    0.14975E-01   -0.26080E-02  9280   0.228E-01    0.105E+00
DAV:  25    -0.868838182430E+03   -0.84545E-02   -0.18238E-02 10584   0.197E-01    0.285E+00
DAV:  26    -0.868820118107E+03    0.18064E-01   -0.99513E-03  9832   0.136E-01    0.437E-01
DAV:  27    -0.868823032174E+03   -0.29141E-02   -0.22389E-03  9136   0.868E-02    0.525E-01
DAV:  28    -0.868823626184E+03   -0.59401E-03   -0.59078E-03  9864   0.925E-02    0.992E-01
DAV:  29    -0.868821849309E+03    0.17769E-02   -0.19643E-03 10400   0.517E-02    0.198E-01
DAV:  30    -0.868822210131E+03   -0.36082E-03   -0.10037E-03  9048   0.378E-02    0.969E-02
DAV:  31    -0.868822338031E+03   -0.12790E-03   -0.36938E-04  9912   0.207E-02    0.245E-01
DAV:  32    -0.868822224846E+03    0.11319E-03   -0.18498E-04  9256   0.166E-02    0.741E-02
DAV:  33    -0.868822229652E+03   -0.48064E-05   -0.40050E-05  9824   0.847E-03    0.144E-02
DAV:  34    -0.868822238910E+03   -0.92578E-05   -0.10803E-05  8008   0.533E-03    0.231E-02
DAV:  35    -0.868822239417E+03   -0.50709E-06   -0.44252E-06  6792   0.268E-03
   1 F= -.86882224E+03 E0= -.86879474E+03  d E =-.549951E-01
