 vasp.5.4.4.18Apr17-6-g9f103f2a35 (build Oct 31 2019 15:01:46) complex          
  
 executed on             LinuxIFC date 2024.04.29  15:29:13
 running on   52 total cores
 distrk:  each k-point on   52 cores,    1 groups
 distr:  one band on NCORES_PER_BAND=  13 cores,    4 groups


--------------------------------------------------------------------------------------------------------


 INCAR:
 POTCAR:    PAW_PBE Ca_sv 06Sep2000               
 POTCAR:    PAW_PBE Si 05Jan2001                  
 POTCAR:    PAW_PBE O 08Apr2002                   
 POTCAR:    PAW_PBE Ca_sv 06Sep2000               
   SHA256 =  a47365830e737f14e0e6c5cf1ed81b94e081eecf0a33df105380881bc9da05d5 Ca
   COPYR  = (c) Copyright 06Sep2000 Georg Kresse                                
   COPYR  = This file is part of the software VASP. Any use, copying, and all ot
   COPYR  = If you do not have a valid VASP license, you may not use, copy or di
   VRHFIN =Ca: 3s3p4s                                                           
   LEXCH  = PE                                                                  
   EATOM  =  1006.0909 eV,   73.9456 Ry                                         
                                                                                
   TITEL  = PAW_PBE Ca_sv 06Sep2000                                             
   LULTRA =        F    use ultrasoft PP ?                                      
   IUNSCR =        1    unscreen: 0-lin 1-nonlin 2-no                           
   RPACOR =    2.000    partial core radius                                     
   POMASS =   40.078; ZVAL   =   10.000    mass and valenz                      
   RCORE  =    2.300    outmost cutoff radius                                   
   RWIGS  =    2.500; RWIGS  =    1.323    wigner-seitz radius (au A)           
   ENMAX  =  266.622; ENMIN  =  199.967 eV                                      
   RCLOC  =    1.808    cutoff for local pot                                    
   LCOR   =        T    correct aug charges                                     
   LPAW   =        T    paw PP                                                  
   EAUG   =  420.852                                                            
   RMAX   =    2.359    core radius for proj-oper                               
   RAUG   =    1.300    factor for augmentation sphere                          
   RDEP   =    2.392    radius for radial grids                                 
   RDEPT  =    1.987    core radius for aug-charge                              
                                                                                
   Atomic configuration                                                         
    7 entries                                                                   
     n  l   j            E        occ.                                          
     1  0  0.50     -3949.1705   2.0000                                         
     2  0  0.50      -414.3434   2.0000                                         
     2  1  1.50      -334.7047   6.0000                                         
     3  0  0.50       -47.0896   2.0000                                         
     4  0  0.50        -3.7663   2.0000                                         
     3  1  1.50       -28.0061   6.0000                                         
     3  2  1.50        -4.0817   0.0000                                         
   Description                                                                  
     l       E           TYP  RCUT    TYP  RCUT                                 
     0    -47.0896403     23  2.300                                             
     0     -3.7663320     23  2.300                                             
     1    -28.0060855     23  2.300                                             
     1      6.8029130     23  2.300                                             
     2     -4.0817478     23  2.300                                             
     2      0.4464412     23  2.300                                             
  local pseudopotential read in
  partial core-charges read in
  partial kinetic energy density read in
  atomic valenz-charges read in
  non local Contribution for L=           0  read in
    real space projection operators read in
  non local Contribution for L=           0  read in
    real space projection operators read in
  non local Contribution for L=           1  read in
    real space projection operators read in
  non local Contribution for L=           1  read in
    real space projection operators read in
  non local Contribution for L=           2  read in
    real space projection operators read in
  non local Contribution for L=           2  read in
    real space projection operators read in
    PAW grid and wavefunctions read in
 
   number of l-projection  operators is LMAX  =           6
   number of lm-projection operators is LMMAX =          18
 
 POTCAR:    PAW_PBE Si 05Jan2001                  
   SHA256 =  79d9987ad8750f624c4d6acb2a16d13abf6a777132adc04dc6c8399be72b42bb Si
   COPYR  = (c) Copyright 05Jan2001 Georg Kresse                                
   COPYR  = This file is part of the software VASP. Any use, copying, and all ot
   COPYR  = If you do not have a valid VASP license, you may not use, copy or di
   VRHFIN =Si: s2p2                                                             
   LEXCH  = PE                                                                  
   EATOM  =   103.0669 eV,    7.5752 Ry                                         
                                                                                
   TITEL  = PAW_PBE Si 05Jan2001                                                
   LULTRA =        F    use ultrasoft PP ?                                      
   IUNSCR =        1    unscreen: 0-lin 1-nonlin 2-no                           
   RPACOR =    1.500    partial core radius                                     
   POMASS =   28.085; ZVAL   =    4.000    mass and valenz                      
   RCORE  =    1.900    outmost cutoff radius                                   
   RWIGS  =    2.480; RWIGS  =    1.312    wigner-seitz radius (au A)           
   ENMAX  =  245.345; ENMIN  =  184.009 eV                                      
   ICORE  =        2    local potential                                         
   LCOR   =        T    correct aug charges                                     
   LPAW   =        T    paw PP                                                  
   EAUG   =  322.069                                                            
   DEXC   =    0.000                                                            
   RMAX   =    1.950    core radius for proj-oper                               
   RAUG   =    1.300    factor for augmentation sphere                          
   RDEP   =    1.993    radius for radial grids                                 
   RDEPT  =    1.837    core radius for aug-charge                              
                                                                                
   Atomic configuration                                                         
    6 entries                                                                   
     n  l   j            E        occ.                                          
     1  0  0.50     -1785.8828   2.0000                                         
     2  0  0.50      -139.4969   2.0000                                         
     2  1  1.50       -95.5546   6.0000                                         
     3  0  0.50       -10.8127   2.0000                                         
     3  1  0.50        -4.0811   2.0000                                         
     3  2  1.50        -4.0817   0.0000                                         
   Description                                                                  
     l       E           TYP  RCUT    TYP  RCUT                                 
     0    -10.8127223     23  1.900                                             
     0     -7.6451159     23  1.900                                             
     1     -4.0811372     23  1.900                                             
     1      2.4879257     23  1.900                                             
     2     -4.0817478      7  1.900                                             
  local pseudopotential read in
  partial core-charges read in
  partial kinetic energy density read in
  atomic valenz-charges read in
  non local Contribution for L=           0  read in
    real space projection operators read in
  non local Contribution for L=           0  read in
    real space projection operators read in
  non local Contribution for L=           1  read in
    real space projection operators read in
  non local Contribution for L=           1  read in
    real space projection operators read in
    PAW grid and wavefunctions read in
 
   number of l-projection  operators is LMAX  =           4
   number of lm-projection operators is LMMAX =           8
 
 POTCAR:    PAW_PBE O 08Apr2002                   
   SHA256 =  818f92134a0a090dccd8ba1447fa70422a3b330e708bb4f08108d8ae51209ddf O/
   COPYR  = (c) Copyright 08Apr2002 Georg Kresse                                
   COPYR  = This file is part of the software VASP. Any use, copying, and all ot
   COPYR  = If you do not have a valid VASP license, you may not use, copy or di
   VRHFIN =O: s2p4                                                              
   LEXCH  = PE                                                                  
   EATOM  =   432.3788 eV,   31.7789 Ry                                         
                                                                                
   TITEL  = PAW_PBE O 08Apr2002                                                 
   LULTRA =        F    use ultrasoft PP ?                                      
   IUNSCR =        1    unscreen: 0-lin 1-nonlin 2-no                           
   RPACOR =    1.200    partial core radius                                     
   POMASS =   16.000; ZVAL   =    6.000    mass and valenz                      
   RCORE  =    1.520    outmost cutoff radius                                   
   RWIGS  =    1.550; RWIGS  =    0.820    wigner-seitz radius (au A)           
   ENMAX  =  400.000; ENMIN  =  300.000 eV                                      
   ICORE  =        2    local potential                                         
   LCOR   =        T    correct aug charges                                     
   LPAW   =        T    paw PP                                                  
   EAUG   =  605.392                                                            
   DEXC   =    0.000                                                            
   RMAX   =    1.553    core radius for proj-oper                               
   RAUG   =    1.300    factor for augmentation sphere                          
   RDEP   =    1.550    radius for radial grids                                 
   RDEPT  =    1.329    core radius for aug-charge                              
                                                                                
   Atomic configuration                                                         
    4 entries                                                                   
     n  l   j            E        occ.                                          
     1  0  0.50      -514.6923   2.0000                                         
     2  0  0.50       -23.9615   2.0000                                         
     2  1  0.50        -9.0305   4.0000                                         
     3  2  1.50        -9.5241   0.0000                                         
   Description                                                                  
     l       E           TYP  RCUT    TYP  RCUT                                 
     0    -23.9615318     23  1.200                                             
     0     -9.5240782     23  1.200                                             
     1     -9.0304911     23  1.520                                             
     1      8.1634956     23  1.520                                             
     2     -9.5240782      7  1.500                                             
  local pseudopotential read in
  partial core-charges read in
  partial kinetic energy density read in
  kinetic energy density of atom read in
  atomic valenz-charges read in
  non local Contribution for L=           0  read in
    real space projection operators read in
  non local Contribution for L=           0  read in
    real space projection operators read in
  non local Contribution for L=           1  read in
    real space projection operators read in
  non local Contribution for L=           1  read in
    real space projection operators read in
    PAW grid and wavefunctions read in
 
   number of l-projection  operators is LMAX  =           4
   number of lm-projection operators is LMMAX =           8
 
 Optimization of the real space projectors (new method)

 maximal supplied QI-value         = 16.25
 optimisation between [QCUT,QGAM] = [ 12.51, 25.03] = [ 43.85,175.40] Ry 
 Optimized for a Real-space Cutoff    1.47 Angstroem

   l    n(q)    QCUT    max X(q) W(low)/X(q) W(high)/X(q)  e(spline) 
   0     11    12.514    11.817    0.25E-04    0.32E-05    0.87E-07
   0     11    12.514     8.461    0.39E-04    0.59E-05    0.18E-06
   1     11    12.514     3.957    0.97E-05    0.57E-05    0.28E-07
   1     11    12.514     4.314    0.42E-04    0.14E-04    0.23E-06
   2     10    12.514    14.565    0.79E-04    0.50E-03    0.16E-05
   2     10    12.514    14.552    0.75E-04    0.48E-03    0.15E-05
 Optimization of the real space projectors (new method)

 maximal supplied QI-value         = 19.84
 optimisation between [QCUT,QGAM] = [ 12.50, 25.00] = [ 43.76,175.03] Ry 
 Optimized for a Real-space Cutoff    1.16 Angstroem

   l    n(q)    QCUT    max X(q) W(low)/X(q) W(high)/X(q)  e(spline) 
   0      9    12.501   159.560    0.10E-03    0.83E-04    0.71E-07
   0      9    12.501   115.863    0.99E-04    0.81E-04    0.70E-07
   1      8    12.501    88.339    0.20E-03    0.25E-03    0.76E-07
   1      8    12.501    48.592    0.20E-03    0.24E-03    0.75E-07
 Optimization of the real space projectors (new method)

 maximal supplied QI-value         = 24.76
 optimisation between [QCUT,QGAM] = [ 12.38, 25.00] = [ 42.90,175.06] Ry 
 Optimized for a Real-space Cutoff    1.16 Angstroem

   l    n(q)    QCUT    max X(q) W(low)/X(q) W(high)/X(q)  e(spline) 
   0      9    12.378    20.381    0.16E-03    0.67E-05    0.31E-06
   0      9    12.378    15.268    0.17E-03    0.81E-05    0.33E-06
   1      8    12.378     5.964    0.20E-03    0.16E-03    0.30E-06
   1      8    12.378     5.382    0.18E-03    0.14E-03    0.26E-06
  PAW_PBE Ca_sv 06Sep2000               :
 energy of atom  1       EATOM=-1006.0909
 kinetic energy error for atom=    0.0012 (will be added to EATOM!!)
  PAW_PBE Si 05Jan2001                  :
 energy of atom  2       EATOM= -103.0669
 kinetic energy error for atom=    0.0003 (will be added to EATOM!!)
  PAW_PBE O 08Apr2002                   :
 energy of atom  3       EATOM= -432.3788
 kinetic energy error for atom=    0.0168 (will be added to EATOM!!)
 
 
 POSCAR: Ca Si  O                                
  positions in direct lattice
  No initial velocities read in
 exchange correlation table for  LEXCH =        8
   RHO(1)=    0.500       N(1)  =     2000
   RHO(2)=  100.500       N(2)  =     4000
 


--------------------------------------------------------------------------------------------------------


 ion  position               nearest neighbor table
   1  0.888  0.064  0.033-  62 2.26  60 2.28  74 2.41  31 3.04
   2  0.227  0.405  0.583-  63 2.03  64 2.19  85 2.32  15 3.12  32 3.14
   3  0.624  0.359  0.615-  69 1.95 134 2.34  99 2.38 108 2.43  32 3.02  12 3.10
   4  0.079  0.914  0.549-  67 2.28  77 2.42 113 2.51 132 2.54  47 3.11
   5  0.834  0.455  0.458-  90 2.11  81 2.34  83 2.40
   6  0.180  0.051  0.945-  61 2.21 126 2.27  93 2.29  47 3.01  34 3.14
   7  0.317  0.523  0.289- 109 2.00  85 2.32
   8  0.346  0.704  0.965-  65 2.17  58 2.25  82 2.54  30 2.84
   9  0.680  0.819  0.601-  56 2.01 111 2.19  95 2.37  33 2.71
  10  0.177  0.684  0.700- 112 1.90 104 1.95 121 2.14  38 2.81
  11  0.476  0.205  0.112- 124 2.42
  12  0.484  0.489  0.758- 134 2.14  82 2.22  80 2.28   3 3.10  38 3.13
  13  0.775  0.678  0.978- 114 2.17 100 2.29  57 2.55  46 2.95
  14  0.978  0.578  0.250-  86 1.88  78 2.06  90 2.24 125 2.28  39 2.59  52 2.96  23 3.04
  15  0.187  0.210  0.720-  63 2.26 126 2.32  64 2.54  88 2.57  29 2.97   2 3.12
  16  0.178  0.120  0.425-  98 2.26  97 2.37 102 2.39  72 2.45  48 2.94  50 2.99
  17  0.979  0.481  0.846- 117 2.39 120 2.54  39 3.09  51 3.14
  18  0.837  0.148  0.801- 131 1.88 101 2.25  62 2.54
  19  0.566  0.872  0.211-  55 1.91  92 2.44  68 2.50  43 3.03
  20  0.544  0.029  0.620-  95 1.98 133 2.20 135 2.46  29 3.08
  21  0.079  0.874  0.216- 129 2.08  76 2.28  75 2.37  96 2.45 127 2.46  34 3.08
  22  0.308  0.752  0.473- 103 1.89  77 2.15  38 3.10
  23  0.120  0.635  0.071-  78 1.94  91 2.19 127 2.19  96 2.19  39 2.83  37 2.99  14 3.04
  24  0.608  0.988  0.896- 116 2.00  71 2.20  94 2.24 114 2.51  40 2.70  46 2.93
  25  0.608  0.395  0.210-  83 2.06 115 2.41  79 2.55
  26  0.822  0.253  0.279- 128 2.20  83 2.39  74 2.46  50 3.12
  27  0.918  0.683  0.584-  67 2.01  70 2.07  89 2.20  52 2.97  54 3.14
  28  0.807  0.009  0.462-  87 1.59 113 1.60  59 1.85 128 1.90  33 2.53  50 2.94
  29  0.381  0.101  0.778- 135 1.47 126 1.57 122 1.63  94 1.86  15 2.97  20 3.08
  30  0.468  0.535  0.034-  82 1.54 106 1.58  58 1.77  73 1.82   8 2.84  44 2.95
  31  0.756  0.257  0.009-  74 1.60 131 1.61  79 1.69 118 2.23  71 2.44  44 2.69  42 2.93   1 3.04

  32  0.441  0.379  0.471-  85 1.57  69 1.62  99 1.73 115 1.80  48 2.77  53 2.81   3 3.02   2 3.14

  33  0.847  0.939  0.640- 111 1.52  59 1.72 132 1.81 113 2.16  95 2.45  28 2.53   9 2.71  46 3.04

  34  0.135  0.102  0.178-  60 1.53 129 1.55 110 1.78  76 2.31  49 2.46  21 3.08   6 3.14
  35  0.758  0.711  0.372-  68 1.54  89 1.59  86 1.94  56 2.19  41 2.83
  36  0.418  0.029  0.394-  97 1.58 133 1.59 105 1.61  72 2.38  48 2.87  49 3.04
  37  0.004  0.789  0.942- 100 1.58  96 1.66  91 1.66  61 2.24 104 2.32  47 2.73  23 2.99  46 3.04

  38  0.393  0.703  0.692- 112 1.59 130 1.63  80 1.68  10 2.81  22 3.10  12 3.13
  39  0.984  0.464  0.085- 117 1.59  57 1.64  78 1.77 125 1.83  14 2.59  23 2.83  17 3.09
  40  0.425  0.953  0.990- 116 1.60  93 1.67  94 1.88  65 1.90  24 2.70  49 3.10
  41  0.540  0.685  0.374-  55 1.39 103 1.63 107 1.78  56 1.90  35 2.83
  42  0.587  0.250  0.859-  71 1.56 118 1.61 134 1.68 135 2.54  31 2.93  44 2.99
  43  0.793  0.929  0.220-  92 1.46  75 1.77  87 2.03  68 2.52  19 3.03
  44  0.664  0.439  0.968-  79 1.59 118 1.62 119 1.77 106 1.84  31 2.69  30 2.95  42 2.99
  45  0.308  0.296  0.952- 123 1.56  88 1.63 126 2.36
  46  0.800  0.872  0.861-  62 1.46 100 1.64 114 1.89 111 1.93  24 2.93  13 2.95  33 3.04  37 3.04

  47  0.068  0.920  0.789-  84 1.54  61 1.76 132 1.91 104 2.04  67 2.53  37 2.73   6 3.01   4 3.11

  48  0.363  0.191  0.536-  72 1.54  63 1.71  99 1.81  32 2.77  36 2.87  16 2.94
  49  0.311  0.031  0.185- 110 1.56 105 1.80  76 1.80  93 1.92  34 2.46  36 3.04  40 3.10
  50  0.958  0.179  0.464- 102 1.58  98 1.77 128 1.79  81 2.13  28 2.94  16 2.99  26 3.12
  51  0.953  0.325  0.663- 120 1.45  81 1.61  64 1.88 101 2.07  17 3.14
  52  0.091  0.626  0.443- 121 1.71  77 1.87 109 1.95  90 1.99  14 2.96  27 2.97
  53  0.576  0.223  0.403- 108 1.46 124 1.64 115 1.73  99 2.36 133 2.42  32 2.81
  54  0.767  0.551  0.720-  70 1.66  66 1.67 119 2.00  27 3.14
  55  0.531  0.755  0.293-  41 1.39  19 1.91
  56  0.629  0.741  0.477-  41 1.90   9 2.01  35 2.19
  57  0.888  0.525  0.029-  39 1.64  13 2.55
  58  0.359  0.590  0.096-  30 1.77   8 2.25
  59  0.799  0.055  0.597-  33 1.72  28 1.85
  60  0.048  0.102  0.098-  34 1.53   1 2.28
  61  0.041  0.956  0.917-  47 1.76   6 2.21  37 2.24
  62  0.827  0.976  0.896-  46 1.46   1 2.26  18 2.54
  63  0.249  0.252  0.561-  48 1.71   2 2.03  15 2.26
  64  0.089  0.375  0.678-  51 1.88   2 2.19  15 2.54
  65  0.455  0.815  0.029-  40 1.90   8 2.17
  66  0.712  0.553  0.603-  54 1.67
  67  0.999  0.797  0.653-  27 2.01   4 2.28  47 2.53
  68  0.710  0.761  0.276-  35 1.54  19 2.50  43 2.52
  69  0.502  0.433  0.566-  32 1.62   3 1.95
  70  0.873  0.623  0.726-  54 1.66  27 2.07
  71  0.651  0.153  0.892-  42 1.56  24 2.20  31 2.44
  72  0.351  0.199  0.418-  48 1.54  36 2.38  16 2.45
  73  0.474  0.396  0.050-  30 1.82
  74  0.769  0.186  0.109-  31 1.60   1 2.41  26 2.46
  75  0.899  0.846  0.196-  43 1.77  21 2.37
  76  0.213  0.949  0.129-  49 1.80  21 2.28  34 2.31
  77  0.142  0.760  0.463-  52 1.87  22 2.15   4 2.42
  78  0.090  0.514  0.156-  39 1.77  23 1.94  14 2.06
  79  0.726  0.377  0.053-  44 1.59  31 1.69  25 2.55
  80  0.360  0.579  0.672-  38 1.68  12 2.28
  81  0.920  0.319  0.543-  51 1.61  50 2.13   5 2.34
  82  0.448  0.544  0.917-  30 1.54  12 2.22   8 2.54
  83  0.721  0.402  0.321-  25 2.06  26 2.39   5 2.40
  84  0.164  0.951  0.726-  47 1.54
  85  0.334  0.428  0.441-  32 1.57   2 2.32   7 2.32
  86  0.845  0.613  0.298-  14 1.88  35 1.94
  87  0.751  0.999  0.354-  28 1.59  43 2.03
  88  0.281  0.340  0.837-  45 1.63  15 2.57
  89  0.821  0.757  0.467-  35 1.59  27 2.20
  90  0.970  0.535  0.418-  52 1.99   5 2.11  14 2.24
  91  0.038  0.666  0.927-  37 1.66  23 2.19
  92  0.714  0.973  0.152-  43 1.46  19 2.44
  93  0.328  0.024  0.038-  40 1.67  49 1.92   6 2.29
  94  0.441  0.992  0.851-  29 1.86  40 1.88  24 2.24
  95  0.669  0.978  0.692-  20 1.98   9 2.37  33 2.45
  96  0.085  0.799  0.042-  37 1.66  23 2.19  21 2.45
  97  0.304  0.988  0.405-  36 1.58  16 2.37
  98  0.056  0.138  0.549-  50 1.77  16 2.26
  99  0.475  0.274  0.547-  32 1.73  48 1.81  53 2.36   3 2.38
 100  0.888  0.791  0.903-  37 1.58  46 1.64  13 2.29
 101  0.983  0.174  0.709-  51 2.07  18 2.25
 102  0.034  0.227  0.380-  50 1.58  16 2.39
 103  0.436  0.688  0.443-  41 1.63  22 1.89
 104  0.123  0.774  0.809-  10 1.95  47 2.04  37 2.32
 105  0.419  0.050  0.271-  36 1.61  49 1.80
 106  0.588  0.548  0.020-  30 1.58  44 1.84
 107  0.566  0.552  0.345-  41 1.78
 108  0.635  0.211  0.499-  53 1.46   3 2.43
 109  0.176  0.546  0.347-  52 1.95   7 2.00
 110  0.264  0.140  0.207-  49 1.56  34 1.78
 111  0.802  0.858  0.712-  33 1.52  46 1.93   9 2.19
 112  0.292  0.773  0.687-  38 1.59  10 1.90
 113  0.897  0.926  0.482-  28 1.60  33 2.16   4 2.51
 114  0.689  0.817  0.938-  46 1.89  13 2.17  24 2.51
 115  0.535  0.347  0.374-  53 1.73  32 1.80  25 2.41
 116  0.526  0.016  0.024-  40 1.60  24 2.00
 117  0.989  0.377  0.998-  39 1.59  17 2.39
 118  0.609  0.327  0.953-  42 1.61  44 1.62  31 2.23
 119  0.710  0.483  0.847-  44 1.77  54 2.00
 120  0.872  0.371  0.723-  51 1.45  17 2.54
 121  0.119  0.600  0.570-  52 1.71  10 2.14
 122  0.328  0.043  0.679-  29 1.63
 123  0.238  0.293  0.052-  45 1.56
 124  0.562  0.207  0.278-  53 1.64  11 2.42
 125  0.937  0.412  0.208-  39 1.83  14 2.28
 126  0.293  0.145  0.849-  29 1.57   6 2.27  15 2.32  45 2.36
 127  0.157  0.701  0.223-  23 2.19  21 2.46
 128  0.837  0.142  0.408-  50 1.79  28 1.90  26 2.20
 129  0.101  0.026  0.264-  34 1.55  21 2.08
 130  0.515  0.694  0.663-  38 1.63
 131  0.798  0.254  0.892-  31 1.61  18 1.88
 132  0.968  0.980  0.697-  33 1.81  47 1.91   4 2.54
 133  0.525  0.050  0.452-  36 1.59  20 2.20  53 2.42
 134  0.582  0.360  0.791-  42 1.68  12 2.14   3 2.34
 135  0.466  0.161  0.732-  29 1.47  20 2.46  42 2.54
 

IMPORTANT INFORMATION: All symmetrisations will be switched off!
NOSYMM: (Re-)initialisation of all symmetry stuff for point group C_1.

 
 

Automatic generation of k-mesh.
 generate k-points for:    2    2    2
Space group operators:
 irot       det(A)        alpha          n_x          n_y          n_z        tau_x        tau_y        tau_z
    1     1.000000     0.000000     1.000000     0.000000     0.000000     0.000000     0.000000     0.000000
 
 Subroutine IBZKPT returns following result:
 ===========================================
 
 Found      8 irreducible k-points:
 
 Following reciprocal coordinates:
            Coordinates               Weight
  0.000000  0.000000  0.000000      1.000000
  0.500000  0.000000  0.000000      1.000000
  0.000000  0.500000  0.000000      1.000000
  0.500000  0.500000  0.000000      1.000000
  0.000000  0.000000  0.500000      1.000000
  0.500000  0.000000  0.500000      1.000000
  0.000000  0.500000  0.500000      1.000000
  0.500000  0.500000  0.500000      1.000000
 
 Following cartesian coordinates:
            Coordinates               Weight
  0.000000  0.000000  0.000000      1.000000
  0.038669  0.000000  0.000000      1.000000
  0.000000  0.038669  0.000000      1.000000
  0.038669  0.038669  0.000000      1.000000
  0.000000  0.000000  0.038669      1.000000
  0.038669  0.000000  0.038669      1.000000
  0.000000  0.038669  0.038669      1.000000
  0.038669  0.038669  0.038669      1.000000
 


--------------------------------------------------------------------------------------------------------




 Dimension of arrays:
   k-points           NKPTS =      8   k-points in BZ     NKDIM =      8   number of bands    NBANDS=    520
   number of dos      NEDOS =    301   number of ions     NIONS =    135
   non local maximal  LDIM  =      6   non local SUM 2l+1 LMDIM =     18
   total plane-waves  NPLWV = ******
   max r-space proj   IRMAX =   7814   max aug-charges    IRDMAX= 222580
   dimension x,y,z NGX =   108 NGY =  108 NGZ =  108
   dimension x,y,z NGXF=   216 NGYF=  216 NGZF=  216
   support grid    NGXF=   432 NGYF=  432 NGZF=  432
   ions per type =              27  27  81
   NGX,Y,Z   is equivalent  to a cutoff of  13.89, 13.89, 13.89 a.u.
   NGXF,Y,Z  is equivalent  to a cutoff of  27.77, 27.77, 27.77 a.u.

 SYSTEM =  unknown system                          
 POSCAR =  Ca Si  O                                

 Startparameter for this run:
   NWRITE =      2    write-flag & timer
   PREC   = a         normal or accurate (medium, high low for compatibility)
   ISTART =      0    job   : 0-new  1-cont  2-samecut
   ICHARG =      2    charge: 1-file 2-atom 10-const
   ISPIN  =      1    spin polarized calculation?
   LNONCOLLINEAR =      F non collinear calculations
   LSORBIT =      F    spin-orbit coupling
   INIWAV =      1    electr: 0-lowe 1-rand  2-diag
   LASPH  =      F    aspherical Exc in radial PAW
   METAGGA=      F    non-selfconsistent MetaGGA calc.

 Electronic Relaxation 1
   ENCUT  =  600.0 eV  44.10 Ry    6.64 a.u.  25.83 25.83 25.83*2*pi/ulx,y,z
   ENINI  =  600.0     initial cutoff
   ENAUG  =  605.4 eV  augmentation charge cutoff
   NELM   =     60;   NELMIN=  2; NELMDL= -5     # of ELM steps 
   EDIFF  = 0.1E-05   stopping-criterion for ELM
   LREAL  =      T    real-space projection
   NLSPLINE    = F    spline interpolate recip. space projectors
   LCOMPAT=      F    compatible to vasp.4.4
   GGA_COMPAT  = T    GGA compatible to vasp.4.4-vasp.4.6
   LMAXPAW     = -100 max onsite density
   LMAXMIX     =    2 max onsite mixed and CHGCAR
   VOSKOWN=      0    Vosko Wilk Nusair interpolation
   ROPT   =   -0.00025  -0.00025  -0.00025
 Ionic relaxation
   EDIFFG = -.1E-01   stopping-criterion for IOM
   NSW    =      1    number of steps for IOM
   NBLOCK =      1;   KBLOCK =      1    inner block; outer block 
   IBRION =     -1    ionic relax: 0-MD 1-quasi-New 2-CG
   NFREE  =      0    steps in history (QN), initial steepest desc. (CG)
   ISIF   =      2    stress and relaxation
   IWAVPR =     10    prediction:  0-non 1-charg 2-wave 3-comb
   ISYM   =      0    0-nonsym 1-usesym 2-fastsym
   LCORR  =      T    Harris-Foulkes like correction to forces

   POTIM  = 1.0000    time-step for ionic-motion
   TEIN   =    0.0    initial temperature
   TEBEG  =    0.0;   TEEND  =   0.0 temperature during run
   SMASS  =  -3.00    Nose mass-parameter (am)
   estimated Nose-frequenzy (Omega)   =  0.10E-29 period in steps =****** mass=  -0.382E-26a.u.
   SCALEE = 1.0000    scale energy and forces
   NPACO  =    256;   APACO  = 16.0  distance and # of slots for P.C.
   PSTRESS=    0.0 pullay stress

  Mass of Ions in am
   POMASS =  40.08 28.09 16.00
  Ionic Valenz
   ZVAL   =  10.00  4.00  6.00
  Atomic Wigner-Seitz radii
   RWIGS  =  -1.00 -1.00 -1.00
  virtual crystal weights 
   VCA    =   1.00  1.00  1.00
   NELECT =     864.0000    total number of electrons
   NUPDOWN=      -1.0000    fix difference up-down

 DOS related values:
   EMIN   =  10.00;   EMAX   =-10.00  energy-range for DOS
   EFERMI =   0.00
   ISMEAR =     0;   SIGMA  =   0.05  broadening in eV -4-tet -1-fermi 0-gaus

 Electronic relaxation 2 (details)
   IALGO  =     38    algorithm
   LDIAG  =      T    sub-space diagonalisation (order eigenvalues)
   LSUBROT=      F    optimize rotation matrix (better conditioning)
   TURBO    =      0    0=normal 1=particle mesh
   IRESTART =      0    0=no restart 2=restart with 2 vectors
   NREBOOT  =      0    no. of reboots
   NMIN     =      0    reboot dimension
   EREF     =   0.00    reference energy to select bands
   IMIX   =      4    mixing-type and parameters
     AMIX     =   0.40;   BMIX     =  1.00
     AMIX_MAG =   1.60;   BMIX_MAG =  1.00
     AMIN     =   0.10
     WC   =   100.;   INIMIX=   1;  MIXPRE=   1;  MAXMIX= -45

 Intra band minimization:
   WEIMIN = 0.0000     energy-eigenvalue tresh-hold
   EBREAK =  0.48E-09  absolut break condition
   DEPER  =   0.30     relativ break condition  

   TIME   =   0.40     timestep for ELM

  volume/ion in A,a.u.               =      16.01       108.07
  Fermi-wavevector in a.u.,A,eV,Ry     =   1.205870  2.278763 19.784524  1.454122
  Thomas-Fermi vector in A             =   2.341553
 
 Write flags
   LWAVE        =      F    write WAVECAR
   LDOWNSAMPLE  =      F    k-point downsampling of WAVECAR
   LCHARG       =      F    write CHGCAR
   LVTOT        =      F    write LOCPOT, total local potential
   LVHAR        =      F    write LOCPOT, Hartree potential only
   LELF         =      F    write electronic localiz. function (ELF)
   LORBIT       =      0    0 simple, 1 ext, 2 COOP (PROOUT), +10 PAW based schemes


 Dipole corrections
   LMONO  =      F    monopole corrections only (constant potential shift)
   LDIPOL =      F    correct potential (dipole corrections)
   IDIPOL =      0    1-x, 2-y, 3-z, 4-all directions 
   EPSILON=  1.0000000 bulk dielectric constant

 Exchange correlation treatment:
   GGA     =    --    GGA type
   LEXCH   =     8    internal setting for exchange type
   VOSKOWN=      0    Vosko Wilk Nusair interpolation
   LHFCALC =     F    Hartree Fock is set to
   LHFONE  =     F    Hartree Fock one center treatment
   AEXX    =    0.0000 exact exchange contribution

 Linear response parameters
   LEPSILON=     F    determine dielectric tensor
   LRPA    =     F    only Hartree local field effects (RPA)
   LNABLA  =     F    use nabla operator in PAW spheres
   LVEL    =     F    velocity operator in full k-point grid
   LINTERFAST=   F  fast interpolation
   KINTER  =     0    interpolate to denser k-point grid
   CSHIFT  =0.1000    complex shift for real part using Kramers Kronig
   OMEGAMAX=  -1.0    maximum frequency
   DEG_THRESHOLD= 0.2000000E-02 threshold for treating states as degnerate
   RTIME   =   -0.100 relaxation time in fs
  (WPLASMAI=    0.000 imaginary part of plasma frequency in eV, 0.658/RTIME)
   DFIELD  = 0.0000000 0.0000000 0.0000000 field for delta impulse in time
 
 Orbital magnetization related:
   ORBITALMAG=     F  switch on orbital magnetization
   LCHIMAG   =     F  perturbation theory with respect to B field
   DQ        =  0.001000  dq finite difference perturbation B field
   LLRAUG    =     F  two centre corrections for induced B field



--------------------------------------------------------------------------------------------------------


 Static calculation
 charge density and potential will be updated during run
 non-spin polarized calculation
 Variant of blocked Davidson
 Davidson routine will perform the subspace rotation
 perform sub-space diagonalisation
    after iterative eigenvector-optimisation
 modified Broyden-mixing scheme, WC =      100.0
 initial mixing is a Kerker type mixing with AMIX =  0.4000 and BMIX =      1.0000
 Hartree-type preconditioning will be used
 using additional bands           88
 real space projection scheme for non local part
 use partial core corrections
 calculate Harris-corrections to forces 
   (improved forces if not selfconsistent)
 use gradient corrections 
 use of overlap-Matrix (Vanderbilt PP)
 Gauss-broadening in eV      SIGMA  =   0.05


--------------------------------------------------------------------------------------------------------


  energy-cutoff  :      600.00
  volume of cell :     2161.91
      direct lattice vectors                 reciprocal lattice vectors
    12.930412990  0.000000000  0.000000000     0.077337050  0.000000000  0.000000000
     0.000000000 12.930412990  0.000000000     0.000000000  0.077337050  0.000000000
     0.000000000  0.000000000 12.930412990     0.000000000  0.000000000  0.077337050

  length of vectors
    12.930412990 12.930412990 12.930412990     0.077337050  0.077337050  0.077337050


 
 k-points in units of 2pi/SCALE and weight: read from INCAR                         
   0.00000000  0.00000000  0.00000000       0.125
   0.03866853  0.00000000  0.00000000       0.125
   0.00000000  0.03866853  0.00000000       0.125
   0.03866853  0.03866853  0.00000000       0.125
   0.00000000  0.00000000  0.03866853       0.125
   0.03866853  0.00000000  0.03866853       0.125
   0.00000000  0.03866853  0.03866853       0.125
   0.03866853  0.03866853  0.03866853       0.125
 
 k-points in reciprocal lattice and weights: read from INCAR                         
   0.00000000  0.00000000  0.00000000       0.125
   0.50000000  0.00000000  0.00000000       0.125
   0.00000000  0.50000000  0.00000000       0.125
   0.50000000  0.50000000  0.00000000       0.125
   0.00000000  0.00000000  0.50000000       0.125
   0.50000000  0.00000000  0.50000000       0.125
   0.00000000  0.50000000  0.50000000       0.125
   0.50000000  0.50000000  0.50000000       0.125
 
 position of ions in fractional coordinates (direct lattice) 
   0.88810823  0.06411460  0.03336486
   0.22684245  0.40543317  0.58297144
   0.62442880  0.35852899  0.61488635
   0.07896305  0.91415018  0.54870931
   0.83430442  0.45450974  0.45840606
   0.17978935  0.05130154  0.94520940
   0.31684326  0.52310787  0.28889822
   0.34569041  0.70435445  0.96499469
   0.67993217  0.81944377  0.60061257
   0.17672095  0.68363031  0.70042523
   0.47608190  0.20547541  0.11183541
   0.48391442  0.48933839  0.75809246
   0.77506260  0.67817218  0.97799929
   0.97801852  0.57787180  0.25012928
   0.18714495  0.21021807  0.71963988
   0.17803329  0.12034264  0.42539100
   0.97879702  0.48093846  0.84621237
   0.83680497  0.14789147  0.80070992
   0.56594644  0.87195811  0.21067325
   0.54408919  0.02869900  0.62016901
   0.07878063  0.87376710  0.21578734
   0.30761386  0.75192758  0.47281119
   0.11964612  0.63531287  0.07149165
   0.60801025  0.98834259  0.89592887
   0.60783639  0.39510236  0.20962053
   0.82162046  0.25306037  0.27894199
   0.91828294  0.68296937  0.58406240
   0.80744609  0.00916966  0.46218469
   0.38065680  0.10063414  0.77810690
   0.46759704  0.53539069  0.03353464
   0.75606187  0.25737438  0.00890381
   0.44098445  0.37937084  0.47142088
   0.84700361  0.93916884  0.64032257
   0.13454327  0.10199880  0.17842952
   0.75788590  0.71050191  0.37222054
   0.41847806  0.02895118  0.39392621
   0.00411116  0.78887639  0.94223355
   0.39285357  0.70318695  0.69177953
   0.98385970  0.46432119  0.08489638
   0.42514793  0.95273386  0.98974913
   0.54041563  0.68466839  0.37374658
   0.58674553  0.24957982  0.85876221
   0.79283718  0.92867881  0.21952867
   0.66358336  0.43903016  0.96755900
   0.30762366  0.29564989  0.95230336
   0.79954322  0.87194503  0.86063470
   0.06768467  0.91955470  0.78886479
   0.36338718  0.19057663  0.53610539
   0.31075371  0.03073164  0.18539249
   0.95772023  0.17940422  0.46392641
   0.95347798  0.32468069  0.66251792
   0.09103108  0.62624400  0.44346837
   0.57600582  0.22337684  0.40320832
   0.76743559  0.55051965  0.72005889
   0.53133914  0.75491228  0.29327853
   0.62851164  0.74134997  0.47673204
   0.88792400  0.52514161  0.02890920
   0.35864662  0.59013634  0.09612088
   0.79904816  0.05512979  0.59735269
   0.04822426  0.10161666  0.09764373
   0.04051588  0.95613729  0.91694607
   0.82707080  0.97578472  0.89566829
   0.24915949  0.25183533  0.56131519
   0.08924908  0.37533940  0.67764344
   0.45534619  0.81456384  0.02876333
   0.71169228  0.55262745  0.60319105
   0.99858386  0.79660768  0.65329293
   0.70984396  0.76117314  0.27594705
   0.50238280  0.43297084  0.56625455
   0.87296793  0.62334322  0.72554673
   0.65132871  0.15272031  0.89163202
   0.35058734  0.19854123  0.41773342
   0.47428612  0.39595802  0.04961049
   0.76895472  0.18567127  0.10865543
   0.89895618  0.84612046  0.19581374
   0.21290017  0.94889935  0.12948394
   0.14195669  0.75988378  0.46308732
   0.08995624  0.51435901  0.15576318
   0.72622803  0.37687395  0.05322928
   0.35964228  0.57922061  0.67179596
   0.91996962  0.31932970  0.54280631
   0.44753291  0.54373707  0.91661274
   0.72070936  0.40166399  0.32138745
   0.16440381  0.95090781  0.72637721
   0.33371607  0.42808211  0.44058061
   0.84497252  0.61281439  0.29828259
   0.75091116  0.99884724  0.35377940
   0.28103166  0.33978198  0.83720238
   0.82092840  0.75747083  0.46651870
   0.97006262  0.53500479  0.41769699
   0.03757815  0.66558275  0.92661185
   0.71388529  0.97250806  0.15170128
   0.32794435  0.02354356  0.03776610
   0.44065860  0.99208692  0.85071966
   0.66907737  0.97817145  0.69217704
   0.08521858  0.79872456  0.04151256
   0.30361039  0.98823480  0.40458165
   0.05643217  0.13827289  0.54913729
   0.47529286  0.27446012  0.54698565
   0.88825358  0.79113601  0.90279082
   0.98288345  0.17402646  0.70921705
   0.03368290  0.22673221  0.38024092
   0.43552162  0.68789430  0.44317651
   0.12340884  0.77364145  0.80890084
   0.41881544  0.04958393  0.27079432
   0.58831097  0.54788089  0.02005176
   0.56553223  0.55230139  0.34484614
   0.63541658  0.21126926  0.49890610
   0.17573262  0.54628255  0.34733247
   0.26414936  0.13953261  0.20715162
   0.80197810  0.85785306  0.71194722
   0.29209364  0.77309586  0.68745529
   0.89715352  0.92620989  0.48190148
   0.68886224  0.81673274  0.93783085
   0.53477307  0.34741562  0.37413079
   0.52560403  0.01562813  0.02430644
   0.98941887  0.37656289  0.99847951
   0.60891190  0.32739537  0.95321211
   0.71029621  0.48330250  0.84682579
   0.87175337  0.37100417  0.72338546
   0.11944978  0.59952269  0.56991717
   0.32830221  0.04309970  0.67854022
   0.23847757  0.29343707  0.05160322
   0.56225632  0.20651578  0.27803622
   0.93744648  0.41166352  0.20763878
   0.29311396  0.14544622  0.84941340
   0.15664499  0.70076318  0.22326838
   0.83666584  0.14231187  0.40763969
   0.10073153  0.02579650  0.26424031
   0.51507194  0.69411083  0.66275680
   0.79780223  0.25388710  0.89202774
   0.96824950  0.97989088  0.69732802
   0.52469876  0.05004150  0.45243355
   0.58166921  0.36016464  0.79089281
   0.46564901  0.16095330  0.73185728
 
 position of ions in cartesian coordinates  (Angst):
  11.48360616  0.82902827  0.43142146
   2.93316652  5.24241834  7.53806151
   8.07412233  4.63592787  7.95073451
   1.02102482 11.82033930  7.09503798
  10.78790071  5.87699863  5.92737961
   2.32475058  0.66335015 12.22194791
   4.09691419  6.76400074  3.73557333
   4.46991982  9.10759390 12.47777984
   8.79180372 10.59574633  7.76616855
   2.28507491  8.83962222  9.05678744
   6.15593562  2.65688196  1.44607798
   6.25721335  6.32734745  9.80244853
  10.02187952  8.76904635 12.64593471
  12.64618336  7.47212109  3.23427489
   2.41986151  2.71820649  9.30524089
   2.30204393  1.55608000  5.50048127
  12.65624971  6.21873289 10.94187536
  10.82023382  1.91229774 10.35350994
   7.31792117 11.27477852  2.72409208
   7.03529793  0.37108989  8.01904143
   1.01866602 11.29816942  2.79021938
   3.97757429  9.72273416  6.11364399
   1.54707375  8.21485774  0.92441655
   7.86182358 12.77967781 11.58473034
   7.85957553  5.10883664  2.71048006
  10.62389193  3.27217514  3.60683516
  11.87377764  8.83107596  7.55216798
  10.44061144  0.11856752  5.97623893
   4.92204968  1.30124097 10.06124363
   6.04622281  6.92282278  0.43361671
   9.77619221  3.32795708  0.11512992
   5.70211108  4.90542158  6.09566662
  10.95210645 12.14384103  8.27963533
   1.73970003  1.31888660  2.30716742
   9.79977763  9.18708318  4.81296533
   5.41109417  0.37435068  5.09362856
   0.05315902 10.20049757 12.18346893
   5.07975890  9.09249768  8.94499500
  12.72171222  6.00386469  1.09774531
   5.49733832 12.31924227 12.79786502
   6.98779732  8.85304509  4.83269762
   7.58686199  3.22717013 11.10415007
  10.25171223 12.00820050  2.83859634
   8.58040692  5.67684126 12.51093742
   3.97770099  3.82287522 12.31367572
  10.33842404 11.27460928 11.12836209
   0.87519071 11.89022209 10.20034755
   4.69874631  2.46423449  6.93206405
   4.01817384  0.39737278  2.39720147
  12.38371812  2.31977072  5.99876009
  12.32886410  4.19825537  8.56663030
   1.17706952  8.09759356  5.73422919
   7.44799319  2.88835475  5.21365011
   9.92325916  7.11844644  9.31065886
   6.87043455  9.76132754  3.79221250
   8.12691508  9.58596132  6.16434218
  11.48122396  6.79029795  0.37380789
   4.63744889  7.63070656  1.24288266
  10.33202267  0.71285100  7.72401703
   0.62355962  1.31394539  1.26257373
   0.52388704 12.36325005 11.85649141
  10.69436699 12.61729948 11.58136090
   3.22173505  3.25633478  7.25803724
   1.15402740  4.85329344  8.76220957
   5.88781434 10.53264685  0.37192175
   9.20247514  7.14570120  7.79950935
  12.91210167 10.30046625  8.44734745
   9.17857555  9.84228309  3.56810931
   6.49601707  5.59849180  7.32190521
  11.28783588  8.06008527  9.38161889
   8.42194918  1.97473674 11.52917022
   4.53323915  2.56722009  5.40146562
   6.13271542  5.11990076  0.64148409
   9.94290208  2.40080620  1.40495952
  11.62387465 10.94068700  2.53195249
   2.75288710 12.26966047  1.67428076
   1.83555858  9.82561115  5.98791034
   1.16317136  6.65087439  2.01408220
   9.39042839  4.87313588  0.68827663
   4.65032323  7.48956169  8.68659923
  11.89558716  4.12906488  7.01870972
   5.78678533  7.03074491 11.85218122
   9.31906966  5.19368128  4.15567249
   2.12580912 12.29563071  9.39235734
   4.31508656  5.53527849  5.69688923
  10.92584361  7.92394311  3.85691713
   9.70959136 12.91550729  4.57451375
   3.63385537  4.39352130 10.82537259
  10.61494323  9.79441065  6.03227948
  12.54331036  6.91783288  5.40099453
   0.48590097  8.60625978 11.98147390
   9.23083157 12.57493087  1.96156016
   4.24045582  0.30442798  0.48833121
   5.69789768 12.82809362 11.00015657
   8.65144674 12.64816081  8.95013495
   1.10191143 10.32783842  0.53677449
   3.92580768 12.77828409  5.23140786
   0.72969127  1.78792552  7.10057192
   6.14573295  3.54888267  7.07275035
  11.48548567 10.22971532 11.67345814
  12.70908888  2.25023401  9.17046939
   0.43553387  2.93174114  4.91667218
   5.63147439  8.89475733  5.73045535
   1.59572724 10.00350340 10.45942193
   5.41545657  0.64114072  3.50148236
   7.60710387  7.08432624  0.25927759
   7.31256526  7.14148510  4.45900307
   8.21619878  2.73179880  6.45106195
   2.27229536  7.06365899  4.49115228
   3.41556033  1.80421430  2.67855601
  10.36990802 11.09239429  9.20577157
   3.77689146  9.99644877  8.88908086
  11.60056553 11.97627634  6.23118520
   8.90727321 10.56069160 12.12654015
   6.91483667  4.49222751  4.83766565
   6.79627720  0.20207814  0.31429232
  12.79359455  4.86911364 12.91075244
   7.87348240  4.23335731 12.32542631
   9.18442337  6.24930092 10.94980714
  11.27213104  4.79723714  9.35367277
   1.54453498  7.75207599  7.36926434
   4.24508312  0.55729691  8.77380531
   3.08361344  3.79426249  0.66725094
   7.27020639  2.67033431  3.59512310
  12.12157019  5.32297935  2.68485524
   3.79008456  1.88067968 10.98326607
   2.02548443  9.06115737  2.88695235
  10.81843483  1.84015125  5.27094948
   1.30250026  0.33355945  3.41673631
   6.66009296  8.97513974  8.56971914
  10.31591235  3.28286510 11.53428711
  12.51986595 12.67039376  9.01673933
   6.78457161  0.64705721  5.85015264
   7.52122309  4.65707755 10.22657063
   6.02103395  2.08119261  9.46321687
 


--------------------------------------------------------------------------------------------------------


 k-point  1 :   0.0000 0.0000 0.0000  plane waves:   72359
 k-point  2 :   0.5000 0.0000 0.0000  plane waves:   72020
 k-point  3 :   0.0000 0.5000 0.0000  plane waves:   72020
 k-point  4 :   0.5000 0.5000 0.0000  plane waves:   72184
 k-point  5 :   0.0000 0.0000 0.5000  plane waves:   72020
 k-point  6 :   0.5000 0.0000 0.5000  plane waves:   72184
 k-point  7 :   0.0000 0.5000 0.5000  plane waves:   72184
 k-point  8 :   0.5000 0.5000 0.5000  plane waves:   72264

 maximum and minimum number of plane-waves per node :      5618     5466

 maximum number of plane-waves:     72359
 maximum index in each direction: 
   IXMAX=   25   IYMAX=   25   IZMAX=   25
   IXMIN=  -26   IYMIN=  -26   IZMIN=  -26


 real space projection operators:
  total allocation   :      53631.86 KBytes
  max/ min on nodes  :       4536.98       3908.52


 parallel 3D FFT for wavefunctions:
    minimum data exchange during FFTs selected (reduces bandwidth)
 parallel 3D FFT for charge:
    minimum data exchange during FFTs selected (reduces bandwidth)


 total amount of memory used by VASP MPI-rank0   200738. kBytes
=======================================================================

   base      :      30000. kBytes
   nonlr-proj:      23365. kBytes
   fftplans  :      33572. kBytes
   grid      :      19248. kBytes
   one-center:        171. kBytes
   wavefun   :      94382. kBytes
 
     INWAV:  cpu time    0.0000: real time    0.0000
 Broyden mixing: mesh for mixing (old mesh)
   NGX = 51   NGY = 51   NGZ = 51
  (NGX  =216   NGY  =216   NGZ  =216)
  gives a total of 132651 points

 initial charge density was supplied:
 charge density of overlapping atoms calculated
 number of electron     864.0000000 magnetization 
 keeping initial charge density in first step


--------------------------------------------------------------------------------------------------------


 Maximum index for non-local projection operator          905
 Maximum index for augmentation-charges         8289 (set IRDMAX)


--------------------------------------------------------------------------------------------------------


 First call to EWALD:  gamma=   0.137
 Maximum number of real-space cells 3x 3x 3
 Maximum number of reciprocal cells 3x 3x 3

    FEWALD:  cpu time    0.0066: real time    0.0066


--------------------------------------- Iteration      1(   1)  ---------------------------------------


    POTLOK:  cpu time    0.2007: real time    0.2075
    SETDIJ:  cpu time    0.3931: real time    0.3938
     EDDAV:  cpu time   47.1626: real time   47.1624
       DOS:  cpu time    0.0026: real time    0.0026
    --------------------------------------------
      LOOP:  cpu time   47.7591: real time   47.7664

 eigenvalue-minimisations  :  8320
 total energy-change (2. order) : 0.9326221E+04  (-0.4669168E+05)
 number of electron     864.0000000 magnetization 
 augmentation part      864.0000000 magnetization 

 Free energy of the ion-electron system (eV)
  ---------------------------------------------------
  alpha Z        PSCENC =      2210.34415451
  Ewald energy   TEWEN  =    -39274.17845914
  -Hartree energ DENC   =    -22229.19662160
  -exchange      EXHF   =         0.00000000
  -V(xc)+E(xc)   XCENC  =      3134.35193602
  PAW double counting   =     50594.51003143   -49994.65612350
  entropy T*S    EENTRO =        -0.04095128
  eigenvalues    EBANDS =       -83.45299196
  atomic energy  EATOM  =     64968.54023382
  Solvation  Ediel_sol  =         0.00000000
  ---------------------------------------------------
  free energy    TOTEN  =      9326.22120832 eV

  energy without entropy =     9326.26215960  energy(sigma->0) =     9326.24168396


--------------------------------------------------------------------------------------------------------




--------------------------------------- Iteration      1(   2)  ---------------------------------------


     EDDAV:  cpu time   54.6642: real time   54.6782
       DOS:  cpu time    0.0013: real time    0.0013
    --------------------------------------------
      LOOP:  cpu time   54.6655: real time   54.6795

 eigenvalue-minimisations  : 10144
 total energy-change (2. order) :-0.9273367E+04  (-0.8988640E+04)
 number of electron     864.0000000 magnetization 
 augmentation part      864.0000000 magnetization 

 Free energy of the ion-electron system (eV)
  ---------------------------------------------------
  alpha Z        PSCENC =      2210.34415451
  Ewald energy   TEWEN  =    -39274.17845914
  -Hartree energ DENC   =    -22229.19662160
  -exchange      EXHF   =         0.00000000
  -V(xc)+E(xc)   XCENC  =      3134.35193602
  PAW double counting   =     50594.51003143   -49994.65612350
  entropy T*S    EENTRO =        -0.00000000
  eigenvalues    EBANDS =     -9356.86105802
  atomic energy  EATOM  =     64968.54023382
  Solvation  Ediel_sol  =         0.00000000
  ---------------------------------------------------
  free energy    TOTEN  =        52.85409354 eV

  energy without entropy =       52.85409354  energy(sigma->0) =       52.85409354


--------------------------------------------------------------------------------------------------------




--------------------------------------- Iteration      1(   3)  ---------------------------------------


     EDDAV:  cpu time   55.1811: real time   55.1844
       DOS:  cpu time    0.0013: real time    0.0013
    --------------------------------------------
      LOOP:  cpu time   55.1823: real time   55.1857

 eigenvalue-minimisations  : 10256
 total energy-change (2. order) :-0.1042216E+04  (-0.1033267E+04)
 number of electron     864.0000000 magnetization 
 augmentation part      864.0000000 magnetization 

 Free energy of the ion-electron system (eV)
  ---------------------------------------------------
  alpha Z        PSCENC =      2210.34415451
  Ewald energy   TEWEN  =    -39274.17845914
  -Hartree energ DENC   =    -22229.19662160
  -exchange      EXHF   =         0.00000000
  -V(xc)+E(xc)   XCENC  =      3134.35193602
  PAW double counting   =     50594.51003143   -49994.65612350
  entropy T*S    EENTRO =        -0.00000000
  eigenvalues    EBANDS =    -10399.07680486
  atomic energy  EATOM  =     64968.54023382
  Solvation  Ediel_sol  =         0.00000000
  ---------------------------------------------------
  free energy    TOTEN  =      -989.36165331 eV

  energy without entropy =     -989.36165331  energy(sigma->0) =     -989.36165331


--------------------------------------------------------------------------------------------------------




--------------------------------------- Iteration      1(   4)  ---------------------------------------


     EDDAV:  cpu time   59.7102: real time   59.7240
       DOS:  cpu time    0.0013: real time    0.0013
    --------------------------------------------
      LOOP:  cpu time   59.7116: real time   59.7253

 eigenvalue-minimisations  : 11312
 total energy-change (2. order) :-0.4952178E+02  (-0.4933320E+02)
 number of electron     864.0000000 magnetization 
 augmentation part      864.0000000 magnetization 

 Free energy of the ion-electron system (eV)
  ---------------------------------------------------
  alpha Z        PSCENC =      2210.34415451
  Ewald energy   TEWEN  =    -39274.17845914
  -Hartree energ DENC   =    -22229.19662160
  -exchange      EXHF   =         0.00000000
  -V(xc)+E(xc)   XCENC  =      3134.35193602
  PAW double counting   =     50594.51003143   -49994.65612350
  entropy T*S    EENTRO =        -0.00000000
  eigenvalues    EBANDS =    -10448.59858704
  atomic energy  EATOM  =     64968.54023382
  Solvation  Ediel_sol  =         0.00000000
  ---------------------------------------------------
  free energy    TOTEN  =     -1038.88343548 eV

  energy without entropy =    -1038.88343548  energy(sigma->0) =    -1038.88343548


--------------------------------------------------------------------------------------------------------




--------------------------------------- Iteration      1(   5)  ---------------------------------------


     EDDAV:  cpu time   74.1643: real time   74.1670
       DOS:  cpu time    0.0012: real time    0.0012
    CHARGE:  cpu time    2.1255: real time    2.1255
    MIXING:  cpu time    0.0114: real time    0.0116
    --------------------------------------------
      LOOP:  cpu time   76.3023: real time   76.3052

 eigenvalue-minimisations  : 14840
 total energy-change (2. order) :-0.6188489E+01  (-0.6185261E+01)
 number of electron     864.0000007 magnetization 
 augmentation part      133.7034039 magnetization 

 Broyden mixing:
  rms(total) = 0.85997E+01    rms(broyden)= 0.85988E+01
  rms(prec ) = 0.10265E+02
  weight for this iteration     100.00

 Free energy of the ion-electron system (eV)
  ---------------------------------------------------
  alpha Z        PSCENC =      2210.34415451
  Ewald energy   TEWEN  =    -39274.17845914
  -Hartree energ DENC   =    -22229.19662160
  -exchange      EXHF   =         0.00000000
  -V(xc)+E(xc)   XCENC  =      3134.35193602
  PAW double counting   =     50594.51003143   -49994.65612350
  entropy T*S    EENTRO =        -0.00000000
  eigenvalues    EBANDS =    -10454.78707591
  atomic energy  EATOM  =     64968.54023382
  Solvation  Ediel_sol  =         0.00000000
  ---------------------------------------------------
  free energy    TOTEN  =     -1045.07192435 eV

  energy without entropy =    -1045.07192435  energy(sigma->0) =    -1045.07192435


--------------------------------------------------------------------------------------------------------




--------------------------------------- Iteration      1(   6)  ---------------------------------------


    POTLOK:  cpu time    0.1845: real time    0.1982
    SETDIJ:  cpu time    0.3833: real time    0.3833
     EDDAV:  cpu time   53.6775: real time   53.6771
       DOS:  cpu time    0.0027: real time    0.0027
    CHARGE:  cpu time    2.1327: real time    2.1327
    MIXING:  cpu time    0.0102: real time    0.0103
    --------------------------------------------
      LOOP:  cpu time   56.3910: real time   56.4042

 eigenvalue-minimisations  :  9968
 total energy-change (2. order) : 0.1700289E+03  (-0.8219625E+02)
 number of electron     864.0000006 magnetization 
 augmentation part      117.3825855 magnetization 

 Broyden mixing:
  rms(total) = 0.41366E+01    rms(broyden)= 0.41348E+01
  rms(prec ) = 0.46541E+01
  weight for this iteration     100.00

 eigenvalues of (default mixing * dielectric matrix)
  average eigenvalue GAMMA=   0.8735
  0.8735

 Free energy of the ion-electron system (eV)
  ---------------------------------------------------
  alpha Z        PSCENC =      2210.34415451
  Ewald energy   TEWEN  =    -39274.17845914
  -Hartree energ DENC   =    -23838.82841350
  -exchange      EXHF   =         0.00000000
  -V(xc)+E(xc)   XCENC  =      3235.23684075
  PAW double counting   =     63937.69560956   -63478.52495267
  entropy T*S    EENTRO =        -0.04883556
  eigenvalues    EBANDS =     -8635.27921853
  atomic energy  EATOM  =     64968.54023382
  Solvation  Ediel_sol  =         0.00000000
  ---------------------------------------------------
  free energy    TOTEN  =      -875.04304075 eV

  energy without entropy =     -874.99420520  energy(sigma->0) =     -875.01862297


--------------------------------------------------------------------------------------------------------




--------------------------------------- Iteration      1(   7)  ---------------------------------------


    POTLOK:  cpu time    0.1867: real time    0.1912
    SETDIJ:  cpu time    0.4245: real time    0.4245
     EDDAV:  cpu time   54.5821: real time   54.5814
       DOS:  cpu time    0.0027: real time    0.0027
    CHARGE:  cpu time    2.1468: real time    2.1468
    MIXING:  cpu time    0.0102: real time    0.0102
    --------------------------------------------
      LOOP:  cpu time   57.3532: real time   57.3569

 eigenvalue-minimisations  : 10168
 total energy-change (2. order) :-0.4887477E+01  (-0.1498326E+02)
 number of electron     864.0000006 magnetization 
 augmentation part      118.0129875 magnetization 

 Broyden mixing:
  rms(total) = 0.25951E+01    rms(broyden)= 0.25944E+01
  rms(prec ) = 0.31024E+01
  weight for this iteration     100.00

 eigenvalues of (default mixing * dielectric matrix)
  average eigenvalue GAMMA=   0.8501
  0.8501  0.8501

 Free energy of the ion-electron system (eV)
  ---------------------------------------------------
  alpha Z        PSCENC =      2210.34415451
  Ewald energy   TEWEN  =    -39274.17845914
  -Hartree energ DENC   =    -23820.38886231
  -exchange      EXHF   =         0.00000000
  -V(xc)+E(xc)   XCENC  =      3230.94296535
  PAW double counting   =     73132.93407427   -72718.01024531
  entropy T*S    EENTRO =        -0.00199572
  eigenvalues    EBANDS =     -8610.11238339
  atomic energy  EATOM  =     64968.54023382
  Solvation  Ediel_sol  =         0.00000000
  ---------------------------------------------------
  free energy    TOTEN  =      -879.93051792 eV

  energy without entropy =     -879.92852220  energy(sigma->0) =     -879.92952006


--------------------------------------------------------------------------------------------------------




--------------------------------------- Iteration      1(   8)  ---------------------------------------


    POTLOK:  cpu time    0.1983: real time    0.2212
    SETDIJ:  cpu time    0.4018: real time    0.4034
     EDDAV:  cpu time   62.7527: real time   62.7523
       DOS:  cpu time    0.0025: real time    0.0025
    CHARGE:  cpu time    2.1354: real time    2.1353
    MIXING:  cpu time    0.0103: real time    0.0103
    --------------------------------------------
      LOOP:  cpu time   65.5008: real time   65.5250

 eigenvalue-minimisations  : 12112
 total energy-change (2. order) : 0.8128349E+01  (-0.3081847E+01)
 number of electron     864.0000006 magnetization 
 augmentation part      117.8913253 magnetization 

 Broyden mixing:
  rms(total) = 0.16162E+01    rms(broyden)= 0.16157E+01
  rms(prec ) = 0.19846E+01
  weight for this iteration     100.00

 eigenvalues of (default mixing * dielectric matrix)
  average eigenvalue GAMMA=   0.9058
  1.2242  0.8692  0.6241

 Free energy of the ion-electron system (eV)
  ---------------------------------------------------
  alpha Z        PSCENC =      2210.34415451
  Ewald energy   TEWEN  =    -39274.17845914
  -Hartree energ DENC   =    -23852.94850116
  -exchange      EXHF   =         0.00000000
  -V(xc)+E(xc)   XCENC  =      3231.34943542
  PAW double counting   =     77060.23939980   -76670.38478162
  entropy T*S    EENTRO =        -0.01491899
  eigenvalues    EBANDS =     -8544.74873129
  atomic energy  EATOM  =     64968.54023382
  Solvation  Ediel_sol  =         0.00000000
  ---------------------------------------------------
  free energy    TOTEN  =      -871.80216864 eV

  energy without entropy =     -871.78724965  energy(sigma->0) =     -871.79470915


--------------------------------------------------------------------------------------------------------




--------------------------------------- Iteration      1(   9)  ---------------------------------------


    POTLOK:  cpu time    0.2060: real time    0.2206
    SETDIJ:  cpu time    0.3821: real time    0.3821
     EDDAV:  cpu time   57.0666: real time   57.0663
       DOS:  cpu time    0.0029: real time    0.0029
    CHARGE:  cpu time    2.1470: real time    2.1470
    MIXING:  cpu time    0.0104: real time    0.0104
    --------------------------------------------
      LOOP:  cpu time   59.8150: real time   59.8292

 eigenvalue-minimisations  : 10776
 total energy-change (2. order) :-0.1421836E+01  (-0.2796157E+01)
 number of electron     864.0000006 magnetization 
 augmentation part      116.6922943 magnetization 

 Broyden mixing:
  rms(total) = 0.29505E+01    rms(broyden)= 0.29501E+01
  rms(prec ) = 0.42825E+01
  weight for this iteration     100.00

 eigenvalues of (default mixing * dielectric matrix)
  average eigenvalue GAMMA=   0.8173
  1.4725  1.0201  0.3884  0.3884

 Free energy of the ion-electron system (eV)
  ---------------------------------------------------
  alpha Z        PSCENC =      2210.34415451
  Ewald energy   TEWEN  =    -39274.17845914
  -Hartree energ DENC   =    -23915.88266977
  -exchange      EXHF   =         0.00000000
  -V(xc)+E(xc)   XCENC  =      3233.89230056
  PAW double counting   =     81127.24125920   -80757.56717759
  entropy T*S    EENTRO =        -0.04239519
  eigenvalues    EBANDS =     -8465.57125079
  atomic energy  EATOM  =     64968.54023382
  Solvation  Ediel_sol  =         0.00000000
  ---------------------------------------------------
  free energy    TOTEN  =      -873.22400438 eV

  energy without entropy =     -873.18160919  energy(sigma->0) =     -873.20280678


--------------------------------------------------------------------------------------------------------




--------------------------------------- Iteration      1(  10)  ---------------------------------------


    POTLOK:  cpu time    0.1829: real time    0.1885
    SETDIJ:  cpu time    0.3803: real time    0.3803
     EDDAV:  cpu time   54.6584: real time   54.6580
       DOS:  cpu time    0.0027: real time    0.0027
    CHARGE:  cpu time    2.1497: real time    2.1496
    MIXING:  cpu time    0.0097: real time    0.0097
    --------------------------------------------
      LOOP:  cpu time   57.3839: real time   57.3890

 eigenvalue-minimisations  : 10192
 total energy-change (2. order) : 0.7046825E+00  (-0.2590903E+01)
 number of electron     864.0000006 magnetization 
 augmentation part      117.4825320 magnetization 

 Broyden mixing:
  rms(total) = 0.15225E+01    rms(broyden)= 0.15216E+01
  rms(prec ) = 0.20918E+01
  weight for this iteration     100.00

 eigenvalues of (default mixing * dielectric matrix)
  average eigenvalue GAMMA=   0.7893
  1.7289  1.0237  0.4905  0.4905  0.2131

 Free energy of the ion-electron system (eV)
  ---------------------------------------------------
  alpha Z        PSCENC =      2210.34415451
  Ewald energy   TEWEN  =    -39274.17845914
  -Hartree energ DENC   =    -23933.92290824
  -exchange      EXHF   =         0.00000000
  -V(xc)+E(xc)   XCENC  =      3234.21130523
  PAW double counting   =     83030.53576443   -82671.38041524
  entropy T*S    EENTRO =        -0.00137134
  eigenvalues    EBANDS =     -8436.66762594
  atomic energy  EATOM  =     64968.54023382
  Solvation  Ediel_sol  =         0.00000000
  ---------------------------------------------------
  free energy    TOTEN  =      -872.51932190 eV

  energy without entropy =     -872.51795056  energy(sigma->0) =     -872.51863623


--------------------------------------------------------------------------------------------------------




--------------------------------------- Iteration      1(  11)  ---------------------------------------


    POTLOK:  cpu time    0.1948: real time    0.2103
    SETDIJ:  cpu time    0.4056: real time    0.4058
     EDDAV:  cpu time   57.2401: real time   57.2415
       DOS:  cpu time    0.0027: real time    0.0027
    CHARGE:  cpu time    2.1500: real time    2.1500
    MIXING:  cpu time    0.0108: real time    0.0108
    --------------------------------------------
      LOOP:  cpu time   60.0041: real time   60.0211

 eigenvalue-minimisations  : 10776
 total energy-change (2. order) : 0.1215593E+01  (-0.5928963E+00)
 number of electron     864.0000006 magnetization 
 augmentation part      117.4351718 magnetization 

 Broyden mixing:
  rms(total) = 0.11406E+01    rms(broyden)= 0.11398E+01
  rms(prec ) = 0.15647E+01
  weight for this iteration     100.00

 eigenvalues of (default mixing * dielectric matrix)
  average eigenvalue GAMMA=   0.7530
  1.8984  1.0165  0.5502  0.5502  0.2514  0.2514

 Free energy of the ion-electron system (eV)
  ---------------------------------------------------
  alpha Z        PSCENC =      2210.34415451
  Ewald energy   TEWEN  =    -39274.17845914
  -Hartree energ DENC   =    -23954.12682804
  -exchange      EXHF   =         0.00000000
  -V(xc)+E(xc)   XCENC  =      3235.08513732
  PAW double counting   =     84657.93238077   -84307.29791026
  entropy T*S    EENTRO =        -0.02235905
  eigenvalues    EBANDS =     -8407.58007921
  atomic energy  EATOM  =     64968.54023382
  Solvation  Ediel_sol  =         0.00000000
  ---------------------------------------------------
  free energy    TOTEN  =      -871.30372926 eV

  energy without entropy =     -871.28137022  energy(sigma->0) =     -871.29254974


--------------------------------------------------------------------------------------------------------




--------------------------------------- Iteration      1(  12)  ---------------------------------------


    POTLOK:  cpu time    0.1979: real time    0.2116
    SETDIJ:  cpu time    0.3945: real time    0.3945
     EDDAV:  cpu time   57.9046: real time   57.9059
       DOS:  cpu time    0.0027: real time    0.0027
    CHARGE:  cpu time    2.1371: real time    2.1370
    MIXING:  cpu time    0.0105: real time    0.0105
    --------------------------------------------
      LOOP:  cpu time   60.6473: real time   60.6622

 eigenvalue-minimisations  : 10864
 total energy-change (2. order) : 0.2922394E+00  (-0.3226834E+00)
 number of electron     864.0000006 magnetization 
 augmentation part      117.5629580 magnetization 

 Broyden mixing:
  rms(total) = 0.82081E+00    rms(broyden)= 0.82041E+00
  rms(prec ) = 0.12017E+01
  weight for this iteration     100.00

 eigenvalues of (default mixing * dielectric matrix)
  average eigenvalue GAMMA=   0.7525
  2.1907  0.8993  0.8993  0.3742  0.3742  0.3078  0.2218

 Free energy of the ion-electron system (eV)
  ---------------------------------------------------
  alpha Z        PSCENC =      2210.34415451
  Ewald energy   TEWEN  =    -39274.17845914
  -Hartree energ DENC   =    -23968.06741124
  -exchange      EXHF   =         0.00000000
  -V(xc)+E(xc)   XCENC  =      3235.71608494
  PAW double counting   =     85377.31628161   -85029.99294468
  entropy T*S    EENTRO =        -0.03740080
  eigenvalues    EBANDS =     -8390.65202889
  atomic energy  EATOM  =     64968.54023382
  Solvation  Ediel_sol  =         0.00000000
  ---------------------------------------------------
  free energy    TOTEN  =      -871.01148986 eV

  energy without entropy =     -870.97408906  energy(sigma->0) =     -870.99278946


--------------------------------------------------------------------------------------------------------




--------------------------------------- Iteration      1(  13)  ---------------------------------------


    POTLOK:  cpu time    0.1842: real time    0.2006
    SETDIJ:  cpu time    0.3925: real time    0.3925
     EDDAV:  cpu time   58.9737: real time   58.9738
       DOS:  cpu time    0.0024: real time    0.0024
    CHARGE:  cpu time    2.1564: real time    2.1563
    MIXING:  cpu time    0.0114: real time    0.0114
    --------------------------------------------
      LOOP:  cpu time   61.7205: real time   61.7370

 eigenvalue-minimisations  : 11216
 total energy-change (2. order) : 0.5704976E+00  (-0.2213043E+00)
 number of electron     864.0000006 magnetization 
 augmentation part      117.2581183 magnetization 

 Broyden mixing:
  rms(total) = 0.97815E+00    rms(broyden)= 0.97749E+00
  rms(prec ) = 0.13444E+01
  weight for this iteration     100.00

 eigenvalues of (default mixing * dielectric matrix)
  average eigenvalue GAMMA=   0.7194
  2.2685  0.9209  0.9209  0.4719  0.4719  0.2481  0.2481  0.2047

 Free energy of the ion-electron system (eV)
  ---------------------------------------------------
  alpha Z        PSCENC =      2210.34415451
  Ewald energy   TEWEN  =    -39274.17845914
  -Hartree energ DENC   =    -23994.95231874
  -exchange      EXHF   =         0.00000000
  -V(xc)+E(xc)   XCENC  =      3237.01984046
  PAW double counting   =     86468.27641341   -86125.77396053
  entropy T*S    EENTRO =        -0.00104827
  eigenvalues    EBANDS =     -8359.71584774
  atomic energy  EATOM  =     64968.54023382
  Solvation  Ediel_sol  =         0.00000000
  ---------------------------------------------------
  free energy    TOTEN  =      -870.44099221 eV

  energy without entropy =     -870.43994394  energy(sigma->0) =     -870.44046808


--------------------------------------------------------------------------------------------------------




--------------------------------------- Iteration      1(  14)  ---------------------------------------


    POTLOK:  cpu time    0.1799: real time    0.1933
    SETDIJ:  cpu time    0.3806: real time    0.3806
     EDDAV:  cpu time   55.4457: real time   55.4452
       DOS:  cpu time    0.0028: real time    0.0028
    CHARGE:  cpu time    2.1593: real time    2.1593
    MIXING:  cpu time    0.0111: real time    0.0111
    --------------------------------------------
      LOOP:  cpu time   58.1794: real time   58.1922

 eigenvalue-minimisations  : 10368
 total energy-change (2. order) : 0.1025087E+01  (-0.9191917E-01)
 number of electron     864.0000006 magnetization 
 augmentation part      117.3086449 magnetization 

 Broyden mixing:
  rms(total) = 0.45576E+00    rms(broyden)= 0.45495E+00
  rms(prec ) = 0.73524E+00
  weight for this iteration     100.00

 eigenvalues of (default mixing * dielectric matrix)
  average eigenvalue GAMMA=   0.7077
  2.3156  0.9375  0.9375  0.5550  0.4726  0.4726  0.2441  0.2441  0.1903

 Free energy of the ion-electron system (eV)
  ---------------------------------------------------
  alpha Z        PSCENC =      2210.34415451
  Ewald energy   TEWEN  =    -39274.17845914
  -Hartree energ DENC   =    -24000.88803462
  -exchange      EXHF   =         0.00000000
  -V(xc)+E(xc)   XCENC  =      3237.31558076
  PAW double counting   =     86682.30438364   -86340.28716499
  entropy T*S    EENTRO =        -0.05097137
  eigenvalues    EBANDS =     -8352.51562764
  atomic energy  EATOM  =     64968.54023382
  Solvation  Ediel_sol  =         0.00000000
  ---------------------------------------------------
  free energy    TOTEN  =      -869.41590503 eV

  energy without entropy =     -869.36493366  energy(sigma->0) =     -869.39041935


--------------------------------------------------------------------------------------------------------




--------------------------------------- Iteration      1(  15)  ---------------------------------------


    POTLOK:  cpu time    0.1827: real time    0.1878
    SETDIJ:  cpu time    0.3901: real time    0.3913
     EDDAV:  cpu time   54.7976: real time   54.7971
       DOS:  cpu time    0.0027: real time    0.0027
    CHARGE:  cpu time    2.1588: real time    2.1587
    MIXING:  cpu time    0.0110: real time    0.0110
    --------------------------------------------
      LOOP:  cpu time   57.5428: real time   57.5485

 eigenvalue-minimisations  : 10216
 total energy-change (2. order) : 0.1506030E+00  (-0.5749826E-01)
 number of electron     864.0000006 magnetization 
 augmentation part      117.2041602 magnetization 

 Broyden mixing:
  rms(total) = 0.48930E+00    rms(broyden)= 0.48910E+00
  rms(prec ) = 0.71586E+00
  weight for this iteration     100.00

 eigenvalues of (default mixing * dielectric matrix)
  average eigenvalue GAMMA=   0.6921
  2.3366  1.0981  0.7827  0.7827  0.5018  0.5018  0.2505  0.2505  0.2390  0.1775

 Free energy of the ion-electron system (eV)
  ---------------------------------------------------
  alpha Z        PSCENC =      2210.34415451
  Ewald energy   TEWEN  =    -39274.17845914
  -Hartree energ DENC   =    -24005.93822907
  -exchange      EXHF   =         0.00000000
  -V(xc)+E(xc)   XCENC  =      3237.50188259
  PAW double counting   =     86752.04481215   -86410.18276176
  entropy T*S    EENTRO =        -0.04826464
  eigenvalues    EBANDS =     -8347.34867056
  atomic energy  EATOM  =     64968.54023382
  Solvation  Ediel_sol  =         0.00000000
  ---------------------------------------------------
  free energy    TOTEN  =      -869.26530208 eV

  energy without entropy =     -869.21703745  energy(sigma->0) =     -869.24116976


--------------------------------------------------------------------------------------------------------




--------------------------------------- Iteration      1(  16)  ---------------------------------------


    POTLOK:  cpu time    0.2107: real time    0.2245
    SETDIJ:  cpu time    0.4027: real time    0.4028
     EDDAV:  cpu time   57.2634: real time   57.2632
       DOS:  cpu time    0.0027: real time    0.0027
    CHARGE:  cpu time    2.1630: real time    2.1630
    MIXING:  cpu time    0.0117: real time    0.0117
    --------------------------------------------
      LOOP:  cpu time   60.0543: real time   60.0679

 eigenvalue-minimisations  : 10784
 total energy-change (2. order) : 0.2391749E+00  (-0.3416131E-01)
 number of electron     864.0000006 magnetization 
 augmentation part      117.1841834 magnetization 

 Broyden mixing:
  rms(total) = 0.36357E+00    rms(broyden)= 0.36303E+00
  rms(prec ) = 0.48122E+00
  weight for this iteration     100.00

 eigenvalues of (default mixing * dielectric matrix)
  average eigenvalue GAMMA=   0.6420
  2.3157  1.1116  0.8137  0.8137  0.4891  0.4891  0.2517  0.2517  0.2343  0.1716
  0.1201

 Free energy of the ion-electron system (eV)
  ---------------------------------------------------
  alpha Z        PSCENC =      2210.34415451
  Ewald energy   TEWEN  =    -39274.17845914
  -Hartree energ DENC   =    -24008.63926577
  -exchange      EXHF   =         0.00000000
  -V(xc)+E(xc)   XCENC  =      3237.60629369
  PAW double counting   =     86757.56034375   -86415.52506554
  entropy T*S    EENTRO =        -0.04830702
  eigenvalues    EBANDS =     -8344.68605552
  atomic energy  EATOM  =     64968.54023382
  Solvation  Ediel_sol  =         0.00000000
  ---------------------------------------------------
  free energy    TOTEN  =      -869.02612721 eV

  energy without entropy =     -868.97782019  energy(sigma->0) =     -869.00197370


--------------------------------------------------------------------------------------------------------




--------------------------------------- Iteration      1(  17)  ---------------------------------------


    POTLOK:  cpu time    0.2052: real time    0.2192
    SETDIJ:  cpu time    0.4255: real time    0.4255
     EDDAV:  cpu time   56.6054: real time   56.6084
       DOS:  cpu time    0.0027: real time    0.0027
    CHARGE:  cpu time    2.1555: real time    2.1554
    MIXING:  cpu time    0.0110: real time    0.0110
    --------------------------------------------
      LOOP:  cpu time   59.4053: real time   59.4223

 eigenvalue-minimisations  : 10632
 total energy-change (2. order) : 0.3016758E-01  (-0.1023593E-01)
 number of electron     864.0000006 magnetization 
 augmentation part      117.1955334 magnetization 

 Broyden mixing:
  rms(total) = 0.30817E+00    rms(broyden)= 0.30798E+00
  rms(prec ) = 0.48758E+00
  weight for this iteration     100.00

 eigenvalues of (default mixing * dielectric matrix)
  average eigenvalue GAMMA=   0.6408
  2.2738  1.2287  0.8888  0.8888  0.5070  0.5070  0.3275  0.2458  0.2458  0.2028
  0.2028  0.1706

 Free energy of the ion-electron system (eV)
  ---------------------------------------------------
  alpha Z        PSCENC =      2210.34415451
  Ewald energy   TEWEN  =    -39274.17845914
  -Hartree energ DENC   =    -24009.05386930
  -exchange      EXHF   =         0.00000000
  -V(xc)+E(xc)   XCENC  =      3237.61164925
  PAW double counting   =     86724.04920079   -86381.89594928
  entropy T*S    EENTRO =        -0.06429181
  eigenvalues    EBANDS =     -8344.34862848
  atomic energy  EATOM  =     64968.54023382
  Solvation  Ediel_sol  =         0.00000000
  ---------------------------------------------------
  free energy    TOTEN  =      -868.99595963 eV

  energy without entropy =     -868.93166782  energy(sigma->0) =     -868.96381373


--------------------------------------------------------------------------------------------------------




--------------------------------------- Iteration      1(  18)  ---------------------------------------


    POTLOK:  cpu time    0.1612: real time    0.1652
    SETDIJ:  cpu time    0.3797: real time    0.3797
     EDDAV:  cpu time   56.4071: real time   56.4063
       DOS:  cpu time    0.0027: real time    0.0027
    CHARGE:  cpu time    2.1450: real time    2.1449
    MIXING:  cpu time    0.0116: real time    0.0116
    --------------------------------------------
      LOOP:  cpu time   59.1074: real time   59.1104

 eigenvalue-minimisations  : 10608
 total energy-change (2. order) : 0.4430243E-01  (-0.5563019E-01)
 number of electron     864.0000006 magnetization 
 augmentation part      117.1801914 magnetization 

 Broyden mixing:
  rms(total) = 0.30435E+00    rms(broyden)= 0.30423E+00
  rms(prec ) = 0.43582E+00
  weight for this iteration     100.00

 eigenvalues of (default mixing * dielectric matrix)
  average eigenvalue GAMMA=   0.6586
  2.1969  1.3967  0.9935  0.9935  0.6289  0.4786  0.4786  0.3861  0.2513  0.2513
  0.2056  0.1501  0.1501

 Free energy of the ion-electron system (eV)
  ---------------------------------------------------
  alpha Z        PSCENC =      2210.34415451
  Ewald energy   TEWEN  =    -39274.17845914
  -Hartree energ DENC   =    -24010.83204236
  -exchange      EXHF   =         0.00000000
  -V(xc)+E(xc)   XCENC  =      3237.65103615
  PAW double counting   =     86659.58152531   -86317.16218657
  entropy T*S    EENTRO =        -0.04768221
  eigenvalues    EBANDS =     -8342.84823671
  atomic energy  EATOM  =     64968.54023382
  Solvation  Ediel_sol  =         0.00000000
  ---------------------------------------------------
  free energy    TOTEN  =      -868.95165720 eV

  energy without entropy =     -868.90397499  energy(sigma->0) =     -868.92781610


--------------------------------------------------------------------------------------------------------




--------------------------------------- Iteration      1(  19)  ---------------------------------------


    POTLOK:  cpu time    0.2024: real time    0.2162
    SETDIJ:  cpu time    0.3902: real time    0.3902
     EDDAV:  cpu time   56.3772: real time   56.3776
       DOS:  cpu time    0.0029: real time    0.0029
    CHARGE:  cpu time    2.1557: real time    2.1557
    MIXING:  cpu time    0.0108: real time    0.0108
    --------------------------------------------
      LOOP:  cpu time   59.1392: real time   59.1533

 eigenvalue-minimisations  : 10600
 total energy-change (2. order) : 0.7570489E-03  (-0.3920171E-01)
 number of electron     864.0000006 magnetization 
 augmentation part      117.1568575 magnetization 

 Broyden mixing:
  rms(total) = 0.59974E+00    rms(broyden)= 0.59931E+00
  rms(prec ) = 0.76573E+00
[...]
   0.543E+02 -.182E+03 -.578E+02   -.593E+02 0.193E+03 0.345E+02   0.529E+01 -.112E+02 0.241E+02   0.158E-02 -.287E-02 0.458E-02
   -.131E+02 -.109E+02 0.101E+03   0.286E+02 0.253E+02 -.846E+02   -.151E+02 -.148E+02 -.158E+02   -.840E-02 0.220E-02 0.725E-02
   -.974E+02 0.683E+02 -.392E+02   0.932E+02 -.781E+02 0.367E+02   0.767E+01 0.132E+02 0.460E+01   -.185E-01 -.221E-01 0.133E-02
   -.494E+02 0.163E+03 0.592E+02   0.562E+02 -.182E+03 -.664E+02   -.901E+01 0.169E+02 0.655E+01   -.566E-02 -.638E-02 -.106E-01
   0.445E+02 -.251E+02 0.426E+02   -.747E+02 0.450E+02 -.690E+02   0.268E+02 -.178E+02 0.224E+02   -.544E-03 0.655E-02 -.182E-02
   -.317E+02 0.253E+01 -.688E+01   0.157E+02 0.973E+01 0.320E+01   0.193E+02 -.112E+02 0.395E+01   0.387E-02 0.990E-02 -.482E-02
   0.770E+02 0.177E+03 0.512E+02   -.712E+02 -.184E+03 -.621E+02   -.750E+01 0.723E+01 0.123E+02   0.197E-02 0.415E-02 -.978E-03
   0.706E+02 0.183E+02 -.689E+02   -.639E+02 -.160E+02 0.731E+02   -.788E+01 -.337E+01 -.276E+01   -.200E-03 0.241E-02 0.132E-02
   -.848E+02 -.553E+02 -.477E+02   0.103E+03 0.601E+02 0.635E+02   -.201E+02 -.241E+01 -.155E+02   -.139E-01 0.946E-02 -.345E-01
   0.300E+02 0.201E+03 -.168E+02   -.581E+02 -.213E+03 0.174E+02   0.276E+02 0.103E+02 0.973E+00   0.483E-02 0.109E-01 0.498E-02
   -.125E+02 0.679E+01 -.560E+01   0.233E+02 -.838E+01 0.256E+02   -.130E+02 -.132E+00 -.226E+02   -.260E-02 0.328E-02 0.156E-02
   0.490E+02 0.631E+02 -.758E+02   -.303E+02 -.669E+02 0.922E+02   -.235E+02 -.284E+00 -.161E+02   0.510E-02 0.640E-03 -.888E-03
   0.269E+02 0.723E+02 -.511E+02   -.332E+02 -.887E+02 0.467E+02   0.456E+01 0.166E+02 0.384E+01   -.228E-02 -.275E-02 -.337E-02
   -.620E+02 -.543E+02 -.788E+02   0.674E+02 0.399E+02 0.757E+02   -.645E+01 0.190E+02 0.421E+01   -.125E-02 0.177E-02 0.173E-02
   -.640E+02 -.149E+03 0.208E+03   0.826E+02 0.166E+03 -.228E+03   -.191E+02 -.172E+02 0.185E+02   -.775E-02 0.525E-02 -.716E-02
   -.431E+01 0.287E+02 0.145E+02   -.656E+01 -.330E+02 -.285E+00   0.117E+02 0.282E+01 -.147E+02   0.151E-01 -.335E-02 0.647E-02
   -.111E+03 0.284E+02 -.144E+03   0.114E+03 -.352E+02 0.146E+03   -.632E+01 0.120E+02 0.213E+01   -.263E-02 -.149E-02 -.870E-03
   -.732E+02 0.753E+02 0.768E+02   0.893E+02 -.629E+02 -.907E+02   -.162E+02 -.139E+02 0.913E+01   0.481E-02 0.856E-02 -.858E-03
   -.574E+02 -.216E+03 -.980E+02   0.745E+02 0.234E+03 0.983E+02   -.962E+01 -.189E+02 0.564E+00   0.564E-02 -.698E-02 0.536E-04
   0.183E+02 -.176E+02 0.741E+02   -.127E+02 -.427E+01 -.743E+02   -.628E+01 0.251E+02 -.176E-01   0.123E-01 -.138E-01 0.960E-04
   -.167E+03 0.680E+02 -.381E+02   0.188E+03 -.750E+02 0.714E+02   -.166E+02 0.578E+01 -.290E+02   0.269E-02 0.594E-02 -.387E-02
   0.584E+00 0.859E+02 0.798E+01   -.120E+01 -.951E+02 -.160E+02   -.265E+01 0.123E+02 0.115E+02   -.161E-02 -.392E-01 0.148E-01
   0.225E+02 -.248E+03 0.345E+00   -.152E+02 0.286E+03 0.117E+02   -.109E+02 -.346E+02 -.124E+02   0.744E-03 0.869E-02 -.282E-02
   0.644E+02 0.141E+03 -.101E+03   -.735E+02 -.166E+03 0.110E+03   0.854E+01 0.200E+02 -.409E+01   -.190E-02 0.109E-02 0.246E-02
   -.177E+03 -.159E+03 -.460E+02   0.156E+03 0.187E+03 0.475E+02   0.255E+02 -.238E+02 -.249E+01   0.102E-02 0.197E-02 0.593E-02
   -.777E+02 0.304E+02 0.181E+03   0.989E+02 -.553E+02 -.187E+03   -.209E+02 0.253E+02 0.811E+01   -.502E-02 0.760E-02 0.472E-02
   0.182E+03 0.986E+02 -.667E+02   -.200E+03 -.102E+03 0.772E+02   0.209E+02 0.557E+01 -.138E+02   -.266E-03 -.762E-03 -.245E-02
   0.619E+02 -.115E+03 0.103E+03   -.533E+02 0.131E+03 -.121E+03   -.116E+02 -.156E+02 0.207E+02   0.164E-01 0.363E-02 -.403E-02
   -.170E+02 -.724E+01 -.179E+03   0.386E+02 0.225E+02 0.192E+03   -.219E+02 -.144E+02 -.934E+01   0.244E-02 0.615E-02 -.243E-02
   -.153E+03 0.185E+03 0.130E+02   0.154E+03 -.210E+03 -.295E+02   0.140E+01 0.245E+02 0.147E+02   -.688E-02 0.114E-02 0.140E-01
   0.122E+03 0.178E+02 -.636E+02   -.134E+03 -.230E+02 0.809E+02   0.113E+02 0.219E+01 -.160E+02   0.752E-03 -.984E-03 0.232E-02
   -.456E+02 -.131E+03 0.201E+02   0.467E+02 0.127E+03 -.311E+02   -.243E+00 0.618E+01 0.116E+02   0.167E-02 -.255E-02 0.329E-02
   0.569E+02 -.547E+02 -.470E+02   -.889E+02 0.666E+02 0.698E+02   0.258E+02 -.696E+01 -.175E+02   -.214E-02 -.148E-02 0.329E-02
   -.237E+02 0.149E+03 -.825E+01   0.274E+02 -.156E+03 0.264E+02   -.482E+01 0.554E+01 -.207E+02   -.283E-02 -.234E-02 0.201E-01
   0.270E+02 0.169E+03 0.103E+03   -.432E+02 -.188E+03 -.123E+03   0.164E+02 0.201E+02 0.181E+02   0.121E-02 0.297E-02 0.262E-02
   0.107E+03 -.116E+03 -.109E+03   -.127E+03 0.118E+03 0.137E+03   0.203E+02 -.318E+01 -.282E+02   -.735E-03 -.102E-02 -.328E-02
   -.112E+02 0.103E+03 0.107E+03   0.782E+01 -.107E+03 -.129E+03   0.447E+01 0.214E+01 0.206E+02   0.681E-02 0.881E-02 -.128E-03
   -.425E+02 0.173E+03 -.146E+02   0.384E+02 -.182E+03 0.301E+02   0.391E+01 0.869E+01 -.175E+02   -.106E-01 -.124E-01 -.102E-01
   0.276E+02 -.781E+02 -.122E+03   -.436E+02 0.891E+02 0.138E+03   0.142E+02 -.108E+02 -.141E+02   0.238E-02 0.545E-02 0.235E-02
   -.162E+03 -.556E+02 -.771E+02   0.167E+03 0.553E+02 0.811E+02   -.576E+01 0.124E+01 -.352E+01   -.402E-02 0.712E-02 -.197E-01
   -.137E+01 -.140E+02 0.547E+02   -.152E+02 0.181E+02 -.657E+02   0.200E+02 -.481E+01 0.145E+02   -.264E-02 0.978E-02 -.354E-02
   0.919E+02 -.344E+02 -.115E+03   -.103E+03 0.169E+02 0.137E+03   0.104E+02 0.190E+02 -.179E+02   -.411E-02 0.185E-01 0.355E-03
   -.615E+02 -.618E+02 -.700E+02   0.885E+02 0.553E+02 0.590E+02   -.277E+02 0.878E+01 0.128E+02   0.360E-02 -.996E-03 0.268E-02
   -.136E+03 -.136E+03 -.302E+02   0.143E+03 0.146E+03 0.689E+01   -.667E+01 -.637E+01 0.283E+02   0.587E-03 0.341E-02 0.435E-02
   -.365E+02 -.902E+02 -.458E+02   0.467E+02 0.107E+03 0.432E+02   -.124E+02 -.178E+02 0.338E+01   -.102E-02 0.356E-02 0.240E-02
   -.527E+02 0.141E+03 0.730E+02   0.812E+02 -.136E+03 -.626E+02   -.294E+02 -.584E+01 -.116E+02   0.310E-02 0.546E-02 0.112E-02
   0.365E+02 -.481E-01 0.260E+02   -.346E+02 0.182E+02 -.299E+02   -.201E+01 -.215E+02 0.988E+00   0.811E-03 -.235E-02 0.264E-02
   -.511E+02 -.100E+03 -.177E+02   0.764E+02 0.123E+03 -.332E+00   -.184E+02 -.185E+02 0.167E+02   0.168E-02 0.275E-02 0.325E-02
 -----------------------------------------------------------------------------------------------
   0.217E+02 0.147E+03 -.806E+02   0.199E-12 0.512E-12 0.393E-12   -.217E+02 -.147E+03 0.806E+02   -.402E-01 -.477E-01 -.158E-01
 
 
 POSITION                                       TOTAL-FORCE (eV/Angst)
 -----------------------------------------------------------------------------------
     11.48361      0.82903      0.43142         0.579143     -0.589282      0.632955
      2.93317      5.24242      7.53806        -1.020111      3.872505     -0.270404
      8.07412      4.63593      7.95073         1.978795     -1.510711     -0.050637
      1.02102     11.82034      7.09504        -0.799136     -0.761993      1.630581
     10.78790      5.87700      5.92738        -0.940944      0.280618     -1.586126
      2.32475      0.66335     12.22195         0.117776     -0.105908      0.530917
      4.09691      6.76400      3.73557         0.941182      0.372873     -0.791197
      4.46992      9.10759     12.47778         0.158114     -0.263357      0.228486
      8.79180     10.59575      7.76617        -2.023433     -1.991837      0.294557
      2.28507      8.83962      9.05679        -4.157643     -3.963014     -0.837715
      6.15594      2.65688      1.44608         0.053844      0.092967      0.097006
      6.25721      6.32735      9.80245        -1.277255      1.127672     -0.510331
     10.02188      8.76905     12.64593         0.058166     -1.931681      1.214092
     12.64618      7.47212      3.23427         2.076861      0.168634      1.675764
      2.41986      2.71821      9.30524        -2.151141      0.019662     -0.056644
      2.30204      1.55608      5.50048        -0.600845      1.422221     -0.609307
     12.65625      6.21873     10.94188        -0.135536     -0.265232      1.112315
     10.82023      1.91230     10.35351         1.653005     -3.650966     -4.836414
      7.31792     11.27478      2.72409         0.880832      1.576366     -2.185946
      7.03530      0.37109      8.01904        -1.541463      1.712756      0.577260
      1.01867     11.29817      2.79022         0.156619     -3.278512     -0.824358
      3.97757      9.72273      6.11364        -2.093252      1.629517      0.450761
      1.54707      8.21486      0.92442         2.585562      2.269769     -1.224831
      7.86182     12.77968     11.58473         2.225960     -0.978295     -2.306723
      7.85958      5.10884      2.71048        -0.197441      1.628644      1.787532
     10.62389      3.27218      3.60684         0.296915      2.066656     -1.038463
     11.87378      8.83108      7.55217         1.019342     -0.246334     -1.793961
     10.44061      0.11857      5.97624         1.454828      4.615495     -0.038311
      4.92205      1.30124     10.06124        -2.847677     -6.512364      2.082004
      6.04622      6.92282      0.43362        -5.039422     -4.867814      2.849484
      9.77619      3.32796      0.11513        -0.795737      2.206114     -0.582933
      5.70211      4.90542      6.09567         3.979272      1.033937     -1.166614
     10.95211     12.14384      8.27964         7.501135      5.637077     -0.679915
      1.73970      1.31889      2.30717         1.476401     -0.852718      1.039636
      9.79978      9.18708      4.81297         2.247994     -2.628079      0.261802
      5.41109      0.37435      5.09363        -1.530686      2.263131      0.169552
      0.05316     10.20050     12.18347         7.982483     -2.700057      0.215623
      5.07976      9.09250      8.94499         2.615031     -3.893298     -2.467915
     12.72171      6.00386      1.09775        -1.337140     -4.375493      3.035102
      5.49734     12.31924     12.79787         0.910221     -1.131701     -0.765023
      6.98780      8.85305      4.83270         1.920953    -11.591347     12.131442
      7.58686      3.22717     11.10415        -2.989143      2.645295     -2.693150
     10.25171     12.00820      2.83860         5.770997     -6.318975      6.496505
      8.58041      5.67684     12.51094        -1.729233      4.130689     -2.322024
      3.97770      3.82288     12.31368         0.232540      0.774415     -2.527852
     10.33842     11.27461     11.12836        -4.080796     -6.982406     -1.858528
      0.87519     11.89022     10.20035        -1.912288     -3.002276     -1.674895
      4.69875      2.46423      6.93206         0.462625      2.576537      3.882079
      4.01817      0.39737      2.39720         0.417765     -5.301892     -2.595988
     12.38372      2.31977      5.99876         2.098449      2.082217      2.490694
     12.32886      4.19826      8.56663        10.647745     -6.380675     -3.102638
      1.17707      8.09759      5.73423         3.205836     -3.020062      0.526231
      7.44799      2.88835      5.21365        -3.638059      3.107245     -6.892669
      9.92326      7.11845      9.31066         0.366249     -0.585678     -0.656436
      6.87043      9.76133      3.79221        -3.475113      7.697458     -9.672582
      8.12692      9.58596      6.16434        -0.855077     -2.225815     -4.674958
     11.48122      6.79030      0.37381        -0.547180      3.224220      0.081627
      4.63745      7.63071      1.24288         2.777285     -0.498670     -0.837893
     10.33202      0.71285      7.72402         0.813526     -1.595546     -3.333625
      0.62356      1.31395      1.26257        -1.140808      1.295694     -3.139741
      0.52389     12.36325     11.85649        -0.626805     -1.320156     -2.501576
     10.69437     12.61730     11.58136         0.666062      7.473332      1.671783
      3.22174      3.25633      7.25804         1.815612     -3.031070      1.274586
      1.15403      4.85329      8.76221        -3.371164     -1.048613      0.583589
      5.88781     10.53265      0.37192        -1.772295      4.249528     -1.363879
      9.20248      7.14570      7.79951         1.257851     -1.369179      2.808081
     12.91210     10.30047      8.44735         1.029083      1.302957     -0.401199
      9.17858      9.84228      3.56811         0.103693      3.666594     -3.105149
      6.49602      5.59849      7.32191        -1.178032      4.033791      0.570067
     11.28784      8.06009      9.38162        -2.605012     -2.755078      2.841567
      8.42195      1.97474     11.52917        -0.226961     -1.658683     -0.222772
      4.53324      2.56722      5.40147         0.518357     -2.700189     -4.027654
      6.13272      5.11990      0.64148        -1.179471      1.338926      2.526273
      9.94290      2.40081      1.40496         0.731092     -0.100612     -1.083430
     11.62387     10.94069      2.53195        -2.867911      4.006994      0.423203
      2.75289     12.26966      1.67428         0.825074      1.647363      3.461650
      1.83556      9.82561      5.98791        -2.589917     -1.415232     -1.506523
      1.16317      6.65087      2.01408        -1.388333     -3.686130     -2.731898
      9.39043      4.87314      0.68828         3.628420      0.495399      3.147360
      4.65032      7.48956      8.68660        -1.520569      1.288031      1.427251
     11.89559      4.12906      7.01871        -0.458335     -2.033828     -2.341936
      5.78679      7.03074     11.85218        -2.729724      2.221027     -4.459127
      9.31907      5.19368      4.15567         2.529349     -2.073652      0.641485
      2.12581     12.29563      9.39236         1.114955      1.980469     -0.354717
      4.31509      5.53528      5.69689        -0.164126     -0.424436     -0.414826
     10.92584      7.92394      3.85692        -6.853236      3.462452      3.675489
      9.70959     12.91551      4.57451        -1.027250     -2.968327     -3.005367
      3.63386      4.39352     10.82537         0.305780      0.387340      0.822471
     10.61494      9.79441      6.03228         0.386431     -0.416076      0.718103
     12.54331      6.91783      5.40099         3.435199      3.445207      2.041063
      0.48590      8.60626     11.98147        -2.139858     -2.022303     -0.697130
      9.23083     12.57493      1.96156        -3.397915      2.132420     -4.042371
      4.24046      0.30443      0.48833         3.248322      1.039762      0.269417
      5.69790     12.82809     11.00016        -1.739232     -0.480282      1.345338
      8.65145     12.64816      8.95013        -1.142846     -1.022385      1.461452
      1.10191     10.32784      0.53677        -2.080512      2.449736      0.320774
      3.92581     12.77828      5.23141        -0.399457     -1.610876      1.562861
      0.72969      1.78793      7.10057        -2.180332     -1.713203     -2.552256
      6.14573      3.54888      7.07275        -4.775597     -4.097786      0.328639
     11.48549     10.22972     11.67346        -1.716983      0.217624     -0.543986
     12.70909      2.25023      9.17047        -1.054719      4.549579      1.145443
      0.43553      2.93174      4.91667        -0.510435     -0.164312     -1.989266
      5.63147      8.89476      5.73046         0.891069     -1.519991     -0.441144
      1.59573     10.00350     10.45942        -2.779834      5.247165      3.754378
      5.41546      0.64114      3.50148        -0.001879     -1.528417     -4.736542
      7.60710      7.08433      0.25928         7.495106     -0.739195      0.787399
      7.31257      7.14149      4.45900        -0.647927      3.210278     -0.179521
      8.21620      2.73180      6.45106         4.855830     -1.208648      4.353896
      2.27230      7.06366      4.49115        -3.273374      3.043376      3.504523
      3.41556      1.80421      2.67856        -3.515929      2.876527     -0.297065
     10.36991     11.09239      9.20577        -0.611597     -4.525285      5.625303
      3.77689      9.99645      8.88908         5.105222      3.416048     -0.982071
     11.60057     11.97628      6.23119         0.330571      0.506976      2.133706
      8.90727     10.56069     12.12654         2.878153      1.799731     -3.326357
      6.91484      4.49223      4.83767        -2.998934      0.694947      3.208433
      6.79628      0.20208      0.31429        -0.293879      0.865975      3.418536
     12.79359      4.86911     12.91075         1.691279     -0.777244     -1.807484
      7.87348      4.23336     12.32543        -0.865168     -2.939595      1.412310
      9.18442      6.24930     10.94981         0.791056      1.913256      0.656399
     11.27213      4.79724      9.35367        -6.252874      4.999054      5.321629
      1.54453      7.75208      7.36926        -1.091127     -1.080337     -2.558797
      4.24508      0.55730      8.77381         0.164949      1.009700     -2.067028
      3.08361      3.79426      0.66725         0.238691     -0.900985      0.196405
      7.27021      2.67033      3.59512         1.107108     -2.100668     -1.046654
     12.12157      5.32298      2.68486        -0.204504      0.087519     -1.984068
      3.79008      1.88068     10.98327        -1.793046      0.226542      1.912530
      2.02548      9.06116      2.88695        -0.660281      0.969091      0.451711
     10.81843      1.84015      5.27095         3.407152     -0.698884      3.476571
      1.30250      0.33356      3.41674        -0.373696      1.414261      4.400331
      6.66009      8.97514      8.56972        -0.671262      2.241088      1.793532
     10.31591      3.28287     11.53429         0.774429      3.360345      4.994906
     12.51987     12.67039      9.01674        -2.162006     -0.882199      0.849356
      6.78457      0.64706      5.85015        -0.911714     -0.902502     -1.140466
      7.52122      4.65708     10.22657        -0.186491     -3.330032     -2.897698
      6.02103      2.08119      9.46322         6.859759      4.447584     -1.397100
 -----------------------------------------------------------------------------------
    total drift:                               -0.018874      0.012854      0.022632


--------------------------------------------------------------------------------------------------------



  FREE ENERGIE OF THE ION-ELECTRON SYSTEM (eV)
  ---------------------------------------------------
  free  energy   TOTEN  =      -868.82223942 eV

  energy  without entropy=     -868.76724431  energy(sigma->0) =     -868.79474186
 


--------------------------------------------------------------------------------------------------------


    POTLOK:  cpu time    0.5393: real time    0.5394


--------------------------------------------------------------------------------------------------------


     LOOP+:  cpu time 2062.5759: real time 2062.9660
    4ORBIT:  cpu time    0.0000: real time    0.0000

 total amount of memory used by VASP MPI-rank0   200738. kBytes
=======================================================================

   base      :      30000. kBytes
   nonlr-proj:      23365. kBytes
   fftplans  :      33572. kBytes
   grid      :      19248. kBytes
   one-center:        171. kBytes
   wavefun   :      94382. kBytes
 
  
  
 General timing and accounting informations for this job:
 ========================================================
  
                  Total CPU time used (sec):     2093.287
                            User time (sec):     2084.571
                          System time (sec):        8.716
                         Elapsed time (sec):     2093.972
  
                   Maximum memory used (kb):      358028.
                   Average memory used (kb):           0.
  
                          Minor page faults:       447707
                          Major page faults:            0
                 Voluntary context switches:         2735
