135
Time=99999.99999996 pbc="T T T" Lattice="10.56489661 0.00000000 0.00000000 0.00000000 10.56489661 0.00000000 0.00000000 0.00000000 10.56489661" energy=-883.22971032 virial="430.87851196 53.28911875 17.70871581 53.28911875 354.24015865 -7.45803571 17.70871581 -7.45803571 409.43972927" stress="0.39005535 0.04519005 0.01501728 0.04519005 0.32506477 -0.00632454 0.01501728 -0.00632454 0.37187491" Properties=species:S:1:pos:R:3
Ca 5.77143117 1.99154048 5.35324960
Ca 1.13616284 1.67339036 1.98722016
Ca 3.93127034 0.86338330 1.50336784
Ca 5.78598210 8.00072317 4.68332621
Ca 5.58076355 6.80883190 2.11304473
Ca 8.30311014 5.52857826 2.08924146
Ca 10.19544251 9.47892931 5.67045464
Ca 4.09454022 10.38378247 4.60735502
Ca 0.85416527 2.29991789 8.93553958
Ca 0.35275455 4.31697255 3.82160608
Ca 2.23727117 9.16961466 6.98561103
Ca 2.82610123 5.28263684 1.75621843
Ca 5.97759179 6.01684134 9.26321143
Ca 7.24470537 0.73241903 10.31516094
Ca 9.58328213 4.53496867 6.77837214
Ca 3.01318741 7.23679945 9.57800225
Ca 9.62918227 10.53762719 8.63856166
Ca 8.95162538 2.85279192 0.89396628
Ca 8.28423219 3.89361779 4.08489789
Ca 1.71217771 4.97663677 8.48804402
Ca 2.66136885 4.31928968 5.48105364
Ca 0.62253758 7.16899493 2.55932552
Ca 6.60208809 9.96581373 2.34592680
Ca 1.13983054 9.84529018 3.53896895
Ca 4.74670134 1.48871364 9.58004519
Ca 8.50173816 1.81101865 6.32422164
Ca 7.98340842 7.63157120 7.80831018
Si 6.66002037 5.13153797 6.24440918
Si 4.84306777 9.20276709 7.97536615
Si 5.95700978 4.14514778 0.72495569
Si 2.87368540 1.44637506 6.79037645
Si 5.09819915 4.78278802 3.64886182
Si 6.92544552 10.51049075 7.66221059
Si 0.81167091 1.77432879 5.27987204
Si 9.14645626 1.35428810 3.22039069
Si 2.62153118 2.84541016 0.03731776
Si 2.14458253 10.09212630 10.01402303
Si 5.48828374 9.11947797 10.19921472
Si 8.32164790 8.02730333 0.29748636
Si 0.61091880 4.82902236 0.31088629
Si 6.14628330 2.34021237 2.41136411
Si 2.93263924 7.26823425 4.48917233
Si 0.28900884 7.75968378 8.68132598
Si 0.85695373 6.53246012 5.58579208
Si 7.45908025 3.32757534 8.38102373
Si 3.34911665 8.42464787 1.76002944
Si 4.14643308 6.44064964 6.92966652
Si 9.14176832 5.47627224 9.36826830
Si 8.71033790 7.03970347 4.80898977
Si 4.54777652 3.92865382 8.42028327
Si 3.28015240 2.19759724 3.87370228
Si 9.89881958 10.31547588 0.65145012
Si 7.77121667 9.96978705 4.97451857
Si 9.24895116 8.65050581 2.73162643
O 8.49644655 9.55538200 1.00843196
O 1.45528125 8.88019005 9.21253254
O 6.26924692 3.42714930 3.76952458
O 6.79357031 1.73710197 7.66748592
O 4.65373659 7.60266905 0.51960826
O 3.07415635 2.91707221 1.56331253
O 5.36588357 2.44772492 0.88287055
O 8.10585690 8.44741775 5.64567751
O 1.84472102 2.74519327 4.14830510
O 0.78303413 5.00233462 1.89897866
O 0.76085821 4.83127520 6.10210831
O 2.93358894 2.86567475 9.03649770
O 4.16459844 6.29064055 3.59438433
O 2.67925357 0.80643990 3.11842594
O 9.91493082 6.93545278 5.82966517
O 1.64671188 2.66851616 7.05690918
O 3.92814483 9.63972564 9.58997422
O 10.34575419 4.37307474 8.76054337
O 0.73661041 0.21417871 0.18070962
O 1.46589467 8.25938242 5.22357054
O 3.78981547 5.42057185 8.19326059
O 2.61981888 1.13042164 0.08635462
O 4.16231825 2.70057086 7.46968099
O 9.19010316 7.39178876 1.61814611
O 6.49923614 5.50773580 0.65639417
O 7.72914733 3.70991484 6.17080884
O 0.77601943 3.04777449 0.51839919
O 7.87540928 1.22173734 4.37090453
O 8.76505729 9.95493065 3.50718017
O 0.73479725 6.31581871 10.12959868
O 3.68383943 1.88293042 5.42235914
O 10.30336229 8.49622541 3.93668581
O 2.32601280 4.57332938 10.51681602
O 9.47397118 0.95677721 10.41087185
O 2.58301870 6.16742271 6.15669812
O 5.80603517 6.46733071 7.08410032
O 9.71473188 2.89509319 2.85116214
O 4.83212580 4.67647419 2.00769758
O 6.05273299 4.02406840 7.85840965
O 2.47820894 7.24887357 1.26364694
O 10.13585780 2.82591594 5.12585111
O 1.79874649 6.27457816 4.08807517
O 3.97902992 8.01373530 7.67743745
O 5.77107404 10.49964588 8.87234749
O 4.47699476 4.30988967 9.99843629
O 8.20135352 6.72857614 9.73109228
O 6.58755137 5.65306110 3.61390747
O 10.50519175 0.87498201 4.14615329
O 7.76651575 7.79267804 3.37081065
O 9.33474741 5.03914429 0.35014931
O 4.03101847 3.57070476 3.70177328
O 10.21816979 8.78775514 7.64749685
O 7.76153544 5.93897631 5.57099805
O 7.25229449 3.60678016 1.72796934
O 2.22812300 0.44104450 8.19036216
O 6.69681414 8.16780821 0.39046112
O 7.36113003 1.21586384 2.01620395
O 6.08652229 9.17953696 6.87758189
O 2.56515241 8.33583633 3.27583435
O 9.79159868 0.81909734 1.92967590
O 4.77424255 8.75445422 2.71552586
O 1.97840111 0.60187313 5.60504650
O 7.22053164 3.10349070 10.03341668
O 9.88077044 6.37086966 8.15853663
O 5.52171452 10.51386738 0.50684657
O 1.57081925 6.90377663 7.96773150
O 5.02709932 1.29207506 3.02322386
O 2.55782453 9.45176578 0.95652865
O 4.10199516 10.45606868 6.79100653
O 8.05335596 4.91636819 8.36622996
O 0.01347828 9.27061984 2.03659808
O 7.91147319 9.75795320 8.66107268
O 8.85351856 2.41886234 8.46932016
O 3.90393752 8.01987691 5.66699507
O 9.63654004 8.53867284 9.96841120
O 10.37526665 0.72629221 6.82627907
O 5.71091717 8.01378108 8.90164738
O 4.94225407 4.94098936 5.59313253
O 6.14275437 10.18068730 4.43067686
O 9.46508348 5.93794664 3.71731063
O 8.15642255 10.47038016 6.41088119
135
Time=199999.99999918 pbc="T T T" Lattice="10.56489661 0.00000000 0.00000000 0.00000000 10.56489661 0.00000000 0.00000000 0.00000000 10.56489661" energy=-886.13750649 virial="378.17558036 -11.54498929 35.12310697 -11.54498929 385.35037394 -11.73865027 35.12310697 -11.73865027 352.05798978" stress="0.34536240 -0.00979034 0.02978497 -0.00979034 0.35144675 -0.00995457 0.02978497 -0.00995457 0.32321426" Properties=species:S:1:pos:R:3
Ca 5.98967220 2.35988166 6.09195537
Ca 0.87401160 2.00433008 1.94788049
Ca 4.53394182 1.39782417 1.28518096
Ca 5.84053157 6.88432187 4.93001312
Ca 5.32189881 7.54217136 1.93782212
Ca 7.87217681 6.05451142 1.82164740
Ca 10.54272970 9.67311183 5.74114157
Ca 4.22099457 10.23504521 4.10141431
Ca 0.39506867 1.67230251 9.09610752
Ca 0.88988736 4.26761824 4.29616767
Ca 2.34822494 9.28656425 7.58261182
Ca 3.15045649 5.32641940 2.33041451
Ca 6.58117579 6.85936498 9.16126327
Ca 7.43412129 1.19705623 10.41272354
Ca 9.85766316 4.70325231 6.94873599
Ca 2.59964691 6.84164526 9.48411444
Ca 9.37662867 10.16653924 8.52950447
Ca 8.83214295 3.29313659 1.22455182
Ca 8.62616920 3.88135865 4.65814389
Ca 1.14845446 4.24154578 8.52910307
Ca 3.14042586 3.92839331 6.18106775
Ca 0.69234955 7.14447416 2.24492414
Ca 6.59355339 9.97272077 2.00362808
Ca 1.01016849 10.19586660 3.49069019
Ca 4.25764861 1.08254965 9.18658525
Ca 8.50069204 1.55080693 6.46527383
Ca 8.09227642 7.65838205 6.85918858
Si 6.60282737 4.84104625 6.56308213
Si 4.92275241 9.28349406 6.88463388
Si 5.97653802 4.04972299 0.20426437
Si 2.90060884 1.19284361 6.79522726
Si 5.91229719 4.59154135 3.30593512
Si 7.02680680 10.00525332 7.65438818
Si 0.73509199 1.79799410 5.67138752
Si 8.88412495 1.50349800 3.59178852
Si 2.76677675 2.96016678 0.16705785
Si 1.96839714 10.11461267 10.22012009
Si 5.04677483 9.20525265 10.06182513
Si 8.33036697 8.42844375 0.00252659
Si 0.90984397 4.96806634 0.67015486
Si 6.48776548 2.24839615 2.80709464
Si 3.21016751 7.37030674 4.67596422
Si 0.14590924 7.77800781 8.63775053
Si 1.50105232 6.56305122 6.00560989
Si 8.00503102 3.62075319 8.89844520
Si 3.21173607 8.71681966 1.38169530
Si 4.26761826 6.50938973 7.27106692
Si 9.39090383 5.80285519 9.93312899
Si 9.32718427 6.82648708 4.52917452
Si 4.36794062 3.90655860 8.68506806
Si 3.19062667 2.33523658 3.73899255
Si 9.71045719 10.34489913 1.04151643
Si 6.98878785 9.83554453 5.16938383
Si 8.92637796 8.80961298 3.27895513
O 8.25653027 9.96381847 0.46283153
O 1.42866940 8.71868993 9.33331492
O 5.13436598 3.11786005 3.37883050
O 6.46253116 3.04028580 9.12346877
O 4.40090064 7.75841738 10.24040202
O 3.08153912 3.13021076 1.70685446
O 5.11881723 4.81407046 1.53441456
O 8.12677987 7.92119434 4.37509671
O 1.58283064 1.87519072 4.25399060
O 1.01231433 5.04432133 2.15291121
O 1.34391459 4.99506812 6.40118299
O 2.62380348 2.99385533 9.13599311
O 4.32246446 6.40026422 3.72174323
O 3.08475995 0.98404494 2.92465565
O 10.37508721 6.82442904 5.88564593
O 1.70985021 2.45925279 6.83506854
O 3.50709956 9.88543275 9.88667579
O 9.61800635 4.24448425 9.23915674
O 9.37640630 1.51127151 0.36022109
O 1.70339217 8.48746681 5.79609843
O 3.46279451 5.19672394 8.04979970
O 2.40210853 1.07147345 0.28928417
O 4.26549209 2.10607006 7.55296230
O 9.74014780 5.45158057 0.85331215
O 4.39885756 3.04987558 10.23330517
O 7.85126697 3.63855726 6.48096019
O 0.65917362 3.39230664 0.12091942
O 7.48663381 2.14118809 4.34963721
O 8.12450846 10.29304614 3.93174682
O 0.66974097 6.31209158 10.17112762
O 3.66038330 1.69967177 5.45384153
O 10.38287710 8.31357324 4.05841949
O 2.52809238 4.88741401 0.03541754
O 9.93641857 0.48793180 2.47138778
O 3.41832790 6.21743716 6.07193684
O 5.85044279 6.46619707 7.11453061
O 9.97459076 2.90998903 3.36593550
O 4.94421175 5.16086922 9.86894007
O 5.47876395 4.05172225 7.46027820
O 2.58332456 7.22936796 1.33401733
O 10.08868306 3.02764012 5.69150197
O 1.77307082 6.34184537 4.40953000
O 3.99006276 8.04977922 7.86925589
O 5.91089888 0.28139426 5.56411969
O 6.30223158 2.67210295 1.11110099
O 8.16598568 6.88769855 0.04878669
O 6.36676615 6.07384357 3.13901087
O 10.04308562 0.92532664 4.70507293
O 7.98269333 8.25262494 2.04736029
O 7.59979984 4.41315758 10.53775487
O 2.98446653 3.84086839 3.97975665
O 10.24359182 8.69814433 7.31000867
O 8.19610773 5.84769600 5.59476711
O 7.37699071 3.99871983 2.72102483
O 2.09680850 0.55768071 8.27087572
O 6.45522739 8.17963386 0.10347757
O 7.76031004 1.27194914 2.15324020
O 6.33013938 8.56800110 6.41899685
O 3.14361768 8.38896126 3.21287073
O 0.38181742 10.56446789 10.47019108
O 4.44230294 9.74265421 1.58134474
O 1.76064975 0.22924400 5.83480695
O 8.94854187 2.43326547 8.50916720
O 9.36349160 6.62057261 8.44518198
O 5.78506349 0.15041190 10.48578585
O 1.58248007 7.07517296 7.69800650
O 5.54618358 1.00770687 3.00383092
O 1.74536212 9.44578019 1.23936129
O 3.92379957 10.49753906 6.96433681
O 7.55038750 5.05899171 8.00041423
O 10.07654995 9.02287185 1.93704972
O 7.69279732 8.96034378 8.78983655
O 7.12432989 0.84374560 8.27425289
O 4.21827816 8.30323718 5.53855299
O 9.81874090 8.46811078 9.99997972
O 10.46020315 1.21338115 7.04947726
O 5.47201610 9.64507543 8.34688576
O 5.76990323 4.47509650 4.97274564
O 6.32260564 8.89276696 3.83225384
O 9.57886761 5.77877694 3.46968848
O 8.24168685 9.91645113 6.36206494
135
Time=299999.99999840 pbc="T T T" Lattice="10.56489661 0.00000000 0.00000000 0.00000000 10.56489661 0.00000000 0.00000000 0.00000000 10.56489661" energy=-885.17266177 virial="402.24437127 15.16353710 4.52259488 15.16353710 361.43936375 -23.80914030 4.52259488 -23.80914030 416.72773324" stress="0.36577313 0.01285893 0.00383523 0.01285893 0.33116982 -0.02019054 0.00383523 -0.02019054 0.37805526" Properties=species:S:1:pos:R:3
Ca 5.96079198 1.78705110 5.70537567
Ca 0.62230317 2.94539182 1.93997079
Ca 3.98938454 1.38988951 1.46635292
Ca 5.85094271 7.10600700 5.09219358
Ca 6.13441033 6.76375835 1.38363484
Ca 8.09302571 7.69932386 2.83285015
Ca 9.92344114 8.83567893 5.32985192
Ca 4.24644407 9.80764542 3.91900367
Ca 1.39337764 1.88647431 8.29634000
Ca 0.65119817 4.23272192 4.41190301
Ca 1.67690255 9.36087694 7.13888736
Ca 3.22998505 4.87765089 1.95913829
Ca 5.53891090 7.15971286 8.94670293
Ca 7.29944736 1.73754210 10.08290781
Ca 9.07457111 4.42504968 7.16787976
Ca 2.59826513 7.14327992 9.85357757
Ca 9.80112905 9.95878003 8.51686005
Ca 8.66358380 4.35719038 2.22516011
Ca 8.32563487 3.67855246 4.72333565
Ca 1.29761135 4.64771107 8.06211919
Ca 3.77940001 4.06187720 5.50138827
Ca 10.30959969 8.48393195 0.94988196
Ca 6.56980517 10.09551900 1.48948520
Ca 1.09809393 10.08427294 3.34633688
Ca 4.53080385 1.35538881 8.54933384
Ca 8.93536694 1.71613267 7.09402463
Ca 8.19482501 7.54114310 7.68764354
Si 6.24434606 4.66268761 6.76718510
Si 4.61095667 9.13610473 7.06384682
Si 5.53621270 3.95364226 0.29966089
Si 2.92806217 0.95856582 6.35407433
Si 5.77448800 4.83375600 3.30431238
Si 6.96301122 9.99678159 7.25422671
Si 0.56299355 1.65554486 5.53104972
Si 9.17640508 1.29655782 3.53417922
Si 2.52353850 3.41174189 10.35544819
Si 1.90163310 10.05591965 10.43491369
Si 4.68189278 9.87539784 10.13049538
Si 7.92759121 8.66147519 10.15305330
Si 0.50129746 5.30222342 0.52545266
Si 6.57023126 2.22029522 2.91258422
Si 3.25262039 7.14318823 4.46778337
Si 10.50045263 7.31641370 8.76688684
Si 1.17779930 6.67715355 5.91660920
Si 9.82390435 3.09108884 9.70854180
Si 3.33286232 8.33289852 1.71334869
Si 3.58633461 6.51269812 7.23032795
Si 8.04791855 5.13279634 9.69321100
Si 0.24789183 6.78433509 2.91383946
Si 4.40460438 4.28548883 8.84590876
Si 2.84669905 2.32773376 3.88909033
Si 9.71828977 0.92917184 0.80414362
Si 6.89774181 10.05427539 4.01555377
Si 8.59012076 6.47676899 5.00294814
O 8.83560035 10.27842655 0.35686245
O 1.06645256 9.23241633 9.18187137
O 4.86319343 2.93926290 3.30180393
O 5.62343683 3.10855053 9.38733169
O 6.03090970 8.71213330 10.50125476
O 2.76891330 2.82881624 1.41532669
O 5.20715070 4.77030712 1.82256922
O 7.85903433 7.95827277 4.87527032
O 1.29643292 2.05942765 3.98579550
O 9.56855828 6.54348726 1.68763354
O 0.72028250 5.12532080 6.08930872
O 2.90153028 3.49688805 8.70962676
O 4.21692622 6.10352032 3.72234205
O 3.11778479 0.68718084 3.29231335
O 9.95433599 6.71690324 5.63862102
O 1.91984215 2.68335033 6.31026129
O 3.48965484 8.83887815 9.77644852
O 0.92763454 3.21636452 10.20932522
O 9.37815431 2.55485712 0.83703585
O 1.63221756 8.10763527 5.34584101
O 3.48877091 5.85087133 8.58260328
O 3.06989838 0.63880574 10.06493612
O 4.76096470 3.89591846 7.35253534
O 9.69940161 4.70348917 0.15882848
O 5.36150520 5.34303903 9.85959062
O 7.28350505 3.41188916 6.58493461
O 0.69211595 4.98997486 2.23184157
O 7.75862815 1.74396178 4.57832168
O 8.39651397 9.86423665 3.74937388
O 0.67836738 6.79774087 10.08386510
O 3.81433638 2.01861554 5.07321251
O 1.64639547 7.07822906 1.77658592
O 1.91119474 4.98306982 10.55244526
O 10.24160284 0.83142285 2.33019076
O 2.96105213 5.99514601 5.83905047
O 5.12687055 6.11985559 6.83232004
O 9.81466935 2.87707972 3.50751150
O 7.30109635 4.19430448 0.40920713
O 7.05019744 5.54875627 8.06416662
O 4.06039355 7.24472554 0.98317592
O 10.14498737 2.98956081 5.77583927
O 1.48404640 6.19550916 4.16046357
O 3.68062010 7.99496920 7.72692495
O 6.78453934 10.10491636 5.62855231
O 5.86813363 2.42553530 1.30088682
O 7.62228056 6.83529034 10.04378597
O 5.74226270 4.29726589 4.76708674
O 9.93182666 0.59173900 4.66692601
O 7.03722265 5.98947763 3.27657683
O 8.35800111 3.42316335 9.07407360
O 2.60571275 3.98416914 3.81822004
O 10.12247920 8.14527878 7.50321139
O 7.61298688 5.67469509 5.83354139
O 7.00544300 3.80267249 3.24439120
O 4.48060842 0.14071071 6.28643281
O 8.04680212 8.50266824 1.11749229
O 7.88916825 1.35553478 2.30517506
O 6.33894413 8.47535433 7.16788033
O 2.92075042 8.28573483 3.42064790
O 0.81675947 0.65664325 0.47274218
O 4.31197937 9.62360760 1.49773289
O 1.92881948 10.55417831 5.50594274
O 9.53217567 1.33222383 9.34128512
O 9.51772601 6.01843723 8.65959007
O 5.62863581 0.60454497 10.52961425
O 1.44983229 7.04629090 7.76022844
O 5.83610054 0.69239415 3.52328598
O 2.00652529 9.53311195 1.34567997
O 2.65245029 0.45205292 7.85508053
O 10.36064124 3.15745011 8.18603106
O 10.49834752 8.29955478 3.41742733
O 7.53111501 9.69133660 8.98258112
O 6.74402249 0.98242946 7.75741722
O 4.23892061 8.29170643 5.42551804
O 9.39786028 8.21231066 9.71831896
O 0.29516851 0.52648296 6.72055233
O 5.00603583 9.88614099 8.46250107
O 3.85145070 4.32054445 0.08522463
O 5.97232751 8.83456086 3.20958734
O 9.26783611 5.58686644 3.88453093
O 8.49781946 9.38817016 6.81364620
135
Time=400000.00000008 pbc="T T T" Lattice="10.56489661 0.00000000 0.00000000 0.00000000 10.56489661 0.00000000 0.00000000 0.00000000 10.56489661" energy=-882.28954328 virial="379.84081477 -1.89346444 10.50490346 -1.89346444 417.73851352 -15.62413210 10.50490346 -15.62413210 405.23589684" stress="0.34677455 -0.00160569 0.00890833 -0.00160569 0.37891242 -0.01324952 0.00890833 -0.01324952 0.36830999" Properties=species:S:1:pos:R:3
Ca 5.47886621 2.14837056 6.24285306
Ca 10.04867372 3.12560807 2.07507429
Ca 4.67287464 1.40910059 0.76751877
Ca 6.84847199 6.37151132 5.27209267
Ca 5.88298180 7.66051265 3.10872133
Ca 8.79557749 8.08215969 2.65606717
Ca 10.40261540 8.81374805 5.15539530
Ca 5.39811012 0.65847443 3.65567197
Ca 1.20830050 2.70742446 7.64199793
Ca 0.80482288 4.20278816 4.55936422
Ca 2.22067907 9.22696171 7.44303240
Ca 2.93441304 5.37536569 2.17778588
Ca 5.64924744 6.05739588 9.75087967
Ca 7.19719311 2.58842719 9.36209373
Ca 9.40473896 4.23790008 7.20027002
Ca 3.22211929 7.73877585 0.28476561
Ca 10.24330813 10.43778163 8.57489140
Ca 7.49767711 5.31573718 1.63114448
Ca 8.28221078 3.16580832 4.29238348
Ca 1.99237609 5.30713024 9.49764685
Ca 3.19201354 4.13994228 6.00160244
Ca 0.34072175 8.98879508 1.00801216
Ca 6.57564114 9.76938719 1.19377823
Ca 0.92886282 0.80512523 2.06847998
Ca 4.13572746 0.55333485 8.05635593
Ca 8.74221923 1.17945208 6.91665183
Ca 8.20130760 7.60915740 7.39472450
Si 6.46617460 4.76200015 6.84095749
Si 5.00967638 9.35559252 6.02333604
Si 4.79249282 4.49061384 0.86843395
Si 2.54958502 9.99398238 4.61334579
Si 5.25431250 4.59153835 3.91326133
Si 6.89758127 10.09416562 8.62570232
Si 0.48593965 1.44635329 5.12955078
Si 8.76442655 0.29706626 3.40674714
Si 2.08537973 3.12007275 0.64580138
Si 2.13372359 0.16672486 10.06245601
Si 4.93892749 8.76808436 9.19614406
Si 8.22340938 7.77265607 10.34250012
Si 0.13334649 5.78145582 1.10432667
Si 7.14269852 2.32450059 1.95691770
Si 3.42901549 7.43782966 4.89164564
Si 0.39019499 7.76486822 8.43092871
Si 0.98439718 6.10710625 6.82559226
Si 9.95733926 3.01547368 9.94519353
Si 3.41193164 9.42531927 2.28507790
Si 3.85574897 6.51413022 7.27645853
Si 9.62319071 5.55338996 9.27431572
Si 1.57474966 7.54542055 3.20536966
Si 4.36457227 3.43789973 8.56711419
Si 2.99831820 2.18517670 3.66018621
Si 8.93153965 0.42154204 0.36878797
Si 7.42754970 9.62667031 5.28543485
Si 9.62074060 5.93289274 4.10302034
O 8.23071316 0.43612458 9.26232678
O 1.30784104 8.72348404 9.53204777
O 6.66117118 1.25333563 0.72468147
O 4.93984130 2.26241890 9.53649532
O 6.99727899 8.48424671 9.14636175
O 1.85962519 2.31929707 5.07094299
O 4.70807070 6.42992877 4.33285093
O 8.19296651 8.02628655 5.03476612
O 9.78468519 2.72300273 5.86564654
O 9.42118457 6.94815621 1.07749667
O 1.16755631 4.62486361 6.75396380
O 2.54841709 3.38341395 9.63141066
O 1.67864554 9.07496675 2.92656345
O 2.96123015 0.71081322 3.24412046
O 10.06999678 6.26956995 7.84824639
O 3.56106381 0.03666751 5.84179399
O 3.42634660 9.66892249 9.36924870
O 0.53404435 2.64487362 0.29330435
O 9.90134464 1.95547607 8.55872473
O 2.00603255 8.54442132 5.31350412
O 3.50713241 4.80812175 7.88696673
O 2.57189734 1.38568616 0.57356901
O 3.59048918 2.72478670 7.50819610
O 9.81113119 4.69559529 0.38850167
O 3.81898443 3.19786473 1.20589061
O 7.17235910 3.40084368 6.72194688
O 0.01448040 7.22715585 3.25442787
O 7.49426186 1.40092958 3.36694620
O 8.53212129 0.09201411 5.01202007
O 1.53926748 7.01661991 1.33602920
O 4.12025154 2.35060781 4.64422327
O 3.64820739 7.81963309 2.36906342
O 1.48653841 4.82025199 0.81709743
O 7.46744311 9.75178879 3.02852925
O 2.84545996 6.16734212 6.06257910
O 5.23505462 4.59989185 5.61644811
O 7.99724886 3.63428605 2.31169194
O 8.46477519 4.22995368 9.09246160
O 3.87706700 5.30181250 10.56027795
O 5.17916600 8.28343896 0.31913465
O 10.31830899 1.72497061 3.69373079
O 2.29531539 6.49621705 3.95208218
O 4.10428057 7.34097953 8.66474348
O 6.07440799 0.05083977 5.58778326
O 6.25595260 4.33202398 0.41316024
O 7.31541930 7.44634147 1.23829261
O 6.81156332 4.60619970 3.84434995
O 8.78788974 0.78476182 1.91583817
O 5.66960420 2.70059442 2.71578575
O 7.80498310 5.60293881 6.75869320
O 3.49892744 4.39930099 3.79286837
O 0.01248746 8.71745547 7.23234580
O 9.46856853 4.69186805 5.01477548
O 5.27653200 5.36346570 2.26258837
O 4.00941266 8.84935587 4.20310436
O 8.73310989 9.33489168 0.64173037
O 8.73614962 2.15889831 0.17830690
O 5.80237073 6.61848949 7.03293787
O 9.91880938 9.73227658 2.98587446
O 0.07134920 0.29986048 0.15995231
O 4.77767400 10.40983275 1.97730570
O 1.14618619 0.11966428 4.26277535
O 0.25858070 4.34852427 8.93862480
O 0.27198373 6.71926056 9.90795023
O 5.55107347 10.12690529 9.74757661
O 1.73544810 6.80892697 7.96222015
O 6.09562225 8.44720016 5.15347048
O 2.37228538 9.78136342 0.83817496
O 2.08155447 0.64009907 8.63776283
O 8.04916922 6.28452898 9.52268686
O 0.14770232 6.29161722 5.45308036
O 5.81426645 4.29333139 8.35841912
O 6.33005387 0.91816261 7.58215364
O 3.91322826 8.16706628 6.52917809
O 9.30878433 8.25956134 9.18158964
O 0.36331648 0.45164611 6.35422203
O 5.59817945 9.35206677 7.57157437
O 2.09818332 3.06543236 2.61149546
O 8.29527511 6.40098085 3.59616617
O 10.36848196 4.97450437 2.73519626
O 7.75393871 9.79346825 7.08644529
135
Time=500000.00000301 pbc="T T T" Lattice="10.56489661 0.00000000 0.00000000 0.00000000 10.56489661 0.00000000 0.00000000 0.00000000 10.56489661" energy=-885.86383229 virial="370.22789753 -3.15571143 -13.37333185 -3.15571143 389.28538937 27.29419895 -13.37333185 27.29419895 423.67693894" stress="0.33862264 -0.00267610 -0.01134080 -0.00267610 0.35478370 0.02314593 -0.01134080 0.02314593 0.38394830" Properties=species:S:1:pos:R:3
Ca 5.62595243 1.87240857 5.88066585
Ca 9.33716258 3.18227154 1.68108373
Ca 4.63424513 1.13384742 0.52230306
Ca 5.97696035 6.67646028 5.18113087
Ca 5.34630060 7.04422082 2.34320872
Ca 8.69503844 8.42989874 3.01541347
Ca 0.31084511 9.28233252 4.86843549
Ca 4.67822658 9.82733055 4.03472717
Ca 1.62265450 2.47609307 7.62162854
Ca 1.29743257 3.59820974 3.13619897
Ca 2.04746790 8.92028707 7.19621844
Ca 3.35416760 5.01106954 2.00817269
Ca 5.94805140 6.15861541 9.80663767
Ca 7.40966816 2.81960323 9.15547526
Ca 9.32118638 4.37843868 7.11662696
Ca 2.82465335 7.64723650 10.26528959
Ca 10.02895529 10.36447071 7.63066308
Ca 7.92015718 5.78044585 1.95903366
Ca 8.37615394 4.39589369 4.55971454
Ca 1.38891982 4.90797957 9.65813815
Ca 2.79558929 3.95337286 5.74853073
Ca 10.53645455 9.94989325 0.56288046
Ca 6.22896130 9.55490520 2.18123007
Ca 1.79360591 0.24675352 2.72567601
Ca 4.38326670 1.21393167 8.16435862
Ca 8.32413401 1.42439817 6.17086690
Ca 8.09584175 7.48112519 7.59459681
Si 6.31312559 4.46323088 7.40432910
Si 4.81320397 9.03020813 6.75708669
Si 6.25756163 3.78884468 0.97767058
Si 2.82508196 0.82547085 5.46382024
Si 5.28197763 4.17747176 4.28652691
Si 6.84739625 10.20173938 8.08227171
Si 0.20645750 1.85518717 4.83675567
Si 8.94286137 0.67708030 3.56322215
Si 1.72912277 2.21807018 0.63719080
Si 2.13095855 10.49757364 9.49039747
Si 5.19768680 9.08060858 9.72950588
Si 8.27231936 8.44551225 10.47438865
Si 0.24600214 6.65566868 1.13454635
Si 6.83898282 2.29778617 3.01450247
Si 3.02469057 7.30276358 5.02258805
Si 0.26795115 7.63596368 8.75714252
Si 1.22265491 6.20335460 6.34421140
Si 10.24759563 2.30999090 9.34265977
Si 2.84846260 8.33007970 2.13069276
Si 3.72294435 6.11560024 7.90099196
Si 9.01273966 5.24399891 9.83018738
Si 0.31500003 6.03434998 3.52697932
Si 4.17794005 3.78134758 9.13278195
Si 4.14558683 2.39190244 2.98185166
Si 7.71384620 0.77553561 0.22670402
Si 7.33484142 9.44332423 5.55797756
Si 8.99951994 6.95084491 5.33013444
O 7.66271872 0.34830349 9.32363547
O 1.36550320 9.04304359 9.35721748
O 5.58716114 1.13550781 2.48571975
O 5.56120764 3.94140308 9.91223683
O 6.98706437 8.80569925 9.08149129
O 1.53062718 2.59909651 4.82118357
O 4.03753352 6.29960639 4.11498542
O 8.77461552 8.72525244 5.21881453
O 9.86161265 3.12042418 5.62663451
O 9.58414488 7.87558798 1.09568266
O 0.95520609 4.45605212 6.86247254
O 3.01646961 4.40597789 7.91748760
O 2.40261624 7.84455164 3.64082192
O 2.65665939 2.15779212 2.23204489
O 10.12353874 5.92016054 8.77475625
O 3.92461878 10.49712098 6.54481910
O 3.53928191 9.56276548 9.91098640
O 1.11076645 2.84943908 9.79797031
O 9.58647803 2.02154108 7.78141755
O 1.17168863 0.69386694 6.23430464
O 3.86583396 5.39075284 9.54325886
O 3.54104302 2.56154445 9.72320097
O 3.48406241 2.10547798 6.32851091
O 1.77845509 3.98326215 1.02190633
O 4.69826930 3.29489665 1.66967391
O 7.57643163 3.27220885 6.69543377
O 10.27637895 7.30091200 4.08584485
O 7.81439607 2.02450585 4.34234440
O 7.52268321 10.32295063 3.79758328
O 1.28802311 8.62869844 1.68435896
O 4.10445363 1.39924704 4.22980965
O 3.31044910 6.89791513 1.48089407
O 5.72665358 5.30317799 1.31059986
O 6.39577605 8.35833519 4.31791612
O 1.45570063 7.63341532 5.58821257
O 5.41275593 4.35564091 5.88780862
O 7.41217784 3.52480518 2.42486611
O 7.67043352 4.63548698 8.34978148
O 7.92333822 4.35022077 0.27869562
O 5.05974493 7.71471518 10.53025769
O 10.07519992 1.99684379 3.49067540
O 1.60160787 5.55426755 4.33552566
O 3.83174322 7.92004848 8.03206278
O 6.16642112 10.40231833 5.60420668
O 9.88309007 5.40451313 0.78887348
O 7.16758074 7.67779911 1.48446314
O 5.80513244 2.81497190 4.11185894
O 7.95981322 1.31740171 2.02576114
O 6.59495986 2.14911761 0.44819505
O 7.85679238 6.00649283 6.11928213
O 3.91080871 4.10511178 3.73973534
O 10.38585319 8.28455278 7.05927011
O 9.83676808 4.82094871 3.12985889
O 6.34175747 5.09810073 3.71298085
O 4.08318719 8.45162351 5.45715001
O 8.36711329 9.79460410 0.78665900
O 9.00476192 1.90634131 10.51477080
O 5.46739516 5.71400327 7.87265330
O 9.96487624 10.16332848 2.89905926
O 0.42835891 0.74707664 9.23205526
O 3.70755001 9.75556147 1.98643892
O 2.44296691 10.04127756 4.58094200
O 9.87835872 3.81529691 9.60815950
O 0.89133200 6.78236698 10.33538057
O 5.94529543 10.30724830 0.01850508
O 1.69391529 6.86747828 8.15642240
O 6.43928129 8.16934127 6.75046490
O 2.69891433 0.86984775 10.56354318
O 2.47383854 0.52036117 8.03968609
O 7.95431714 6.78265821 10.09319628
O 10.22730905 6.21255902 6.35075321
O 5.50966689 3.08661664 8.09601846
O 6.47628228 1.03342397 7.54922924
O 3.18555328 6.24801552 6.32841201
O 9.42831293 8.56087525 9.25214846
O 9.77988874 0.39388267 5.15470887
O 5.26021513 9.76552398 8.19439684
O 0.53606692 1.44213098 1.42397328
O 8.33685957 6.28677591 3.93514486
O 1.23582131 6.22687279 2.25651973
O 8.14718111 9.98691127 6.95189043
135
Time=600000.00000594 pbc="T T T" Lattice="10.56489661 0.00000000 0.00000000 0.00000000 10.56489661 0.00000000 0.00000000 0.00000000 10.56489661" energy=-888.80480874 virial="391.33085044 -13.17823358 -2.67552924 -13.17823358 380.67881743 13.68347021 -2.67552924 13.68347021 394.55380626" stress="0.35651829 -0.01117536 -0.00226889 -0.01117536 0.34748519 0.01160381 -0.00226889 0.01160381 0.35925141" Properties=species:S:1:pos:R:3
Ca 6.05928405 1.61360783 5.49371725
Ca 10.01075857 3.41313904 1.82503430
Ca 4.26498348 0.92549685 1.09776127
Ca 6.23274571 6.89155603 4.69503100
Ca 5.17120714 7.51505968 1.74567776
Ca 8.35235285 8.13173161 2.84623006
Ca 0.42317402 9.11391723 4.58701648
Ca 4.64414770 10.07158207 3.92270640
Ca 1.25146685 2.76767121 7.41820503
Ca 0.95155856 3.89226078 3.96691901
Ca 2.21379575 9.38448990 7.29367395
Ca 2.85953953 5.12779933 1.95203534
Ca 5.76823806 6.64361606 9.66898717
Ca 7.08354558 2.81029168 9.73953792
Ca 9.46805307 4.50586004 6.49774012
Ca 2.91692296 7.08877833 9.67379655
Ca 9.97329248 10.03602232 8.25652241
Ca 7.94933192 5.70241203 1.94015646
Ca 7.87138689 4.07292635 4.33783855
Ca 0.81137896 4.38965126 9.07091058
Ca 3.57147556 3.87295280 6.03784825
Ca 10.53674013 9.02033489 1.00601399
Ca 6.42620801 9.90825085 1.65019728
Ca 1.36989805 0.66304737 2.67370544
Ca 4.40948686 1.79507319 8.58247268
Ca 8.57577930 1.83863053 7.17316436
Ca 7.90213853 7.62504747 7.58562051
Si 6.53370592 4.35062222 6.94307662
Si 4.95527826 9.03544887 6.40021186
Si 5.74114504 4.22424747 0.81185692
Si 2.89444218 1.09357362 5.63723420
Si 4.99207073 4.64463271 3.73638722
Si 6.95628319 10.50406664 8.48517185
Si 0.21467727 1.38336609 5.10653562
Si 8.72285515 0.65073481 3.53787843
Si 2.43171589 2.89033260 0.78432605
Si 1.77240243 0.02113123 9.96551664
Si 4.81131860 9.58354065 9.47137596
Si 7.95466100 8.08724372 10.36548734
Si 0.08612857 6.14737303 0.59884448
Si 6.65794354 2.30235773 2.48957645
Si 3.12052152 7.16101159 4.65689632
Si 0.07138081 7.17205335 8.41424594
Si 1.14315585 6.13619940 6.16090659
Si 10.30301016 1.73682304 9.58047744
Si 2.57368774 8.54745874 1.90910423
Si 4.65527387 6.60926233 6.95422428
Si 8.52060656 5.10925351 9.35363689
Si 0.34273526 6.52595969 2.96715784
Si 3.79776083 4.28095598 9.26780917
Si 4.01815895 2.31655915 3.48826443
Si 8.74547956 0.47189785 0.44722122
Si 7.91583082 9.79379799 5.37672069
Si 8.78029495 6.71854088 4.96710601
O 8.15554214 0.37080660 9.37167655
O 1.25572169 9.17103532 9.45065350
O 5.81558668 0.96404017 2.74224146
O 4.81572179 5.46990946 0.47851009
O 6.95734823 8.80392924 9.46544407
O 0.29776353 0.63897077 6.62779413
O 3.99109707 6.21965551 3.43533537
O 8.20415433 8.20480313 5.53105083
O 10.19062121 1.74151145 3.43948561
O 9.61308205 7.06158809 1.33175407
O 1.13583630 4.60327557 6.27318114
O 2.87181788 3.78860155 8.15326152
O 2.51009611 8.45416882 3.71658474
O 3.33296856 1.01352806 3.06635083
O 0.92087190 6.77991781 9.95401507
O 3.88123668 10.02851298 5.83387711
O 2.00503449 9.48710618 0.86212854
O 0.81411314 2.82190512 10.50965543
O 9.87027719 2.55887980 5.58481089
O 3.23674099 10.35408342 9.46044401
O 3.98479517 5.76545561 8.44218883
O 5.40128884 3.87021047 9.52220704
O 2.75690093 1.29724896 7.23373089
O 2.61181252 4.68304410 10.50559748
O 3.90419123 3.10312624 1.99955562
O 7.53418499 3.41218372 6.06841256
O 10.03224357 7.34966357 4.00834929
O 7.77353488 2.00449926 3.84236620
O 7.66082953 10.07976586 3.85062297
O 0.93803696 7.83010571 2.27773731
O 4.10616991 1.85740442 5.10060919
O 3.04681918 7.16651158 1.28698173
O 5.74444776 4.84984902 2.30971544
O 6.18125657 8.37779951 3.33786324
O 10.20668994 8.19772988 7.38108873
O 5.35087877 4.88018124 5.39061339
O 7.88445473 3.71253519 2.17343200
O 7.94150659 4.29884161 8.00720788
O 7.21366290 4.85870526 0.03562610
O 4.51386970 8.22466517 10.25891806