 running on   48 total cores
 distrk:  each k-point on   48 cores,    1 groups
 distr:  one band on   12 cores,    4 groups
 using from now: INCAR     
 vasp.5.4.4.18Apr17-6-g9f103f2a35 (build Mar 16 2023 09:39:13) complex          
  
 POSCAR found type information on POSCAR  Ca Si O 
 POSCAR found :  3 types and     135 ions
 scaLAPACK is switched off
 LDA part: xc-table for Pade appr. of Perdew
 generate k-points for:    2    2    2
 POSCAR, INCAR and KPOINTS ok, starting setup
 FFT: planning ...
 WAVECAR not read
 entering main loop
       N       E                     dE             d eps       ncg     rms          rms(c)
DAV:   1     0.988027770927E+04    0.98803E+04   -0.48846E+05  8320   0.188E+03
DAV:   2     0.898678413167E+02   -0.97904E+04   -0.94560E+04  9608   0.514E+02
DAV:   3    -0.990188361443E+03   -0.10801E+04   -0.10722E+04 10256   0.172E+02
DAV:   4    -0.104089743186E+04   -0.50709E+02   -0.50523E+02 11544   0.334E+01
DAV:   5    -0.104522789021E+04   -0.43305E+01   -0.43281E+01 14192   0.753E+00    0.808E+01
DAV:   6    -0.915775857972E+03    0.12945E+03   -0.56934E+02  9920   0.380E+01    0.336E+01
DAV:   7    -0.918367713035E+03   -0.25919E+01   -0.65203E+01 11144   0.129E+01    0.164E+01
DAV:   8    -0.917489704825E+03    0.87801E+00   -0.98829E+00 11040   0.571E+00    0.695E+00
DAV:   9    -0.917211232468E+03    0.27847E+00   -0.19816E+00 10480   0.312E+00    0.204E+00
DAV:  10    -0.917274042160E+03   -0.62810E-01   -0.88199E-01 11232   0.167E+00    0.139E+00
DAV:  11    -0.917275310604E+03   -0.12684E-02   -0.13322E-01 11320   0.690E-01    0.702E-01
DAV:  12    -0.917277057048E+03   -0.17464E-02   -0.30887E-02 10744   0.318E-01    0.213E-01
DAV:  13    -0.917277760060E+03   -0.70301E-03   -0.57644E-03 12328   0.171E-01    0.112E-01
DAV:  14    -0.917277827554E+03   -0.67494E-04   -0.22215E-03 11176   0.845E-02    0.834E-02
DAV:  15    -0.917277812473E+03    0.15081E-04   -0.34078E-04 10960   0.318E-02    0.495E-02
DAV:  16    -0.917277792133E+03    0.20340E-04   -0.11874E-04 10272   0.285E-02    0.115E-02
DAV:  17    -0.917277792913E+03   -0.77965E-06   -0.61515E-05 11912   0.146E-02    0.895E-03
DAV:  18    -0.917277792730E+03    0.18222E-06   -0.11607E-05  9856   0.538E-03    0.654E-03
DAV:  19    -0.917277791758E+03    0.97233E-06   -0.18003E-06  6112   0.334E-03
   1 F= -.91727779E+03 E0= -.91727779E+03  d E =-.196726E-16
