<?xml version="1.0" encoding="ISO-8859-1"?>
<modeling>
 <generator>
  <i name="program" type="string">vasp </i>
  <i name="version" type="string">5.4.4.18Apr17-6-g9f103f2a35  </i>
  <i name="subversion" type="string">(build Mar 16 2023 09:39:13) complex            parallel </i>
  <i name="platform" type="string">LinuxIFC </i>
  <i name="date" type="string">2024 04 30 </i>
  <i name="time" type="string">01:28:01 </i>
 </generator>
 <incar>
  <i type="int" name="ISTART">     0</i>
  <i type="string" name="PREC">a</i>
  <i type="logical" name="ADDGRID"> T  </i>
  <i type="int" name="IBRION">    -1</i>
  <i name="EDIFF">      0.00000100</i>
  <i name="EDIFFG">     -0.01000000</i>
  <i type="int" name="NSW">     1</i>
  <i type="int" name="ISIF">     2</i>
  <i type="int" name="ISYM">     0</i>
  <i name="ENCUT">    600.00000000</i>
  <i name="POTIM">      1.00000000</i>
  <i type="string" name="LREAL">  A</i>
  <i type="int" name="ISMEAR">     0</i>
  <i name="SIGMA">      0.05000000</i>
  <i name="KSPACING">      0.30000000</i>
  <i type="logical" name="KGAMMA"> T  </i>
  <i type="logical" name="LWAVE"> F  </i>
  <i type="logical" name="LCHARG"> F  </i>
  <i type="logical" name="LSCALAPACK"> F  </i>
  <v type="int" name="KPOINT_BSE">    -1     0     0     0</v>
 </incar>
 <structure name="primitive_cell" >
  <crystal>
   <varray name="basis" >
    <v>      12.93041299       0.00000000       0.00000000 </v>
    <v>       0.00000000      12.93041299       0.00000000 </v>
    <v>       0.00000000       0.00000000      12.93041299 </v>
   </varray>
   <i name="volume">   2161.90790069 </i>
   <varray name="rec_basis" >
    <v>       0.07733705       0.00000000       0.00000000 </v>
    <v>       0.00000000       0.07733705       0.00000000 </v>
    <v>       0.00000000       0.00000000       0.07733705 </v>
   </varray>
  </crystal>
  <varray name="positions" >
   <v>      -0.31051416       0.33156551      -0.19258091 </v>
   <v>      -0.19684308       0.47703054      -0.11608419 </v>
   <v>      -0.31497919      -0.47650284      -0.26519491 </v>
   <v>      -0.34226915       0.41557565      -0.38135455 </v>
   <v>      -0.40354758       0.35002668      -0.00483707 </v>
   <v>      -0.18287779       0.24911472      -0.34159643 </v>
   <v>      -0.48929777       0.18469347      -0.26043889 </v>
   <v>      -0.06650581       0.37349032      -0.23287656 </v>
   <v>      -0.43198087       0.14405660      -0.07425223 </v>
   <v>      -0.40316873       0.23365553       0.02560032 </v>
   <v>      -0.32866014       0.07104278      -0.26086240 </v>
   <v>      -0.44602415       0.08803096      -0.18711123 </v>
   <v>      -0.28042312      -0.45543864      -0.38094667 </v>
   <v>      -0.15997581      -0.45820490      -0.32090525 </v>
   <v>      -0.17054412       0.41006041       0.05648769 </v>
   <v>      -0.32269862       0.37492786      -0.48986904 </v>
   <v>      -0.29962231       0.19905469       0.08082606 </v>
   <v>      -0.06935905      -0.48959753      -0.24438033 </v>
   <v>      -0.41085533       0.12094850      -0.41456086 </v>
   <v>      -0.14794459       0.27245176      -0.47245041 </v>
   <v>       0.01454826       0.35440352      -0.12914691 </v>
   <v>      -0.16090427      -0.39395177      -0.08042119 </v>
   <v>      -0.40889153       0.29487085       0.48900505 </v>
   <v>      -0.03671941       0.33018278       0.00547397 </v>
   <v>      -0.42695067      -0.35654098      -0.13431293 </v>
   <v>       0.02213968       0.22348018      -0.16115016 </v>
   <v>      -0.21757116       0.34824703       0.46758227 </v>
   <v>      -0.10205883       0.05576508      -0.10161749 </v>
   <v>      -0.22906827      -0.31039005      -0.17580664 </v>
   <v>       0.39508979       0.27022432       0.02142771 </v>
   <v>       0.47743103       0.42781824       0.09659903 </v>
   <v>       0.33071766       0.24083154      -0.12796731 </v>
   <v>      -0.16309069       0.10392264       0.07258031 </v>
   <v>      -0.24547356      -0.03608501      -0.26040585 </v>
   <v>      -0.32741754      -0.48624846       0.46973348 </v>
   <v>      -0.02688488      -0.40871363      -0.13642425 </v>
   <v>       0.34137253      -0.49370767      -0.11355158 </v>
   <v>       0.43535259      -0.35910096      -0.20843159 </v>
   <v>      -0.23807809      -0.06209072      -0.14256938 </v>
   <v>       0.49006573      -0.43092678       0.06601017 </v>
   <v>      -0.49702365      -0.02685605      -0.16447529 </v>
   <v>      -0.49911968       0.20652716       0.15228873 </v>
   <v>      -0.17670049       0.15888541       0.45665406 </v>
   <v>      -0.02864385       0.29907004      -0.49685730 </v>
   <v>      -0.18510547      -0.34094085       0.03204884 </v>
   <v>       0.02832734      -0.44897865      -0.32007335 </v>
   <v>      -0.26114909      -0.33423641      -0.45720578 </v>
   <v>      -0.22812945       0.13309936       0.17920201 </v>
   <v>      -0.12995442      -0.04802126      -0.31461214 </v>
   <v>       0.11936545       0.40277707      -0.12670896 </v>
   <v>      -0.26804870      -0.44191255       0.20206370 </v>
   <v>       0.39578377       0.16321744       0.11584329 </v>
   <v>      -0.35812302      -0.27476911       0.03862522 </v>
   <v>       0.32304498      -0.38353479      -0.17020385 </v>
   <v>       0.46715316       0.14437161       0.44305491 </v>
   <v>      -0.16963575       0.23910138       0.24282267 </v>
   <v>      -0.28493321      -0.09055774       0.00885958 </v>
   <v>       0.12960592       0.16842173      -0.17246587 </v>
   <v>      -0.13814753      -0.25062582      -0.33332931 </v>
   <v>       0.09688259       0.22776313      -0.41273626 </v>
   <v>      -0.28306217      -0.32386794       0.13470066 </v>
   <v>       0.05542269       0.35203328       0.11237475 </v>
   <v>      -0.11695085      -0.06380140      -0.00660946 </v>
   <v>      -0.08970000       0.02135158      -0.49554939 </v>
   <v>       0.38724049       0.35983307       0.42415522 </v>
   <v>      -0.39755033       0.25606307       0.33036556 </v>
   <v>      -0.48300016      -0.31570739       0.10327214 </v>
   <v>       0.03561260       0.05459897       0.02046543 </v>
   <v>      -0.07029994       0.00404774       0.09458085 </v>
   <v>       0.21285751       0.20204064      -0.27080500 </v>
   <v>       0.00265158       0.44723773       0.19213083 </v>
   <v>       0.10304093       0.03295520      -0.21572074 </v>
   <v>       0.49127432       0.48284088       0.25761106 </v>
   <v>       0.17299798       0.47332437      -0.30031432 </v>
   <v>      -0.27995257      -0.17331779      -0.34267770 </v>
   <v>       0.45664493      -0.04358981      -0.47030239 </v>
   <v>       0.24035554      -0.40891887      -0.27238553 </v>
   <v>       0.39122465      -0.06717396      -0.02309917 </v>
   <v>      -0.27341136       0.07420949       0.26508663 </v>
   <v>       0.16830174       0.14723184      -0.06756685 </v>
   <v>       0.15166037      -0.47932676      -0.01420388 </v>
   <v>       0.37496026       0.03206455       0.11747103 </v>
   <v>       0.26687457       0.20975631      -0.49818929 </v>
   <v>      -0.05074932       0.22174590       0.34770096 </v>
   <v>      -0.32689345      -0.19547307      -0.45434136 </v>
   <v>       0.08745011       0.03249754      -0.42202996 </v>
   <v>      -0.48299808      -0.36842320       0.37825299 </v>
   <v>       0.11070078       0.25337294       0.15832701 </v>
   <v>      -0.18164832      -0.40713874       0.33554174 </v>
   <v>      -0.01363944      -0.30645631      -0.49072829 </v>
   <v>       0.11008561      -0.44089450      -0.47672637 </v>
   <v>      -0.42236635      -0.29735336       0.20757706 </v>
   <v>       0.09044723      -0.27969834      -0.17057087 </v>
   <v>       0.43171073       0.03298158       0.41062096 </v>
   <v>      -0.42812528      -0.23230409       0.47720747 </v>
   <v>       0.32811560       0.18835153       0.21320287 </v>
   <v>       0.18260675       0.39024548       0.07054118 </v>
   <v>       0.26093662       0.31654374       0.43941942 </v>
   <v>       0.26726538       0.04785464      -0.44906903 </v>
   <v>      -0.45550348       0.00423811       0.36417554 </v>
   <v>       0.18484320       0.38350953      -0.47486967 </v>
   <v>       0.37774816      -0.14597465      -0.26944935 </v>
   <v>       0.33926609      -0.45167035       0.40358291 </v>
   <v>      -0.25196227      -0.13166458       0.46535849 </v>
   <v>       0.25305870      -0.29991385      -0.08627495 </v>
   <v>       0.11101605      -0.04784051      -0.32106920 </v>
   <v>       0.38507005       0.45727941       0.31829537 </v>
   <v>       0.07310250      -0.26974771       0.01244770 </v>
   <v>       0.37026035      -0.22740857      -0.42387658 </v>
   <v>       0.27787296       0.42470692       0.22426962 </v>
   <v>      -0.00881849       0.06853032       0.35080393 </v>
   <v>      -0.23441026      -0.19130913       0.17646802 </v>
   <v>       0.45503290      -0.19003785       0.10404671 </v>
   <v>       0.23827983      -0.06510816      -0.31547071 </v>
   <v>      -0.06372425      -0.06617131       0.20439975 </v>
   <v>       0.23397953       0.30075853       0.21808881 </v>
   <v>       0.05599972      -0.16061186      -0.31491848 </v>
   <v>       0.23284072      -0.33424787       0.08568184 </v>
   <v>       0.45586257      -0.17389414       0.49108548 </v>
   <v>      -0.00345946      -0.22465828       0.13725551 </v>
   <v>      -0.04234917      -0.34640515       0.28722395 </v>
   <v>      -0.33191055      -0.07560161       0.30720158 </v>
   <v>       0.19232203       0.04470293       0.11013755 </v>
   <v>       0.02293947      -0.28098315       0.39218758 </v>
   <v>       0.19414994      -0.24958995       0.00907502 </v>
   <v>       0.32601915      -0.00003883       0.33479760 </v>
   <v>       0.15332598      -0.42438188       0.24490305 </v>
   <v>       0.18744851       0.27027319       0.34373409 </v>
   <v>       0.22252177      -0.12963589       0.01310624 </v>
   <v>       0.12671171      -0.33567472       0.37986560 </v>
   <v>       0.02143807      -0.04231819       0.29794148 </v>
   <v>       0.45985846      -0.17934720       0.35328571 </v>
   <v>       0.31518960      -0.14468070       0.21583259 </v>
   <v>       0.14470322      -0.02919900       0.25067039 </v>
   <v>       0.02861043      -0.15754780       0.35957959 </v>
  </varray>
 </structure>
 <varray name="primitive_index" >
  <v type="int" >        1 </v>
  <v type="int" >      109 </v>
  <v type="int" >       69 </v>
  <v type="int" >      102 </v>
  <v type="int" >       70 </v>
  <v type="int" >       95 </v>
  <v type="int" >       59 </v>
  <v type="int" >      118 </v>
  <v type="int" >       98 </v>
  <v type="int" >       43 </v>
  <v type="int" >      108 </v>
  <v type="int" >       44 </v>
  <v type="int" >       45 </v>
  <v type="int" >       91 </v>
  <v type="int" >        3 </v>
  <v type="int" >       53 </v>
  <v type="int" >       82 </v>
  <v type="int" >       50 </v>
  <v type="int" >        2 </v>
  <v type="int" >       46 </v>
  <v type="int" >       49 </v>
  <v type="int" >       51 </v>
  <v type="int" >       84 </v>
  <v type="int" >      101 </v>
  <v type="int" >       11 </v>
  <v type="int" >       58 </v>
  <v type="int" >       56 </v>
  <v type="int" >        8 </v>
  <v type="int" >       77 </v>
  <v type="int" >       92 </v>
  <v type="int" >       14 </v>
  <v type="int" >       24 </v>
  <v type="int" >       78 </v>
  <v type="int" >       52 </v>
  <v type="int" >       72 </v>
  <v type="int" >       93 </v>
  <v type="int" >       55 </v>
  <v type="int" >       62 </v>
  <v type="int" >      110 </v>
  <v type="int" >      122 </v>
  <v type="int" >      125 </v>
  <v type="int" >      120 </v>
  <v type="int" >      128 </v>
  <v type="int" >      107 </v>
  <v type="int" >       61 </v>
  <v type="int" >       65 </v>
  <v type="int" >      106 </v>
  <v type="int" >       47 </v>
  <v type="int" >      117 </v>
  <v type="int" >       79 </v>
  <v type="int" >      124 </v>
  <v type="int" >       36 </v>
  <v type="int" >       67 </v>
  <v type="int" >       37 </v>
  <v type="int" >       99 </v>
  <v type="int" >       57 </v>
  <v type="int" >        7 </v>
  <v type="int" >       28 </v>
  <v type="int" >       25 </v>
  <v type="int" >       23 </v>
  <v type="int" >       39 </v>
  <v type="int" >       54 </v>
  <v type="int" >      111 </v>
  <v type="int" >       22 </v>
  <v type="int" >       97 </v>
  <v type="int" >        5 </v>
  <v type="int" >       48 </v>
  <v type="int" >      121 </v>
  <v type="int" >       30 </v>
  <v type="int" >      133 </v>
  <v type="int" >       64 </v>
  <v type="int" >       76 </v>
  <v type="int" >      114 </v>
  <v type="int" >       12 </v>
  <v type="int" >      127 </v>
  <v type="int" >      126 </v>
  <v type="int" >       88 </v>
  <v type="int" >       13 </v>
  <v type="int" >      135 </v>
  <v type="int" >       60 </v>
  <v type="int" >       17 </v>
  <v type="int" >       74 </v>
  <v type="int" >       63 </v>
  <v type="int" >       18 </v>
  <v type="int" >       33 </v>
  <v type="int" >       80 </v>
  <v type="int" >       26 </v>
  <v type="int" >       85 </v>
  <v type="int" >       10 </v>
  <v type="int" >      134 </v>
  <v type="int" >        9 </v>
  <v type="int" >      129 </v>
  <v type="int" >        4 </v>
  <v type="int" >       40 </v>
  <v type="int" >      119 </v>
  <v type="int" >      123 </v>
  <v type="int" >       89 </v>
  <v type="int" >       41 </v>
  <v type="int" >       15 </v>
  <v type="int" >      103 </v>
  <v type="int" >       90 </v>
  <v type="int" >       16 </v>
  <v type="int" >       73 </v>
  <v type="int" >      100 </v>
  <v type="int" >      130 </v>
  <v type="int" >       32 </v>
  <v type="int" >       35 </v>
  <v type="int" >      116 </v>
  <v type="int" >      113 </v>
  <v type="int" >       96 </v>
  <v type="int" >       81 </v>
  <v type="int" >      105 </v>
  <v type="int" >      131 </v>
  <v type="int" >       68 </v>
  <v type="int" >      104 </v>
  <v type="int" >       29 </v>
  <v type="int" >       86 </v>
  <v type="int" >       83 </v>
  <v type="int" >       42 </v>
  <v type="int" >       19 </v>
  <v type="int" >       94 </v>
  <v type="int" >       20 </v>
  <v type="int" >       27 </v>
  <v type="int" >       31 </v>
  <v type="int" >       38 </v>
  <v type="int" >      112 </v>
  <v type="int" >        6 </v>
  <v type="int" >      115 </v>
  <v type="int" >       75 </v>
  <v type="int" >       66 </v>
  <v type="int" >       34 </v>
  <v type="int" >       87 </v>
  <v type="int" >       21 </v>
  <v type="int" >       71 </v>
  <v type="int" >      132 </v>
 </varray>
 <kpoints>
  <generation param="Gamma">
   <v type="int" name="divisions">       2        2        2 </v>
   <v name="usershift">      0.00000000       0.00000000       0.00000000 </v>
   <v name="genvec1">      0.50000000       0.00000000       0.00000000 </v>
   <v name="genvec2">      0.00000000       0.50000000       0.00000000 </v>
   <v name="genvec3">      0.00000000       0.00000000       0.50000000 </v>
   <v name="shift">      0.00000000       0.00000000       0.00000000 </v>
  </generation>
  <varray name="kpointlist" >
   <v>       0.00000000       0.00000000       0.00000000 </v>
   <v>       0.50000000       0.00000000       0.00000000 </v>
   <v>       0.00000000       0.50000000       0.00000000 </v>
   <v>       0.50000000       0.50000000       0.00000000 </v>
   <v>       0.00000000       0.00000000       0.50000000 </v>
   <v>       0.50000000       0.00000000       0.50000000 </v>
   <v>       0.00000000       0.50000000       0.50000000 </v>
   <v>       0.50000000       0.50000000       0.50000000 </v>
  </varray>
  <varray name="weights" >
   <v>       0.12500000 </v>
   <v>       0.12500000 </v>
   <v>       0.12500000 </v>
   <v>       0.12500000 </v>
   <v>       0.12500000 </v>
   <v>       0.12500000 </v>
   <v>       0.12500000 </v>
   <v>       0.12500000 </v>
  </varray>
 </kpoints>
 <parameters>
  <separator name="general" >
   <i type="string" name="SYSTEM">unknown system</i>
   <i type="logical" name="LCOMPAT"> F  </i>
  </separator>
  <separator name="electronic" >
   <i type="string" name="PREC">a</i>
   <i name="ENMAX">    600.00000000</i>
   <i name="ENAUG">    605.39200000</i>
   <i name="EDIFF">      0.00000100</i>
   <i type="int" name="IALGO">    38</i>
   <i type="int" name="IWAVPR">    10</i>
   <i type="int" name="NBANDS">   520</i>
   <i name="NELECT">    864.00000000</i>
   <i type="int" name="TURBO">     0</i>
   <i type="int" name="IRESTART">     0</i>
   <i type="int" name="NREBOOT">     0</i>
   <i type="int" name="NMIN">     0</i>
   <i name="EREF">      0.00000000</i>
   <separator name="electronic smearing" >
    <i type="int" name="ISMEAR">     0</i>
    <i name="SIGMA">      0.05000000</i>
    <i name="KSPACING">      0.30000000</i>
    <i type="logical" name="KGAMMA"> T  </i>
   </separator>
   <separator name="electronic projectors" >
    <i type="logical" name="LREAL"> T  </i>
    <v name="ROPT">     -0.00025000     -0.00025000     -0.00025000</v>
    <i type="int" name="LMAXPAW">  -100</i>
    <i type="int" name="LMAXMIX">     2</i>
    <i type="logical" name="NLSPLINE"> F  </i>
   </separator>
   <separator name="electronic startup" >
    <i type="int" name="ISTART">     0</i>
    <i type="int" name="ICHARG">     2</i>
    <i type="int" name="INIWAV">     1</i>
   </separator>
   <separator name="electronic spin" >
    <i type="int" name="ISPIN">     1</i>
    <i type="logical" name="LNONCOLLINEAR"> F  </i>
    <v name="MAGMOM">      1.00000000      1.00000000      1.00000000      1.00000000      1.00000000      1.00000000      1.00000000      1.00000000      1.00000000      1.00000000      1.00000000      1.00000000      1.00000000      1.00000000      1.00000000      1.00000000      1.00000000      1.00000000      1.00000000      1.00000000
      1.00000000      1.00000000      1.00000000      1.00000000      1.00000000      1.00000000      1.00000000      1.00000000      1.00000000      1.00000000      1.00000000      1.00000000      1.00000000      1.00000000      1.00000000      1.00000000      1.00000000      1.00000000      1.00000000      1.00000000
      1.00000000      1.00000000      1.00000000      1.00000000      1.00000000      1.00000000      1.00000000      1.00000000      1.00000000      1.00000000      1.00000000      1.00000000      1.00000000      1.00000000      1.00000000      1.00000000      1.00000000      1.00000000      1.00000000      1.00000000
      1.00000000      1.00000000      1.00000000      1.00000000      1.00000000      1.00000000      1.00000000      1.00000000      1.00000000      1.00000000      1.00000000      1.00000000      1.00000000      1.00000000      1.00000000      1.00000000      1.00000000      1.00000000      1.00000000      1.00000000
      1.00000000      1.00000000      1.00000000      1.00000000      1.00000000      1.00000000      1.00000000      1.00000000      1.00000000      1.00000000      1.00000000      1.00000000      1.00000000      1.00000000      1.00000000      1.00000000      1.00000000      1.00000000      1.00000000      1.00000000
      1.00000000      1.00000000      1.00000000      1.00000000      1.00000000      1.00000000      1.00000000      1.00000000      1.00000000      1.00000000      1.00000000      1.00000000      1.00000000      1.00000000      1.00000000      1.00000000      1.00000000      1.00000000      1.00000000      1.00000000
      1.00000000      1.00000000      1.00000000      1.00000000      1.00000000      1.00000000      1.00000000      1.00000000      1.00000000      1.00000000      1.00000000      1.00000000      1.00000000      1.00000000      1.00000000</v>
    <i name="NUPDOWN">     -1.00000000</i>
    <i type="logical" name="LSORBIT"> F  </i>
    <v name="SAXIS">      0.00000000      0.00000000      1.00000000</v>
    <i type="logical" name="LSPIRAL"> F  </i>
    <v name="QSPIRAL">      0.00000000      0.00000000      0.00000000</v>
    <i type="logical" name="LZEROZ"> F  </i>
   </separator>
   <separator name="electronic exchange-correlation" >
    <i type="logical" name="LASPH"> F  </i>
    <i type="logical" name="LMETAGGA"> F  </i>
   </separator>
   <separator name="electronic convergence" >
    <i type="int" name="NELM">    60</i>
    <i type="int" name="NELMDL">    -5</i>
    <i type="int" name="NELMIN">     2</i>
    <i name="ENINI">    600.00000000</i>
    <separator name="electronic convergence detail" >
     <i type="logical" name="LDIAG"> T  </i>
     <i type="logical" name="LSUBROT"> F  </i>
     <i name="WEIMIN">      0.00000000</i>
     <i name="EBREAK">      0.00000000</i>
     <i name="DEPER">      0.30000000</i>
     <i type="int" name="NRMM">     4</i>
     <i name="TIME">      0.40000000</i>
    </separator>
   </separator>
   <separator name="electronic mixer" >
    <i name="AMIX">      0.40000000</i>
    <i name="BMIX">      1.00000000</i>
    <i name="AMIN">      0.10000000</i>
    <i name="AMIX_MAG">      1.60000000</i>
    <i name="BMIX_MAG">      1.00000000</i>
    <separator name="electronic mixer details" >
     <i type="int" name="IMIX">     4</i>
     <i type="logical" name="MIXFIRST"> F  </i>
     <i type="int" name="MAXMIX">   -45</i>
     <i name="WC">    100.00000000</i>
     <i type="int" name="INIMIX">     1</i>
     <i type="int" name="MIXPRE">     1</i>
     <i type="int" name="MREMOVE">     5</i>
    </separator>
   </separator>
   <separator name="electronic dipolcorrection" >
    <i type="logical" name="LDIPOL"> F  </i>
    <i type="logical" name="LMONO"> F  </i>
    <i type="int" name="IDIPOL">     0</i>
    <i name="EPSILON">      1.00000000</i>
    <v name="DIPOL">   -100.00000000   -100.00000000   -100.00000000</v>
    <i name="EFIELD">      0.00000000</i>
   </separator>
  </separator>
  <separator name="grids" >
   <i type="int" name="NGX">   108</i>
   <i type="int" name="NGY">   108</i>
   <i type="int" name="NGZ">   108</i>
   <i type="int" name="NGXF">   216</i>
   <i type="int" name="NGYF">   216</i>
   <i type="int" name="NGZF">   216</i>
   <i type="logical" name="ADDGRID"> T  </i>
  </separator>
  <separator name="ionic" >
   <i type="int" name="NSW">     1</i>
   <i type="int" name="IBRION">    -1</i>
   <i type="int" name="MDALGO">     0</i>
   <i type="int" name="ISIF">     2</i>
   <i name="PSTRESS">      0.00000000</i>
   <i name="EDIFFG">     -0.01000000</i>
   <i type="int" name="NFREE">     0</i>
   <i name="POTIM">      1.00000000</i>
   <i name="SMASS">     -3.00000000</i>
   <i name="SCALEE">      1.00000000</i>
  </separator>
  <separator name="ionic md" >
   <i name="TEBEG">      0.00010000</i>
   <i name="TEEND">      0.00010000</i>
   <i type="int" name="NBLOCK">     1</i>
   <i type="int" name="KBLOCK">     1</i>
   <i type="int" name="NPACO">   256</i>
   <i name="APACO">     16.00000000</i>
  </separator>
  <separator name="symmetry" >
   <i type="int" name="ISYM">     0</i>
   <i name="SYMPREC">      0.00001000</i>
  </separator>
  <separator name="dos" >
   <i type="int" name="LORBIT">     0</i>
   <v name="RWIGS">     -1.00000000     -1.00000000     -1.00000000</v>
   <i type="int" name="NEDOS">   301</i>
   <i name="EMIN">     10.00000000</i>
   <i name="EMAX">    -10.00000000</i>
   <i name="EFERMI">      0.00000000</i>
  </separator>
  <separator name="writing" >
   <i type="int" name="NWRITE">     2</i>
   <i type="logical" name="LWAVE"> F  </i>
   <i type="logical" name="LDOWNSAMPLE"> F  </i>
   <i type="logical" name="LCHARG"> F  </i>
   <i type="logical" name="LPARD"> F  </i>
   <i type="logical" name="LVTOT"> F  </i>
   <i type="logical" name="LVHAR"> F  </i>
   <i type="logical" name="LELF"> F  </i>
   <i type="logical" name="LOPTICS"> F  </i>
   <v name="STM">      0.00000000      0.00000000      0.00000000      0.00000000      0.00000000      0.00000000      0.00000000</v>
  </separator>
  <separator name="performance" >
   <i type="int" name="NPAR">     4</i>
   <i type="int" name="NSIM">     4</i>
   <i type="int" name="NBLK">    -1</i>
   <i type="logical" name="LPLANE"> T  </i>
   <i type="logical" name="LSCALAPACK"> F  </i>
   <i type="logical" name="LSCAAWARE"> F  </i>
   <i type="logical" name="LSCALU"> F  </i>
   <i type="logical" name="LASYNC"> F  </i>
   <i type="logical" name="LORBITALREAL"> F  </i>
  </separator>
  <separator name="miscellaneous" >
   <i type="int" name="IDIOT">     3</i>
   <i type="int" name="ISPECIAL">     0</i>
   <i type="logical" name="LMUSIC"> F  </i>
   <v name="POMASS">     40.07800000     28.08500000     16.00000000</v>
   <v name="DARWINR">      0.00000000      0.00000000      0.00000000</v>
   <v name="DARWINV">      1.00000000      1.00000000      1.00000000</v>
   <i type="logical" name="LCORR"> T  </i>
  </separator>
  <i type="logical" name="GGA_COMPAT"> T  </i>
  <i type="logical" name="LBERRY"> F  </i>
  <i type="int" name="ICORELEVEL">     0</i>
  <i type="logical" name="LDAU"> F  </i>
  <i type="int" name="I_CONSTRAINED_M">     0</i>
  <separator name="electronic exchange-correlation" >
   <i type="string" name="GGA">--</i>
   <i type="int" name="VOSKOWN">     0</i>
   <i type="logical" name="LHFCALC"> F  </i>
   <i type="string" name="PRECFOCK"></i>
   <i type="logical" name="LSYMGRAD"> F  </i>
   <i type="logical" name="LHFONE"> F  </i>
   <i type="logical" name="LRHFCALC"> F  </i>
   <i type="logical" name="LTHOMAS"> F  </i>
   <i type="logical" name="LMODELHF"> F  </i>
   <i name="ENCUT4O">     -1.00000000</i>
   <i type="int" name="EXXOEP">     0</i>
   <i type="int" name="FOURORBIT">     0</i>
   <i name="AEXX">      0.00000000</i>
   <i name="HFALPHA">      0.00000000</i>
   <i name="MCALPHA">      0.00000000</i>
   <i name="ALDAX">      1.00000000</i>
   <i name="AGGAX">      1.00000000</i>
   <i name="ALDAC">      1.00000000</i>
   <i name="AGGAC">      1.00000000</i>
   <i type="int" name="NKREDX">     1</i>
   <i type="int" name="NKREDY">     1</i>
   <i type="int" name="NKREDZ">     1</i>
   <i type="logical" name="SHIFTRED"> F  </i>
   <i type="logical" name="ODDONLY"> F  </i>
   <i type="logical" name="EVENONLY"> F  </i>
   <i type="int" name="LMAXFOCK">     0</i>
   <i type="int" name="NMAXFOCKAE">     0</i>
   <i type="logical" name="LFOCKAEDFT"> F  </i>
   <i name="HFSCREEN">      0.00000000</i>
   <i name="HFSCREENC">      0.00000000</i>
   <i type="int" name="NBANDSGWLOW">     0</i>
  </separator>
  <separator name="vdW DFT" >
   <i type="logical" name="LUSE_VDW"> F  </i>
   <i name="Zab_VDW">     -0.84910000</i>
   <i name="PARAM1">      0.12340000</i>
   <i name="PARAM2">      1.00000000</i>
   <i name="PARAM3">      0.00000000</i>
  </separator>
  <separator name="model GW" >
   <i type="int" name="MODEL_GW">     0</i>
   <i name="MODEL_EPS0">      9.60847956</i>
   <i name="MODEL_ALPHA">      1.00000000</i>
  </separator>
  <separator name="linear response parameters" >
   <i type="logical" name="LEPSILON"> F  </i>
   <i type="logical" name="LRPA"> F  </i>
   <i type="logical" name="LNABLA"> F  </i>
   <i type="logical" name="LVEL"> F  </i>
   <i type="int" name="KINTER">     0</i>
   <i name="CSHIFT">      0.10000000</i>
   <i name="OMEGAMAX">     -1.00000000</i>
   <i name="DEG_THRESHOLD">      0.00200000</i>
   <i name="RTIME">     -0.10000000</i>
   <i name="WPLASMAI">      0.00000000</i>
   <v name="DFIELD">      0.00000000      0.00000000      0.00000000</v>
   <v name="WPLASMA">      0.00000000      0.00000000      0.00000000      0.00000000      0.00000000      0.00000000      0.00000000      0.00000000      0.00000000</v>
  </separator>
  <separator name="orbital magnetization" >
   <i type="logical" name="NUCIND"> F  </i>
   <v name="MAGPOS">      0.00000000      0.00000000      0.00000000</v>
   <i type="logical" name="LNICSALL"> T  </i>
   <i type="logical" name="ORBITALMAG"> F  </i>
   <i type="logical" name="LMAGBLOCH"> F  </i>
   <i type="logical" name="LCHIMAG"> F  </i>
   <i type="logical" name="LGAUGE"> T  </i>
   <i type="int" name="MAGATOM">     0</i>
   <v name="MAGDIPOL">      0.00000000      0.00000000      0.00000000</v>
   <v name="AVECCONST">      0.00000000      0.00000000      0.00000000</v>
  </separator>
  <separator name="response functions" >
   <i type="logical" name="LADDER"> F  </i>
   <i type="logical" name="LRPAFORCE"> F  </i>
   <i type="logical" name="LFXC"> F  </i>
   <i type="logical" name="LHARTREE"> T  </i>
   <i type="int" name="IBSE">     0</i>
   <v type="int" name="KPOINT">    -1     0     0     0</v>
   <i type="logical" name="LTCTE"> F  </i>
   <i type="logical" name="LTETE"> F  </i>
   <i type="logical" name="LTRIPLET"> F  </i>
   <i type="logical" name="LFXCEPS"> F  </i>
   <i type="logical" name="LFXHEG"> F  </i>
   <i type="int" name="NATURALO">     2</i>
   <i type="logical" name="L2ORDER"> F  </i>
   <i type="logical" name="LMP2LT"> F  </i>
   <i type="logical" name="LUSEW"> F  </i>
   <i name="ENCUTGW">     -2.00000000</i>
   <i name="ENCUTGWSOFT">     -2.00000000</i>
   <i name="ENCUTLF">     -1.00000000</i>
   <i type="int" name="LMAXMP2">    -1</i>
   <i name="SCISSOR">      0.00000000</i>
   <i type="int" name="NOMEGA">     0</i>
   <i type="int" name="NOMEGAR">     0</i>
   <i type="int" name="NBANDSGW">    -1</i>
   <i type="int" name="NBANDSO">    -1</i>
   <i type="int" name="NBANDSV">    -1</i>
   <i type="int" name="NELM">     1</i>
   <i type="int" name="NELMHF">     1</i>
   <i type="int" name="DIM">     3</i>
   <i type="int" name="ANTIRES">     0</i>
   <i name="OMEGAMAX">    -30.00000000</i>
   <i name="OMEGAMIN">    -30.00000000</i>
   <i name="OMEGATL">   -200.00000000</i>
   <i type="int" name="OMEGAGRID">   140</i>
   <i name="CSHIFT">     -0.10000000</i>
   <i type="logical" name="SELFENERGY"> F  </i>
   <i type="logical" name="LSPECTRAL"> F  </i>
   <i type="logical" name="LSPECTRALGW"> F  </i>
   <i type="logical" name="LSINGLES"> F  </i>
   <i type="logical" name="LFERMIGW"> F  </i>
   <i type="logical" name="ODDONLYGW"> F  </i>
   <i type="logical" name="EVENONLYGW"> F  </i>
   <i type="int" name="NKREDLFX">     1</i>
   <i type="int" name="NKREDLFY">     1</i>
   <i type="int" name="NKREDLFZ">     1</i>
   <i type="int" name="MAXMEM">  2800</i>
   <i type="int" name="TELESCOPE">     0</i>
   <i type="int" name="TAUPAR">     1</i>
   <i type="int" name="OMEGAPAR">    -1</i>
   <i name="LAMBDA">      1.00000000</i>
  </separator>
  <separator name="External order field" >
   <i name="OFIELD_KAPPA">      0.00000000</i>
   <v name="OFIELD_K">      0.00000000      0.00000000      0.00000000</v>
   <i name="OFIELD_Q6_NEAR">      0.00000000</i>
   <i name="OFIELD_Q6_FAR">      0.00000000</i>
   <i name="OFIELD_A">      0.00000000</i>
  </separator>
 </parameters>
 <atominfo>
  <atoms>     135 </atoms>
  <types>       3 </types>
  <array name="atoms" >
   <dimension dim="1">ion</dimension>
   <field type="string">element</field>
   <field type="int">atomtype</field>
   <set>
    <rc><c>Ca</c><c>   1</c></rc>
    <rc><c>Ca</c><c>   1</c></rc>
    <rc><c>Ca</c><c>   1</c></rc>
    <rc><c>Ca</c><c>   1</c></rc>
    <rc><c>Ca</c><c>   1</c></rc>
    <rc><c>Ca</c><c>   1</c></rc>
    <rc><c>Ca</c><c>   1</c></rc>
    <rc><c>Ca</c><c>   1</c></rc>
    <rc><c>Ca</c><c>   1</c></rc>
    <rc><c>Ca</c><c>   1</c></rc>
    <rc><c>Ca</c><c>   1</c></rc>
    <rc><c>Ca</c><c>   1</c></rc>
    <rc><c>Ca</c><c>   1</c></rc>
    <rc><c>Ca</c><c>   1</c></rc>
    <rc><c>Ca</c><c>   1</c></rc>
    <rc><c>Ca</c><c>   1</c></rc>
    <rc><c>Ca</c><c>   1</c></rc>
    <rc><c>Ca</c><c>   1</c></rc>
    <rc><c>Ca</c><c>   1</c></rc>
    <rc><c>Ca</c><c>   1</c></rc>
    <rc><c>Ca</c><c>   1</c></rc>
    <rc><c>Ca</c><c>   1</c></rc>
    <rc><c>Ca</c><c>   1</c></rc>
    <rc><c>Ca</c><c>   1</c></rc>
    <rc><c>Ca</c><c>   1</c></rc>
    <rc><c>Ca</c><c>   1</c></rc>
    <rc><c>Ca</c><c>   1</c></rc>
    <rc><c>Si</c><c>   2</c></rc>
    <rc><c>Si</c><c>   2</c></rc>
    <rc><c>Si</c><c>   2</c></rc>
    <rc><c>Si</c><c>   2</c></rc>
    <rc><c>Si</c><c>   2</c></rc>
    <rc><c>Si</c><c>   2</c></rc>
    <rc><c>Si</c><c>   2</c></rc>
    <rc><c>Si</c><c>   2</c></rc>
    <rc><c>Si</c><c>   2</c></rc>
    <rc><c>Si</c><c>   2</c></rc>
    <rc><c>Si</c><c>   2</c></rc>
    <rc><c>Si</c><c>   2</c></rc>
    <rc><c>Si</c><c>   2</c></rc>
    <rc><c>Si</c><c>   2</c></rc>
    <rc><c>Si</c><c>   2</c></rc>
    <rc><c>Si</c><c>   2</c></rc>
    <rc><c>Si</c><c>   2</c></rc>
    <rc><c>Si</c><c>   2</c></rc>
    <rc><c>Si</c><c>   2</c></rc>
    <rc><c>Si</c><c>   2</c></rc>
    <rc><c>Si</c><c>   2</c></rc>
    <rc><c>Si</c><c>   2</c></rc>
    <rc><c>Si</c><c>   2</c></rc>
    <rc><c>Si</c><c>   2</c></rc>
    <rc><c>Si</c><c>   2</c></rc>
    <rc><c>Si</c><c>   2</c></rc>
    <rc><c>Si</c><c>   2</c></rc>
    <rc><c>O </c><c>   3</c></rc>
    <rc><c>O </c><c>   3</c></rc>
    <rc><c>O </c><c>   3</c></rc>
    <rc><c>O </c><c>   3</c></rc>
    <rc><c>O </c><c>   3</c></rc>
    <rc><c>O </c><c>   3</c></rc>
    <rc><c>O </c><c>   3</c></rc>
    <rc><c>O </c><c>   3</c></rc>
    <rc><c>O </c><c>   3</c></rc>
    <rc><c>O </c><c>   3</c></rc>
    <rc><c>O </c><c>   3</c></rc>
    <rc><c>O </c><c>   3</c></rc>
    <rc><c>O </c><c>   3</c></rc>
    <rc><c>O </c><c>   3</c></rc>
    <rc><c>O </c><c>   3</c></rc>
    <rc><c>O </c><c>   3</c></rc>
    <rc><c>O </c><c>   3</c></rc>
    <rc><c>O </c><c>   3</c></rc>
    <rc><c>O </c><c>   3</c></rc>
    <rc><c>O </c><c>   3</c></rc>
    <rc><c>O </c><c>   3</c></rc>
    <rc><c>O </c><c>   3</c></rc>
    <rc><c>O </c><c>   3</c></rc>
    <rc><c>O </c><c>   3</c></rc>
    <rc><c>O </c><c>   3</c></rc>
    <rc><c>O </c><c>   3</c></rc>
    <rc><c>O </c><c>   3</c></rc>
    <rc><c>O </c><c>   3</c></rc>
    <rc><c>O </c><c>   3</c></rc>
    <rc><c>O </c><c>   3</c></rc>
    <rc><c>O </c><c>   3</c></rc>
    <rc><c>O </c><c>   3</c></rc>
    <rc><c>O </c><c>   3</c></rc>
    <rc><c>O </c><c>   3</c></rc>
    <rc><c>O </c><c>   3</c></rc>
    <rc><c>O </c><c>   3</c></rc>
    <rc><c>O </c><c>   3</c></rc>
    <rc><c>O </c><c>   3</c></rc>
    <rc><c>O </c><c>   3</c></rc>
    <rc><c>O </c><c>   3</c></rc>
    <rc><c>O </c><c>   3</c></rc>
    <rc><c>O </c><c>   3</c></rc>
    <rc><c>O </c><c>   3</c></rc>
    <rc><c>O </c><c>   3</c></rc>
    <rc><c>O </c><c>   3</c></rc>
    <rc><c>O </c><c>   3</c></rc>
    <rc><c>O </c><c>   3</c></rc>
    <rc><c>O </c><c>   3</c></rc>
    <rc><c>O </c><c>   3</c></rc>
    <rc><c>O </c><c>   3</c></rc>
    <rc><c>O </c><c>   3</c></rc>
    <rc><c>O </c><c>   3</c></rc>
    <rc><c>O </c><c>   3</c></rc>
    <rc><c>O </c><c>   3</c></rc>
    <rc><c>O </c><c>   3</c></rc>
    <rc><c>O </c><c>   3</c></rc>
    <rc><c>O </c><c>   3</c></rc>
    <rc><c>O </c><c>   3</c></rc>
    <rc><c>O </c><c>   3</c></rc>
    <rc><c>O </c><c>   3</c></rc>
    <rc><c>O </c><c>   3</c></rc>
    <rc><c>O </c><c>   3</c></rc>
    <rc><c>O </c><c>   3</c></rc>
    <rc><c>O </c><c>   3</c></rc>
    <rc><c>O </c><c>   3</c></rc>
    <rc><c>O </c><c>   3</c></rc>
    <rc><c>O </c><c>   3</c></rc>
    <rc><c>O </c><c>   3</c></rc>
    <rc><c>O </c><c>   3</c></rc>
    <rc><c>O </c><c>   3</c></rc>
    <rc><c>O </c><c>   3</c></rc>
    <rc><c>O </c><c>   3</c></rc>
    <rc><c>O </c><c>   3</c></rc>
    <rc><c>O </c><c>   3</c></rc>
    <rc><c>O </c><c>   3</c></rc>
    <rc><c>O </c><c>   3</c></rc>
    <rc><c>O </c><c>   3</c></rc>
    <rc><c>O </c><c>   3</c></rc>
    <rc><c>O </c><c>   3</c></rc>
    <rc><c>O </c><c>   3</c></rc>
    <rc><c>O </c><c>   3</c></rc>
   </set>
  </array>
  <array name="atomtypes" >
   <dimension dim="1">type</dimension>
   <field type="int">atomspertype</field>
   <field type="string">element</field>
   <field>mass</field>
   <field>valence</field>
   <field type="string">pseudopotential</field>
   <set>
    <rc><c>  27</c><c>Ca</c><c>     40.07800000</c><c>     10.00000000</c><c>  PAW_PBE Ca_sv 06Sep2000               </c></rc>
    <rc><c>  27</c><c>Si</c><c>     28.08500000</c><c>      4.00000000</c><c>  PAW_PBE Si 05Jan2001                  </c></rc>
    <rc><c>  81</c><c>O </c><c>     16.00000000</c><c>      6.00000000</c><c>  PAW_PBE O 08Apr2002                   </c></rc>
   </set>
  </array>
 </atominfo>
 <structure name="initialpos" >
  <crystal>
   <varray name="basis" >
    <v>      12.93041299       0.00000000       0.00000000 </v>
    <v>       0.00000000      12.93041299       0.00000000 </v>
    <v>       0.00000000       0.00000000      12.93041299 </v>
   </varray>
   <i name="volume">   2161.90790069 </i>
   <varray name="rec_basis" >
    <v>       0.07733705       0.00000000       0.00000000 </v>
    <v>       0.00000000       0.07733705       0.00000000 </v>
    <v>       0.00000000       0.00000000       0.07733705 </v>
   </varray>
  </crystal>
  <varray name="positions" >
   <v>       0.68948584       0.33156551       0.80741909 </v>
   <v>       0.58914467       0.12094850       0.58543914 </v>
   <v>       0.82945588       0.41006041       0.05648769 </v>
   <v>       0.09044723       0.72030166       0.82942913 </v>
   <v>       0.60244967       0.25606307       0.33036556 </v>
   <v>       0.15332598       0.57561812       0.24490305 </v>
   <v>       0.71506679       0.90944226       0.00885958 </v>
   <v>       0.89794117       0.05576508       0.89838251 </v>
   <v>       0.11008561       0.55910550       0.52327363 </v>
   <v>       0.81835168       0.59286126       0.33554174 </v>
   <v>       0.57304933       0.64345902       0.86568707 </v>
   <v>       0.17299798       0.47332437       0.69968568 </v>
   <v>       0.39122465       0.93282604       0.97690083 </v>
   <v>       0.47743103       0.42781824       0.09659903 </v>
   <v>       0.26726538       0.04785464       0.55093097 </v>
   <v>       0.37774816       0.85402535       0.73055065 </v>
   <v>       0.15166037       0.52067324       0.98579612 </v>
   <v>       0.94925068       0.22174590       0.34770096 </v>
   <v>       0.99654054       0.77534172       0.13725551 </v>
   <v>       0.66808945       0.92439839       0.30720158 </v>
   <v>       0.31518960       0.85531930       0.21583259 </v>
   <v>       0.91030000       0.02135158       0.50445061 </v>
   <v>       0.09688259       0.22776313       0.58726374 </v>
   <v>       0.33071766       0.24083154       0.87203269 </v>
   <v>       0.86185247       0.74937418       0.66667069 </v>
   <v>       0.51700192       0.63157680       0.37825299 </v>
   <v>       0.19232203       0.04470293       0.11013755 </v>
   <v>       0.12960592       0.16842173       0.82753413 </v>
   <v>       0.23397953       0.30075853       0.21808881 </v>
   <v>       0.92970006       0.00404774       0.09458085 </v>
   <v>       0.02293947       0.71901685       0.39218758 </v>
   <v>       0.11101605       0.95215949       0.67893080 </v>
   <v>       0.67310655       0.80452693       0.54565864 </v>
   <v>       0.02143807       0.95768181       0.29794148 </v>
   <v>       0.38507005       0.45727941       0.31829537 </v>
   <v>       0.39578377       0.16321744       0.11584329 </v>
   <v>       0.32304498       0.61646521       0.82979615 </v>
   <v>       0.19414994       0.75041005       0.00907502 </v>
   <v>       0.71693783       0.67613206       0.13470066 </v>
   <v>       0.43171073       0.03298158       0.41062096 </v>
   <v>       0.26093662       0.31654374       0.43941942 </v>
   <v>       0.45586257       0.82610586       0.49108548 </v>
   <v>       0.59683127       0.23365553       0.02560032 </v>
   <v>       0.55397585       0.08803096       0.81288877 </v>
   <v>       0.71957688       0.54456136       0.61905333 </v>
   <v>       0.85205541       0.27245176       0.52754959 </v>
   <v>       0.77187055       0.13309936       0.17920201 </v>
   <v>       0.51699984       0.68429261       0.10327214 </v>
   <v>       0.01454826       0.35440352       0.87085309 </v>
   <v>       0.93064095       0.51040247       0.75561967 </v>
   <v>       0.83909573       0.60604823       0.91957881 </v>
   <v>       0.75452644       0.96391499       0.73959415 </v>
   <v>       0.67730138       0.37492786       0.51013096 </v>
   <v>       0.05542269       0.35203328       0.11237475 </v>
   <v>       0.34137253       0.50629233       0.88644842 </v>
   <v>       0.78242884       0.34824703       0.46758227 </v>
   <v>       0.83036425       0.23910138       0.24282267 </v>
   <v>       0.02213968       0.22348018       0.83884984 </v>
   <v>       0.51070223       0.18469347       0.73956111 </v>
   <v>       0.16830174       0.14723184       0.93243315 </v>
   <v>       0.81489453       0.65905915       0.03204884 </v>
   <v>       0.43535259       0.64089904       0.79156841 </v>
   <v>       0.26687457       0.20975631       0.50181071 </v>
   <v>       0.00265158       0.44723773       0.19213083 </v>
   <v>       0.02832734       0.55102135       0.67992665 </v>
   <v>       0.12671171       0.66432528       0.37986560 </v>
   <v>       0.64187698       0.72523089       0.03862522 </v>
   <v>       0.23827983       0.93489184       0.68452929 </v>
   <v>       0.68502081       0.52349716       0.73480509 </v>
   <v>       0.59645242       0.35002668       0.99516293 </v>
   <v>       0.14470322       0.97080100       0.25067039 </v>
   <v>       0.67258246       0.51375154       0.46973348 </v>
   <v>       0.33926609       0.54832965       0.40358291 </v>
   <v>       0.37496026       0.03206455       0.11747103 </v>
   <v>       0.22252177       0.87036411       0.01310624 </v>
   <v>       0.10304093       0.03295520       0.78427926 </v>
   <v>       0.77093173       0.68960995       0.82419336 </v>
   <v>       0.83690931       0.10392264       0.07258031 </v>
   <v>       0.11936545       0.40277707       0.87329104 </v>
   <v>       0.08745011       0.03249754       0.57797004 </v>
   <v>       0.99118151       0.06853032       0.35080393 </v>
   <v>       0.70037769       0.19905469       0.08082606 </v>
   <v>       0.23284072       0.66575213       0.08568184 </v>
   <v>       0.59110847       0.29487085       0.48900505 </v>
   <v>       0.11070078       0.25337294       0.15832701 </v>
   <v>       0.05599972       0.83938814       0.68508152 </v>
   <v>       0.45985846       0.82065280       0.35328571 </v>
   <v>       0.24035554       0.59108113       0.72761447 </v>
   <v>       0.18260675       0.39024548       0.07054118 </v>
   <v>       0.18484320       0.38350953       0.52513033 </v>
   <v>       0.84002419       0.54179510       0.67909475 </v>
   <v>       0.39508979       0.27022432       0.02142771 </v>
   <v>       0.97311512       0.59128637       0.86357575 </v>
   <v>       0.95765083       0.65359485       0.28722395 </v>
   <v>       0.81712221       0.24911472       0.65840357 </v>
   <v>       0.27787296       0.42470692       0.22426962 </v>
   <v>       0.38724049       0.35983307       0.42415522 </v>
   <v>       0.56801913       0.14405660       0.92574777 </v>
   <v>       0.46715316       0.14437161       0.44305491 </v>
   <v>       0.74803773       0.86833542       0.46535849 </v>
   <v>       0.96328059       0.33018278       0.00547397 </v>
   <v>       0.65773085       0.41557565       0.61864545 </v>
   <v>       0.54449652       0.00423811       0.36417554 </v>
   <v>       0.93627575       0.93382869       0.20439975 </v>
   <v>       0.76558974       0.80869087       0.17646802 </v>
   <v>       0.73885091       0.66576359       0.54279422 </v>
   <v>       0.97135615       0.29907004       0.50314270 </v>
   <v>       0.67133986       0.07104278       0.73913760 </v>
   <v>       0.80315692       0.47703054       0.88391581 </v>
   <v>       0.76192191       0.93790928       0.85743062 </v>
   <v>       0.88304915       0.93619860       0.99339054 </v>
   <v>       0.32601915       0.99996117       0.33479760 </v>
   <v>       0.37026035       0.77259143       0.57612342 </v>
   <v>       0.49127432       0.48284088       0.25761106 </v>
   <v>       0.18744851       0.27027319       0.34373409 </v>
   <v>       0.07310250       0.73025229       0.01244770 </v>
   <v>       0.87004558       0.95197874       0.68538786 </v>
   <v>       0.93349419       0.37349032       0.76712344 </v>
   <v>       0.57187472       0.76769591       0.47720747 </v>
   <v>       0.50088032       0.20652716       0.15228873 </v>
   <v>       0.03561260       0.05459897       0.02046543 </v>
   <v>       0.49006573       0.56907322       0.06601017 </v>
   <v>       0.32811560       0.18835153       0.21320287 </v>
   <v>       0.73195130       0.55808745       0.20206370 </v>
   <v>       0.50297635       0.97314395       0.83552471 </v>
   <v>       0.45664493       0.95641019       0.52969761 </v>
   <v>       0.72004743       0.82668221       0.65732230 </v>
   <v>       0.82329951       0.15888541       0.45665406 </v>
   <v>       0.57763365       0.70264664       0.20757706 </v>
   <v>       0.25305870       0.70008615       0.91372505 </v>
   <v>       0.45503290       0.80996215       0.10404671 </v>
   <v>       0.02861043       0.84245220       0.35957959 </v>
   <v>       0.21285751       0.20204064       0.72919500 </v>
   <v>       0.98636056       0.69354369       0.50927171 </v>
   <v>       0.72658864       0.07420949       0.26508663 </v>
  </varray>
  <varray name="velocities" >
   <v>       0.00000000       0.00000000       0.00000000 </v>
   <v>       0.00000000       0.00000000       0.00000000 </v>
   <v>       0.00000000       0.00000000       0.00000000 </v>
   <v>       0.00000000       0.00000000       0.00000000 </v>
   <v>       0.00000000       0.00000000       0.00000000 </v>
   <v>       0.00000000       0.00000000       0.00000000 </v>
   <v>       0.00000000       0.00000000       0.00000000 </v>
   <v>       0.00000000       0.00000000       0.00000000 </v>
   <v>       0.00000000       0.00000000       0.00000000 </v>
   <v>       0.00000000       0.00000000       0.00000000 </v>
   <v>       0.00000000       0.00000000       0.00000000 </v>
   <v>       0.00000000       0.00000000       0.00000000 </v>
   <v>       0.00000000       0.00000000       0.00000000 </v>
   <v>       0.00000000       0.00000000       0.00000000 </v>
   <v>       0.00000000       0.00000000       0.00000000 </v>
   <v>       0.00000000       0.00000000       0.00000000 </v>
   <v>       0.00000000       0.00000000       0.00000000 </v>
   <v>       0.00000000       0.00000000       0.00000000 </v>
   <v>       0.00000000       0.00000000       0.00000000 </v>
   <v>       0.00000000       0.00000000       0.00000000 </v>
   <v>       0.00000000       0.00000000       0.00000000 </v>
   <v>       0.00000000       0.00000000       0.00000000 </v>
   <v>       0.00000000       0.00000000       0.00000000 </v>
   <v>       0.00000000       0.00000000       0.00000000 </v>
   <v>       0.00000000       0.00000000       0.00000000 </v>
   <v>       0.00000000       0.00000000       0.00000000 </v>
   <v>       0.00000000       0.00000000       0.00000000 </v>
   <v>       0.00000000       0.00000000       0.00000000 </v>
   <v>       0.00000000       0.00000000       0.00000000 </v>
   <v>       0.00000000       0.00000000       0.00000000 </v>
   <v>       0.00000000       0.00000000       0.00000000 </v>
   <v>       0.00000000       0.00000000       0.00000000 </v>
   <v>       0.00000000       0.00000000       0.00000000 </v>
   <v>       0.00000000       0.00000000       0.00000000 </v>
   <v>       0.00000000       0.00000000       0.00000000 </v>
   <v>       0.00000000       0.00000000       0.00000000 </v>
   <v>       0.00000000       0.00000000       0.00000000 </v>
   <v>       0.00000000       0.00000000       0.00000000 </v>
   <v>       0.00000000       0.00000000       0.00000000 </v>
   <v>       0.00000000       0.00000000       0.00000000 </v>
   <v>       0.00000000       0.00000000       0.00000000 </v>
   <v>       0.00000000       0.00000000       0.00000000 </v>
   <v>       0.00000000       0.00000000       0.00000000 </v>
   <v>       0.00000000       0.00000000       0.00000000 </v>
   <v>       0.00000000       0.00000000       0.00000000 </v>
   <v>       0.00000000       0.00000000       0.00000000 </v>
   <v>       0.00000000       0.00000000       0.00000000 </v>
   <v>       0.00000000       0.00000000       0.00000000 </v>
   <v>       0.00000000       0.00000000       0.00000000 </v>
   <v>       0.00000000       0.00000000       0.00000000 </v>
   <v>       0.00000000       0.00000000       0.00000000 </v>
   <v>       0.00000000       0.00000000       0.00000000 </v>
   <v>       0.00000000       0.00000000       0.00000000 </v>
   <v>       0.00000000       0.00000000       0.00000000 </v>
   <v>       0.00000000       0.00000000       0.00000000 </v>
   <v>       0.00000000       0.00000000       0.00000000 </v>
   <v>       0.00000000       0.00000000       0.00000000 </v>
   <v>       0.00000000       0.00000000       0.00000000 </v>
   <v>       0.00000000       0.00000000       0.00000000 </v>
   <v>       0.00000000       0.00000000       0.00000000 </v>
   <v>       0.00000000       0.00000000       0.00000000 </v>
   <v>       0.00000000       0.00000000       0.00000000 </v>
   <v>       0.00000000       0.00000000       0.00000000 </v>
   <v>       0.00000000       0.00000000       0.00000000 </v>
   <v>       0.00000000       0.00000000       0.00000000 </v>
   <v>       0.00000000       0.00000000       0.00000000 </v>
   <v>       0.00000000       0.00000000       0.00000000 </v>
   <v>       0.00000000       0.00000000       0.00000000 </v>
   <v>       0.00000000       0.00000000       0.00000000 </v>
   <v>       0.00000000       0.00000000       0.00000000 </v>
   <v>       0.00000000       0.00000000       0.00000000 </v>
   <v>       0.00000000       0.00000000       0.00000000 </v>
   <v>       0.00000000       0.00000000       0.00000000 </v>
   <v>       0.00000000       0.00000000       0.00000000 </v>
   <v>       0.00000000       0.00000000       0.00000000 </v>
   <v>       0.00000000       0.00000000       0.00000000 </v>
   <v>       0.00000000       0.00000000       0.00000000 </v>
   <v>       0.00000000       0.00000000       0.00000000 </v>
   <v>       0.00000000       0.00000000       0.00000000 </v>
   <v>       0.00000000       0.00000000       0.00000000 </v>
   <v>       0.00000000       0.00000000       0.00000000 </v>
   <v>       0.00000000       0.00000000       0.00000000 </v>
   <v>       0.00000000       0.00000000       0.00000000 </v>
   <v>       0.00000000       0.00000000       0.00000000 </v>
   <v>       0.00000000       0.00000000       0.00000000 </v>
   <v>       0.00000000       0.00000000       0.00000000 </v>
   <v>       0.00000000       0.00000000       0.00000000 </v>
   <v>       0.00000000       0.00000000       0.00000000 </v>
   <v>       0.00000000       0.00000000       0.00000000 </v>
   <v>       0.00000000       0.00000000       0.00000000 </v>
   <v>       0.00000000       0.00000000       0.00000000 </v>
   <v>       0.00000000       0.00000000       0.00000000 </v>
   <v>       0.00000000       0.00000000       0.00000000 </v>
   <v>       0.00000000       0.00000000       0.00000000 </v>
   <v>       0.00000000       0.00000000       0.00000000 </v>
   <v>       0.00000000       0.00000000       0.00000000 </v>
   <v>       0.00000000       0.00000000       0.00000000 </v>
   <v>       0.00000000       0.00000000       0.00000000 </v>
   <v>       0.00000000       0.00000000       0.00000000 </v>
   <v>       0.00000000       0.00000000       0.00000000 </v>
   <v>       0.00000000       0.00000000       0.00000000 </v>
   <v>       0.00000000       0.00000000       0.00000000 </v>
   <v>       0.00000000       0.00000000       0.00000000 </v>
   <v>       0.00000000       0.00000000       0.00000000 </v>
   <v>       0.00000000       0.00000000       0.00000000 </v>
   <v>       0.00000000       0.00000000       0.00000000 </v>
   <v>       0.00000000       0.00000000       0.00000000 </v>
   <v>       0.00000000       0.00000000       0.00000000 </v>
   <v>       0.00000000       0.00000000       0.00000000 </v>
   <v>       0.00000000       0.00000000       0.00000000 </v>
   <v>       0.00000000       0.00000000       0.00000000 </v>
   <v>       0.00000000       0.00000000       0.00000000 </v>
   <v>       0.00000000       0.00000000       0.00000000 </v>
   <v>       0.00000000       0.00000000       0.00000000 </v>
   <v>       0.00000000       0.00000000       0.00000000 </v>
   <v>       0.00000000       0.00000000       0.00000000 </v>
   <v>       0.00000000       0.00000000       0.00000000 </v>
   <v>       0.00000000       0.00000000       0.00000000 </v>
   <v>       0.00000000       0.00000000       0.00000000 </v>
   <v>       0.00000000       0.00000000       0.00000000 </v>
   <v>       0.00000000       0.00000000       0.00000000 </v>
   <v>       0.00000000       0.00000000       0.00000000 </v>
   <v>       0.00000000       0.00000000       0.00000000 </v>
   <v>       0.00000000       0.00000000       0.00000000 </v>
   <v>       0.00000000       0.00000000       0.00000000 </v>
   <v>       0.00000000       0.00000000       0.00000000 </v>
   <v>       0.00000000       0.00000000       0.00000000 </v>
   <v>       0.00000000       0.00000000       0.00000000 </v>
   <v>       0.00000000       0.00000000       0.00000000 </v>
   <v>       0.00000000       0.00000000       0.00000000 </v>
   <v>       0.00000000       0.00000000       0.00000000 </v>
   <v>       0.00000000       0.00000000       0.00000000 </v>
   <v>       0.00000000       0.00000000       0.00000000 </v>
   <v>       0.00000000       0.00000000       0.00000000 </v>
   <v>       0.00000000       0.00000000       0.00000000 </v>
  </varray>
 </structure>
 <calculation>
  <scstep>
   <time name="dav">   50.36   50.63</time>
   <time name="total">   50.89   51.18</time>
   <energy>
    <i name="alphaZ">   2210.34415451 </i>
    <i name="ewald"> -39612.65029676 </i>
    <i name="hartreedc"> -21863.98254731 </i>
    <i name="XCdc">   3139.53674288 </i>
    <i name="pawpsdc">  50594.51003143 </i>
    <i name="pawaedc"> -49994.65612350 </i>
    <i name="eentropy">     -0.04242845 </i>
    <i name="bandstr">   -130.15530975 </i>
    <i name="atom">  64968.54023382 </i>
    <i name="e_fr_energy">   9311.44445688 </i>
    <i name="e_wo_entrp">   9311.48688533 </i>
    <i name="e_0_energy">   9311.46567111 </i>
   </energy>
  </scstep>
  <scstep>
   <time name="dav">   68.68   69.45</time>
   <time name="total">   68.68   69.45</time>
   <energy>
    <i name="e_fr_energy">     -7.95473778 </i>
    <i name="e_wo_entrp">     -7.95473778 </i>
    <i name="e_0_energy">     -7.95473778 </i>
   </energy>
  </scstep>
  <scstep>
   <time name="dav">   57.99   59.55</time>
   <time name="total">   57.99   59.55</time>
   <energy>
    <i name="e_fr_energy">  -1025.44781849 </i>
    <i name="e_wo_entrp">  -1025.44781849 </i>
    <i name="e_0_energy">  -1025.44781849 </i>
   </energy>
  </scstep>
  <scstep>
   <time name="dav">   62.91   63.22</time>
   <time name="total">   62.91   63.22</time>
   <energy>
    <i name="e_fr_energy">  -1074.02372301 </i>
    <i name="e_wo_entrp">  -1074.02372301 </i>
    <i name="e_0_energy">  -1074.02372301 </i>
   </energy>
  </scstep>
  <scstep>
   <time name="dav">   81.65   82.09</time>
   <time name="total">   84.10   84.56</time>
   <energy>
    <i name="e_fr_energy">  -1080.32754094 </i>
    <i name="e_wo_entrp">  -1080.32754094 </i>
    <i name="e_0_energy">  -1080.32754094 </i>
   </energy>
  </scstep>
  <scstep>
   <time name="dav">   60.06   60.35</time>
   <time name="total">   63.12   63.42</time>
   <energy>
    <i name="e_fr_energy">   -920.75537069 </i>
    <i name="e_wo_entrp">   -920.75537069 </i>
    <i name="e_0_energy">   -920.75537069 </i>
   </energy>
  </scstep>
  <scstep>
   <time name="dav">   63.70   64.00</time>
   <time name="total">   66.66   67.00</time>
   <energy>
    <i name="e_fr_energy">   -922.13279097 </i>
    <i name="e_wo_entrp">   -922.12091281 </i>
    <i name="e_0_energy">   -922.12685189 </i>
   </energy>
  </scstep>
  <scstep>
   <time name="dav">   61.44   61.73</time>
   <time name="total">   64.41   64.72</time>
   <energy>
    <i name="e_fr_energy">   -920.42699120 </i>
    <i name="e_wo_entrp">   -920.42699120 </i>
    <i name="e_0_energy">   -920.42699120 </i>
   </energy>
  </scstep>
  <scstep>
   <time name="dav">   64.36   64.76</time>
   <time name="total">   67.39   67.81</time>
   <energy>
    <i name="e_fr_energy">   -919.73241222 </i>
    <i name="e_wo_entrp">   -919.71751650 </i>
    <i name="e_0_energy">   -919.72496436 </i>
   </energy>
  </scstep>
  <scstep>
   <time name="dav">   67.43   67.77</time>
   <time name="total">   70.50   70.86</time>
   <energy>
    <i name="e_fr_energy">   -919.87893864 </i>
    <i name="e_wo_entrp">   -919.86372856 </i>
    <i name="e_0_energy">   -919.87133360 </i>
   </energy>
  </scstep>
  <scstep>
   <time name="dav">   61.81   62.12</time>
   <time name="total">   64.69   65.10</time>
   <energy>
    <i name="e_fr_energy">   -919.87238079 </i>
    <i name="e_wo_entrp">   -919.87222104 </i>
    <i name="e_0_energy">   -919.87230091 </i>
   </energy>
  </scstep>
  <scstep>
   <time name="dav">   66.65   67.41</time>
   <time name="total">   69.62   70.42</time>
   <energy>
    <i name="e_fr_energy">   -919.87025034 </i>
    <i name="e_wo_entrp">   -919.85831927 </i>
    <i name="e_0_energy">   -919.86428481 </i>
   </energy>
  </scstep>
  <scstep>
   <time name="dav">   58.03   58.30</time>
   <time name="total">   61.09   61.38</time>
   <energy>
    <i name="e_fr_energy">   -919.89644498 </i>
    <i name="e_wo_entrp">   -919.88241579 </i>
    <i name="e_0_energy">   -919.88943039 </i>
   </energy>
  </scstep>
  <scstep>
   <time name="dav">   62.78   64.47</time>
   <time name="total">   65.70   67.48</time>
   <energy>
    <i name="e_fr_energy">   -919.90677121 </i>
    <i name="e_wo_entrp">   -919.89677857 </i>
    <i name="e_0_energy">   -919.90177489 </i>
   </energy>
  </scstep>
  <scstep>
   <time name="dav">   61.35   62.57</time>
   <time name="total">   64.30   65.53</time>
   <energy>
    <i name="e_fr_energy">   -919.90214922 </i>
    <i name="e_wo_entrp">   -919.89096574 </i>
    <i name="e_0_energy">   -919.89655748 </i>
   </energy>
  </scstep>
  <scstep>
   <time name="dav">   66.64   67.03</time>
   <time name="total">   69.55   69.96</time>
   <energy>
    <i name="e_fr_energy">   -919.90125746 </i>
    <i name="e_wo_entrp">   -919.88929982 </i>
    <i name="e_0_energy">   -919.89527864 </i>
   </energy>
  </scstep>
  <scstep>
   <time name="dav">   56.08   56.35</time>
   <time name="total">   59.04   59.34</time>
   <energy>
    <i name="e_fr_energy">   -919.90152848 </i>
    <i name="e_wo_entrp">   -919.88887910 </i>
    <i name="e_0_energy">   -919.89520379 </i>
   </energy>
  </scstep>
  <scstep>
   <time name="dav">   62.06   62.41</time>
   <time name="total">   65.04   65.39</time>
   <energy>
    <i name="e_fr_energy">   -919.90169566 </i>
    <i name="e_wo_entrp">   -919.88935053 </i>
    <i name="e_0_energy">   -919.89552310 </i>
   </energy>
  </scstep>
  <scstep>
   <time name="dav">   62.41   62.85</time>
   <time name="total">   65.41   65.87</time>
   <energy>
    <i name="e_fr_energy">   -919.90146144 </i>
    <i name="e_wo_entrp">   -919.88888410 </i>
    <i name="e_0_energy">   -919.89517277 </i>
   </energy>
  </scstep>
  <scstep>
   <time name="dav">   58.29   59.86</time>
   <time name="total">   61.18   62.84</time>
   <energy>
    <i name="e_fr_energy">   -919.90145845 </i>
    <i name="e_wo_entrp">   -919.88907804 </i>
    <i name="e_0_energy">   -919.89526824 </i>
   </energy>
  </scstep>
  <scstep>
   <time name="dav">   63.99   64.31</time>
   <time name="total">   66.99   67.33</time>
   <energy>
    <i name="e_fr_energy">   -919.90145333 </i>
    <i name="e_wo_entrp">   -919.88897489 </i>
    <i name="e_0_energy">   -919.89521411 </i>
   </energy>
  </scstep>
  <scstep>
   <time name="dav">   53.17   53.43</time>
   <time name="total">   56.24   56.53</time>
   <energy>
    <i name="e_fr_energy">   -919.90145498 </i>
    <i name="e_wo_entrp">   -919.88895148 </i>
    <i name="e_0_energy">   -919.89520323 </i>
   </energy>
  </scstep>
  <scstep>
   <time name="dav">   43.84   44.09</time>
   <time name="total">   44.36   44.62</time>
   <energy>
    <i name="alphaZ">   2210.34415451 </i>
    <i name="ewald"> -39612.65029676 </i>
    <i name="hartreedc"> -23640.46603971 </i>
    <i name="XCdc">   3245.93544497 </i>
    <i name="pawpsdc">  89598.96200892 </i>
    <i name="pawaedc"> -89263.72174753 </i>
    <i name="eentropy">     -0.01251269 </i>
    <i name="bandstr">  -8426.83270076 </i>
    <i name="atom">  64968.54023382 </i>
    <i name="e_fr_energy">   -919.90145523 </i>
    <i name="e_wo_entrp">   -919.88894254 </i>
    <i name="e_0_energy">   -919.89519888 </i>
   </energy>
  </scstep>
  <structure>
   <crystal>
    <varray name="basis" >
     <v>      12.93041299       0.00000000       0.00000000 </v>
     <v>       0.00000000      12.93041299       0.00000000 </v>
     <v>       0.00000000       0.00000000      12.93041299 </v>
    </varray>
    <i name="volume">   2161.90790069 </i>
    <varray name="rec_basis" >
     <v>       0.07733705       0.00000000       0.00000000 </v>
     <v>       0.00000000       0.07733705       0.00000000 </v>
     <v>       0.00000000       0.00000000       0.07733705 </v>
    </varray>
   </crystal>
   <varray name="positions" >
    <v>       0.68948584       0.33156551       0.80741909 </v>
    <v>       0.58914467       0.12094850       0.58543914 </v>
    <v>       0.82945588       0.41006041       0.05648769 </v>
    <v>       0.09044723       0.72030166       0.82942913 </v>
    <v>       0.60244967       0.25606307       0.33036556 </v>
    <v>       0.15332598       0.57561812       0.24490305 </v>
    <v>       0.71506679       0.90944226       0.00885958 </v>
    <v>       0.89794117       0.05576508       0.89838251 </v>
    <v>       0.11008561       0.55910550       0.52327363 </v>
    <v>       0.81835168       0.59286126       0.33554174 </v>
    <v>       0.57304933       0.64345902       0.86568707 </v>
    <v>       0.17299798       0.47332437       0.69968568 </v>
    <v>       0.39122465       0.93282604       0.97690083 </v>
    <v>       0.47743103       0.42781824       0.09659903 </v>
    <v>       0.26726538       0.04785464       0.55093097 </v>
    <v>       0.37774816       0.85402535       0.73055065 </v>
    <v>       0.15166037       0.52067324       0.98579612 </v>
    <v>       0.94925068       0.22174590       0.34770096 </v>
    <v>       0.99654054       0.77534172       0.13725551 </v>
    <v>       0.66808945       0.92439839       0.30720158 </v>
    <v>       0.31518960       0.85531930       0.21583259 </v>
    <v>       0.91030000       0.02135158       0.50445061 </v>
    <v>       0.09688259       0.22776313       0.58726374 </v>
    <v>       0.33071766       0.24083154       0.87203269 </v>
    <v>       0.86185247       0.74937418       0.66667069 </v>
    <v>       0.51700192       0.63157680       0.37825299 </v>
    <v>       0.19232203       0.04470293       0.11013755 </v>
    <v>       0.12960592       0.16842173       0.82753413 </v>
    <v>       0.23397953       0.30075853       0.21808881 </v>
    <v>       0.92970006       0.00404774       0.09458085 </v>
    <v>       0.02293947       0.71901685       0.39218758 </v>
    <v>       0.11101605       0.95215949       0.67893080 </v>
    <v>       0.67310655       0.80452693       0.54565864 </v>
    <v>       0.02143807       0.95768181       0.29794148 </v>
    <v>       0.38507005       0.45727941       0.31829537 </v>
    <v>       0.39578377       0.16321744       0.11584329 </v>
    <v>       0.32304498       0.61646521       0.82979615 </v>
    <v>       0.19414994       0.75041005       0.00907502 </v>
    <v>       0.71693783       0.67613206       0.13470066 </v>
    <v>       0.43171073       0.03298158       0.41062096 </v>
    <v>       0.26093662       0.31654374       0.43941942 </v>
    <v>       0.45586257       0.82610586       0.49108548 </v>
    <v>       0.59683127       0.23365553       0.02560032 </v>
    <v>       0.55397585       0.08803096       0.81288877 </v>
    <v>       0.71957688       0.54456136       0.61905333 </v>
    <v>       0.85205541       0.27245176       0.52754959 </v>
    <v>       0.77187055       0.13309936       0.17920201 </v>
    <v>       0.51699984       0.68429261       0.10327214 </v>
    <v>       0.01454826       0.35440352       0.87085309 </v>
    <v>       0.93064095       0.51040247       0.75561967 </v>
    <v>       0.83909573       0.60604823       0.91957881 </v>
    <v>       0.75452644       0.96391499       0.73959415 </v>
    <v>       0.67730138       0.37492786       0.51013096 </v>
    <v>       0.05542269       0.35203328       0.11237475 </v>
    <v>       0.34137253       0.50629233       0.88644842 </v>
    <v>       0.78242884       0.34824703       0.46758227 </v>
    <v>       0.83036425       0.23910138       0.24282267 </v>
    <v>       0.02213968       0.22348018       0.83884984 </v>
    <v>       0.51070223       0.18469347       0.73956111 </v>
    <v>       0.16830174       0.14723184       0.93243315 </v>
    <v>       0.81489453       0.65905915       0.03204884 </v>
    <v>       0.43535259       0.64089904       0.79156841 </v>
    <v>       0.26687457       0.20975631       0.50181071 </v>
    <v>       0.00265158       0.44723773       0.19213083 </v>
    <v>       0.02832734       0.55102135       0.67992665 </v>
    <v>       0.12671171       0.66432528       0.37986560 </v>
    <v>       0.64187698       0.72523089       0.03862522 </v>
    <v>       0.23827983       0.93489184       0.68452929 </v>
    <v>       0.68502081       0.52349716       0.73480509 </v>
    <v>       0.59645242       0.35002668       0.99516293 </v>
    <v>       0.14470322       0.97080100       0.25067039 </v>
    <v>       0.67258246       0.51375154       0.46973348 </v>
    <v>       0.33926609       0.54832965       0.40358291 </v>
    <v>       0.37496026       0.03206455       0.11747103 </v>
    <v>       0.22252177       0.87036411       0.01310624 </v>
    <v>       0.10304093       0.03295520       0.78427926 </v>
    <v>       0.77093173       0.68960995       0.82419336 </v>
    <v>       0.83690931       0.10392264       0.07258031 </v>
    <v>       0.11936545       0.40277707       0.87329104 </v>
    <v>       0.08745011       0.03249754       0.57797004 </v>
    <v>       0.99118151       0.06853032       0.35080393 </v>
    <v>       0.70037769       0.19905469       0.08082606 </v>
    <v>       0.23284072       0.66575213       0.08568184 </v>
    <v>       0.59110847       0.29487085       0.48900505 </v>
    <v>       0.11070078       0.25337294       0.15832701 </v>
    <v>       0.05599972       0.83938814       0.68508152 </v>
    <v>       0.45985846       0.82065280       0.35328571 </v>
    <v>       0.24035554       0.59108113       0.72761447 </v>
    <v>       0.18260675       0.39024548       0.07054118 </v>
    <v>       0.18484320       0.38350953       0.52513033 </v>
    <v>       0.84002419       0.54179510       0.67909475 </v>
    <v>       0.39508979       0.27022432       0.02142771 </v>
    <v>       0.97311512       0.59128637       0.86357575 </v>
    <v>       0.95765083       0.65359485       0.28722395 </v>
    <v>       0.81712221       0.24911472       0.65840357 </v>
    <v>       0.27787296       0.42470692       0.22426962 </v>
    <v>       0.38724049       0.35983307       0.42415522 </v>
    <v>       0.56801913       0.14405660       0.92574777 </v>
    <v>       0.46715316       0.14437161       0.44305491 </v>
    <v>       0.74803773       0.86833542       0.46535849 </v>
    <v>       0.96328059       0.33018278       0.00547397 </v>
    <v>       0.65773085       0.41557565       0.61864545 </v>
    <v>       0.54449652       0.00423811       0.36417554 </v>
    <v>       0.93627575       0.93382869       0.20439975 </v>
    <v>       0.76558974       0.80869087       0.17646802 </v>
    <v>       0.73885091       0.66576359       0.54279422 </v>
    <v>       0.97135615       0.29907004       0.50314270 </v>
    <v>       0.67133986       0.07104278       0.73913760 </v>
    <v>       0.80315692       0.47703054       0.88391581 </v>
    <v>       0.76192191       0.93790928       0.85743062 </v>
    <v>       0.88304915       0.93619860       0.99339054 </v>
    <v>       0.32601915       0.99996117       0.33479760 </v>
    <v>       0.37026035       0.77259143       0.57612342 </v>
    <v>       0.49127432       0.48284088       0.25761106 </v>
    <v>       0.18744851       0.27027319       0.34373409 </v>
    <v>       0.07310250       0.73025229       0.01244770 </v>
    <v>       0.87004558       0.95197874       0.68538786 </v>
    <v>       0.93349419       0.37349032       0.76712344 </v>
    <v>       0.57187472       0.76769591       0.47720747 </v>
    <v>       0.50088032       0.20652716       0.15228873 </v>
    <v>       0.03561260       0.05459897       0.02046543 </v>
    <v>       0.49006573       0.56907322       0.06601017 </v>
    <v>       0.32811560       0.18835153       0.21320287 </v>
    <v>       0.73195130       0.55808745       0.20206370 </v>
    <v>       0.50297635       0.97314395       0.83552471 </v>
    <v>       0.45664493       0.95641019       0.52969761 </v>
    <v>       0.72004743       0.82668221       0.65732230 </v>
    <v>       0.82329951       0.15888541       0.45665406 </v>
    <v>       0.57763365       0.70264664       0.20757706 </v>
    <v>       0.25305870       0.70008615       0.91372505 </v>
    <v>       0.45503290       0.80996215       0.10404671 </v>
    <v>       0.02861043       0.84245220       0.35957959 </v>
    <v>       0.21285751       0.20204064       0.72919500 </v>
    <v>       0.98636056       0.69354369       0.50927171 </v>
    <v>       0.72658864       0.07420949       0.26508663 </v>
   </varray>
  </structure>
  <varray name="forces" >
   <v>       0.36577904       2.04478540      -2.67910080 </v>
   <v>      -1.01180291       1.56219450      -2.14999381 </v>
   <v>      -1.53331731       0.68863032       1.60218205 </v>
   <v>      -0.81828522       0.80095259      -2.90902619 </v>
   <v>      -1.07503628      -1.90473887       0.03385960 </v>
   <v>       0.31567762      -0.86545940      -0.43099664 </v>
   <v>      -0.01954263      -2.01322151       1.30046073 </v>
   <v>       2.10817572       1.80512042      -2.86282946 </v>
   <v>      -0.15922218       1.05054227      -1.02702150 </v>
   <v>      -1.24311805      -0.58393151       2.11537891 </v>
   <v>       3.24806550      -1.14841609      -0.17665989 </v>
   <v>      -1.02628061      -7.47682674       0.20283472 </v>
   <v>       0.27112009      -0.67723070       1.17256147 </v>
   <v>      -1.47191998      -4.00249404      -0.04524439 </v>
   <v>      -0.07455256       0.41798610      -0.61385016 </v>
   <v>      -0.39902240      -0.47935279      -2.12315262 </v>
   <v>       1.81304550       1.29122866      -0.35224446 </v>
   <v>       1.10346776       1.25264226      -0.71899155 </v>
   <v>      -3.25575178       0.14120068       2.32837952 </v>
   <v>      -0.04893819      -2.03978196       0.45223541 </v>
   <v>       1.57196169       0.90232421       2.08892714 </v>
   <v>      -0.30468845      -0.82567566       1.01626706 </v>
   <v>       1.58382221      -0.28539168       0.21218757 </v>
   <v>      -0.37917504       0.56743172      -0.94535349 </v>
   <v>       1.91485464      -1.05038562      -0.33125539 </v>
   <v>      -0.05888471      -0.11085287      -0.68712362 </v>
   <v>      -1.52926210       1.09787687      -1.02013510 </v>
   <v>       0.79408382      -5.05967039      -7.51965828 </v>
   <v>      -1.64612581      -2.66603053       0.77886384 </v>
   <v>       2.36606752       1.11258755      -4.44261565 </v>
   <v>      -4.27991003       0.77828210      -0.11975273 </v>
   <v>       0.14804324       1.50874190       1.65919937 </v>
   <v>       4.47047987      -3.03493985      -3.61047086 </v>
   <v>       4.72899157       0.86069540       0.43009571 </v>
   <v>      -2.53567574       0.33197602       5.01370627 </v>
   <v>      -0.72184440      -0.22586120      -2.60132605 </v>
   <v>      -1.53986359      -3.90281054      -0.41109474 </v>
   <v>       1.76394826       1.57515740       2.43891109 </v>
   <v>       0.62098074       2.70545775       1.74524128 </v>
   <v>       1.03782850      -2.06954566      -4.12220622 </v>
   <v>       0.92257376      -0.90130145       3.75660326 </v>
   <v>      -3.24372325       0.61445940      -2.48627722 </v>
   <v>      -3.17390559      -3.33684611       1.34558340 </v>
   <v>       0.21885646       0.58525023      -1.55802050 </v>
   <v>      -0.74710119      -0.09423455      -1.43953323 </v>
   <v>       0.52962450      -6.40988019       5.48359437 </v>
   <v>       3.07237443       8.67509931      -3.24875588 </v>
   <v>       0.30591230       4.74053776      -0.35594834 </v>
   <v>      -5.22170352      -6.34763423      -0.65754943 </v>
   <v>       0.63276618      -0.55179864      -1.80888708 </v>
   <v>      -3.05031631       1.77695517      -4.92664151 </v>
   <v>       1.31046296      -1.37613338      -2.37389938 </v>
   <v>      -4.77318938       5.10212075      -0.89561165 </v>
   <v>       0.90782430       3.41565414      -0.83033730 </v>
   <v>      -1.83040842      -0.18081486       0.94460009 </v>
   <v>       2.92861216       1.89332073      -3.97762608 </v>
   <v>      -2.12392122      -1.09584022      -3.28758976 </v>
   <v>      -2.84902467       2.53437441       0.00778661 </v>
   <v>      -0.03443750      -1.69947812       0.89403129 </v>
   <v>       5.61023141       0.16641324       5.90189771 </v>
   <v>       1.64749503      -1.73035562       0.43815221 </v>
   <v>       0.26553062       3.73857962      -1.04664770 </v>
   <v>      -0.67656593      -1.33198495       1.27942962 </v>
   <v>       1.00291986      -2.20087255      -2.62781924 </v>
   <v>       0.03044091      -0.47389522       1.02847849 </v>
   <v>       4.75732883      -1.90974020      -0.40339590 </v>
   <v>      -2.71305165      -1.38442867      -1.72351001 </v>
   <v>       1.01094850      -0.27003692      -0.15182439 </v>
   <v>      -4.57815116       2.82858009       4.68127112 </v>
   <v>       1.22580217       1.19576419      -1.36701202 </v>
   <v>      -2.76105464      -1.50404826      -0.31780705 </v>
   <v>       0.38565199      -1.78142777      -0.30419908 </v>
   <v>       1.16434475      -0.45730329      -3.55388562 </v>
   <v>       0.37509101       1.72103171      -2.57834117 </v>
   <v>       0.99374547       1.25513834       0.74558957 </v>
   <v>      -1.58906148       1.13696877       0.12567698 </v>
   <v>       2.60138327      -1.70141122       3.12594886 </v>
   <v>       2.42556315      -3.18678604       2.05242870 </v>
   <v>       3.36503642       2.21203532      -1.11228105 </v>
   <v>      -0.22693408      -0.41911635       0.04931925 </v>
   <v>       0.13528477      -3.49322444       0.13221392 </v>
   <v>      -0.69620423       0.38777796       1.08439354 </v>
   <v>       0.37624237      -1.95049890       4.96997194 </v>
   <v>      -0.76686385      -2.25333310      -1.39550925 </v>
   <v>       1.21052195      -2.64144761       2.77268613 </v>
   <v>      -0.31646194      -0.48749888       1.27376966 </v>
   <v>      -2.60845560      -1.28258354       2.37968030 </v>
   <v>       3.16170305       7.00361142       3.04787941 </v>
   <v>      -2.44858637      -0.12301232       0.90176634 </v>
   <v>       0.04291277       1.52692759      -0.68987927 </v>
   <v>       1.21161781       0.56387377      -2.62332997 </v>
   <v>      -1.14708098      -2.81036205       0.59776406 </v>
   <v>      -2.63598492      -0.87305550       0.64664089 </v>
   <v>       2.01366399       2.20062943       0.39910994 </v>
   <v>       0.01576812       0.56627534      -2.94229636 </v>
   <v>       2.31319097      -0.65234603       1.87398985 </v>
   <v>      -2.04539015       0.60798697      -3.78496957 </v>
   <v>       1.24157196       1.26941451       2.60194519 </v>
   <v>      -0.63850534       2.21613459       1.95440061 </v>
   <v>      -0.77619747       0.46350453       0.26180338 </v>
   <v>       2.56881302       1.00885474      -0.64226426 </v>
   <v>       0.78756398      -0.66111410       3.42140348 </v>
   <v>       0.79248163      -0.52897187      -1.16577804 </v>
   <v>      -0.38419855       1.04761079      -1.56474748 </v>
   <v>      -0.65163905      -3.08438065      -0.74385413 </v>
   <v>      -0.53174750       1.13318385       2.40627743 </v>
   <v>      -0.04164113       0.31268915      -0.00916443 </v>
   <v>      -0.10080061      -1.72137736       0.13854264 </v>
   <v>       1.42376715       1.85832313       2.96063514 </v>
   <v>      -1.04945827       0.31794412      -0.07043734 </v>
   <v>       0.41447314      -2.57414056       4.20406417 </v>
   <v>       2.22568931       0.41594275       3.19734822 </v>
   <v>       2.84820388       1.23046848      -1.43022730 </v>
   <v>      -0.67755725      -1.08738202       1.09214417 </v>
   <v>       0.88202100       2.38599325      -3.47290823 </v>
   <v>      -1.20407445      -0.67487132      -3.39711125 </v>
   <v>      -2.10532002       1.63467170       0.23814282 </v>
   <v>       1.53971928       3.14853390       2.29366657 </v>
   <v>       0.56441193       0.51033227       3.53645808 </v>
   <v>       7.41962291       1.04834407      -0.15020335 </v>
   <v>      -2.93025159      -1.67452359       4.00729619 </v>
   <v>       0.30444142       5.48077356      -1.97987652 </v>
   <v>      -5.72846071       4.33765466       1.50090818 </v>
   <v>       0.00649599       2.11125230      -2.77707907 </v>
   <v>      -0.67095557       0.46239693      -0.18569612 </v>
   <v>      -0.79441512      -0.77364470       0.28276606 </v>
   <v>      -3.27982526       3.23242746       3.05362248 </v>
   <v>       0.73067984       1.31647215       1.84701486 </v>
   <v>       1.76467961      -1.79392683       2.73079030 </v>
   <v>       1.21901621      -0.79603123      -5.59838647 </v>
   <v>      -0.56480861      -2.21482309      -2.04824990 </v>
   <v>      -0.95642918       1.56188692      -0.42655579 </v>
   <v>      -1.44913096       0.90328418       2.18262745 </v>
   <v>      -0.78105170      -0.12273691      -0.81352493 </v>
   <v>      -2.42520550      -3.31000074       2.40214660 </v>
  </varray>
  <varray name="stress" >
   <v>      14.01289067     -11.61518704      17.64583970 </v>
   <v>     -11.61518701     -32.27597411       0.39024671 </v>
   <v>      17.64583971       0.39024667     -15.36720367 </v>
  </varray>
  <energy>
   <i name="e_fr_energy">   -919.90145523 </i>
   <i name="e_wo_entrp">   -919.89519888 </i>
   <i name="e_0_energy">     -0.01251269 </i>
  </energy>
  <time name="totalsc"> 1530.28 1544.29</time>
  <eigenvalues>
   <array>
    <dimension dim="1">band</dimension>
    <dimension dim="2">kpoint</dimension>
    <dimension dim="3">spin</dimension>
    <field>eigene</field>
    <field>occ</field>
    <set>
     <set comment="spin 1">
      <set comment="kpoint 1">
       <r>  -39.2755    1.0000 </r>
       <r>  -39.1634    1.0000 </r>
       <r>  -38.7145    1.0000 </r>
       <r>  -38.6578    1.0000 </r>
[...]
       <r>     2.2800     4.0319   854.4559 </r>
       <r>     2.4514    23.3719   858.4632 </r>
       <r>     2.6229     8.9628   860.0000 </r>
       <r>     2.7943     0.0000   860.0000 </r>
       <r>     2.9658     0.0000   860.0000 </r>
       <r>     3.1373     0.0000   860.0000 </r>
       <r>     3.3087     5.2515   860.9004 </r>
       <r>     3.4802    19.5674   864.2554 </r>
       <r>     3.6516     3.7249   864.8941 </r>
       <r>     3.8231     7.3873   866.1607 </r>
       <r>     3.9946     7.5691   867.4585 </r>
       <r>     4.1660     3.1409   867.9970 </r>
       <r>     4.3375     9.0601   869.5505 </r>
       <r>     4.5089    16.6140   872.3991 </r>
       <r>     4.6804    18.5445   875.5787 </r>
       <r>     4.8519    18.0386   878.6716 </r>
       <r>     5.0233    14.1735   881.1018 </r>
       <r>     5.1948    29.8873   886.2262 </r>
       <r>     5.3662    30.0475   891.3781 </r>
       <r>     5.5377    30.6790   896.6383 </r>
       <r>     5.7092    41.7805   903.8020 </r>
       <r>     5.8806    54.3568   913.1219 </r>
       <r>     6.0521    61.7593   923.7111 </r>
       <r>     6.2235    70.0549   935.7227 </r>
       <r>     6.3950    64.8034   946.8338 </r>
       <r>     6.5664    78.9618   960.3725 </r>
       <r>     6.7379    78.0377   973.7528 </r>
       <r>     6.9094    88.5004   988.9270 </r>
       <r>     7.0808    96.0266  1005.3916 </r>
       <r>     7.2523    99.7297  1022.4911 </r>
       <r>     7.4237    80.3056  1036.2603 </r>
       <r>     7.5952    21.8055  1039.9990 </r>
       <r>     7.7667     0.0057  1040.0000 </r>
       <r>     7.9381     0.0000  1040.0000 </r>
       <r>     8.1096     0.0000  1040.0000 </r>
       <r>     8.2810     0.0000  1040.0000 </r>
       <r>     8.4525     0.0000  1040.0000 </r>
       <r>     8.6240     0.0000  1040.0000 </r>
       <r>     8.7954     0.0000  1040.0000 </r>
       <r>     8.9669     0.0000  1040.0000 </r>
       <r>     9.1383     0.0000  1040.0000 </r>
       <r>     9.3098     0.0000  1040.0000 </r>
       <r>     9.4812     0.0000  1040.0000 </r>
       <r>     9.6527     0.0000  1040.0000 </r>
       <r>     9.8242     0.0000  1040.0000 </r>
      </set>
     </set>
    </array>
   </total>
  </dos>
 </calculation>
 <structure name="finalpos" >
  <crystal>
   <varray name="basis" >
    <v>      12.93041299       0.00000000       0.00000000 </v>
    <v>       0.00000000      12.93041299       0.00000000 </v>
    <v>       0.00000000       0.00000000      12.93041299 </v>
   </varray>
   <i name="volume">   2161.90790069 </i>
   <varray name="rec_basis" >
    <v>       0.07733705       0.00000000       0.00000000 </v>
    <v>       0.00000000       0.07733705       0.00000000 </v>
    <v>       0.00000000       0.00000000       0.07733705 </v>
   </varray>
  </crystal>
  <varray name="positions" >
   <v>       0.68948584       0.33156551       0.80741909 </v>
   <v>       0.58914467       0.12094850       0.58543914 </v>
   <v>       0.82945588       0.41006041       0.05648769 </v>
   <v>       0.09044723       0.72030166       0.82942913 </v>
   <v>       0.60244967       0.25606307       0.33036556 </v>
   <v>       0.15332598       0.57561812       0.24490305 </v>
   <v>       0.71506679       0.90944226       0.00885958 </v>
   <v>       0.89794117       0.05576508       0.89838251 </v>
   <v>       0.11008561       0.55910550       0.52327363 </v>
   <v>       0.81835168       0.59286126       0.33554174 </v>
   <v>       0.57304933       0.64345902       0.86568707 </v>
   <v>       0.17299798       0.47332437       0.69968568 </v>
   <v>       0.39122465       0.93282604       0.97690083 </v>
   <v>       0.47743103       0.42781824       0.09659903 </v>
   <v>       0.26726538       0.04785464       0.55093097 </v>
   <v>       0.37774816       0.85402535       0.73055065 </v>
   <v>       0.15166037       0.52067324       0.98579612 </v>
   <v>       0.94925068       0.22174590       0.34770096 </v>
   <v>       0.99654054       0.77534172       0.13725551 </v>
   <v>       0.66808945       0.92439839       0.30720158 </v>
   <v>       0.31518960       0.85531930       0.21583259 </v>
   <v>       0.91030000       0.02135158       0.50445061 </v>
   <v>       0.09688259       0.22776313       0.58726374 </v>
   <v>       0.33071766       0.24083154       0.87203269 </v>
   <v>       0.86185247       0.74937418       0.66667069 </v>
   <v>       0.51700192       0.63157680       0.37825299 </v>
   <v>       0.19232203       0.04470293       0.11013755 </v>
   <v>       0.12960592       0.16842173       0.82753413 </v>
   <v>       0.23397953       0.30075853       0.21808881 </v>
   <v>       0.92970006       0.00404774       0.09458085 </v>
   <v>       0.02293947       0.71901685       0.39218758 </v>
   <v>       0.11101605       0.95215949       0.67893080 </v>
   <v>       0.67310655       0.80452693       0.54565864 </v>
   <v>       0.02143807       0.95768181       0.29794148 </v>
   <v>       0.38507005       0.45727941       0.31829537 </v>
   <v>       0.39578377       0.16321744       0.11584329 </v>
   <v>       0.32304498       0.61646521       0.82979615 </v>
   <v>       0.19414994       0.75041005       0.00907502 </v>
   <v>       0.71693783       0.67613206       0.13470066 </v>
   <v>       0.43171073       0.03298158       0.41062096 </v>
   <v>       0.26093662       0.31654374       0.43941942 </v>
   <v>       0.45586257       0.82610586       0.49108548 </v>
   <v>       0.59683127       0.23365553       0.02560032 </v>
   <v>       0.55397585       0.08803096       0.81288877 </v>
   <v>       0.71957688       0.54456136       0.61905333 </v>
   <v>       0.85205541       0.27245176       0.52754959 </v>
   <v>       0.77187055       0.13309936       0.17920201 </v>
   <v>       0.51699984       0.68429261       0.10327214 </v>
   <v>       0.01454826       0.35440352       0.87085309 </v>
   <v>       0.93064095       0.51040247       0.75561967 </v>
   <v>       0.83909573       0.60604823       0.91957881 </v>
   <v>       0.75452644       0.96391499       0.73959415 </v>
   <v>       0.67730138       0.37492786       0.51013096 </v>
   <v>       0.05542269       0.35203328       0.11237475 </v>
   <v>       0.34137253       0.50629233       0.88644842 </v>
   <v>       0.78242884       0.34824703       0.46758227 </v>
   <v>       0.83036425       0.23910138       0.24282267 </v>
   <v>       0.02213968       0.22348018       0.83884984 </v>
   <v>       0.51070223       0.18469347       0.73956111 </v>
   <v>       0.16830174       0.14723184       0.93243315 </v>
   <v>       0.81489453       0.65905915       0.03204884 </v>
   <v>       0.43535259       0.64089904       0.79156841 </v>
   <v>       0.26687457       0.20975631       0.50181071 </v>
   <v>       0.00265158       0.44723773       0.19213083 </v>
   <v>       0.02832734       0.55102135       0.67992665 </v>
   <v>       0.12671171       0.66432528       0.37986560 </v>
   <v>       0.64187698       0.72523089       0.03862522 </v>
   <v>       0.23827983       0.93489184       0.68452929 </v>
   <v>       0.68502081       0.52349716       0.73480509 </v>
   <v>       0.59645242       0.35002668       0.99516293 </v>
   <v>       0.14470322       0.97080100       0.25067039 </v>
   <v>       0.67258246       0.51375154       0.46973348 </v>
   <v>       0.33926609       0.54832965       0.40358291 </v>
   <v>       0.37496026       0.03206455       0.11747103 </v>
   <v>       0.22252177       0.87036411       0.01310624 </v>
   <v>       0.10304093       0.03295520       0.78427926 </v>
   <v>       0.77093173       0.68960995       0.82419336 </v>
   <v>       0.83690931       0.10392264       0.07258031 </v>
   <v>       0.11936545       0.40277707       0.87329104 </v>
   <v>       0.08745011       0.03249754       0.57797004 </v>
   <v>       0.99118151       0.06853032       0.35080393 </v>
   <v>       0.70037769       0.19905469       0.08082606 </v>
   <v>       0.23284072       0.66575213       0.08568184 </v>
   <v>       0.59110847       0.29487085       0.48900505 </v>
   <v>       0.11070078       0.25337294       0.15832701 </v>
   <v>       0.05599972       0.83938814       0.68508152 </v>
   <v>       0.45985846       0.82065280       0.35328571 </v>
   <v>       0.24035554       0.59108113       0.72761447 </v>
   <v>       0.18260675       0.39024548       0.07054118 </v>
   <v>       0.18484320       0.38350953       0.52513033 </v>
   <v>       0.84002419       0.54179510       0.67909475 </v>
   <v>       0.39508979       0.27022432       0.02142771 </v>
   <v>       0.97311512       0.59128637       0.86357575 </v>
   <v>       0.95765083       0.65359485       0.28722395 </v>
   <v>       0.81712221       0.24911472       0.65840357 </v>
   <v>       0.27787296       0.42470692       0.22426962 </v>
   <v>       0.38724049       0.35983307       0.42415522 </v>
   <v>       0.56801913       0.14405660       0.92574777 </v>
   <v>       0.46715316       0.14437161       0.44305491 </v>
   <v>       0.74803773       0.86833542       0.46535849 </v>
   <v>       0.96328059       0.33018278       0.00547397 </v>
   <v>       0.65773085       0.41557565       0.61864545 </v>
   <v>       0.54449652       0.00423811       0.36417554 </v>
   <v>       0.93627575       0.93382869       0.20439975 </v>
   <v>       0.76558974       0.80869087       0.17646802 </v>
   <v>       0.73885091       0.66576359       0.54279422 </v>
   <v>       0.97135615       0.29907004       0.50314270 </v>
   <v>       0.67133986       0.07104278       0.73913760 </v>
   <v>       0.80315692       0.47703054       0.88391581 </v>
   <v>       0.76192191       0.93790928       0.85743062 </v>
   <v>       0.88304915       0.93619860       0.99339054 </v>
   <v>       0.32601915       0.99996117       0.33479760 </v>
   <v>       0.37026035       0.77259143       0.57612342 </v>
   <v>       0.49127432       0.48284088       0.25761106 </v>
   <v>       0.18744851       0.27027319       0.34373409 </v>
   <v>       0.07310250       0.73025229       0.01244770 </v>
   <v>       0.87004558       0.95197874       0.68538786 </v>
   <v>       0.93349419       0.37349032       0.76712344 </v>
   <v>       0.57187472       0.76769591       0.47720747 </v>
   <v>       0.50088032       0.20652716       0.15228873 </v>
   <v>       0.03561260       0.05459897       0.02046543 </v>
   <v>       0.49006573       0.56907322       0.06601017 </v>
   <v>       0.32811560       0.18835153       0.21320287 </v>
   <v>       0.73195130       0.55808745       0.20206370 </v>
   <v>       0.50297635       0.97314395       0.83552471 </v>
   <v>       0.45664493       0.95641019       0.52969761 </v>
   <v>       0.72004743       0.82668221       0.65732230 </v>
   <v>       0.82329951       0.15888541       0.45665406 </v>
   <v>       0.57763365       0.70264664       0.20757706 </v>
   <v>       0.25305870       0.70008615       0.91372505 </v>
   <v>       0.45503290       0.80996215       0.10404671 </v>
   <v>       0.02861043       0.84245220       0.35957959 </v>
   <v>       0.21285751       0.20204064       0.72919500 </v>
   <v>       0.98636056       0.69354369       0.50927171 </v>
   <v>       0.72658864       0.07420949       0.26508663 </v>
  </varray>
  <varray name="velocities" >
   <v>       0.00000000       0.00000000       0.00000000 </v>
   <v>       0.00000000       0.00000000       0.00000000 </v>
   <v>       0.00000000       0.00000000       0.00000000 </v>
   <v>       0.00000000       0.00000000       0.00000000 </v>
   <v>       0.00000000       0.00000000       0.00000000 </v>
   <v>       0.00000000       0.00000000       0.00000000 </v>
   <v>       0.00000000       0.00000000       0.00000000 </v>
   <v>       0.00000000       0.00000000       0.00000000 </v>
   <v>       0.00000000       0.00000000       0.00000000 </v>
   <v>       0.00000000       0.00000000       0.00000000 </v>
   <v>       0.00000000       0.00000000       0.00000000 </v>
   <v>       0.00000000       0.00000000       0.00000000 </v>
   <v>       0.00000000       0.00000000       0.00000000 </v>
   <v>       0.00000000       0.00000000       0.00000000 </v>
   <v>       0.00000000       0.00000000       0.00000000 </v>
   <v>       0.00000000       0.00000000       0.00000000 </v>
   <v>       0.00000000       0.00000000       0.00000000 </v>
   <v>       0.00000000       0.00000000       0.00000000 </v>
   <v>       0.00000000       0.00000000       0.00000000 </v>
   <v>       0.00000000       0.00000000       0.00000000 </v>
   <v>       0.00000000       0.00000000       0.00000000 </v>
   <v>       0.00000000       0.00000000       0.00000000 </v>
   <v>       0.00000000       0.00000000       0.00000000 </v>
   <v>       0.00000000       0.00000000       0.00000000 </v>
   <v>       0.00000000       0.00000000       0.00000000 </v>
   <v>       0.00000000       0.00000000       0.00000000 </v>
   <v>       0.00000000       0.00000000       0.00000000 </v>
   <v>       0.00000000       0.00000000       0.00000000 </v>
   <v>       0.00000000       0.00000000       0.00000000 </v>
   <v>       0.00000000       0.00000000       0.00000000 </v>
   <v>       0.00000000       0.00000000       0.00000000 </v>
   <v>       0.00000000       0.00000000       0.00000000 </v>
   <v>       0.00000000       0.00000000       0.00000000 </v>
   <v>       0.00000000       0.00000000       0.00000000 </v>
   <v>       0.00000000       0.00000000       0.00000000 </v>
   <v>       0.00000000       0.00000000       0.00000000 </v>
   <v>       0.00000000       0.00000000       0.00000000 </v>
   <v>       0.00000000       0.00000000       0.00000000 </v>
   <v>       0.00000000       0.00000000       0.00000000 </v>
   <v>       0.00000000       0.00000000       0.00000000 </v>
   <v>       0.00000000       0.00000000       0.00000000 </v>
   <v>       0.00000000       0.00000000       0.00000000 </v>
   <v>       0.00000000       0.00000000       0.00000000 </v>
   <v>       0.00000000       0.00000000       0.00000000 </v>
   <v>       0.00000000       0.00000000       0.00000000 </v>
   <v>       0.00000000       0.00000000       0.00000000 </v>
   <v>       0.00000000       0.00000000       0.00000000 </v>
   <v>       0.00000000       0.00000000       0.00000000 </v>
   <v>       0.00000000       0.00000000       0.00000000 </v>
   <v>       0.00000000       0.00000000       0.00000000 </v>
   <v>       0.00000000       0.00000000       0.00000000 </v>
   <v>       0.00000000       0.00000000       0.00000000 </v>
   <v>       0.00000000       0.00000000       0.00000000 </v>
   <v>       0.00000000       0.00000000       0.00000000 </v>
   <v>       0.00000000       0.00000000       0.00000000 </v>
   <v>       0.00000000       0.00000000       0.00000000 </v>
   <v>       0.00000000       0.00000000       0.00000000 </v>
   <v>       0.00000000       0.00000000       0.00000000 </v>
   <v>       0.00000000       0.00000000       0.00000000 </v>
   <v>       0.00000000       0.00000000       0.00000000 </v>
   <v>       0.00000000       0.00000000       0.00000000 </v>
   <v>       0.00000000       0.00000000       0.00000000 </v>
   <v>       0.00000000       0.00000000       0.00000000 </v>
   <v>       0.00000000       0.00000000       0.00000000 </v>
   <v>       0.00000000       0.00000000       0.00000000 </v>
   <v>       0.00000000       0.00000000       0.00000000 </v>
   <v>       0.00000000       0.00000000       0.00000000 </v>
   <v>       0.00000000       0.00000000       0.00000000 </v>
   <v>       0.00000000       0.00000000       0.00000000 </v>
   <v>       0.00000000       0.00000000       0.00000000 </v>
   <v>       0.00000000       0.00000000       0.00000000 </v>
   <v>       0.00000000       0.00000000       0.00000000 </v>
   <v>       0.00000000       0.00000000       0.00000000 </v>
   <v>       0.00000000       0.00000000       0.00000000 </v>
   <v>       0.00000000       0.00000000       0.00000000 </v>
   <v>       0.00000000       0.00000000       0.00000000 </v>
   <v>       0.00000000       0.00000000       0.00000000 </v>
   <v>       0.00000000       0.00000000       0.00000000 </v>
   <v>       0.00000000       0.00000000       0.00000000 </v>
   <v>       0.00000000       0.00000000       0.00000000 </v>
   <v>       0.00000000       0.00000000       0.00000000 </v>
   <v>       0.00000000       0.00000000       0.00000000 </v>
   <v>       0.00000000       0.00000000       0.00000000 </v>
   <v>       0.00000000       0.00000000       0.00000000 </v>
   <v>       0.00000000       0.00000000       0.00000000 </v>
   <v>       0.00000000       0.00000000       0.00000000 </v>
   <v>       0.00000000       0.00000000       0.00000000 </v>
   <v>       0.00000000       0.00000000       0.00000000 </v>
   <v>       0.00000000       0.00000000       0.00000000 </v>
   <v>       0.00000000       0.00000000       0.00000000 </v>
   <v>       0.00000000       0.00000000       0.00000000 </v>
   <v>       0.00000000       0.00000000       0.00000000 </v>
   <v>       0.00000000       0.00000000       0.00000000 </v>
   <v>       0.00000000       0.00000000       0.00000000 </v>
   <v>       0.00000000       0.00000000       0.00000000 </v>
   <v>       0.00000000       0.00000000       0.00000000 </v>
   <v>       0.00000000       0.00000000       0.00000000 </v>
   <v>       0.00000000       0.00000000       0.00000000 </v>
   <v>       0.00000000       0.00000000       0.00000000 </v>
   <v>       0.00000000       0.00000000       0.00000000 </v>
   <v>       0.00000000       0.00000000       0.00000000 </v>
   <v>       0.00000000       0.00000000       0.00000000 </v>
   <v>       0.00000000       0.00000000       0.00000000 </v>
   <v>       0.00000000       0.00000000       0.00000000 </v>
   <v>       0.00000000       0.00000000       0.00000000 </v>
   <v>       0.00000000       0.00000000       0.00000000 </v>
   <v>       0.00000000       0.00000000       0.00000000 </v>
   <v>       0.00000000       0.00000000       0.00000000 </v>
   <v>       0.00000000       0.00000000       0.00000000 </v>
   <v>       0.00000000       0.00000000       0.00000000 </v>
   <v>       0.00000000       0.00000000       0.00000000 </v>
   <v>       0.00000000       0.00000000       0.00000000 </v>
   <v>       0.00000000       0.00000000       0.00000000 </v>
   <v>       0.00000000       0.00000000       0.00000000 </v>
   <v>       0.00000000       0.00000000       0.00000000 </v>
   <v>       0.00000000       0.00000000       0.00000000 </v>
   <v>       0.00000000       0.00000000       0.00000000 </v>
   <v>       0.00000000       0.00000000       0.00000000 </v>
   <v>       0.00000000       0.00000000       0.00000000 </v>
   <v>       0.00000000       0.00000000       0.00000000 </v>
   <v>       0.00000000       0.00000000       0.00000000 </v>
   <v>       0.00000000       0.00000000       0.00000000 </v>
   <v>       0.00000000       0.00000000       0.00000000 </v>
   <v>       0.00000000       0.00000000       0.00000000 </v>
   <v>       0.00000000       0.00000000       0.00000000 </v>
   <v>       0.00000000       0.00000000       0.00000000 </v>
   <v>       0.00000000       0.00000000       0.00000000 </v>
   <v>       0.00000000       0.00000000       0.00000000 </v>
   <v>       0.00000000       0.00000000       0.00000000 </v>
   <v>       0.00000000       0.00000000       0.00000000 </v>
   <v>       0.00000000       0.00000000       0.00000000 </v>
   <v>       0.00000000       0.00000000       0.00000000 </v>
   <v>       0.00000000       0.00000000       0.00000000 </v>
   <v>       0.00000000       0.00000000       0.00000000 </v>
   <v>       0.00000000       0.00000000       0.00000000 </v>
  </varray>
 </structure>
</modeling>
