<?xml version="1.0" encoding="ISO-8859-1"?>
<modeling>
 <generator>
  <i name="program" type="string">vasp </i>
  <i name="version" type="string">5.4.4.18Apr17-6-g9f103f2a35  </i>
  <i name="subversion" type="string">(build Oct 31 2019 15:01:46) complex            parallel </i>
  <i name="platform" type="string">LinuxIFC </i>
  <i name="date" type="string">2024 04 29 </i>
  <i name="time" type="string">09:28:16 </i>
 </generator>
 <incar>
  <i type="int" name="ISTART">     0</i>
  <i type="string" name="PREC">a</i>
  <i type="logical" name="ADDGRID"> T  </i>
  <i type="int" name="IBRION">    -1</i>
  <i name="EDIFF">      0.00000100</i>
  <i name="EDIFFG">     -0.01000000</i>
  <i type="int" name="NSW">     1</i>
  <i type="int" name="ISIF">     2</i>
  <i type="int" name="ISYM">     0</i>
  <i name="ENCUT">    600.00000000</i>
  <i name="POTIM">      1.00000000</i>
  <i type="string" name="LREAL">  Auto</i>
  <i type="int" name="ISMEAR">     0</i>
  <i name="SIGMA">      0.05000000</i>
  <i name="KSPACING">      0.30000000</i>
  <i type="logical" name="KGAMMA"> T  </i>
  <i type="logical" name="LWAVE"> F  </i>
  <i type="logical" name="LCHARG"> F  </i>
  <i type="logical" name="LSCALAPACK"> F  </i>
  <v type="int" name="KPOINT_BSE">    -1     0     0     0</v>
 </incar>
 <structure name="primitive_cell" >
  <crystal>
   <varray name="basis" >
    <v>      13.67086365       0.00000000       0.00000000 </v>
    <v>       0.00000000      13.67086365       0.00000000 </v>
    <v>       0.00000000       0.00000000      13.67086365 </v>
   </varray>
   <i name="volume">   2554.98206157 </i>
   <varray name="rec_basis" >
    <v>       0.07314827       0.00000000       0.00000000 </v>
    <v>       0.00000000       0.07314827       0.00000000 </v>
    <v>       0.00000000       0.00000000       0.07314827 </v>
   </varray>
  </crystal>
  <varray name="positions" >
   <v>       0.27394366      -0.24618112       0.40369891 </v>
   <v>       0.36670287      -0.37320732       0.38527016 </v>
   <v>       0.22972308      -0.08377339       0.40559635 </v>
   <v>       0.16625228      -0.26226149      -0.40373688 </v>
   <v>       0.48057243      -0.18601705       0.47338147 </v>
   <v>       0.40524650      -0.37010473       0.24831999 </v>
   <v>       0.23763960      -0.07458009      -0.41718885 </v>
   <v>       0.34184246      -0.49257533       0.42556637 </v>
   <v>       0.09276244      -0.05409358       0.41733375 </v>
   <v>       0.40091313      -0.03521219      -0.49529387 </v>
   <v>       0.05895441      -0.41657258       0.32886471 </v>
   <v>       0.25556268       0.46257511       0.35409110 </v>
   <v>      -0.42608857      -0.22774125       0.39100490 </v>
   <v>      -0.00094737      -0.12471279       0.33862344 </v>
   <v>       0.10097622      -0.00143600       0.31650400 </v>
   <v>       0.27936495       0.06374521       0.36614225 </v>
   <v>      -0.48846102      -0.08650859      -0.46696907 </v>
   <v>      -0.43128543      -0.28975792       0.29984972 </v>
   <v>       0.11142174      -0.37716454      -0.35432147 </v>
   <v>       0.28047310      -0.29664426       0.08109918 </v>
   <v>       0.41895560      -0.49435287      -0.42338942 </v>
   <v>       0.07654033       0.00187633      -0.48529457 </v>
   <v>       0.08825834       0.48614584      -0.46031779 </v>
   <v>       0.48991835      -0.00933489       0.24693333 </v>
   <v>       0.01216067      -0.48709450       0.44119697 </v>
   <v>       0.42121510      -0.12313807       0.10079771 </v>
   <v>       0.01498415      -0.05899272       0.24095073 </v>
   <v>      -0.42613822      -0.33835897      -0.41791076 </v>
   <v>       0.19219795      -0.38225980      -0.26930177 </v>
   <v>       0.06441897      -0.16761352      -0.30425639 </v>
   <v>       0.43868644       0.41990425       0.42404943 </v>
   <v>      -0.46435233      -0.28331539      -0.32475909 </v>
   <v>       0.42681341      -0.28479378      -0.25092723 </v>
   <v>       0.33817563      -0.15147940       0.03917717 </v>
   <v>       0.13048880      -0.38578094       0.07152369 </v>
   <v>       0.32186219       0.04673106      -0.34608254 </v>
   <v>       0.21211864      -0.20226051      -0.21155516 </v>
   <v>       0.49620089      -0.01330132      -0.36862595 </v>
   <v>      -0.09162395      -0.22218751      -0.44519755 </v>
   <v>       0.09254486      -0.15763866       0.06124167 </v>
   <v>      -0.49992134       0.44919072      -0.46925232 </v>
   <v>      -0.41150383      -0.17286597      -0.35674481 </v>
   <v>       0.29829300      -0.47546712       0.07104135 </v>
   <v>      -0.46945102      -0.30224017       0.09553768 </v>
   <v>      -0.47139883      -0.06198944       0.14748967 </v>
   <v>       0.01998194      -0.46072512       0.17092352 </v>
   <v>      -0.39230408      -0.02804533       0.48697588 </v>
   <v>       0.23444180       0.42600951      -0.35203619 </v>
   <v>       0.21746360      -0.37286782       0.01128159 </v>
   <v>      -0.30535416      -0.22200045       0.41267980 </v>
   <v>       0.04843599      -0.01470286       0.13059308 </v>
   <v>       0.23503584      -0.07132158       0.01524459 </v>
   <v>      -0.11413317      -0.41474111       0.49237787 </v>
   <v>      -0.16333202      -0.27817237       0.36225310 </v>
   <v>      -0.36863793      -0.26566969       0.14297132 </v>
   <v>       0.26865976       0.33473564      -0.44957666 </v>
   <v>       0.18806401       0.31797427       0.35378739 </v>
   <v>      -0.02262765      -0.34043169      -0.27260233 </v>
   <v>      -0.09615986      -0.28613719      -0.34348283 </v>
   <v>      -0.37833341      -0.14782480       0.13133517 </v>
   <v>      -0.12047437      -0.36720826       0.21743426 </v>
   <v>      -0.07033678       0.00718918       0.23283559 </v>
   <v>      -0.28400066      -0.30073248       0.21991932 </v>
   <v>       0.34469063      -0.19256393      -0.07141826 </v>
   <v>      -0.28281874      -0.24210021      -0.40342299 </v>
   <v>      -0.11953207      -0.06264072      -0.38184338 </v>
   <v>      -0.39566177       0.40979167      -0.49126993 </v>
   <v>       0.30673705       0.20394711       0.21520120 </v>
   <v>       0.48629048       0.00800650      -0.23106955 </v>
   <v>      -0.11315249      -0.18598366       0.10398967 </v>
   <v>       0.00623549      -0.18039200      -0.18720344 </v>
   <v>      -0.44198446      -0.40507591       0.03045916 </v>
   <v>       0.38692777       0.21947606      -0.47057157 </v>
   <v>      -0.38058574      -0.33621632      -0.25220340 </v>
   <v>       0.46393924       0.35670828      -0.35638790 </v>
   <v>       0.28727736       0.02140114      -0.17048187 </v>
   <v>       0.44029720       0.20044449       0.24041770 </v>
   <v>       0.19460070      -0.32138387      -0.09488846 </v>
   <v>      -0.41753810       0.34385781       0.38592008 </v>
   <v>      -0.15600015      -0.29468387       0.12622807 </v>
   <v>       0.44582365      -0.28695790      -0.11145896 </v>
   <v>       0.24673793       0.43787464      -0.00564829 </v>
   <v>       0.48201021      -0.42108043      -0.04102745 </v>
   <v>       0.04652984       0.28303003       0.42317005 </v>
   <v>       0.12633266       0.08170464      -0.21605142 </v>
   <v>       0.44792109       0.24636437       0.34735301 </v>
   <v>      -0.30586833       0.05805902      -0.49556190 </v>
   <v>      -0.29935303       0.45192885       0.31775793 </v>
   <v>      -0.32882199      -0.48591728      -0.33764198 </v>
   <v>      -0.36939215      -0.48186471       0.08561099 </v>
   <v>       0.26101332       0.17457631       0.06802721 </v>
   <v>       0.03718540      -0.07998823      -0.13989937 </v>
   <v>       0.01621093       0.30285385       0.23900630 </v>
   <v>      -0.13464583      -0.19821338      -0.23723009 </v>
   <v>      -0.40304529       0.00423222       0.03741574 </v>
   <v>       0.01336349      -0.23217640      -0.08819040 </v>
   <v>      -0.21297702       0.00606693      -0.48559169 </v>
   <v>      -0.06668302       0.19232786       0.32228334 </v>
   <v>      -0.21648760      -0.33220103      -0.32117313 </v>
   <v>       0.02342108      -0.38334636      -0.10151219 </v>
   <v>       0.02085872       0.03425945      -0.16730696 </v>
   <v>       0.18972421       0.47053490      -0.10691101 </v>
   <v>       0.21054588       0.31465896       0.03189725 </v>
   <v>      -0.14263808      -0.01270877       0.07596094 </v>
   <v>      -0.14370649      -0.33896980       0.01192160 </v>
   <v>      -0.34756635       0.13845891      -0.38025762 </v>
   <v>      -0.32622385      -0.32268593      -0.02223382 </v>
   <v>      -0.28289261       0.14293879       0.41816029 </v>
   <v>       0.49081747       0.24182142       0.14811472 </v>
   <v>       0.44770843       0.11199095      -0.03743904 </v>
   <v>      -0.25396581       0.45964607       0.17296042 </v>
   <v>      -0.25076112       0.38268812       0.40396007 </v>
   <v>      -0.12868978       0.02758814      -0.22375349 </v>
   <v>      -0.23634252       0.40494807      -0.46147210 </v>
   <v>      -0.44283899       0.11161476      -0.01820662 </v>
   <v>      -0.16310260       0.31493138       0.35171752 </v>
   <v>      -0.05288819       0.28511598       0.13534486 </v>
   <v>      -0.13187817       0.22275299      -0.46159465 </v>
   <v>      -0.14216331       0.36466333       0.11551292 </v>
   <v>      -0.04722380       0.47970270      -0.07635967 </v>
   <v>       0.03417295       0.13614823      -0.12014212 </v>
   <v>       0.16391760       0.24617705      -0.16882653 </v>
   <v>      -0.36696977       0.49682986      -0.09432220 </v>
   <v>      -0.01311212       0.28167782       0.02745918 </v>
   <v>      -0.29533008       0.40842055      -0.20031014 </v>
   <v>      -0.22573833      -0.27226641      -0.12915907 </v>
   <v>      -0.14776447       0.13268946      -0.20515347 </v>
   <v>      -0.18729469       0.10666549       0.02728422 </v>
   <v>      -0.09256096       0.37178530      -0.05601890 </v>
   <v>      -0.12551833       0.24739729      -0.28581286 </v>
   <v>      -0.29789779       0.27671997      -0.28749796 </v>
   <v>      -0.36960977       0.20755612      -0.03129680 </v>
   <v>      -0.25442859       0.12432597      -0.15509069 </v>
   <v>      -0.18854264       0.32207915      -0.03575195 </v>
   <v>      -0.24881398       0.18755220      -0.03375350 </v>
  </varray>
 </structure>
 <varray name="primitive_index" >
  <v type="int" >        1 </v>
  <v type="int" >      121 </v>
  <v type="int" >      116 </v>
  <v type="int" >      122 </v>
  <v type="int" >      120 </v>
  <v type="int" >        4 </v>
  <v type="int" >       18 </v>
  <v type="int" >       47 </v>
  <v type="int" >       49 </v>
  <v type="int" >       84 </v>
  <v type="int" >       80 </v>
  <v type="int" >      131 </v>
  <v type="int" >       28 </v>
  <v type="int" >      124 </v>
  <v type="int" >       58 </v>
  <v type="int" >       10 </v>
  <v type="int" >       38 </v>
  <v type="int" >       87 </v>
  <v type="int" >       35 </v>
  <v type="int" >       95 </v>
  <v type="int" >       92 </v>
  <v type="int" >      135 </v>
  <v type="int" >       64 </v>
  <v type="int" >      103 </v>
  <v type="int" >       40 </v>
  <v type="int" >      112 </v>
  <v type="int" >       29 </v>
  <v type="int" >      118 </v>
  <v type="int" >       86 </v>
  <v type="int" >       79 </v>
  <v type="int" >       74 </v>
  <v type="int" >       53 </v>
  <v type="int" >       76 </v>
  <v type="int" >       52 </v>
  <v type="int" >      127 </v>
  <v type="int" >       82 </v>
  <v type="int" >        7 </v>
  <v type="int" >       59 </v>
  <v type="int" >      132 </v>
  <v type="int" >       27 </v>
  <v type="int" >       34 </v>
  <v type="int" >       93 </v>
  <v type="int" >      106 </v>
  <v type="int" >      126 </v>
  <v type="int" >       43 </v>
  <v type="int" >       25 </v>
  <v type="int" >      133 </v>
  <v type="int" >        5 </v>
  <v type="int" >       36 </v>
  <v type="int" >       63 </v>
  <v type="int" >       98 </v>
  <v type="int" >       88 </v>
  <v type="int" >       77 </v>
  <v type="int" >        3 </v>
  <v type="int" >       45 </v>
  <v type="int" >      107 </v>
  <v type="int" >       22 </v>
  <v type="int" >      101 </v>
  <v type="int" >       41 </v>
  <v type="int" >       56 </v>
  <v type="int" >       55 </v>
  <v type="int" >      100 </v>
  <v type="int" >       60 </v>
  <v type="int" >      114 </v>
  <v type="int" >       19 </v>
  <v type="int" >       17 </v>
  <v type="int" >      119 </v>
  <v type="int" >      125 </v>
  <v type="int" >       24 </v>
  <v type="int" >       99 </v>
  <v type="int" >       44 </v>
  <v type="int" >       31 </v>
  <v type="int" >        2 </v>
  <v type="int" >       89 </v>
  <v type="int" >       67 </v>
  <v type="int" >      105 </v>
  <v type="int" >       51 </v>
  <v type="int" >       90 </v>
  <v type="int" >        9 </v>
  <v type="int" >       37 </v>
  <v type="int" >       12 </v>
  <v type="int" >       50 </v>
  <v type="int" >       71 </v>
  <v type="int" >       70 </v>
  <v type="int" >      129 </v>
  <v type="int" >       85 </v>
  <v type="int" >       33 </v>
  <v type="int" >       96 </v>
  <v type="int" >       11 </v>
  <v type="int" >      104 </v>
  <v type="int" >       15 </v>
  <v type="int" >       61 </v>
  <v type="int" >       66 </v>
  <v type="int" >       97 </v>
  <v type="int" >       57 </v>
  <v type="int" >      115 </v>
  <v type="int" >       91 </v>
  <v type="int" >        8 </v>
  <v type="int" >       78 </v>
  <v type="int" >       16 </v>
  <v type="int" >       39 </v>
  <v type="int" >       75 </v>
  <v type="int" >       65 </v>
  <v type="int" >        6 </v>
  <v type="int" >       81 </v>
  <v type="int" >      109 </v>
  <v type="int" >      130 </v>
  <v type="int" >       72 </v>
  <v type="int" >       62 </v>
  <v type="int" >      123 </v>
  <v type="int" >       21 </v>
  <v type="int" >       42 </v>
  <v type="int" >       68 </v>
  <v type="int" >       94 </v>
  <v type="int" >       48 </v>
  <v type="int" >      113 </v>
  <v type="int" >       30 </v>
  <v type="int" >       23 </v>
  <v type="int" >      102 </v>
  <v type="int" >      111 </v>
  <v type="int" >      117 </v>
  <v type="int" >       26 </v>
  <v type="int" >       14 </v>
  <v type="int" >      128 </v>
  <v type="int" >       83 </v>
  <v type="int" >       20 </v>
  <v type="int" >       54 </v>
  <v type="int" >      108 </v>
  <v type="int" >       32 </v>
  <v type="int" >      110 </v>
  <v type="int" >       13 </v>
  <v type="int" >       69 </v>
  <v type="int" >       73 </v>
  <v type="int" >      134 </v>
  <v type="int" >       46 </v>
 </varray>
 <kpoints>
  <generation param="Gamma">
   <v type="int" name="divisions">       2        2        2 </v>
   <v name="usershift">      0.00000000       0.00000000       0.00000000 </v>
   <v name="genvec1">      0.50000000       0.00000000       0.00000000 </v>
   <v name="genvec2">      0.00000000       0.50000000       0.00000000 </v>
   <v name="genvec3">      0.00000000       0.00000000       0.50000000 </v>
   <v name="shift">      0.00000000       0.00000000       0.00000000 </v>
  </generation>
  <varray name="kpointlist" >
   <v>       0.00000000       0.00000000       0.00000000 </v>
   <v>       0.50000000       0.00000000       0.00000000 </v>
   <v>       0.00000000       0.50000000       0.00000000 </v>
   <v>       0.50000000       0.50000000       0.00000000 </v>
   <v>       0.00000000       0.00000000       0.50000000 </v>
   <v>       0.50000000       0.00000000       0.50000000 </v>
   <v>       0.00000000       0.50000000       0.50000000 </v>
   <v>       0.50000000       0.50000000       0.50000000 </v>
  </varray>
  <varray name="weights" >
   <v>       0.12500000 </v>
   <v>       0.12500000 </v>
   <v>       0.12500000 </v>
   <v>       0.12500000 </v>
   <v>       0.12500000 </v>
   <v>       0.12500000 </v>
   <v>       0.12500000 </v>
   <v>       0.12500000 </v>
  </varray>
 </kpoints>
 <parameters>
  <separator name="general" >
   <i type="string" name="SYSTEM">unknown system</i>
   <i type="logical" name="LCOMPAT"> F  </i>
  </separator>
  <separator name="electronic" >
   <i type="string" name="PREC">a</i>
   <i name="ENMAX">    600.00000000</i>
   <i name="ENAUG">    605.39200000</i>
   <i name="EDIFF">      0.00000100</i>
   <i type="int" name="IALGO">    38</i>
   <i type="int" name="IWAVPR">    10</i>
   <i type="int" name="NBANDS">   520</i>
   <i name="NELECT">    864.00000000</i>
   <i type="int" name="TURBO">     0</i>
   <i type="int" name="IRESTART">     0</i>
   <i type="int" name="NREBOOT">     0</i>
   <i type="int" name="NMIN">     0</i>
   <i name="EREF">      0.00000000</i>
   <separator name="electronic smearing" >
    <i type="int" name="ISMEAR">     0</i>
    <i name="SIGMA">      0.05000000</i>
    <i name="KSPACING">      0.30000000</i>
    <i type="logical" name="KGAMMA"> T  </i>
   </separator>
   <separator name="electronic projectors" >
    <i type="logical" name="LREAL"> T  </i>
    <v name="ROPT">     -0.00025000     -0.00025000     -0.00025000</v>
    <i type="int" name="LMAXPAW">  -100</i>
    <i type="int" name="LMAXMIX">     2</i>
    <i type="logical" name="NLSPLINE"> F  </i>
   </separator>
   <separator name="electronic startup" >
    <i type="int" name="ISTART">     0</i>
    <i type="int" name="ICHARG">     2</i>
    <i type="int" name="INIWAV">     1</i>
   </separator>
   <separator name="electronic spin" >
    <i type="int" name="ISPIN">     1</i>
    <i type="logical" name="LNONCOLLINEAR"> F  </i>
    <v name="MAGMOM">      1.00000000      1.00000000      1.00000000      1.00000000      1.00000000      1.00000000      1.00000000      1.00000000      1.00000000      1.00000000      1.00000000      1.00000000      1.00000000      1.00000000      1.00000000      1.00000000      1.00000000      1.00000000      1.00000000      1.00000000
      1.00000000      1.00000000      1.00000000      1.00000000      1.00000000      1.00000000      1.00000000      1.00000000      1.00000000      1.00000000      1.00000000      1.00000000      1.00000000      1.00000000      1.00000000      1.00000000      1.00000000      1.00000000      1.00000000      1.00000000
      1.00000000      1.00000000      1.00000000      1.00000000      1.00000000      1.00000000      1.00000000      1.00000000      1.00000000      1.00000000      1.00000000      1.00000000      1.00000000      1.00000000      1.00000000      1.00000000      1.00000000      1.00000000      1.00000000      1.00000000
      1.00000000      1.00000000      1.00000000      1.00000000      1.00000000      1.00000000      1.00000000      1.00000000      1.00000000      1.00000000      1.00000000      1.00000000      1.00000000      1.00000000      1.00000000      1.00000000      1.00000000      1.00000000      1.00000000      1.00000000
      1.00000000      1.00000000      1.00000000      1.00000000      1.00000000      1.00000000      1.00000000      1.00000000      1.00000000      1.00000000      1.00000000      1.00000000      1.00000000      1.00000000      1.00000000      1.00000000      1.00000000      1.00000000      1.00000000      1.00000000
      1.00000000      1.00000000      1.00000000      1.00000000      1.00000000      1.00000000      1.00000000      1.00000000      1.00000000      1.00000000      1.00000000      1.00000000      1.00000000      1.00000000      1.00000000      1.00000000      1.00000000      1.00000000      1.00000000      1.00000000
      1.00000000      1.00000000      1.00000000      1.00000000      1.00000000      1.00000000      1.00000000      1.00000000      1.00000000      1.00000000      1.00000000      1.00000000      1.00000000      1.00000000      1.00000000</v>
    <i name="NUPDOWN">     -1.00000000</i>
    <i type="logical" name="LSORBIT"> F  </i>
    <v name="SAXIS">      0.00000000      0.00000000      1.00000000</v>
    <i type="logical" name="LSPIRAL"> F  </i>
    <v name="QSPIRAL">      0.00000000      0.00000000      0.00000000</v>
    <i type="logical" name="LZEROZ"> F  </i>
   </separator>
   <separator name="electronic exchange-correlation" >
    <i type="logical" name="LASPH"> F  </i>
    <i type="logical" name="LMETAGGA"> F  </i>
   </separator>
   <separator name="electronic convergence" >
    <i type="int" name="NELM">    60</i>
    <i type="int" name="NELMDL">    -5</i>
    <i type="int" name="NELMIN">     2</i>
    <i name="ENINI">    600.00000000</i>
    <separator name="electronic convergence detail" >
     <i type="logical" name="LDIAG"> T  </i>
     <i type="logical" name="LSUBROT"> F  </i>
     <i name="WEIMIN">      0.00000000</i>
     <i name="EBREAK">      0.00000000</i>
     <i name="DEPER">      0.30000000</i>
     <i type="int" name="NRMM">     4</i>
     <i name="TIME">      0.40000000</i>
    </separator>
   </separator>
   <separator name="electronic mixer" >
    <i name="AMIX">      0.40000000</i>
    <i name="BMIX">      1.00000000</i>
    <i name="AMIN">      0.10000000</i>
    <i name="AMIX_MAG">      1.60000000</i>
    <i name="BMIX_MAG">      1.00000000</i>
    <separator name="electronic mixer details" >
     <i type="int" name="IMIX">     4</i>
     <i type="logical" name="MIXFIRST"> F  </i>
     <i type="int" name="MAXMIX">   -45</i>
     <i name="WC">    100.00000000</i>
     <i type="int" name="INIMIX">     1</i>
     <i type="int" name="MIXPRE">     1</i>
     <i type="int" name="MREMOVE">     5</i>
    </separator>
   </separator>
   <separator name="electronic dipolcorrection" >
    <i type="logical" name="LDIPOL"> F  </i>
    <i type="logical" name="LMONO"> F  </i>
    <i type="int" name="IDIPOL">     0</i>
    <i name="EPSILON">      1.00000000</i>
    <v name="DIPOL">   -100.00000000   -100.00000000   -100.00000000</v>
    <i name="EFIELD">      0.00000000</i>
   </separator>
  </separator>
  <separator name="grids" >
   <i type="int" name="NGX">   112</i>
   <i type="int" name="NGY">   112</i>
   <i type="int" name="NGZ">   112</i>
   <i type="int" name="NGXF">   224</i>
   <i type="int" name="NGYF">   224</i>
   <i type="int" name="NGZF">   224</i>
   <i type="logical" name="ADDGRID"> T  </i>
  </separator>
  <separator name="ionic" >
   <i type="int" name="NSW">     1</i>
   <i type="int" name="IBRION">    -1</i>
   <i type="int" name="MDALGO">     0</i>
   <i type="int" name="ISIF">     2</i>
   <i name="PSTRESS">      0.00000000</i>
   <i name="EDIFFG">     -0.01000000</i>
   <i type="int" name="NFREE">     0</i>
   <i name="POTIM">      1.00000000</i>
   <i name="SMASS">     -3.00000000</i>
   <i name="SCALEE">      1.00000000</i>
  </separator>
  <separator name="ionic md" >
   <i name="TEBEG">      0.00010000</i>
   <i name="TEEND">      0.00010000</i>
   <i type="int" name="NBLOCK">     1</i>
   <i type="int" name="KBLOCK">     1</i>
   <i type="int" name="NPACO">   256</i>
   <i name="APACO">     16.00000000</i>
  </separator>
  <separator name="symmetry" >
   <i type="int" name="ISYM">     0</i>
   <i name="SYMPREC">      0.00001000</i>
  </separator>
  <separator name="dos" >
   <i type="int" name="LORBIT">     0</i>
   <v name="RWIGS">     -1.00000000     -1.00000000     -1.00000000</v>
   <i type="int" name="NEDOS">   301</i>
   <i name="EMIN">     10.00000000</i>
   <i name="EMAX">    -10.00000000</i>
   <i name="EFERMI">      0.00000000</i>
  </separator>
  <separator name="writing" >
   <i type="int" name="NWRITE">     2</i>
   <i type="logical" name="LWAVE"> F  </i>
   <i type="logical" name="LDOWNSAMPLE"> F  </i>
   <i type="logical" name="LCHARG"> F  </i>
   <i type="logical" name="LPARD"> F  </i>
   <i type="logical" name="LVTOT"> F  </i>
   <i type="logical" name="LVHAR"> F  </i>
   <i type="logical" name="LELF"> F  </i>
   <i type="logical" name="LOPTICS"> F  </i>
   <v name="STM">      0.00000000      0.00000000      0.00000000      0.00000000      0.00000000      0.00000000      0.00000000</v>
  </separator>
  <separator name="performance" >
   <i type="int" name="NPAR">     4</i>
   <i type="int" name="NSIM">     4</i>
   <i type="int" name="NBLK">    -1</i>
   <i type="logical" name="LPLANE"> T  </i>
   <i type="logical" name="LSCALAPACK"> F  </i>
   <i type="logical" name="LSCAAWARE"> F  </i>
   <i type="logical" name="LSCALU"> F  </i>
   <i type="logical" name="LASYNC"> F  </i>
   <i type="logical" name="LORBITALREAL"> F  </i>
  </separator>
  <separator name="miscellaneous" >
   <i type="int" name="IDIOT">     3</i>
   <i type="int" name="ISPECIAL">     0</i>
   <i type="logical" name="LMUSIC"> F  </i>
   <v name="POMASS">     40.07800000     28.08500000     16.00000000</v>
   <v name="DARWINR">      0.00000000      0.00000000      0.00000000</v>
   <v name="DARWINV">      1.00000000      1.00000000      1.00000000</v>
   <i type="logical" name="LCORR"> T  </i>
  </separator>
  <i type="logical" name="GGA_COMPAT"> T  </i>
  <i type="logical" name="LBERRY"> F  </i>
  <i type="int" name="ICORELEVEL">     0</i>
  <i type="logical" name="LDAU"> F  </i>
  <i type="int" name="I_CONSTRAINED_M">     0</i>
  <separator name="electronic exchange-correlation" >
   <i type="string" name="GGA">--</i>
   <i type="int" name="VOSKOWN">     0</i>
   <i type="logical" name="LHFCALC"> F  </i>
   <i type="string" name="PRECFOCK"></i>
   <i type="logical" name="LSYMGRAD"> F  </i>
   <i type="logical" name="LHFONE"> F  </i>
   <i type="logical" name="LRHFCALC"> F  </i>
   <i type="logical" name="LTHOMAS"> F  </i>
   <i type="logical" name="LMODELHF"> F  </i>
   <i name="ENCUT4O">     -1.00000000</i>
   <i type="int" name="EXXOEP">     0</i>
   <i type="int" name="FOURORBIT">     0</i>
   <i name="AEXX">      0.00000000</i>
   <i name="HFALPHA">      0.00000000</i>
   <i name="MCALPHA">      0.00000000</i>
   <i name="ALDAX">      1.00000000</i>
   <i name="AGGAX">      1.00000000</i>
   <i name="ALDAC">      1.00000000</i>
   <i name="AGGAC">      1.00000000</i>
   <i type="int" name="NKREDX">     1</i>
   <i type="int" name="NKREDY">     1</i>
   <i type="int" name="NKREDZ">     1</i>
   <i type="logical" name="SHIFTRED"> F  </i>
   <i type="logical" name="ODDONLY"> F  </i>
   <i type="logical" name="EVENONLY"> F  </i>
   <i type="int" name="LMAXFOCK">     0</i>
   <i type="int" name="NMAXFOCKAE">     0</i>
   <i type="logical" name="LFOCKAEDFT"> F  </i>
   <i name="HFSCREEN">      0.00000000</i>
   <i name="HFSCREENC">      0.00000000</i>
   <i type="int" name="NBANDSGWLOW">     0</i>
  </separator>
  <separator name="vdW DFT" >
   <i type="logical" name="LUSE_VDW"> F  </i>
   <i name="Zab_VDW">     -0.84910000</i>
   <i name="PARAM1">      0.12340000</i>
   <i name="PARAM2">      1.00000000</i>
   <i name="PARAM3">      0.00000000</i>
  </separator>
  <separator name="model GW" >
   <i type="int" name="MODEL_GW">     0</i>
   <i name="MODEL_EPS0">     11.35547583</i>
   <i name="MODEL_ALPHA">      1.00000000</i>
  </separator>
  <separator name="linear response parameters" >
   <i type="logical" name="LEPSILON"> F  </i>
   <i type="logical" name="LRPA"> F  </i>
   <i type="logical" name="LNABLA"> F  </i>
   <i type="logical" name="LVEL"> F  </i>
   <i type="int" name="KINTER">     0</i>
   <i name="CSHIFT">      0.10000000</i>
   <i name="OMEGAMAX">     -1.00000000</i>
   <i name="DEG_THRESHOLD">      0.00200000</i>
   <i name="RTIME">     -0.10000000</i>
   <i name="WPLASMAI">      0.00000000</i>
   <v name="DFIELD">      0.00000000      0.00000000      0.00000000</v>
   <v name="WPLASMA">      0.00000000      0.00000000      0.00000000      0.00000000      0.00000000      0.00000000      0.00000000      0.00000000      0.00000000</v>
  </separator>
  <separator name="orbital magnetization" >
   <i type="logical" name="NUCIND"> F  </i>
   <v name="MAGPOS">      0.00000000      0.00000000      0.00000000</v>
   <i type="logical" name="LNICSALL"> T  </i>
   <i type="logical" name="ORBITALMAG"> F  </i>
   <i type="logical" name="LMAGBLOCH"> F  </i>
   <i type="logical" name="LCHIMAG"> F  </i>
   <i type="logical" name="LGAUGE"> T  </i>
   <i type="int" name="MAGATOM">     0</i>
   <v name="MAGDIPOL">      0.00000000      0.00000000      0.00000000</v>
   <v name="AVECCONST">      0.00000000      0.00000000      0.00000000</v>
  </separator>
  <separator name="response functions" >
   <i type="logical" name="LADDER"> F  </i>
   <i type="logical" name="LRPAFORCE"> F  </i>
   <i type="logical" name="LFXC"> F  </i>
   <i type="logical" name="LHARTREE"> T  </i>
   <i type="int" name="IBSE">     0</i>
   <v type="int" name="KPOINT">    -1     0     0     0</v>
   <i type="logical" name="LTCTE"> F  </i>
   <i type="logical" name="LTETE"> F  </i>
   <i type="logical" name="LTRIPLET"> F  </i>
   <i type="logical" name="LFXCEPS"> F  </i>
   <i type="logical" name="LFXHEG"> F  </i>
   <i type="int" name="NATURALO">     2</i>
   <i type="logical" name="L2ORDER"> F  </i>
   <i type="logical" name="LMP2LT"> F  </i>
   <i type="logical" name="LUSEW"> F  </i>
   <i name="ENCUTGW">     -2.00000000</i>
   <i name="ENCUTGWSOFT">     -2.00000000</i>
   <i name="ENCUTLF">     -1.00000000</i>
   <i type="int" name="LMAXMP2">    -1</i>
   <i name="SCISSOR">      0.00000000</i>
   <i type="int" name="NOMEGA">     0</i>
   <i type="int" name="NOMEGAR">     0</i>
   <i type="int" name="NBANDSGW">    -1</i>
   <i type="int" name="NBANDSO">    -1</i>
   <i type="int" name="NBANDSV">    -1</i>
   <i type="int" name="NELM">     1</i>
   <i type="int" name="NELMHF">     1</i>
   <i type="int" name="DIM">     3</i>
   <i type="int" name="ANTIRES">     0</i>
   <i name="OMEGAMAX">    -30.00000000</i>
   <i name="OMEGAMIN">    -30.00000000</i>
   <i name="OMEGATL">   -200.00000000</i>
   <i type="int" name="OMEGAGRID">   140</i>
   <i name="CSHIFT">     -0.10000000</i>
   <i type="logical" name="SELFENERGY"> F  </i>
   <i type="logical" name="LSPECTRAL"> F  </i>
   <i type="logical" name="LSPECTRALGW"> F  </i>
   <i type="logical" name="LSINGLES"> F  </i>
   <i type="logical" name="LFERMIGW"> F  </i>
   <i type="logical" name="ODDONLYGW"> F  </i>
   <i type="logical" name="EVENONLYGW"> F  </i>
   <i type="int" name="NKREDLFX">     1</i>
   <i type="int" name="NKREDLFY">     1</i>
   <i type="int" name="NKREDLFZ">     1</i>
   <i type="int" name="MAXMEM">  2800</i>
   <i type="int" name="TELESCOPE">     0</i>
   <i type="int" name="TAUPAR">     1</i>
   <i type="int" name="OMEGAPAR">    -1</i>
   <i name="LAMBDA">      1.00000000</i>
  </separator>
  <separator name="External order field" >
   <i name="OFIELD_KAPPA">      0.00000000</i>
   <v name="OFIELD_K">      0.00000000      0.00000000      0.00000000</v>
   <i name="OFIELD_Q6_NEAR">      0.00000000</i>
   <i name="OFIELD_Q6_FAR">      0.00000000</i>
   <i name="OFIELD_A">      0.00000000</i>
  </separator>
 </parameters>
 <atominfo>
  <atoms>     135 </atoms>
  <types>       3 </types>
  <array name="atoms" >
   <dimension dim="1">ion</dimension>
   <field type="string">element</field>
   <field type="int">atomtype</field>
   <set>
    <rc><c>Ca</c><c>   1</c></rc>
    <rc><c>Ca</c><c>   1</c></rc>
    <rc><c>Ca</c><c>   1</c></rc>
    <rc><c>Ca</c><c>   1</c></rc>
    <rc><c>Ca</c><c>   1</c></rc>
    <rc><c>Ca</c><c>   1</c></rc>
    <rc><c>Ca</c><c>   1</c></rc>
    <rc><c>Ca</c><c>   1</c></rc>
    <rc><c>Ca</c><c>   1</c></rc>
    <rc><c>Ca</c><c>   1</c></rc>
    <rc><c>Ca</c><c>   1</c></rc>
    <rc><c>Ca</c><c>   1</c></rc>
    <rc><c>Ca</c><c>   1</c></rc>
    <rc><c>Ca</c><c>   1</c></rc>
    <rc><c>Ca</c><c>   1</c></rc>
    <rc><c>Ca</c><c>   1</c></rc>
    <rc><c>Ca</c><c>   1</c></rc>
    <rc><c>Ca</c><c>   1</c></rc>
    <rc><c>Ca</c><c>   1</c></rc>
    <rc><c>Ca</c><c>   1</c></rc>
    <rc><c>Ca</c><c>   1</c></rc>
    <rc><c>Ca</c><c>   1</c></rc>
    <rc><c>Ca</c><c>   1</c></rc>
    <rc><c>Ca</c><c>   1</c></rc>
    <rc><c>Ca</c><c>   1</c></rc>
    <rc><c>Ca</c><c>   1</c></rc>
    <rc><c>Ca</c><c>   1</c></rc>
    <rc><c>Si</c><c>   2</c></rc>
    <rc><c>Si</c><c>   2</c></rc>
    <rc><c>Si</c><c>   2</c></rc>
    <rc><c>Si</c><c>   2</c></rc>
    <rc><c>Si</c><c>   2</c></rc>
    <rc><c>Si</c><c>   2</c></rc>
    <rc><c>Si</c><c>   2</c></rc>
    <rc><c>Si</c><c>   2</c></rc>
    <rc><c>Si</c><c>   2</c></rc>
    <rc><c>Si</c><c>   2</c></rc>
    <rc><c>Si</c><c>   2</c></rc>
    <rc><c>Si</c><c>   2</c></rc>
    <rc><c>Si</c><c>   2</c></rc>
    <rc><c>Si</c><c>   2</c></rc>
    <rc><c>Si</c><c>   2</c></rc>
    <rc><c>Si</c><c>   2</c></rc>
    <rc><c>Si</c><c>   2</c></rc>
    <rc><c>Si</c><c>   2</c></rc>
    <rc><c>Si</c><c>   2</c></rc>
    <rc><c>Si</c><c>   2</c></rc>
    <rc><c>Si</c><c>   2</c></rc>
    <rc><c>Si</c><c>   2</c></rc>
    <rc><c>Si</c><c>   2</c></rc>
    <rc><c>Si</c><c>   2</c></rc>
    <rc><c>Si</c><c>   2</c></rc>
    <rc><c>Si</c><c>   2</c></rc>
    <rc><c>Si</c><c>   2</c></rc>
    <rc><c>O </c><c>   3</c></rc>
    <rc><c>O </c><c>   3</c></rc>
    <rc><c>O </c><c>   3</c></rc>
    <rc><c>O </c><c>   3</c></rc>
    <rc><c>O </c><c>   3</c></rc>
    <rc><c>O </c><c>   3</c></rc>
    <rc><c>O </c><c>   3</c></rc>
    <rc><c>O </c><c>   3</c></rc>
    <rc><c>O </c><c>   3</c></rc>
    <rc><c>O </c><c>   3</c></rc>
    <rc><c>O </c><c>   3</c></rc>
    <rc><c>O </c><c>   3</c></rc>
    <rc><c>O </c><c>   3</c></rc>
    <rc><c>O </c><c>   3</c></rc>
    <rc><c>O </c><c>   3</c></rc>
    <rc><c>O </c><c>   3</c></rc>
    <rc><c>O </c><c>   3</c></rc>
    <rc><c>O </c><c>   3</c></rc>
    <rc><c>O </c><c>   3</c></rc>
    <rc><c>O </c><c>   3</c></rc>
    <rc><c>O </c><c>   3</c></rc>
    <rc><c>O </c><c>   3</c></rc>
    <rc><c>O </c><c>   3</c></rc>
    <rc><c>O </c><c>   3</c></rc>
    <rc><c>O </c><c>   3</c></rc>
    <rc><c>O </c><c>   3</c></rc>
    <rc><c>O </c><c>   3</c></rc>
    <rc><c>O </c><c>   3</c></rc>
    <rc><c>O </c><c>   3</c></rc>
    <rc><c>O </c><c>   3</c></rc>
    <rc><c>O </c><c>   3</c></rc>
    <rc><c>O </c><c>   3</c></rc>
    <rc><c>O </c><c>   3</c></rc>
    <rc><c>O </c><c>   3</c></rc>
    <rc><c>O </c><c>   3</c></rc>
    <rc><c>O </c><c>   3</c></rc>
    <rc><c>O </c><c>   3</c></rc>
    <rc><c>O </c><c>   3</c></rc>
    <rc><c>O </c><c>   3</c></rc>
    <rc><c>O </c><c>   3</c></rc>
    <rc><c>O </c><c>   3</c></rc>
    <rc><c>O </c><c>   3</c></rc>
    <rc><c>O </c><c>   3</c></rc>
    <rc><c>O </c><c>   3</c></rc>
    <rc><c>O </c><c>   3</c></rc>
    <rc><c>O </c><c>   3</c></rc>
    <rc><c>O </c><c>   3</c></rc>
    <rc><c>O </c><c>   3</c></rc>
    <rc><c>O </c><c>   3</c></rc>
    <rc><c>O </c><c>   3</c></rc>
    <rc><c>O </c><c>   3</c></rc>
    <rc><c>O </c><c>   3</c></rc>
    <rc><c>O </c><c>   3</c></rc>
    <rc><c>O </c><c>   3</c></rc>
    <rc><c>O </c><c>   3</c></rc>
    <rc><c>O </c><c>   3</c></rc>
    <rc><c>O </c><c>   3</c></rc>
    <rc><c>O </c><c>   3</c></rc>
    <rc><c>O </c><c>   3</c></rc>
    <rc><c>O </c><c>   3</c></rc>
    <rc><c>O </c><c>   3</c></rc>
    <rc><c>O </c><c>   3</c></rc>
    <rc><c>O </c><c>   3</c></rc>
    <rc><c>O </c><c>   3</c></rc>
    <rc><c>O </c><c>   3</c></rc>
    <rc><c>O </c><c>   3</c></rc>
    <rc><c>O </c><c>   3</c></rc>
    <rc><c>O </c><c>   3</c></rc>
    <rc><c>O </c><c>   3</c></rc>
    <rc><c>O </c><c>   3</c></rc>
    <rc><c>O </c><c>   3</c></rc>
    <rc><c>O </c><c>   3</c></rc>
    <rc><c>O </c><c>   3</c></rc>
    <rc><c>O </c><c>   3</c></rc>
    <rc><c>O </c><c>   3</c></rc>
    <rc><c>O </c><c>   3</c></rc>
    <rc><c>O </c><c>   3</c></rc>
    <rc><c>O </c><c>   3</c></rc>
    <rc><c>O </c><c>   3</c></rc>
    <rc><c>O </c><c>   3</c></rc>
    <rc><c>O </c><c>   3</c></rc>
   </set>
  </array>
  <array name="atomtypes" >
   <dimension dim="1">type</dimension>
   <field type="int">atomspertype</field>
   <field type="string">element</field>
   <field>mass</field>
   <field>valence</field>
   <field type="string">pseudopotential</field>
   <set>
    <rc><c>  27</c><c>Ca</c><c>     40.07800000</c><c>     10.00000000</c><c>  PAW_PBE Ca_sv 06Sep2000               </c></rc>
    <rc><c>  27</c><c>Si</c><c>     28.08500000</c><c>      4.00000000</c><c>  PAW_PBE Si 05Jan2001                  </c></rc>
    <rc><c>  81</c><c>O </c><c>     16.00000000</c><c>      6.00000000</c><c>  PAW_PBE O 08Apr2002                   </c></rc>
   </set>
  </array>
 </atominfo>
 <structure name="initialpos" >
  <crystal>
   <varray name="basis" >
    <v>      13.67086365       0.00000000       0.00000000 </v>
    <v>       0.00000000      13.67086365       0.00000000 </v>
    <v>       0.00000000       0.00000000      13.67086365 </v>
   </varray>
   <i name="volume">   2554.98206157 </i>
   <varray name="rec_basis" >
    <v>       0.07314827       0.00000000       0.00000000 </v>
    <v>       0.00000000       0.07314827       0.00000000 </v>
    <v>       0.00000000       0.00000000       0.07314827 </v>
   </varray>
  </crystal>
  <varray name="positions" >
   <v>       0.27394366       0.75381888       0.40369891 </v>
   <v>       0.38692777       0.21947606       0.52942843 </v>
   <v>       0.83666798       0.72182763       0.36225310 </v>
   <v>       0.40524650       0.62989527       0.24831999 </v>
   <v>       0.23444180       0.42600951       0.64796381 </v>
   <v>       0.85736192       0.98729123       0.07596094 </v>
   <v>       0.21211864       0.79773949       0.78844484 </v>
   <v>       0.93331698       0.19232786       0.32228334 </v>
   <v>       0.58246190       0.34385781       0.38592008 </v>
   <v>       0.27936495       0.06374521       0.36614225 </v>
   <v>       0.67117801       0.51408272       0.66235802 </v>
   <v>       0.44582365       0.71304210       0.88854104 </v>
   <v>       0.70210221       0.27671997       0.71250204 </v>
   <v>       0.63303023       0.49682986       0.90567780 </v>
   <v>       0.26101332       0.17457631       0.06802721 </v>
   <v>       0.02342108       0.61665364       0.89848781 </v>
   <v>       0.88046793       0.93735928       0.61815662 </v>
   <v>       0.23763960       0.92541991       0.58281115 </v>
   <v>       0.71718126       0.75789979       0.59657701 </v>
   <v>       0.77426167       0.72773359       0.87084093 </v>
   <v>       0.74603419       0.45964607       0.17296042 </v>
   <v>       0.18806401       0.31797427       0.35378739 </v>
   <v>       0.86812183       0.22275299       0.53840535 </v>
   <v>       0.48629048       0.00800650       0.76893045 </v>
   <v>       0.01998194       0.53927488       0.17092352 </v>
   <v>       0.16391760       0.24617705       0.83117347 </v>
   <v>       0.09254486       0.84236134       0.06124167 </v>
   <v>       0.57391143       0.77225875       0.39100490 </v>
   <v>       0.01498415       0.94100728       0.24095073 </v>
   <v>       0.94711181       0.28511598       0.13534486 </v>
   <v>       0.55801554       0.59492409       0.03045916 </v>
   <v>       0.90743904       0.37178530       0.94398110 </v>
   <v>       0.69413167       0.05805902       0.50443810 </v>
   <v>       0.50007866       0.44919072       0.53074768 </v>
   <v>       0.11142174       0.62283546       0.64567853 </v>
   <v>       0.21746360       0.62713218       0.01128159 </v>
   <v>       0.84399985       0.70531613       0.12622807 </v>
   <v>       0.51153898       0.91349141       0.53303093 </v>
   <v>       0.02085872       0.03425945       0.83269304 </v>
   <v>       0.01216067       0.51290550       0.44119697 </v>
   <v>       0.90384014       0.71386281       0.65651717 </v>
   <v>       0.74923888       0.38268812       0.40396007 </v>
   <v>       0.52860117       0.93801056       0.14748967 </v>
   <v>       0.00623549       0.81960800       0.81279656 </v>
   <v>       0.63136207       0.73433031       0.14297132 </v>
   <v>       0.75118602       0.18755220       0.96624650 </v>
   <v>       0.34184246       0.50742467       0.42556637 </v>
   <v>       0.55716101       0.11161476       0.98179338 </v>
   <v>       0.09276244       0.94590642       0.41733375 </v>
   <v>       0.24673793       0.43787464       0.99435171 </v>
   <v>       0.44029720       0.20044449       0.24041770 </v>
   <v>       0.33817563       0.84852060       0.03917717 </v>
   <v>       0.53564767       0.71668461       0.67524091 </v>
   <v>       0.85223553       0.13268946       0.79484653 </v>
   <v>       0.87952563       0.63279174       0.21743426 </v>
   <v>       0.62166659       0.85217520       0.13133517 </v>
   <v>       0.59695471       0.00423222       0.03741574 </v>
   <v>       0.10097622       0.99856400       0.31650400 </v>
   <v>       0.49620089       0.98669868       0.63137405 </v>
   <v>       0.71599934       0.69926752       0.21991932 </v>
   <v>       0.03718540       0.92001177       0.86010063 </v>
   <v>       0.49081747       0.24182142       0.14811472 </v>
   <v>       0.69464584       0.77799955       0.41267980 </v>
   <v>       0.08825834       0.48614584       0.53968221 </v>
   <v>       0.21054588       0.31465896       0.03189725 </v>
   <v>       0.01621093       0.30285385       0.23900630 </v>
   <v>       0.46393924       0.35670828       0.64361210 </v>
   <v>       0.87131022       0.02758814       0.77624651 </v>
   <v>       0.63039023       0.20755612       0.96870320 </v>
   <v>       0.04652984       0.28303003       0.42317005 </v>
   <v>       0.48201021       0.57891957       0.95897255 </v>
   <v>       0.71710739       0.14293879       0.41816029 </v>
   <v>       0.74557141       0.12432597       0.84490931 </v>
   <v>       0.43868644       0.41990425       0.42404943 </v>
   <v>       0.18972421       0.47053490       0.89308899 </v>
   <v>       0.42681341       0.71520622       0.74907277 </v>
   <v>       0.88586683       0.58525889       0.49237787 </v>
   <v>       0.78351240       0.66779897       0.67882687 </v>
   <v>       0.06441897       0.83238648       0.69574361 </v>
   <v>       0.05895441       0.58342742       0.32886471 </v>
   <v>       0.85629351       0.66103020       0.01192160 </v>
   <v>       0.32186219       0.04673106       0.65391746 </v>
   <v>       0.70466992       0.40842055       0.79968986 </v>
   <v>       0.40091313       0.96478781       0.50470613 </v>
   <v>       0.44792109       0.24636437       0.34735301 </v>
   <v>       0.19219795       0.61774020       0.73069823 </v>
   <v>       0.56871457       0.71024208       0.29984972 </v>
   <v>       0.23503584       0.92867842       0.01524459 </v>
   <v>       0.61941426       0.66378368       0.74779660 </v>
   <v>       0.19460070       0.67861613       0.90511154 </v>
   <v>       0.78702298       0.00606693       0.51440831 </v>
   <v>       0.41895560       0.50564713       0.57661058 </v>
   <v>       0.58849617       0.82713403       0.64325519 </v>
   <v>       0.76365748       0.40494807       0.53852790 </v>
   <v>       0.28047310       0.70335574       0.08109918 </v>
   <v>       0.70064697       0.45192885       0.31775793 </v>
   <v>       0.86535417       0.80178662       0.76276991 </v>
   <v>       0.04843599       0.98529714       0.13059308 </v>
   <v>       0.88684751       0.81401634       0.10398967 </v>
   <v>       0.92966322       0.00718918       0.23283559 </v>
   <v>       0.97737235       0.65956831       0.72739767 </v>
   <v>       0.85783669       0.36466333       0.11551292 </v>
   <v>       0.48991835       0.99066511       0.24693333 </v>
   <v>       0.63060785       0.51813529       0.08561099 </v>
   <v>       0.28727736       0.02140114       0.82951813 </v>
   <v>       0.29829300       0.52453288       0.07104135 </v>
   <v>       0.26865976       0.33473564       0.55042334 </v>
   <v>       0.81270531       0.10666549       0.02728422 </v>
   <v>       0.65243365       0.13845891       0.61974238 </v>
   <v>       0.87448167       0.24739729       0.71418714 </v>
   <v>       0.95277620       0.47970270       0.92364033 </v>
   <v>       0.42121510       0.87686193       0.10079771 </v>
   <v>       0.83689740       0.31493138       0.35171752 </v>
   <v>       0.34469063       0.80743607       0.92858174 </v>
   <v>       0.01336349       0.76782360       0.91180960 </v>
   <v>       0.22972308       0.91622661       0.40559635 </v>
   <v>       0.03417295       0.13614823       0.87985788 </v>
   <v>       0.57386178       0.66164103       0.58208924 </v>
   <v>       0.60433823       0.40979167       0.50873007 </v>
   <v>       0.48057243       0.81398295       0.47338147 </v>
   <v>       0.36670287       0.62679268       0.38527016 </v>
   <v>       0.16625228       0.73773851       0.59626312 </v>
   <v>       0.44770843       0.11199095       0.96256096 </v>
   <v>       0.99905263       0.87528721       0.33862344 </v>
   <v>       0.30673705       0.20394711       0.21520120 </v>
   <v>       0.53054898       0.69775983       0.09553768 </v>
   <v>       0.13048880       0.61421906       0.07152369 </v>
   <v>       0.98688788       0.28167782       0.02745918 </v>
   <v>       0.12633266       0.08170464       0.78394858 </v>
   <v>       0.67377615       0.67731407       0.97776618 </v>
   <v>       0.25556268       0.46257511       0.35409110 </v>
   <v>       0.90837605       0.77781249       0.55480245 </v>
   <v>       0.60769592       0.97195467       0.48697588 </v>
   <v>       0.81145736       0.32207915       0.96424805 </v>
   <v>       0.07654033       0.00187633       0.51470543 </v>
  </varray>
  <varray name="velocities" >
   <v>       0.00000000       0.00000000       0.00000000 </v>
   <v>       0.00000000       0.00000000       0.00000000 </v>
   <v>       0.00000000       0.00000000       0.00000000 </v>
   <v>       0.00000000       0.00000000       0.00000000 </v>
   <v>       0.00000000       0.00000000       0.00000000 </v>
   <v>       0.00000000       0.00000000       0.00000000 </v>
   <v>       0.00000000       0.00000000       0.00000000 </v>
   <v>       0.00000000       0.00000000       0.00000000 </v>
   <v>       0.00000000       0.00000000       0.00000000 </v>
   <v>       0.00000000       0.00000000       0.00000000 </v>
   <v>       0.00000000       0.00000000       0.00000000 </v>
   <v>       0.00000000       0.00000000       0.00000000 </v>
   <v>       0.00000000       0.00000000       0.00000000 </v>
   <v>       0.00000000       0.00000000       0.00000000 </v>
   <v>       0.00000000       0.00000000       0.00000000 </v>
   <v>       0.00000000       0.00000000       0.00000000 </v>
   <v>       0.00000000       0.00000000       0.00000000 </v>
   <v>       0.00000000       0.00000000       0.00000000 </v>
   <v>       0.00000000       0.00000000       0.00000000 </v>
   <v>       0.00000000       0.00000000       0.00000000 </v>
   <v>       0.00000000       0.00000000       0.00000000 </v>
   <v>       0.00000000       0.00000000       0.00000000 </v>
   <v>       0.00000000       0.00000000       0.00000000 </v>
   <v>       0.00000000       0.00000000       0.00000000 </v>
   <v>       0.00000000       0.00000000       0.00000000 </v>
   <v>       0.00000000       0.00000000       0.00000000 </v>
   <v>       0.00000000       0.00000000       0.00000000 </v>
   <v>       0.00000000       0.00000000       0.00000000 </v>
   <v>       0.00000000       0.00000000       0.00000000 </v>
   <v>       0.00000000       0.00000000       0.00000000 </v>
   <v>       0.00000000       0.00000000       0.00000000 </v>
   <v>       0.00000000       0.00000000       0.00000000 </v>
   <v>       0.00000000       0.00000000       0.00000000 </v>
   <v>       0.00000000       0.00000000       0.00000000 </v>
   <v>       0.00000000       0.00000000       0.00000000 </v>
   <v>       0.00000000       0.00000000       0.00000000 </v>
   <v>       0.00000000       0.00000000       0.00000000 </v>
   <v>       0.00000000       0.00000000       0.00000000 </v>
   <v>       0.00000000       0.00000000       0.00000000 </v>
   <v>       0.00000000       0.00000000       0.00000000 </v>
   <v>       0.00000000       0.00000000       0.00000000 </v>
   <v>       0.00000000       0.00000000       0.00000000 </v>
   <v>       0.00000000       0.00000000       0.00000000 </v>
   <v>       0.00000000       0.00000000       0.00000000 </v>
   <v>       0.00000000       0.00000000       0.00000000 </v>
   <v>       0.00000000       0.00000000       0.00000000 </v>
   <v>       0.00000000       0.00000000       0.00000000 </v>
   <v>       0.00000000       0.00000000       0.00000000 </v>
   <v>       0.00000000       0.00000000       0.00000000 </v>
   <v>       0.00000000       0.00000000       0.00000000 </v>
   <v>       0.00000000       0.00000000       0.00000000 </v>
   <v>       0.00000000       0.00000000       0.00000000 </v>
   <v>       0.00000000       0.00000000       0.00000000 </v>
   <v>       0.00000000       0.00000000       0.00000000 </v>
   <v>       0.00000000       0.00000000       0.00000000 </v>
   <v>       0.00000000       0.00000000       0.00000000 </v>
   <v>       0.00000000       0.00000000       0.00000000 </v>
   <v>       0.00000000       0.00000000       0.00000000 </v>
   <v>       0.00000000       0.00000000       0.00000000 </v>
   <v>       0.00000000       0.00000000       0.00000000 </v>
   <v>       0.00000000       0.00000000       0.00000000 </v>
   <v>       0.00000000       0.00000000       0.00000000 </v>
   <v>       0.00000000       0.00000000       0.00000000 </v>
   <v>       0.00000000       0.00000000       0.00000000 </v>
   <v>       0.00000000       0.00000000       0.00000000 </v>
   <v>       0.00000000       0.00000000       0.00000000 </v>
   <v>       0.00000000       0.00000000       0.00000000 </v>
   <v>       0.00000000       0.00000000       0.00000000 </v>
   <v>       0.00000000       0.00000000       0.00000000 </v>
   <v>       0.00000000       0.00000000       0.00000000 </v>
   <v>       0.00000000       0.00000000       0.00000000 </v>
   <v>       0.00000000       0.00000000       0.00000000 </v>
   <v>       0.00000000       0.00000000       0.00000000 </v>
   <v>       0.00000000       0.00000000       0.00000000 </v>
   <v>       0.00000000       0.00000000       0.00000000 </v>
   <v>       0.00000000       0.00000000       0.00000000 </v>
   <v>       0.00000000       0.00000000       0.00000000 </v>
   <v>       0.00000000       0.00000000       0.00000000 </v>
   <v>       0.00000000       0.00000000       0.00000000 </v>
   <v>       0.00000000       0.00000000       0.00000000 </v>
   <v>       0.00000000       0.00000000       0.00000000 </v>
   <v>       0.00000000       0.00000000       0.00000000 </v>
   <v>       0.00000000       0.00000000       0.00000000 </v>
   <v>       0.00000000       0.00000000       0.00000000 </v>
   <v>       0.00000000       0.00000000       0.00000000 </v>
   <v>       0.00000000       0.00000000       0.00000000 </v>
   <v>       0.00000000       0.00000000       0.00000000 </v>
   <v>       0.00000000       0.00000000       0.00000000 </v>
   <v>       0.00000000       0.00000000       0.00000000 </v>
   <v>       0.00000000       0.00000000       0.00000000 </v>
   <v>       0.00000000       0.00000000       0.00000000 </v>
   <v>       0.00000000       0.00000000       0.00000000 </v>
   <v>       0.00000000       0.00000000       0.00000000 </v>
   <v>       0.00000000       0.00000000       0.00000000 </v>
   <v>       0.00000000       0.00000000       0.00000000 </v>
   <v>       0.00000000       0.00000000       0.00000000 </v>
   <v>       0.00000000       0.00000000       0.00000000 </v>
   <v>       0.00000000       0.00000000       0.00000000 </v>
   <v>       0.00000000       0.00000000       0.00000000 </v>
   <v>       0.00000000       0.00000000       0.00000000 </v>
   <v>       0.00000000       0.00000000       0.00000000 </v>
   <v>       0.00000000       0.00000000       0.00000000 </v>
   <v>       0.00000000       0.00000000       0.00000000 </v>
   <v>       0.00000000       0.00000000       0.00000000 </v>
   <v>       0.00000000       0.00000000       0.00000000 </v>
   <v>       0.00000000       0.00000000       0.00000000 </v>
   <v>       0.00000000       0.00000000       0.00000000 </v>
   <v>       0.00000000       0.00000000       0.00000000 </v>
   <v>       0.00000000       0.00000000       0.00000000 </v>
   <v>       0.00000000       0.00000000       0.00000000 </v>
   <v>       0.00000000       0.00000000       0.00000000 </v>
   <v>       0.00000000       0.00000000       0.00000000 </v>
   <v>       0.00000000       0.00000000       0.00000000 </v>
   <v>       0.00000000       0.00000000       0.00000000 </v>
   <v>       0.00000000       0.00000000       0.00000000 </v>
   <v>       0.00000000       0.00000000       0.00000000 </v>
   <v>       0.00000000       0.00000000       0.00000000 </v>
   <v>       0.00000000       0.00000000       0.00000000 </v>
   <v>       0.00000000       0.00000000       0.00000000 </v>
   <v>       0.00000000       0.00000000       0.00000000 </v>
   <v>       0.00000000       0.00000000       0.00000000 </v>
   <v>       0.00000000       0.00000000       0.00000000 </v>
   <v>       0.00000000       0.00000000       0.00000000 </v>
   <v>       0.00000000       0.00000000       0.00000000 </v>
   <v>       0.00000000       0.00000000       0.00000000 </v>
   <v>       0.00000000       0.00000000       0.00000000 </v>
   <v>       0.00000000       0.00000000       0.00000000 </v>
   <v>       0.00000000       0.00000000       0.00000000 </v>
   <v>       0.00000000       0.00000000       0.00000000 </v>
   <v>       0.00000000       0.00000000       0.00000000 </v>
   <v>       0.00000000       0.00000000       0.00000000 </v>
   <v>       0.00000000       0.00000000       0.00000000 </v>
   <v>       0.00000000       0.00000000       0.00000000 </v>
   <v>       0.00000000       0.00000000       0.00000000 </v>
   <v>       0.00000000       0.00000000       0.00000000 </v>
  </varray>
 </structure>
 <calculation>
  <scstep>
   <time name="dav">   53.81   53.81</time>
   <time name="total">   54.43   54.44</time>
   <energy>
    <i name="alphaZ">   1870.29120978 </i>
    <i name="ewald"> -33769.87249385 </i>
    <i name="hartreedc"> -26372.85488242 </i>
    <i name="XCdc">   3113.26530472 </i>
    <i name="pawpsdc">  50594.51003143 </i>
    <i name="pawaedc"> -49994.65612350 </i>
    <i name="eentropy">     -0.04197933 </i>
    <i name="bandstr">  -1242.35091434 </i>
    <i name="atom">  64968.54023382 </i>
    <i name="e_fr_energy">   9166.83038632 </i>
    <i name="e_wo_entrp">   9166.87236565 </i>
    <i name="e_0_energy">   9166.85137598 </i>
   </energy>
  </scstep>
  <scstep>
   <time name="dav">   63.23   63.25</time>
   <time name="total">   63.23   63.25</time>
   <energy>
    <i name="e_fr_energy">     73.10537249 </i>
    <i name="e_wo_entrp">     73.10538775 </i>
    <i name="e_0_energy">     73.10538012 </i>
   </energy>
  </scstep>
  <scstep>
   <time name="dav">   63.16   63.17</time>
   <time name="total">   63.16   63.17</time>
   <energy>
    <i name="e_fr_energy">   -984.82517908 </i>
    <i name="e_wo_entrp">   -984.82517908 </i>
    <i name="e_0_energy">   -984.82517908 </i>
   </energy>
  </scstep>
  <scstep>
   <time name="dav">   66.79   66.80</time>
   <time name="total">   66.79   66.80</time>
   <energy>
    <i name="e_fr_energy">  -1033.25939325 </i>
    <i name="e_wo_entrp">  -1033.25939325 </i>
    <i name="e_0_energy">  -1033.25939325 </i>
   </energy>
  </scstep>
  <scstep>
   <time name="dav">   85.12   85.14</time>
   <time name="total">   87.79   87.81</time>
   <energy>
    <i name="e_fr_energy">  -1039.54800343 </i>
    <i name="e_wo_entrp">  -1039.54800343 </i>
    <i name="e_0_energy">  -1039.54800343 </i>
   </energy>
  </scstep>
  <scstep>
   <time name="dav">   63.00   63.01</time>
   <time name="total">   66.26   66.27</time>
   <energy>
    <i name="e_fr_energy">   -888.57051803 </i>
    <i name="e_wo_entrp">   -888.52701198 </i>
    <i name="e_0_energy">   -888.54876501 </i>
   </energy>
  </scstep>
  <scstep>
   <time name="dav">   64.33   64.33</time>
   <time name="total">   67.60   67.62</time>
   <energy>
    <i name="e_fr_energy">   -890.57412628 </i>
    <i name="e_wo_entrp">   -890.55916528 </i>
    <i name="e_0_energy">   -890.56664578 </i>
   </energy>
  </scstep>
  <scstep>
   <time name="dav">   65.01   65.02</time>
   <time name="total">   68.25   68.26</time>
   <energy>
    <i name="e_fr_energy">   -868.11458852 </i>
    <i name="e_wo_entrp">   -868.10188657 </i>
    <i name="e_0_energy">   -868.10823754 </i>
   </energy>
  </scstep>
  <scstep>
   <time name="dav">   67.45   67.45</time>
   <time name="total">   70.75   70.76</time>
   <energy>
    <i name="e_fr_energy">   -866.02375542 </i>
    <i name="e_wo_entrp">   -866.00290464 </i>
    <i name="e_0_energy">   -866.01333003 </i>
   </energy>
  </scstep>
  <scstep>
   <time name="dav">   60.33   60.33</time>
   <time name="total">   63.60   63.61</time>
   <energy>
    <i name="e_fr_energy">   -865.72310729 </i>
    <i name="e_wo_entrp">   -865.70305205 </i>
    <i name="e_0_energy">   -865.71307967 </i>
   </energy>
  </scstep>
  <scstep>
   <time name="dav">   65.63   65.63</time>
   <time name="total">   68.95   68.97</time>
   <energy>
    <i name="e_fr_energy">   -859.72293162 </i>
    <i name="e_wo_entrp">   -859.70121834 </i>
    <i name="e_0_energy">   -859.71207498 </i>
   </energy>
  </scstep>
  <scstep>
   <time name="dav">   65.48   65.48</time>
   <time name="total">   68.72   68.74</time>
   <energy>
    <i name="e_fr_energy">   -858.46000691 </i>
    <i name="e_wo_entrp">   -858.42614244 </i>
    <i name="e_0_energy">   -858.44307468 </i>
   </energy>
  </scstep>
  <scstep>
   <time name="dav">   64.89   64.89</time>
   <time name="total">   68.19   68.21</time>
   <energy>
    <i name="e_fr_energy">   -858.25670980 </i>
    <i name="e_wo_entrp">   -858.22098327 </i>
    <i name="e_0_energy">   -858.23884653 </i>
   </energy>
  </scstep>
  <scstep>
   <time name="dav">   70.06   70.06</time>
   <time name="total">   73.31   73.33</time>
   <energy>
    <i name="e_fr_energy">   -858.21685499 </i>
    <i name="e_wo_entrp">   -858.20218494 </i>
    <i name="e_0_energy">   -858.20951996 </i>
   </energy>
  </scstep>
  <scstep>
   <time name="dav">   70.15   70.15</time>
   <time name="total">   73.49   73.50</time>
   <energy>
    <i name="e_fr_energy">   -858.00809312 </i>
    <i name="e_wo_entrp">   -857.98993329 </i>
    <i name="e_0_energy">   -857.99901321 </i>
   </energy>
  </scstep>
  <scstep>
   <time name="dav">   64.31   64.30</time>
   <time name="total">   67.57   67.59</time>
   <energy>
    <i name="e_fr_energy">   -857.90228481 </i>
    <i name="e_wo_entrp">   -857.87030472 </i>
    <i name="e_0_energy">   -857.88629477 </i>
   </energy>
  </scstep>
  <scstep>
   <time name="dav">   67.42   67.42</time>
   <time name="total">   70.75   70.76</time>
   <energy>
    <i name="e_fr_energy">   -857.79606272 </i>
    <i name="e_wo_entrp">   -857.76429361 </i>
    <i name="e_0_energy">   -857.78017816 </i>
   </energy>
  </scstep>
  <scstep>
   <time name="dav">   67.88   67.88</time>
   <time name="total">   71.16   71.18</time>
   <energy>
    <i name="e_fr_energy">   -857.79165500 </i>
    <i name="e_wo_entrp">   -857.75459913 </i>
    <i name="e_0_energy">   -857.77312707 </i>
   </energy>
  </scstep>
  <scstep>
   <time name="dav">   63.25   63.25</time>
   <time name="total">   66.57   66.58</time>
   <energy>
    <i name="e_fr_energy">   -857.73631655 </i>
    <i name="e_wo_entrp">   -857.69912798 </i>
    <i name="e_0_energy">   -857.71772227 </i>
   </energy>
  </scstep>
  <scstep>
   <time name="dav">   62.44   62.44</time>
   <time name="total">   65.68   65.69</time>
   <energy>
    <i name="e_fr_energy">   -857.73757520 </i>
    <i name="e_wo_entrp">   -857.69433064 </i>
    <i name="e_0_energy">   -857.71595292 </i>
   </energy>
  </scstep>
  <scstep>
   <time name="dav">   64.48   64.48</time>
   <time name="total">   67.77   67.79</time>
   <energy>
    <i name="e_fr_energy">   -857.73293143 </i>
    <i name="e_wo_entrp">   -857.68699568 </i>
    <i name="e_0_energy">   -857.70996356 </i>
   </energy>
  </scstep>
  <scstep>
   <time name="dav">   68.32   68.32</time>
   <time name="total">   71.64   71.66</time>
   <energy>
    <i name="e_fr_energy">   -857.73311379 </i>
    <i name="e_wo_entrp">   -857.68996368 </i>
    <i name="e_0_energy">   -857.71153873 </i>
   </energy>
  </scstep>
  <scstep>
   <time name="dav">   60.15   60.15</time>
   <time name="total">   63.48   63.50</time>
   <energy>
    <i name="e_fr_energy">   -857.73379722 </i>
    <i name="e_wo_entrp">   -857.68864439 </i>
    <i name="e_0_energy">   -857.71122081 </i>
   </energy>
  </scstep>
  <scstep>
   <time name="dav">   63.54   63.55</time>
   <time name="total">   66.87   66.89</time>
   <energy>
    <i name="e_fr_energy">   -857.73490484 </i>
    <i name="e_wo_entrp">   -857.68999668 </i>
    <i name="e_0_energy">   -857.71245076 </i>
   </energy>
  </scstep>
  <scstep>
   <time name="dav">   65.08   65.07</time>
   <time name="total">   68.37   68.38</time>
   <energy>
    <i name="e_fr_energy">   -857.73511633 </i>
    <i name="e_wo_entrp">   -857.68923132 </i>
    <i name="e_0_energy">   -857.71217383 </i>
   </energy>
  </scstep>
  <scstep>
   <time name="dav">   61.30   61.30</time>
   <time name="total">   64.54   64.55</time>
   <energy>
    <i name="e_fr_energy">   -857.73515496 </i>
    <i name="e_wo_entrp">   -857.68988396 </i>
    <i name="e_0_energy">   -857.71251946 </i>
   </energy>
  </scstep>
  <scstep>
   <time name="dav">   58.79   58.79</time>
   <time name="total">   62.11   62.12</time>
   <energy>
    <i name="e_fr_energy">   -857.73523598 </i>
    <i name="e_wo_entrp">   -857.68997064 </i>
    <i name="e_0_energy">   -857.71260331 </i>
   </energy>
  </scstep>
  <scstep>
   <time name="dav">   61.72   61.71</time>
   <time name="total">   65.02   65.03</time>
   <energy>
    <i name="e_fr_energy">   -857.73524551 </i>
    <i name="e_wo_entrp">   -857.69013632 </i>
    <i name="e_0_energy">   -857.71269091 </i>
   </energy>
  </scstep>
  <scstep>
   <time name="dav">   53.43   53.43</time>
   <time name="total">   56.72   56.74</time>
   <energy>
    <i name="e_fr_energy">   -857.73525826 </i>
    <i name="e_wo_entrp">   -857.69016914 </i>
    <i name="e_0_energy">   -857.71271370 </i>
   </energy>
  </scstep>
  <scstep>
   <time name="dav">   48.99   49.00</time>
   <time name="total">   52.27   52.28</time>
   <energy>
    <i name="e_fr_energy">   -857.73526108 </i>
    <i name="e_wo_entrp">   -857.69015349 </i>
    <i name="e_0_energy">   -857.71270728 </i>
   </energy>
  </scstep>
  <scstep>
   <time name="dav">   42.52   42.52</time>
   <time name="total">   43.12   43.13</time>
   <energy>
    <i name="alphaZ">   1870.29120978 </i>
    <i name="ewald"> -33769.87249385 </i>
    <i name="hartreedc"> -28309.12371534 </i>
    <i name="XCdc">   3218.34701495 </i>
    <i name="pawpsdc">  84828.61275059 </i>
    <i name="pawaedc"> -84488.45599130 </i>
    <i name="eentropy">     -0.04510228 </i>
    <i name="bandstr">  -9176.02916771 </i>
    <i name="atom">  64968.54023382 </i>
    <i name="e_fr_energy">   -857.73526135 </i>
    <i name="e_wo_entrp">   -857.69015906 </i>
    <i name="e_0_energy">   -857.71271021 </i>
   </energy>
  </scstep>
  <structure>
   <crystal>
    <varray name="basis" >
     <v>      13.67086365       0.00000000       0.00000000 </v>
     <v>       0.00000000      13.67086365       0.00000000 </v>
     <v>       0.00000000       0.00000000      13.67086365 </v>
    </varray>
    <i name="volume">   2554.98206157 </i>
    <varray name="rec_basis" >
     <v>       0.07314827       0.00000000       0.00000000 </v>
     <v>       0.00000000       0.07314827       0.00000000 </v>
     <v>       0.00000000       0.00000000       0.07314827 </v>
    </varray>
   </crystal>
   <varray name="positions" >
    <v>       0.27394366       0.75381888       0.40369891 </v>
    <v>       0.38692777       0.21947606       0.52942843 </v>
    <v>       0.83666798       0.72182763       0.36225310 </v>
    <v>       0.40524650       0.62989527       0.24831999 </v>
    <v>       0.23444180       0.42600951       0.64796381 </v>
    <v>       0.85736192       0.98729123       0.07596094 </v>
    <v>       0.21211864       0.79773949       0.78844484 </v>
    <v>       0.93331698       0.19232786       0.32228334 </v>
    <v>       0.58246190       0.34385781       0.38592008 </v>
    <v>       0.27936495       0.06374521       0.36614225 </v>
    <v>       0.67117801       0.51408272       0.66235802 </v>
    <v>       0.44582365       0.71304210       0.88854104 </v>
    <v>       0.70210221       0.27671997       0.71250204 </v>
    <v>       0.63303023       0.49682986       0.90567780 </v>
    <v>       0.26101332       0.17457631       0.06802721 </v>
    <v>       0.02342108       0.61665364       0.89848781 </v>
    <v>       0.88046793       0.93735928       0.61815662 </v>
    <v>       0.23763960       0.92541991       0.58281115 </v>
    <v>       0.71718126       0.75789979       0.59657701 </v>
    <v>       0.77426167       0.72773359       0.87084093 </v>
    <v>       0.74603419       0.45964607       0.17296042 </v>
    <v>       0.18806401       0.31797427       0.35378739 </v>
    <v>       0.86812183       0.22275299       0.53840535 </v>
    <v>       0.48629048       0.00800650       0.76893045 </v>
    <v>       0.01998194       0.53927488       0.17092352 </v>
    <v>       0.16391760       0.24617705       0.83117347 </v>
    <v>       0.09254486       0.84236134       0.06124167 </v>
    <v>       0.57391143       0.77225875       0.39100490 </v>
    <v>       0.01498415       0.94100728       0.24095073 </v>
    <v>       0.94711181       0.28511598       0.13534486 </v>
    <v>       0.55801554       0.59492409       0.03045916 </v>
    <v>       0.90743904       0.37178530       0.94398110 </v>
    <v>       0.69413167       0.05805902       0.50443810 </v>
    <v>       0.50007866       0.44919072       0.53074768 </v>
    <v>       0.11142174       0.62283546       0.64567853 </v>
    <v>       0.21746360       0.62713218       0.01128159 </v>
    <v>       0.84399985       0.70531613       0.12622807 </v>
    <v>       0.51153898       0.91349141       0.53303093 </v>
    <v>       0.02085872       0.03425945       0.83269304 </v>
    <v>       0.01216067       0.51290550       0.44119697 </v>
    <v>       0.90384014       0.71386281       0.65651717 </v>
    <v>       0.74923888       0.38268812       0.40396007 </v>
    <v>       0.52860117       0.93801056       0.14748967 </v>
    <v>       0.00623549       0.81960800       0.81279656 </v>
    <v>       0.63136207       0.73433031       0.14297132 </v>
    <v>       0.75118602       0.18755220       0.96624650 </v>
    <v>       0.34184246       0.50742467       0.42556637 </v>
    <v>       0.55716101       0.11161476       0.98179338 </v>
    <v>       0.09276244       0.94590642       0.41733375 </v>
    <v>       0.24673793       0.43787464       0.99435171 </v>
    <v>       0.44029720       0.20044449       0.24041770 </v>
    <v>       0.33817563       0.84852060       0.03917717 </v>
    <v>       0.53564767       0.71668461       0.67524091 </v>
    <v>       0.85223553       0.13268946       0.79484653 </v>
    <v>       0.87952563       0.63279174       0.21743426 </v>
    <v>       0.62166659       0.85217520       0.13133517 </v>
    <v>       0.59695471       0.00423222       0.03741574 </v>
    <v>       0.10097622       0.99856400       0.31650400 </v>
    <v>       0.49620089       0.98669868       0.63137405 </v>
    <v>       0.71599934       0.69926752       0.21991932 </v>
    <v>       0.03718540       0.92001177       0.86010063 </v>
    <v>       0.49081747       0.24182142       0.14811472 </v>
    <v>       0.69464584       0.77799955       0.41267980 </v>
    <v>       0.08825834       0.48614584       0.53968221 </v>
    <v>       0.21054588       0.31465896       0.03189725 </v>
    <v>       0.01621093       0.30285385       0.23900630 </v>
    <v>       0.46393924       0.35670828       0.64361210 </v>
    <v>       0.87131022       0.02758814       0.77624651 </v>
    <v>       0.63039023       0.20755612       0.96870320 </v>
    <v>       0.04652984       0.28303003       0.42317005 </v>
    <v>       0.48201021       0.57891957       0.95897255 </v>
    <v>       0.71710739       0.14293879       0.41816029 </v>
    <v>       0.74557141       0.12432597       0.84490931 </v>
    <v>       0.43868644       0.41990425       0.42404943 </v>
    <v>       0.18972421       0.47053490       0.89308899 </v>
    <v>       0.42681341       0.71520622       0.74907277 </v>
    <v>       0.88586683       0.58525889       0.49237787 </v>
    <v>       0.78351240       0.66779897       0.67882687 </v>
    <v>       0.06441897       0.83238648       0.69574361 </v>
    <v>       0.05895441       0.58342742       0.32886471 </v>
    <v>       0.85629351       0.66103020       0.01192160 </v>
    <v>       0.32186219       0.04673106       0.65391746 </v>
    <v>       0.70466992       0.40842055       0.79968986 </v>
    <v>       0.40091313       0.96478781       0.50470613 </v>
    <v>       0.44792109       0.24636437       0.34735301 </v>
    <v>       0.19219795       0.61774020       0.73069823 </v>
    <v>       0.56871457       0.71024208       0.29984972 </v>
    <v>       0.23503584       0.92867842       0.01524459 </v>
    <v>       0.61941426       0.66378368       0.74779660 </v>
    <v>       0.19460070       0.67861613       0.90511154 </v>
    <v>       0.78702298       0.00606693       0.51440831 </v>
    <v>       0.41895560       0.50564713       0.57661058 </v>
    <v>       0.58849617       0.82713403       0.64325519 </v>
    <v>       0.76365748       0.40494807       0.53852790 </v>
    <v>       0.28047310       0.70335574       0.08109918 </v>
    <v>       0.70064697       0.45192885       0.31775793 </v>
    <v>       0.86535417       0.80178662       0.76276991 </v>
    <v>       0.04843599       0.98529714       0.13059308 </v>
    <v>       0.88684751       0.81401634       0.10398967 </v>
    <v>       0.92966322       0.00718918       0.23283559 </v>
    <v>       0.97737235       0.65956831       0.72739767 </v>
    <v>       0.85783669       0.36466333       0.11551292 </v>
    <v>       0.48991835       0.99066511       0.24693333 </v>
    <v>       0.63060785       0.51813529       0.08561099 </v>
    <v>       0.28727736       0.02140114       0.82951813 </v>
    <v>       0.29829300       0.52453288       0.07104135 </v>
    <v>       0.26865976       0.33473564       0.55042334 </v>
    <v>       0.81270531       0.10666549       0.02728422 </v>
    <v>       0.65243365       0.13845891       0.61974238 </v>
    <v>       0.87448167       0.24739729       0.71418714 </v>
    <v>       0.95277620       0.47970270       0.92364033 </v>
    <v>       0.42121510       0.87686193       0.10079771 </v>
    <v>       0.83689740       0.31493138       0.35171752 </v>
    <v>       0.34469063       0.80743607       0.92858174 </v>
    <v>       0.01336349       0.76782360       0.91180960 </v>
    <v>       0.22972308       0.91622661       0.40559635 </v>
    <v>       0.03417295       0.13614823       0.87985788 </v>
    <v>       0.57386178       0.66164103       0.58208924 </v>
    <v>       0.60433823       0.40979167       0.50873007 </v>
    <v>       0.48057243       0.81398295       0.47338147 </v>
    <v>       0.36670287       0.62679268       0.38527016 </v>
    <v>       0.16625228       0.73773851       0.59626312 </v>
    <v>       0.44770843       0.11199095       0.96256096 </v>
    <v>       0.99905263       0.87528721       0.33862344 </v>
    <v>       0.30673705       0.20394711       0.21520120 </v>
    <v>       0.53054898       0.69775983       0.09553768 </v>
    <v>       0.13048880       0.61421906       0.07152369 </v>
    <v>       0.98688788       0.28167782       0.02745918 </v>
    <v>       0.12633266       0.08170464       0.78394858 </v>
    <v>       0.67377615       0.67731407       0.97776618 </v>
    <v>       0.25556268       0.46257511       0.35409110 </v>
    <v>       0.90837605       0.77781249       0.55480245 </v>
    <v>       0.60769592       0.97195467       0.48697588 </v>
    <v>       0.81145736       0.32207915       0.96424805 </v>
    <v>       0.07654033       0.00187633       0.51470543 </v>
   </varray>
  </structure>
  <varray name="forces" >
   <v>      -1.21801728       0.90600688       1.81241294 </v>
   <v>       0.31463573       1.44767587       2.08083427 </v>
   <v>       1.01185104      -0.77703251       0.58364436 </v>
   <v>       1.41948398      -0.00350787      -4.24555145 </v>
   <v>       0.26068847       2.54857457       0.79153404 </v>
   <v>       2.55789948      -4.65860060       3.46302929 </v>
   <v>       1.48316957      -1.16803569       0.63520496 </v>
   <v>       0.80392585      -0.65179606       0.14955328 </v>
   <v>      -3.71588386      -3.54385305      -4.16108655 </v>
   <v>       0.27262979      -1.35471013      -0.70134681 </v>
   <v>       0.98653383       1.15368158      -0.25282253 </v>
   <v>       1.99529542      -0.79105904       0.77556211 </v>
   <v>      -0.75966575      -0.43867553      -0.66470957 </v>
   <v>       1.75022027      -1.49974557      -2.42840362 </v>
   <v>       0.68566770      -1.45481446      -0.02852072 </v>
   <v>       1.12926521      -1.17180350      -0.10851265 </v>
   <v>       1.38481733      -0.61148190       0.08382993 </v>
   <v>       0.22868814       0.95441975       0.49892480 </v>
   <v>      -1.83213597       1.88692226      -3.70914830 </v>
   <v>      -0.31457556      -0.96852691      -0.23584909 </v>
   <v>       1.05479929       0.64919529      -0.48035503 </v>
   <v>      -1.15904750       0.20965947       0.64373550 </v>
   <v>      -0.56658129       1.13047693       0.02561275 </v>
   <v>      -1.89900873       0.61511632       1.07655597 </v>
   <v>      -0.12767003       0.50483024       1.14230210 </v>
   <v>      -1.02179962      -2.08766408       0.51941990 </v>
   <v>       0.69391076       0.23335925      -1.45007285 </v>
   <v>       2.94718796       1.54707733       5.55099365 </v>
   <v>       3.45334561       2.51971251      -0.26586596 </v>
   <v>       0.08890223       2.55066079       2.34593758 </v>
   <v>       7.62325686       4.98995190       6.73601617 </v>
   <v>       5.74016069       1.56405519       1.81132746 </v>
   <v>      -7.78888251       6.34210961       0.25078624 </v>
   <v>      -1.50493812      -5.55020817       2.06503947 </v>
   <v>       1.80497752       4.06908780      -0.79221418 </v>
   <v>       6.74213610       3.58522836      -3.09313528 </v>
   <v>       0.99381156      -1.21187514      -1.83513104 </v>
   <v>       0.01423910       4.73226591       3.34323878 </v>
   <v>       3.12979493      -0.02138928      -2.75218921 </v>
   <v>      -0.72677695       3.75215333       0.17123767 </v>
   <v>      -4.49192390       0.57000789       0.19361503 </v>
   <v>       7.36057334       1.70708533       3.30877318 </v>
   <v>       0.01030463      -0.11655621      -1.66339162 </v>
   <v>      -3.08225224      -0.23280552      -7.60282667 </v>
   <v>       1.87595093       1.13281851       1.15053576 </v>
   <v>       1.68447677       0.42530631      -1.86325736 </v>
   <v>       0.38640593      -1.49081717       0.01292815 </v>
   <v>       1.00467046      -1.77905951       2.86143449 </v>
   <v>       0.72014031      -2.82268460      -1.62839974 </v>
   <v>      -1.63360236      -2.22400267       0.79729229 </v>
   <v>      -3.85466004       1.34352222      -0.84167359 </v>
   <v>     -10.46083343      -1.17526580      -6.88847064 </v>
   <v>      -0.83240835       0.49584196       3.77418129 </v>
   <v>       0.55831541       9.11496699      -0.97282728 </v>
   <v>       0.94469720       0.18232913      -1.40681612 </v>
   <v>      -1.20157876       1.42665289       1.10149997 </v>
   <v>      -1.50043184       1.70519503       0.78054898 </v>
   <v>       1.80369187       4.14488740      -3.02417551 </v>
   <v>       1.02795402      -1.13151103      -0.67842518 </v>
   <v>       0.74584459       0.59621634      -3.96188903 </v>
   <v>      -0.22112194       5.32759116       1.61123599 </v>
   <v>       1.28636459      -0.49714781      -0.71706790 </v>
   <v>      -2.57183663       0.49003651       0.97568862 </v>
   <v>      -0.76687142       1.97549106      -0.40112161 </v>
   <v>       1.54875269       3.95000682      -2.00480102 </v>
   <v>      -0.87480712      -0.55822615      -3.24272888 </v>
   <v>       1.46525751      -0.15594875      -2.20016848 </v>
   <v>       4.28252735      -6.64240878      -1.91073146 </v>
   <v>       0.80267772      -0.56691468       0.72832248 </v>
   <v>      -0.60978204      -0.92286684       0.47563840 </v>
   <v>      -4.49545031      -3.57449856      -4.58393550 </v>
   <v>      -0.29633065       0.38260599       1.01655537 </v>
   <v>      -1.22661591       2.88538517       2.31496699 </v>
   <v>      -0.42818699       2.00325039      -0.98063671 </v>
   <v>       1.56912688      -1.30179021       1.94366688 </v>
   <v>       1.77579424       0.99788031      -5.68334734 </v>
   <v>       3.38887856      -1.58487864      -2.04652035 </v>
   <v>       5.00327272      -2.87925237       1.21685284 </v>
   <v>      -1.54249005       0.36356973       4.68625770 </v>
   <v>      -1.26247086      -2.65206264       2.85944093 </v>
   <v>       0.01717950      -0.73371135       1.58594844 </v>
   <v>      -0.25593254       0.11975435       0.51999426 </v>
   <v>      -1.16656607       1.30864281      -0.51185342 </v>
   <v>      -1.72265628       0.19624225      -1.74255869 </v>
   <v>       0.22505110      -1.50963305       1.22466150 </v>
   <v>      -1.28465591      -2.20945507      -0.47323791 </v>
   <v>      -4.10295335      -1.77256794      -3.44625335 </v>
   <v>       2.02510396      -2.12998851       2.61016024 </v>
   <v>      -0.61616281      -0.30920085       2.47007920 </v>
   <v>       0.22778587      -0.94526968       1.34834705 </v>
   <v>       7.73604983      -4.05609883       2.21128374 </v>
   <v>      -5.81188220       5.46843016       0.77720488 </v>
   <v>      -2.76150236       1.07950335       0.54822134 </v>
   <v>       1.79457984      -2.10320950      -3.74236286 </v>
   <v>       2.35964581       3.27148420       1.26250432 </v>
   <v>      -0.96294315      -1.31928903       2.70654273 </v>
   <v>       3.76846247       1.69244268      -0.68000560 </v>
   <v>       2.36344569      -3.69261608      -1.42561547 </v>
   <v>      -0.19047320       0.93410760       1.53875820 </v>
   <v>      -8.50757938       4.59525497       1.15255032 </v>
   <v>       3.42571297      -2.24707071      -0.22359345 </v>
   <v>       0.92896602       0.62170436       2.24653326 </v>
   <v>       0.87798303      -0.29670721      -1.86234800 </v>
   <v>      -2.16219193      -0.00396522      -1.14335616 </v>
   <v>       0.65741204      -0.01179526      -1.33693414 </v>
   <v>      -1.77773870      -2.29176433      -3.27681020 </v>
   <v>       0.73820624      -2.95818648      -2.61566566 </v>
   <v>      -2.78037433       5.76934090      -1.95561848 </v>
   <v>       1.85108163      -1.10803663      -1.96418746 </v>
   <v>      -1.05582445      -4.03426552       1.40671778 </v>
   <v>      -1.51762651      -3.23762202       0.49075012 </v>
   <v>       7.01935533       2.51237516       4.61006582 </v>
   <v>      -2.32283279       1.21685070       1.83109636 </v>
[...]
       <r>     0.7599    58.8606   826.7452 </r>
       <r>     0.9333    59.2608   837.0182 </r>
       <r>     1.1066    14.6845   839.5638 </r>
       <r>     1.2800    53.8595   848.9005 </r>
       <r>     1.4533    29.7476   854.0573 </r>
       <r>     1.6267    24.6198   858.3253 </r>
       <r>     1.8000    20.8688   861.9429 </r>
       <r>     1.9734    33.5576   867.7602 </r>
       <r>     2.1467    22.0044   871.5748 </r>
       <r>     2.3201    23.3700   875.6260 </r>
       <r>     2.4935    18.2745   878.7939 </r>
       <r>     2.6668    27.0866   883.4895 </r>
       <r>     2.8402    30.0382   888.6967 </r>
       <r>     3.0135    14.0887   891.1390 </r>
       <r>     3.1869     6.5871   892.2809 </r>
       <r>     3.3602    18.8340   895.5458 </r>
       <r>     3.5336    12.2634   897.6717 </r>
       <r>     3.7069    32.6317   903.3285 </r>
       <r>     3.8803    29.7436   908.4847 </r>
       <r>     4.0536    33.6714   914.3217 </r>
       <r>     4.2270    38.9202   921.0686 </r>
       <r>     4.4003    41.1360   928.1997 </r>
       <r>     4.5737    49.6266   936.8026 </r>
       <r>     4.7470    56.5013   946.5972 </r>
       <r>     4.9204    41.8027   953.8439 </r>
       <r>     5.0937    64.0566   964.9483 </r>
       <r>     5.2671    74.5988   977.8802 </r>
       <r>     5.4405    80.4462   991.8258 </r>
       <r>     5.6138    78.9498  1005.5120 </r>
       <r>     5.7872    83.9226  1020.0602 </r>
       <r>     5.9605    93.1907  1036.2151 </r>
       <r>     6.1339    21.8302  1039.9994 </r>
       <r>     6.3072     0.0035  1040.0000 </r>
       <r>     6.4806     0.0000  1040.0000 </r>
       <r>     6.6539     0.0000  1040.0000 </r>
       <r>     6.8273     0.0000  1040.0000 </r>
       <r>     7.0006     0.0000  1040.0000 </r>
       <r>     7.1740     0.0000  1040.0000 </r>
       <r>     7.3473     0.0000  1040.0000 </r>
       <r>     7.5207     0.0000  1040.0000 </r>
       <r>     7.6940     0.0000  1040.0000 </r>
       <r>     7.8674     0.0000  1040.0000 </r>
       <r>     8.0407     0.0000  1040.0000 </r>
       <r>     8.2141     0.0000  1040.0000 </r>
       <r>     8.3875     0.0000  1040.0000 </r>
      </set>
     </set>
    </array>
   </total>
  </dos>
 </calculation>
 <structure name="finalpos" >
  <crystal>
   <varray name="basis" >
    <v>      13.67086365       0.00000000       0.00000000 </v>
    <v>       0.00000000      13.67086365       0.00000000 </v>
    <v>       0.00000000       0.00000000      13.67086365 </v>
   </varray>
   <i name="volume">   2554.98206157 </i>
   <varray name="rec_basis" >
    <v>       0.07314827       0.00000000       0.00000000 </v>
    <v>       0.00000000       0.07314827       0.00000000 </v>
    <v>       0.00000000       0.00000000       0.07314827 </v>
   </varray>
  </crystal>
  <varray name="positions" >
   <v>       0.27394366       0.75381888       0.40369891 </v>
   <v>       0.38692777       0.21947606       0.52942843 </v>
   <v>       0.83666798       0.72182763       0.36225310 </v>
   <v>       0.40524650       0.62989527       0.24831999 </v>
   <v>       0.23444180       0.42600951       0.64796381 </v>
   <v>       0.85736192       0.98729123       0.07596094 </v>
   <v>       0.21211864       0.79773949       0.78844484 </v>
   <v>       0.93331698       0.19232786       0.32228334 </v>
   <v>       0.58246190       0.34385781       0.38592008 </v>
   <v>       0.27936495       0.06374521       0.36614225 </v>
   <v>       0.67117801       0.51408272       0.66235802 </v>
   <v>       0.44582365       0.71304210       0.88854104 </v>
   <v>       0.70210221       0.27671997       0.71250204 </v>
   <v>       0.63303023       0.49682986       0.90567780 </v>
   <v>       0.26101332       0.17457631       0.06802721 </v>
   <v>       0.02342108       0.61665364       0.89848781 </v>
   <v>       0.88046793       0.93735928       0.61815662 </v>
   <v>       0.23763960       0.92541991       0.58281115 </v>
   <v>       0.71718126       0.75789979       0.59657701 </v>
   <v>       0.77426167       0.72773359       0.87084093 </v>
   <v>       0.74603419       0.45964607       0.17296042 </v>
   <v>       0.18806401       0.31797427       0.35378739 </v>
   <v>       0.86812183       0.22275299       0.53840535 </v>
   <v>       0.48629048       0.00800650       0.76893045 </v>
   <v>       0.01998194       0.53927488       0.17092352 </v>
   <v>       0.16391760       0.24617705       0.83117347 </v>
   <v>       0.09254486       0.84236134       0.06124167 </v>
   <v>       0.57391143       0.77225875       0.39100490 </v>
   <v>       0.01498415       0.94100728       0.24095073 </v>
   <v>       0.94711181       0.28511598       0.13534486 </v>
   <v>       0.55801554       0.59492409       0.03045916 </v>
   <v>       0.90743904       0.37178530       0.94398110 </v>
   <v>       0.69413167       0.05805902       0.50443810 </v>
   <v>       0.50007866       0.44919072       0.53074768 </v>
   <v>       0.11142174       0.62283546       0.64567853 </v>
   <v>       0.21746360       0.62713218       0.01128159 </v>
   <v>       0.84399985       0.70531613       0.12622807 </v>
   <v>       0.51153898       0.91349141       0.53303093 </v>
   <v>       0.02085872       0.03425945       0.83269304 </v>
   <v>       0.01216067       0.51290550       0.44119697 </v>
   <v>       0.90384014       0.71386281       0.65651717 </v>
   <v>       0.74923888       0.38268812       0.40396007 </v>
   <v>       0.52860117       0.93801056       0.14748967 </v>
   <v>       0.00623549       0.81960800       0.81279656 </v>
   <v>       0.63136207       0.73433031       0.14297132 </v>
   <v>       0.75118602       0.18755220       0.96624650 </v>
   <v>       0.34184246       0.50742467       0.42556637 </v>
   <v>       0.55716101       0.11161476       0.98179338 </v>
   <v>       0.09276244       0.94590642       0.41733375 </v>
   <v>       0.24673793       0.43787464       0.99435171 </v>
   <v>       0.44029720       0.20044449       0.24041770 </v>
   <v>       0.33817563       0.84852060       0.03917717 </v>
   <v>       0.53564767       0.71668461       0.67524091 </v>
   <v>       0.85223553       0.13268946       0.79484653 </v>
   <v>       0.87952563       0.63279174       0.21743426 </v>
   <v>       0.62166659       0.85217520       0.13133517 </v>
   <v>       0.59695471       0.00423222       0.03741574 </v>
   <v>       0.10097622       0.99856400       0.31650400 </v>
   <v>       0.49620089       0.98669868       0.63137405 </v>
   <v>       0.71599934       0.69926752       0.21991932 </v>
   <v>       0.03718540       0.92001177       0.86010063 </v>
   <v>       0.49081747       0.24182142       0.14811472 </v>
   <v>       0.69464584       0.77799955       0.41267980 </v>
   <v>       0.08825834       0.48614584       0.53968221 </v>
   <v>       0.21054588       0.31465896       0.03189725 </v>
   <v>       0.01621093       0.30285385       0.23900630 </v>
   <v>       0.46393924       0.35670828       0.64361210 </v>
   <v>       0.87131022       0.02758814       0.77624651 </v>
   <v>       0.63039023       0.20755612       0.96870320 </v>
   <v>       0.04652984       0.28303003       0.42317005 </v>
   <v>       0.48201021       0.57891957       0.95897255 </v>
   <v>       0.71710739       0.14293879       0.41816029 </v>
   <v>       0.74557141       0.12432597       0.84490931 </v>
   <v>       0.43868644       0.41990425       0.42404943 </v>
   <v>       0.18972421       0.47053490       0.89308899 </v>
   <v>       0.42681341       0.71520622       0.74907277 </v>
   <v>       0.88586683       0.58525889       0.49237787 </v>
   <v>       0.78351240       0.66779897       0.67882687 </v>
   <v>       0.06441897       0.83238648       0.69574361 </v>
   <v>       0.05895441       0.58342742       0.32886471 </v>
   <v>       0.85629351       0.66103020       0.01192160 </v>
   <v>       0.32186219       0.04673106       0.65391746 </v>
   <v>       0.70466992       0.40842055       0.79968986 </v>
   <v>       0.40091313       0.96478781       0.50470613 </v>
   <v>       0.44792109       0.24636437       0.34735301 </v>
   <v>       0.19219795       0.61774020       0.73069823 </v>
   <v>       0.56871457       0.71024208       0.29984972 </v>
   <v>       0.23503584       0.92867842       0.01524459 </v>
   <v>       0.61941426       0.66378368       0.74779660 </v>
   <v>       0.19460070       0.67861613       0.90511154 </v>
   <v>       0.78702298       0.00606693       0.51440831 </v>
   <v>       0.41895560       0.50564713       0.57661058 </v>
   <v>       0.58849617       0.82713403       0.64325519 </v>
   <v>       0.76365748       0.40494807       0.53852790 </v>
   <v>       0.28047310       0.70335574       0.08109918 </v>
   <v>       0.70064697       0.45192885       0.31775793 </v>
   <v>       0.86535417       0.80178662       0.76276991 </v>
   <v>       0.04843599       0.98529714       0.13059308 </v>
   <v>       0.88684751       0.81401634       0.10398967 </v>
   <v>       0.92966322       0.00718918       0.23283559 </v>
   <v>       0.97737235       0.65956831       0.72739767 </v>
   <v>       0.85783669       0.36466333       0.11551292 </v>
   <v>       0.48991835       0.99066511       0.24693333 </v>
   <v>       0.63060785       0.51813529       0.08561099 </v>
   <v>       0.28727736       0.02140114       0.82951813 </v>
   <v>       0.29829300       0.52453288       0.07104135 </v>
   <v>       0.26865976       0.33473564       0.55042334 </v>
   <v>       0.81270531       0.10666549       0.02728422 </v>
   <v>       0.65243365       0.13845891       0.61974238 </v>
   <v>       0.87448167       0.24739729       0.71418714 </v>
   <v>       0.95277620       0.47970270       0.92364033 </v>
   <v>       0.42121510       0.87686193       0.10079771 </v>
   <v>       0.83689740       0.31493138       0.35171752 </v>
   <v>       0.34469063       0.80743607       0.92858174 </v>
   <v>       0.01336349       0.76782360       0.91180960 </v>
   <v>       0.22972308       0.91622661       0.40559635 </v>
   <v>       0.03417295       0.13614823       0.87985788 </v>
   <v>       0.57386178       0.66164103       0.58208924 </v>
   <v>       0.60433823       0.40979167       0.50873007 </v>
   <v>       0.48057243       0.81398295       0.47338147 </v>
   <v>       0.36670287       0.62679268       0.38527016 </v>
   <v>       0.16625228       0.73773851       0.59626312 </v>
   <v>       0.44770843       0.11199095       0.96256096 </v>
   <v>       0.99905263       0.87528721       0.33862344 </v>
   <v>       0.30673705       0.20394711       0.21520120 </v>
   <v>       0.53054898       0.69775983       0.09553768 </v>
   <v>       0.13048880       0.61421906       0.07152369 </v>
   <v>       0.98688788       0.28167782       0.02745918 </v>
   <v>       0.12633266       0.08170464       0.78394858 </v>
   <v>       0.67377615       0.67731407       0.97776618 </v>
   <v>       0.25556268       0.46257511       0.35409110 </v>
   <v>       0.90837605       0.77781249       0.55480245 </v>
   <v>       0.60769592       0.97195467       0.48697588 </v>
   <v>       0.81145736       0.32207915       0.96424805 </v>
   <v>       0.07654033       0.00187633       0.51470543 </v>
  </varray>
  <varray name="velocities" >
   <v>       0.00000000       0.00000000       0.00000000 </v>
   <v>       0.00000000       0.00000000       0.00000000 </v>
   <v>       0.00000000       0.00000000       0.00000000 </v>
   <v>       0.00000000       0.00000000       0.00000000 </v>
   <v>       0.00000000       0.00000000       0.00000000 </v>
   <v>       0.00000000       0.00000000       0.00000000 </v>
   <v>       0.00000000       0.00000000       0.00000000 </v>
   <v>       0.00000000       0.00000000       0.00000000 </v>
   <v>       0.00000000       0.00000000       0.00000000 </v>
   <v>       0.00000000       0.00000000       0.00000000 </v>
   <v>       0.00000000       0.00000000       0.00000000 </v>
   <v>       0.00000000       0.00000000       0.00000000 </v>
   <v>       0.00000000       0.00000000       0.00000000 </v>
   <v>       0.00000000       0.00000000       0.00000000 </v>
   <v>       0.00000000       0.00000000       0.00000000 </v>
   <v>       0.00000000       0.00000000       0.00000000 </v>
   <v>       0.00000000       0.00000000       0.00000000 </v>
   <v>       0.00000000       0.00000000       0.00000000 </v>
   <v>       0.00000000       0.00000000       0.00000000 </v>
   <v>       0.00000000       0.00000000       0.00000000 </v>
   <v>       0.00000000       0.00000000       0.00000000 </v>
   <v>       0.00000000       0.00000000       0.00000000 </v>
   <v>       0.00000000       0.00000000       0.00000000 </v>
   <v>       0.00000000       0.00000000       0.00000000 </v>
   <v>       0.00000000       0.00000000       0.00000000 </v>
   <v>       0.00000000       0.00000000       0.00000000 </v>
   <v>       0.00000000       0.00000000       0.00000000 </v>
   <v>       0.00000000       0.00000000       0.00000000 </v>
   <v>       0.00000000       0.00000000       0.00000000 </v>
   <v>       0.00000000       0.00000000       0.00000000 </v>
   <v>       0.00000000       0.00000000       0.00000000 </v>
   <v>       0.00000000       0.00000000       0.00000000 </v>
   <v>       0.00000000       0.00000000       0.00000000 </v>
   <v>       0.00000000       0.00000000       0.00000000 </v>
   <v>       0.00000000       0.00000000       0.00000000 </v>
   <v>       0.00000000       0.00000000       0.00000000 </v>
   <v>       0.00000000       0.00000000       0.00000000 </v>
   <v>       0.00000000       0.00000000       0.00000000 </v>
   <v>       0.00000000       0.00000000       0.00000000 </v>
   <v>       0.00000000       0.00000000       0.00000000 </v>
   <v>       0.00000000       0.00000000       0.00000000 </v>
   <v>       0.00000000       0.00000000       0.00000000 </v>
   <v>       0.00000000       0.00000000       0.00000000 </v>
   <v>       0.00000000       0.00000000       0.00000000 </v>
   <v>       0.00000000       0.00000000       0.00000000 </v>
   <v>       0.00000000       0.00000000       0.00000000 </v>
   <v>       0.00000000       0.00000000       0.00000000 </v>
   <v>       0.00000000       0.00000000       0.00000000 </v>
   <v>       0.00000000       0.00000000       0.00000000 </v>
   <v>       0.00000000       0.00000000       0.00000000 </v>
   <v>       0.00000000       0.00000000       0.00000000 </v>
   <v>       0.00000000       0.00000000       0.00000000 </v>
   <v>       0.00000000       0.00000000       0.00000000 </v>
   <v>       0.00000000       0.00000000       0.00000000 </v>
   <v>       0.00000000       0.00000000       0.00000000 </v>
   <v>       0.00000000       0.00000000       0.00000000 </v>
   <v>       0.00000000       0.00000000       0.00000000 </v>
   <v>       0.00000000       0.00000000       0.00000000 </v>
   <v>       0.00000000       0.00000000       0.00000000 </v>
   <v>       0.00000000       0.00000000       0.00000000 </v>
   <v>       0.00000000       0.00000000       0.00000000 </v>
   <v>       0.00000000       0.00000000       0.00000000 </v>
   <v>       0.00000000       0.00000000       0.00000000 </v>
   <v>       0.00000000       0.00000000       0.00000000 </v>
   <v>       0.00000000       0.00000000       0.00000000 </v>
   <v>       0.00000000       0.00000000       0.00000000 </v>
   <v>       0.00000000       0.00000000       0.00000000 </v>
   <v>       0.00000000       0.00000000       0.00000000 </v>
   <v>       0.00000000       0.00000000       0.00000000 </v>
   <v>       0.00000000       0.00000000       0.00000000 </v>
   <v>       0.00000000       0.00000000       0.00000000 </v>
   <v>       0.00000000       0.00000000       0.00000000 </v>
   <v>       0.00000000       0.00000000       0.00000000 </v>
   <v>       0.00000000       0.00000000       0.00000000 </v>
   <v>       0.00000000       0.00000000       0.00000000 </v>
   <v>       0.00000000       0.00000000       0.00000000 </v>
   <v>       0.00000000       0.00000000       0.00000000 </v>
   <v>       0.00000000       0.00000000       0.00000000 </v>
   <v>       0.00000000       0.00000000       0.00000000 </v>
   <v>       0.00000000       0.00000000       0.00000000 </v>
   <v>       0.00000000       0.00000000       0.00000000 </v>
   <v>       0.00000000       0.00000000       0.00000000 </v>
   <v>       0.00000000       0.00000000       0.00000000 </v>
   <v>       0.00000000       0.00000000       0.00000000 </v>
   <v>       0.00000000       0.00000000       0.00000000 </v>
   <v>       0.00000000       0.00000000       0.00000000 </v>
   <v>       0.00000000       0.00000000       0.00000000 </v>
   <v>       0.00000000       0.00000000       0.00000000 </v>
   <v>       0.00000000       0.00000000       0.00000000 </v>
   <v>       0.00000000       0.00000000       0.00000000 </v>
   <v>       0.00000000       0.00000000       0.00000000 </v>
   <v>       0.00000000       0.00000000       0.00000000 </v>
   <v>       0.00000000       0.00000000       0.00000000 </v>
   <v>       0.00000000       0.00000000       0.00000000 </v>
   <v>       0.00000000       0.00000000       0.00000000 </v>
   <v>       0.00000000       0.00000000       0.00000000 </v>
   <v>       0.00000000       0.00000000       0.00000000 </v>
   <v>       0.00000000       0.00000000       0.00000000 </v>
   <v>       0.00000000       0.00000000       0.00000000 </v>
   <v>       0.00000000       0.00000000       0.00000000 </v>
   <v>       0.00000000       0.00000000       0.00000000 </v>
   <v>       0.00000000       0.00000000       0.00000000 </v>
   <v>       0.00000000       0.00000000       0.00000000 </v>
   <v>       0.00000000       0.00000000       0.00000000 </v>
   <v>       0.00000000       0.00000000       0.00000000 </v>
   <v>       0.00000000       0.00000000       0.00000000 </v>
   <v>       0.00000000       0.00000000       0.00000000 </v>
   <v>       0.00000000       0.00000000       0.00000000 </v>
   <v>       0.00000000       0.00000000       0.00000000 </v>
   <v>       0.00000000       0.00000000       0.00000000 </v>
   <v>       0.00000000       0.00000000       0.00000000 </v>
   <v>       0.00000000       0.00000000       0.00000000 </v>
   <v>       0.00000000       0.00000000       0.00000000 </v>
   <v>       0.00000000       0.00000000       0.00000000 </v>
   <v>       0.00000000       0.00000000       0.00000000 </v>
   <v>       0.00000000       0.00000000       0.00000000 </v>
   <v>       0.00000000       0.00000000       0.00000000 </v>
   <v>       0.00000000       0.00000000       0.00000000 </v>
   <v>       0.00000000       0.00000000       0.00000000 </v>
   <v>       0.00000000       0.00000000       0.00000000 </v>
   <v>       0.00000000       0.00000000       0.00000000 </v>
   <v>       0.00000000       0.00000000       0.00000000 </v>
   <v>       0.00000000       0.00000000       0.00000000 </v>
   <v>       0.00000000       0.00000000       0.00000000 </v>
   <v>       0.00000000       0.00000000       0.00000000 </v>
   <v>       0.00000000       0.00000000       0.00000000 </v>
   <v>       0.00000000       0.00000000       0.00000000 </v>
   <v>       0.00000000       0.00000000       0.00000000 </v>
   <v>       0.00000000       0.00000000       0.00000000 </v>
   <v>       0.00000000       0.00000000       0.00000000 </v>
   <v>       0.00000000       0.00000000       0.00000000 </v>
   <v>       0.00000000       0.00000000       0.00000000 </v>
   <v>       0.00000000       0.00000000       0.00000000 </v>
   <v>       0.00000000       0.00000000       0.00000000 </v>
   <v>       0.00000000       0.00000000       0.00000000 </v>
  </varray>
 </structure>
</modeling>
