 running on   52 total cores
 distrk:  each k-point on   52 cores,    1 groups
 distr:  one band on   13 cores,    4 groups
 using from now: INCAR     
 vasp.5.4.4.18Apr17-6-g9f103f2a35 (build Oct 31 2019 15:01:46) complex          
  
 POSCAR found type information on POSCAR  Sc F  C 
 POSCAR found :  3 types and      80 ions
 scaLAPACK is switched off
 LDA part: xc-table for Pade appr. of Perdew
 generate k-points for:    3    3    1
 POSCAR, INCAR and KPOINTS ok, starting setup
 FFT: planning ...
 WAVECAR not read
 entering main loop
       N       E                     dE             d eps       ncg     rms          rms(c)
DAV:   1     0.136512195387E+05    0.13651E+05   -0.27882E+05  4232   0.156E+03
DAV:   2     0.248024497456E+04   -0.11171E+05   -0.10869E+05  4664   0.533E+02
DAV:   3    -0.375476199216E+03   -0.28557E+04   -0.27379E+04  6792   0.293E+02
DAV:   4    -0.737492595245E+03   -0.36202E+03   -0.35740E+03  6064   0.138E+02
DAV:   5    -0.752122254467E+03   -0.14630E+02   -0.14568E+02  6080   0.356E+01    0.768E+01
DAV:   6    -0.596797899848E+03    0.15532E+03   -0.83922E+02  5808   0.650E+01    0.249E+01
DAV:   7    -0.597112593443E+03   -0.31469E+00   -0.54038E+01  5928   0.215E+01    0.161E+01
DAV:   8    -0.595742455429E+03    0.13701E+01   -0.10288E+01  5536   0.801E+00    0.456E+00
DAV:   9    -0.595228488891E+03    0.51397E+00   -0.27879E+00  5480   0.504E+00    0.211E+00
DAV:  10    -0.595196766700E+03    0.31722E-01   -0.25792E-01  6040   0.163E+00    0.113E+00
DAV:  11    -0.595092147530E+03    0.10462E+00   -0.14067E-01  5528   0.101E+00    0.697E-01
DAV:  12    -0.595069535515E+03    0.22612E-01   -0.46609E-02  6112   0.568E-01    0.310E-01
DAV:  13    -0.595062749315E+03    0.67862E-02   -0.27378E-02  5704   0.398E-01    0.274E-01
DAV:  14    -0.595060406504E+03    0.23428E-02   -0.10947E-02  5616   0.245E-01    0.134E-01
DAV:  15    -0.595065835316E+03   -0.54288E-02   -0.72783E-03  5576   0.175E-01    0.920E-02
DAV:  16    -0.595069177811E+03   -0.33425E-02   -0.16301E-03  5720   0.116E-01    0.683E-02
DAV:  17    -0.595074416515E+03   -0.52387E-02   -0.14709E-03  5856   0.803E-02    0.653E-02
DAV:  18    -0.595077224186E+03   -0.28077E-02   -0.52839E-04  5312   0.602E-02    0.360E-02
DAV:  19    -0.595078897734E+03   -0.16735E-02   -0.27802E-04  5600   0.353E-02    0.206E-02
DAV:  20    -0.595081446358E+03   -0.25486E-02   -0.85244E-05  5296   0.178E-02    0.182E-02
DAV:  21    -0.595083560324E+03   -0.21140E-02   -0.97067E-05  3864   0.151E-02    0.906E-03
DAV:  22    -0.595084660185E+03   -0.10999E-02   -0.10421E-04  4832   0.134E-02    0.985E-03
DAV:  23    -0.595084974497E+03   -0.31431E-03   -0.13637E-05  4992   0.101E-02    0.395E-03
DAV:  24    -0.595085272241E+03   -0.29774E-03   -0.12191E-05  4384   0.553E-03    0.269E-03
DAV:  25    -0.595085417766E+03   -0.14552E-03   -0.40223E-06  3760   0.294E-03    0.179E-03
DAV:  26    -0.595085472804E+03   -0.55038E-04   -0.80071E-07  2848   0.191E-03    0.119E-03
DAV:  27    -0.595085494613E+03   -0.21808E-04   -0.42595E-07  2568   0.206E-03    0.695E-04
DAV:  28    -0.595085518928E+03   -0.24316E-04   -0.67566E-07  2752   0.174E-03    0.916E-04
DAV:  29    -0.595085527179E+03   -0.82505E-05   -0.35428E-07  2568   0.195E-03    0.672E-04
DAV:  30    -0.595085529696E+03   -0.25174E-05   -0.20911E-07  2536   0.102E-03    0.540E-04
DAV:  31    -0.595085530401E+03   -0.70510E-06   -0.12405E-07  2496   0.110E-03
   1 F= -.59508553E+03 E0= -.59508553E+03  d E =-.313211E-14
