<?xml version="1.0" encoding="ISO-8859-1"?>
<modeling>
 <generator>
  <i name="program" type="string">vasp </i>
  <i name="version" type="string">5.4.4.18Apr17-6-g9f103f2a35  </i>
  <i name="subversion" type="string">(build Oct 31 2019 15:01:46) complex            parallel </i>
  <i name="platform" type="string">LinuxIFC </i>
  <i name="date" type="string">2024 04 20 </i>
  <i name="time" type="string">00:49:55 </i>
 </generator>
 <incar>
  <i type="int" name="ISTART">     0</i>
  <i type="string" name="PREC">anormal</i>
  <i type="logical" name="ADDGRID"> T  </i>
  <i type="int" name="IBRION">    -1</i>
  <i name="EDIFF">      0.00000100</i>
  <i name="EDIFFG">     -0.01000000</i>
  <i type="int" name="NSW">     1</i>
  <i type="int" name="ISIF">     2</i>
  <i type="int" name="ISYM">     2</i>
  <i name="ENCUT">    600.00000000</i>
  <i name="POTIM">      1.00000000</i>
  <i type="string" name="LREAL"> Auto.</i>
  <i type="int" name="ISMEAR">     0</i>
  <i name="SIGMA">      0.05000000</i>
  <i name="KSPACING">      0.25000000</i>
  <i type="logical" name="LWAVE"> F  </i>
  <i type="logical" name="LCHARG"> F  </i>
  <i type="logical" name="LSCALAPACK"> F  </i>
  <v type="int" name="KPOINT_BSE">    -1     0     0     0</v>
 </incar>
 <structure name="primitive_cell" >
  <crystal>
   <varray name="basis" >
    <v>      13.12862340       0.00000000       0.00000000 </v>
    <v>      -6.56431170      11.36972138       0.00000000 </v>
    <v>       0.00000000       0.00000000      26.82809424 </v>
   </varray>
   <i name="volume">   4004.59716953 </i>
   <varray name="rec_basis" >
    <v>       0.07616945       0.04397645       0.00000000 </v>
    <v>       0.00000000       0.08795290       0.00000000 </v>
    <v>       0.00000000       0.00000000       0.03727436 </v>
   </varray>
  </crystal>
  <varray name="positions" >
   <v>       0.08014803       0.16390083       0.44915297 </v>
   <v>       0.16330582       0.32284744       0.40989607 </v>
   <v>       0.00509406       0.00398490      -0.49837270 </v>
   <v>       0.25100466       0.25074235       0.49581096 </v>
   <v>      -0.09727402       0.07472752       0.40554142 </v>
   <v>       0.16203863       0.06274661       0.40838796 </v>
   <v>      -0.00788822       0.25587411       0.49601393 </v>
   <v>       0.16040718       0.32669054      -0.45395898 </v>
   <v>      -0.08207018       0.08881117      -0.45368864 </v>
   <v>      -0.16742337      -0.08339756       0.45170763 </v>
   <v>       0.33059962       0.41171389       0.45420859 </v>
   <v>      -0.17073971       0.16220778       0.44964573 </v>
   <v>       0.16257267       0.09321259      -0.44708542 </v>
   <v>       0.08349456      -0.08538886       0.45572371 </v>
   <v>       0.33401197       0.16872998       0.45533240 </v>
   <v>       0.07439702       0.41777561       0.45015550 </v>
   <v>      -0.07392858       0.32712295       0.40714928 </v>
   <v>       0.40568955       0.33849504       0.41367583 </v>
   <v>      -0.08502348      -0.15935619       0.40916651 </v>
   <v>       0.07204383       0.17802012      -0.40790070 </v>
   <v>      -0.24556068       0.00450040       0.49891006 </v>
   <v>       0.24638934       0.49163709      -0.49672241 </v>
   <v>       0.24988581       0.00267622      -0.49056600 </v>
   <v>      -0.08611973       0.32758646      -0.45755844 </v>
   <v>      -0.08401725      -0.16123730      -0.45189312 </v>
   <v>       0.41800733       0.33486713      -0.45156216 </v>
   <v>       0.32794380       0.41638157      -0.41551305 </v>
   <v>      -0.17010941      -0.07132009      -0.41190739 </v>
   <v>       0.07830726       0.41357053      -0.41235382 </v>
   <v>      -0.17028433       0.15621748      -0.40850733 </v>
   <v>      -0.23638841      -0.23756309      -0.49742053 </v>
   <v>       0.00440812      -0.23793915       0.49969092 </v>
   <v>       0.07871933      -0.07070056      -0.40121346 </v>
   <v>       0.17650730      -0.15384016       0.40506220 </v>
   <v>       0.40467408       0.07086698       0.40995514 </v>
   <v>      -0.25287168       0.24241362       0.49279892 </v>
   <v>      -0.33692693      -0.18019315       0.40911824 </v>
   <v>       0.33625496       0.17984354      -0.40081677 </v>
   <v>      -0.01187573       0.49289225       0.49630538 </v>
   <v>      -0.49842004       0.25266336       0.49540741 </v>
   <v>       0.42600115      -0.41542500       0.40862864 </v>
   <v>       0.18136807      -0.40037821       0.40983972 </v>
   <v>      -0.35579247       0.07150937       0.40175565 </v>
   <v>      -0.49264668      -0.49046704      -0.49287692 </v>
   <v>      -0.32334512       0.09042880      -0.45704485 </v>
   <v>      -0.16442418      -0.32580216       0.45622586 </v>
   <v>       0.15941699      -0.16646763      -0.45304758 </v>
   <v>       0.34604523      -0.34146526       0.45564987 </v>
   <v>      -0.16338154       0.41652624       0.45060053 </v>
   <v>       0.16990561      -0.41898277      -0.45184115 </v>
   <v>       0.40845657       0.07137209      -0.45045894 </v>
   <v>      -0.33697050      -0.16094947      -0.44650173 </v>
   <v>       0.41807851      -0.41649964      -0.45158228 </v>
   <v>       0.33870305      -0.08241208       0.45654756 </v>
   <v>      -0.42799808      -0.09377540       0.45223611 </v>
   <v>      -0.41165251       0.42141034       0.45265541 </v>
   <v>      -0.41177351      -0.33095405       0.45728866 </v>
   <v>       0.08788394      -0.33511623       0.45274806 </v>
   <v>      -0.42484134       0.15936102       0.45144462 </v>
   <v>      -0.16667259       0.41245065      -0.40990144 </v>
   <v>      -0.15041090      -0.32959217      -0.40864756 </v>
   <v>      -0.05287877      -0.40825171       0.39908299 </v>
   <v>      -0.48994202      -0.24465786       0.49727060 </v>
   <v>      -0.42546660      -0.08328041      -0.41142615 </v>
   <v>      -0.49487828       0.00090839      -0.49854313 </v>
   <v>      -0.33693896      -0.42044380       0.41156351 </v>
   <v>      -0.33386126       0.34331139       0.40963357 </v>
   <v>      -0.40545434       0.41188185      -0.41289872 </v>
   <v>       0.33966729      -0.08069033      -0.40616858 </v>
   <v>       0.35476297      -0.32883741      -0.40606870 </v>
   <v>       0.25752624      -0.24703361       0.49969781 </v>
   <v>      -0.32752154       0.33183209      -0.45846014 </v>
   <v>      -0.32587948      -0.41217472      -0.45346282 </v>
   <v>      -0.10230429      -0.42755065      -0.45263941 </v>
   <v>       0.09381589      -0.34238965      -0.41150800 </v>
   <v>      -0.41181858       0.16995579      -0.41202453 </v>
   <v>      -0.41560604      -0.32654613      -0.40412876 </v>
   <v>      -0.24246390      -0.49518883       0.49757038 </v>
   <v>       0.40944813      -0.16881075       0.40754519 </v>
   <v>       0.41794043      -0.16057477      -0.45286354 </v>
  </varray>
 </structure>
 <varray name="primitive_index" >
  <v type="int" >        1 </v>
  <v type="int" >       50 </v>
  <v type="int" >       65 </v>
  <v type="int" >       70 </v>
  <v type="int" >       61 </v>
  <v type="int" >       49 </v>
  <v type="int" >       66 </v>
  <v type="int" >       18 </v>
  <v type="int" >       29 </v>
  <v type="int" >       16 </v>
  <v type="int" >        6 </v>
  <v type="int" >       13 </v>
  <v type="int" >       17 </v>
  <v type="int" >        4 </v>
  <v type="int" >        5 </v>
  <v type="int" >        2 </v>
  <v type="int" >       62 </v>
  <v type="int" >       54 </v>
  <v type="int" >       64 </v>
  <v type="int" >       33 </v>
  <v type="int" >       77 </v>
  <v type="int" >       71 </v>
  <v type="int" >       69 </v>
  <v type="int" >       30 </v>
  <v type="int" >       32 </v>
  <v type="int" >       22 </v>
  <v type="int" >       38 </v>
  <v type="int" >       48 </v>
  <v type="int" >       34 </v>
  <v type="int" >       45 </v>
  <v type="int" >       80 </v>
  <v type="int" >       68 </v>
  <v type="int" >       36 </v>
  <v type="int" >       52 </v>
  <v type="int" >       53 </v>
  <v type="int" >       78 </v>
  <v type="int" >       60 </v>
  <v type="int" >       37 </v>
  <v type="int" >       67 </v>
  <v type="int" >       74 </v>
  <v type="int" >       55 </v>
  <v type="int" >       51 </v>
  <v type="int" >       57 </v>
  <v type="int" >       75 </v>
  <v type="int" >       25 </v>
  <v type="int" >       15 </v>
  <v type="int" >       20 </v>
  <v type="int" >        7 </v>
  <v type="int" >       14 </v>
  <v type="int" >       19 </v>
  <v type="int" >       21 </v>
  <v type="int" >       28 </v>
  <v type="int" >       23 </v>
  <v type="int" >        8 </v>
  <v type="int" >       12 </v>
  <v type="int" >       10 </v>
  <v type="int" >       11 </v>
  <v type="int" >        3 </v>
  <v type="int" >        9 </v>
  <v type="int" >       46 </v>
  <v type="int" >       47 </v>
  <v type="int" >       63 </v>
  <v type="int" >       76 </v>
  <v type="int" >       44 </v>
  <v type="int" >       73 </v>
  <v type="int" >       59 </v>
  <v type="int" >       58 </v>
  <v type="int" >       42 </v>
  <v type="int" >       40 </v>
  <v type="int" >       39 </v>
  <v type="int" >       72 </v>
  <v type="int" >       26 </v>
  <v type="int" >       27 </v>
  <v type="int" >       31 </v>
  <v type="int" >       35 </v>
  <v type="int" >       41 </v>
  <v type="int" >       43 </v>
  <v type="int" >       79 </v>
  <v type="int" >       56 </v>
  <v type="int" >       24 </v>
 </varray>
 <kpoints>
  <generation param="Gamma">
   <v type="int" name="divisions">       3        3        1 </v>
   <v name="usershift">      0.00000000       0.00000000       0.00000000 </v>
   <v name="genvec1">      0.33333333       0.00000000       0.00000000 </v>
   <v name="genvec2">      0.00000000       0.33333333       0.00000000 </v>
   <v name="genvec3">      0.00000000       0.00000000       1.00000000 </v>
   <v name="shift">      0.00000000       0.00000000       0.00000000 </v>
  </generation>
  <varray name="kpointlist" >
   <v>       0.00000000       0.00000000       0.00000000 </v>
   <v>       0.33333333      -0.00000000       0.00000000 </v>
   <v>       0.00000000       0.33333333       0.00000000 </v>
   <v>       0.33333333       0.33333333       0.00000000 </v>
   <v>      -0.33333333       0.33333333       0.00000000 </v>
  </varray>
  <varray name="weights" >
   <v>       0.11111111 </v>
   <v>       0.22222222 </v>
   <v>       0.22222222 </v>
   <v>       0.22222222 </v>
   <v>       0.22222222 </v>
  </varray>
 </kpoints>
 <parameters>
  <separator name="general" >
   <i type="string" name="SYSTEM">unknown system</i>
   <i type="logical" name="LCOMPAT"> F  </i>
  </separator>
  <separator name="electronic" >
   <i type="string" name="PREC">anorma</i>
   <i name="ENMAX">    600.00000000</i>
   <i name="ENAUG">    644.87300000</i>
   <i name="EDIFF">      0.00000100</i>
   <i type="int" name="IALGO">    38</i>
   <i type="int" name="IWAVPR">    10</i>
   <i type="int" name="NBANDS">   384</i>
   <i name="NELECT">    640.00000000</i>
   <i type="int" name="TURBO">     0</i>
   <i type="int" name="IRESTART">     0</i>
   <i type="int" name="NREBOOT">     0</i>
   <i type="int" name="NMIN">     0</i>
   <i name="EREF">      0.00000000</i>
   <separator name="electronic smearing" >
    <i type="int" name="ISMEAR">     0</i>
    <i name="SIGMA">      0.05000000</i>
    <i name="KSPACING">      0.25000000</i>
    <i type="logical" name="KGAMMA"> T  </i>
   </separator>
   <separator name="electronic projectors" >
    <i type="logical" name="LREAL"> T  </i>
    <v name="ROPT">     -0.00025000     -0.00025000     -0.00025000</v>
    <i type="int" name="LMAXPAW">  -100</i>
    <i type="int" name="LMAXMIX">     2</i>
    <i type="logical" name="NLSPLINE"> F  </i>
   </separator>
   <separator name="electronic startup" >
    <i type="int" name="ISTART">     0</i>
    <i type="int" name="ICHARG">     2</i>
    <i type="int" name="INIWAV">     1</i>
   </separator>
   <separator name="electronic spin" >
    <i type="int" name="ISPIN">     1</i>
    <i type="logical" name="LNONCOLLINEAR"> F  </i>
    <v name="MAGMOM">      1.00000000      1.00000000      1.00000000      1.00000000      1.00000000      1.00000000      1.00000000      1.00000000      1.00000000      1.00000000      1.00000000      1.00000000      1.00000000      1.00000000      1.00000000      1.00000000      1.00000000      1.00000000      1.00000000      1.00000000
      1.00000000      1.00000000      1.00000000      1.00000000      1.00000000      1.00000000      1.00000000      1.00000000      1.00000000      1.00000000      1.00000000      1.00000000      1.00000000      1.00000000      1.00000000      1.00000000      1.00000000      1.00000000      1.00000000      1.00000000
      1.00000000      1.00000000      1.00000000      1.00000000      1.00000000      1.00000000      1.00000000      1.00000000      1.00000000      1.00000000      1.00000000      1.00000000      1.00000000      1.00000000      1.00000000      1.00000000      1.00000000      1.00000000      1.00000000      1.00000000
      1.00000000      1.00000000      1.00000000      1.00000000      1.00000000      1.00000000      1.00000000      1.00000000      1.00000000      1.00000000      1.00000000      1.00000000      1.00000000      1.00000000      1.00000000      1.00000000      1.00000000      1.00000000      1.00000000      1.00000000
</v>
    <i name="NUPDOWN">     -1.00000000</i>
    <i type="logical" name="LSORBIT"> F  </i>
    <v name="SAXIS">      0.00000000      0.00000000      1.00000000</v>
    <i type="logical" name="LSPIRAL"> F  </i>
    <v name="QSPIRAL">      0.00000000      0.00000000      0.00000000</v>
    <i type="logical" name="LZEROZ"> F  </i>
   </separator>
   <separator name="electronic exchange-correlation" >
    <i type="logical" name="LASPH"> F  </i>
    <i type="logical" name="LMETAGGA"> F  </i>
   </separator>
   <separator name="electronic convergence" >
    <i type="int" name="NELM">    60</i>
    <i type="int" name="NELMDL">    -5</i>
    <i type="int" name="NELMIN">     2</i>
    <i name="ENINI">    600.00000000</i>
    <separator name="electronic convergence detail" >
     <i type="logical" name="LDIAG"> T  </i>
     <i type="logical" name="LSUBROT"> F  </i>
     <i name="WEIMIN">      0.00000000</i>
     <i name="EBREAK">      0.00000000</i>
     <i name="DEPER">      0.30000000</i>
     <i type="int" name="NRMM">     4</i>
     <i name="TIME">      0.40000000</i>
    </separator>
   </separator>
   <separator name="electronic mixer" >
    <i name="AMIX">      0.40000000</i>
    <i name="BMIX">      1.00000000</i>
    <i name="AMIN">      0.10000000</i>
    <i name="AMIX_MAG">      1.60000000</i>
    <i name="BMIX_MAG">      1.00000000</i>
    <separator name="electronic mixer details" >
     <i type="int" name="IMIX">     4</i>
     <i type="logical" name="MIXFIRST"> F  </i>
     <i type="int" name="MAXMIX">   -45</i>
     <i name="WC">    100.00000000</i>
     <i type="int" name="INIMIX">     1</i>
     <i type="int" name="MIXPRE">     1</i>
     <i type="int" name="MREMOVE">     5</i>
    </separator>
   </separator>
   <separator name="electronic dipolcorrection" >
    <i type="logical" name="LDIPOL"> F  </i>
    <i type="logical" name="LMONO"> F  </i>
    <i type="int" name="IDIPOL">     0</i>
    <i name="EPSILON">      1.00000000</i>
    <v name="DIPOL">   -100.00000000   -100.00000000   -100.00000000</v>
    <i name="EFIELD">      0.00000000</i>
   </separator>
  </separator>
  <separator name="grids" >
   <i type="int" name="NGX">   108</i>
   <i type="int" name="NGY">   108</i>
   <i type="int" name="NGZ">   216</i>
   <i type="int" name="NGXF">   216</i>
   <i type="int" name="NGYF">   216</i>
   <i type="int" name="NGZF">   432</i>
   <i type="logical" name="ADDGRID"> T  </i>
  </separator>
  <separator name="ionic" >
   <i type="int" name="NSW">     1</i>
   <i type="int" name="IBRION">    -1</i>
   <i type="int" name="MDALGO">     0</i>
   <i type="int" name="ISIF">     2</i>
   <i name="PSTRESS">      0.00000000</i>
   <i name="EDIFFG">     -0.01000000</i>
   <i type="int" name="NFREE">     0</i>
   <i name="POTIM">      1.00000000</i>
   <i name="SMASS">     -3.00000000</i>
   <i name="SCALEE">      1.00000000</i>
  </separator>
  <separator name="ionic md" >
   <i name="TEBEG">      0.00010000</i>
   <i name="TEEND">      0.00010000</i>
   <i type="int" name="NBLOCK">     1</i>
   <i type="int" name="KBLOCK">     1</i>
   <i type="int" name="NPACO">   256</i>
   <i name="APACO">     16.00000000</i>
  </separator>
  <separator name="symmetry" >
   <i type="int" name="ISYM">     2</i>
   <i name="SYMPREC">      0.00001000</i>
  </separator>
  <separator name="dos" >
   <i type="int" name="LORBIT">     0</i>
   <v name="RWIGS">     -1.00000000     -1.00000000     -1.00000000</v>
   <i type="int" name="NEDOS">   301</i>
   <i name="EMIN">     10.00000000</i>
   <i name="EMAX">    -10.00000000</i>
   <i name="EFERMI">      0.00000000</i>
  </separator>
  <separator name="writing" >
   <i type="int" name="NWRITE">     2</i>
   <i type="logical" name="LWAVE"> F  </i>
   <i type="logical" name="LDOWNSAMPLE"> F  </i>
   <i type="logical" name="LCHARG"> F  </i>
   <i type="logical" name="LPARD"> F  </i>
   <i type="logical" name="LVTOT"> F  </i>
   <i type="logical" name="LVHAR"> F  </i>
   <i type="logical" name="LELF"> F  </i>
   <i type="logical" name="LOPTICS"> F  </i>
   <v name="STM">      0.00000000      0.00000000      0.00000000      0.00000000      0.00000000      0.00000000      0.00000000</v>
  </separator>
  <separator name="performance" >
   <i type="int" name="NPAR">     4</i>
   <i type="int" name="NSIM">     4</i>
   <i type="int" name="NBLK">    -1</i>
   <i type="logical" name="LPLANE"> T  </i>
   <i type="logical" name="LSCALAPACK"> F  </i>
   <i type="logical" name="LSCAAWARE"> F  </i>
   <i type="logical" name="LSCALU"> F  </i>
   <i type="logical" name="LASYNC"> F  </i>
   <i type="logical" name="LORBITALREAL"> F  </i>
  </separator>
  <separator name="miscellaneous" >
   <i type="int" name="IDIOT">     3</i>
   <i type="int" name="ISPECIAL">     0</i>
   <i type="logical" name="LMUSIC"> F  </i>
   <v name="POMASS">     44.95600000     18.99800000     12.01100000</v>
   <v name="DARWINR">      0.00000000      0.00000000      0.00000000</v>
   <v name="DARWINV">      1.00000000      1.00000000      1.00000000</v>
   <i type="logical" name="LCORR"> T  </i>
  </separator>
  <i type="logical" name="GGA_COMPAT"> T  </i>
  <i type="logical" name="LBERRY"> F  </i>
  <i type="int" name="ICORELEVEL">     0</i>
  <i type="logical" name="LDAU"> F  </i>
  <i type="int" name="I_CONSTRAINED_M">     0</i>
  <separator name="electronic exchange-correlation" >
   <i type="string" name="GGA">--</i>
   <i type="int" name="VOSKOWN">     0</i>
   <i type="logical" name="LHFCALC"> F  </i>
   <i type="string" name="PRECFOCK"></i>
   <i type="logical" name="LSYMGRAD"> F  </i>
   <i type="logical" name="LHFONE"> F  </i>
   <i type="logical" name="LRHFCALC"> F  </i>
   <i type="logical" name="LTHOMAS"> F  </i>
   <i type="logical" name="LMODELHF"> F  </i>
   <i name="ENCUT4O">     -1.00000000</i>
   <i type="int" name="EXXOEP">     0</i>
   <i type="int" name="FOURORBIT">     0</i>
   <i name="AEXX">      0.00000000</i>
   <i name="HFALPHA">      0.00000000</i>
   <i name="MCALPHA">      0.00000000</i>
   <i name="ALDAX">      1.00000000</i>
   <i name="AGGAX">      1.00000000</i>
   <i name="ALDAC">      1.00000000</i>
   <i name="AGGAC">      1.00000000</i>
   <i type="int" name="NKREDX">     1</i>
   <i type="int" name="NKREDY">     1</i>
   <i type="int" name="NKREDZ">     1</i>
   <i type="logical" name="SHIFTRED"> F  </i>
   <i type="logical" name="ODDONLY"> F  </i>
   <i type="logical" name="EVENONLY"> F  </i>
   <i type="int" name="LMAXFOCK">     0</i>
   <i type="int" name="NMAXFOCKAE">     0</i>
   <i type="logical" name="LFOCKAEDFT"> F  </i>
   <i name="HFSCREEN">      0.00000000</i>
   <i name="HFSCREENC">      0.00000000</i>
   <i type="int" name="NBANDSGWLOW">     0</i>
  </separator>
  <separator name="vdW DFT" >
   <i type="logical" name="LUSE_VDW"> F  </i>
   <i name="Zab_VDW">     -0.84910000</i>
   <i name="PARAM1">      0.12340000</i>
   <i name="PARAM2">      1.00000000</i>
   <i name="PARAM3">      0.00000000</i>
  </separator>
  <separator name="model GW" >
   <i type="int" name="MODEL_GW">     0</i>
   <i name="MODEL_EPS0">     30.03447877</i>
   <i name="MODEL_ALPHA">      1.00000000</i>
  </separator>
  <separator name="linear response parameters" >
   <i type="logical" name="LEPSILON"> F  </i>
   <i type="logical" name="LRPA"> F  </i>
   <i type="logical" name="LNABLA"> F  </i>
   <i type="logical" name="LVEL"> F  </i>
   <i type="int" name="KINTER">     0</i>
   <i name="CSHIFT">      0.10000000</i>
   <i name="OMEGAMAX">     -1.00000000</i>
   <i name="DEG_THRESHOLD">      0.00200000</i>
   <i name="RTIME">     -0.10000000</i>
   <i name="WPLASMAI">      0.00000000</i>
   <v name="DFIELD">      0.00000000      0.00000000      0.00000000</v>
   <v name="WPLASMA">      0.00000000      0.00000000      0.00000000      0.00000000      0.00000000      0.00000000      0.00000000      0.00000000      0.00000000</v>
  </separator>
  <separator name="orbital magnetization" >
   <i type="logical" name="NUCIND"> F  </i>
   <v name="MAGPOS">      0.00000000      0.00000000      0.00000000</v>
   <i type="logical" name="LNICSALL"> T  </i>
   <i type="logical" name="ORBITALMAG"> F  </i>
   <i type="logical" name="LMAGBLOCH"> F  </i>
   <i type="logical" name="LCHIMAG"> F  </i>
   <i type="logical" name="LGAUGE"> T  </i>
   <i type="int" name="MAGATOM">     0</i>
   <v name="MAGDIPOL">      0.00000000      0.00000000      0.00000000</v>
   <v name="AVECCONST">      0.00000000      0.00000000      0.00000000</v>
  </separator>
  <separator name="response functions" >
   <i type="logical" name="LADDER"> F  </i>
   <i type="logical" name="LRPAFORCE"> F  </i>
   <i type="logical" name="LFXC"> F  </i>
   <i type="logical" name="LHARTREE"> T  </i>
   <i type="int" name="IBSE">     0</i>
   <v type="int" name="KPOINT">    -1     0     0     0</v>
   <i type="logical" name="LTCTE"> F  </i>
   <i type="logical" name="LTETE"> F  </i>
   <i type="logical" name="LTRIPLET"> F  </i>
   <i type="logical" name="LFXCEPS"> F  </i>
   <i type="logical" name="LFXHEG"> F  </i>
   <i type="int" name="NATURALO">     2</i>
   <i type="logical" name="L2ORDER"> F  </i>
   <i type="logical" name="LMP2LT"> F  </i>
   <i type="logical" name="LUSEW"> F  </i>
   <i name="ENCUTGW">     -2.00000000</i>
   <i name="ENCUTGWSOFT">     -2.00000000</i>
   <i name="ENCUTLF">     -1.00000000</i>
   <i type="int" name="LMAXMP2">    -1</i>
   <i name="SCISSOR">      0.00000000</i>
   <i type="int" name="NOMEGA">     0</i>
   <i type="int" name="NOMEGAR">     0</i>
   <i type="int" name="NBANDSGW">    -1</i>
   <i type="int" name="NBANDSO">    -1</i>
   <i type="int" name="NBANDSV">    -1</i>
   <i type="int" name="NELM">     1</i>
   <i type="int" name="NELMHF">     1</i>
   <i type="int" name="DIM">     3</i>
   <i type="int" name="ANTIRES">     0</i>
   <i name="OMEGAMAX">    -30.00000000</i>
   <i name="OMEGAMIN">    -30.00000000</i>
   <i name="OMEGATL">   -200.00000000</i>
   <i type="int" name="OMEGAGRID">   140</i>
   <i name="CSHIFT">     -0.10000000</i>
   <i type="logical" name="SELFENERGY"> F  </i>
   <i type="logical" name="LSPECTRAL"> F  </i>
   <i type="logical" name="LSPECTRALGW"> F  </i>
   <i type="logical" name="LSINGLES"> F  </i>
   <i type="logical" name="LFERMIGW"> F  </i>
   <i type="logical" name="ODDONLYGW"> F  </i>
   <i type="logical" name="EVENONLYGW"> F  </i>
   <i type="int" name="NKREDLFX">     1</i>
   <i type="int" name="NKREDLFY">     1</i>
   <i type="int" name="NKREDLFZ">     1</i>
   <i type="int" name="MAXMEM">  2800</i>
   <i type="int" name="TELESCOPE">     0</i>
   <i type="int" name="TAUPAR">     1</i>
   <i type="int" name="OMEGAPAR">    -1</i>
   <i name="LAMBDA">      1.00000000</i>
  </separator>
  <separator name="External order field" >
   <i name="OFIELD_KAPPA">      0.00000000</i>
   <v name="OFIELD_K">      0.00000000      0.00000000      0.00000000</v>
   <i name="OFIELD_Q6_NEAR">      0.00000000</i>
   <i name="OFIELD_Q6_FAR">      0.00000000</i>
   <i name="OFIELD_A">      0.00000000</i>
  </separator>
 </parameters>
 <atominfo>
  <atoms>      80 </atoms>
  <types>       3 </types>
  <array name="atoms" >
   <dimension dim="1">ion</dimension>
   <field type="string">element</field>
   <field type="int">atomtype</field>
   <set>
    <rc><c>Sc</c><c>   1</c></rc>
    <rc><c>Sc</c><c>   1</c></rc>
    <rc><c>Sc</c><c>   1</c></rc>
    <rc><c>Sc</c><c>   1</c></rc>
    <rc><c>Sc</c><c>   1</c></rc>
    <rc><c>Sc</c><c>   1</c></rc>
    <rc><c>Sc</c><c>   1</c></rc>
    <rc><c>Sc</c><c>   1</c></rc>
    <rc><c>Sc</c><c>   1</c></rc>
    <rc><c>Sc</c><c>   1</c></rc>
    <rc><c>Sc</c><c>   1</c></rc>
    <rc><c>Sc</c><c>   1</c></rc>
    <rc><c>Sc</c><c>   1</c></rc>
    <rc><c>Sc</c><c>   1</c></rc>
    <rc><c>Sc</c><c>   1</c></rc>
    <rc><c>Sc</c><c>   1</c></rc>
    <rc><c>Sc</c><c>   1</c></rc>
    <rc><c>Sc</c><c>   1</c></rc>
    <rc><c>Sc</c><c>   1</c></rc>
    <rc><c>Sc</c><c>   1</c></rc>
    <rc><c>Sc</c><c>   1</c></rc>
    <rc><c>Sc</c><c>   1</c></rc>
    <rc><c>Sc</c><c>   1</c></rc>
    <rc><c>Sc</c><c>   1</c></rc>
    <rc><c>Sc</c><c>   1</c></rc>
    <rc><c>Sc</c><c>   1</c></rc>
    <rc><c>Sc</c><c>   1</c></rc>
    <rc><c>Sc</c><c>   1</c></rc>
    <rc><c>Sc</c><c>   1</c></rc>
    <rc><c>Sc</c><c>   1</c></rc>
    <rc><c>Sc</c><c>   1</c></rc>
    <rc><c>Sc</c><c>   1</c></rc>
    <rc><c>F </c><c>   2</c></rc>
    <rc><c>F </c><c>   2</c></rc>
    <rc><c>F </c><c>   2</c></rc>
    <rc><c>F </c><c>   2</c></rc>
    <rc><c>F </c><c>   2</c></rc>
    <rc><c>F </c><c>   2</c></rc>
    <rc><c>F </c><c>   2</c></rc>
    <rc><c>F </c><c>   2</c></rc>
    <rc><c>F </c><c>   2</c></rc>
    <rc><c>F </c><c>   2</c></rc>
    <rc><c>F </c><c>   2</c></rc>
    <rc><c>F </c><c>   2</c></rc>
    <rc><c>F </c><c>   2</c></rc>
    <rc><c>F </c><c>   2</c></rc>
    <rc><c>F </c><c>   2</c></rc>
    <rc><c>F </c><c>   2</c></rc>
    <rc><c>F </c><c>   2</c></rc>
    <rc><c>F </c><c>   2</c></rc>
    <rc><c>F </c><c>   2</c></rc>
    <rc><c>F </c><c>   2</c></rc>
    <rc><c>F </c><c>   2</c></rc>
    <rc><c>F </c><c>   2</c></rc>
    <rc><c>F </c><c>   2</c></rc>
    <rc><c>F </c><c>   2</c></rc>
    <rc><c>F </c><c>   2</c></rc>
    <rc><c>F </c><c>   2</c></rc>
    <rc><c>F </c><c>   2</c></rc>
    <rc><c>F </c><c>   2</c></rc>
    <rc><c>F </c><c>   2</c></rc>
    <rc><c>F </c><c>   2</c></rc>
    <rc><c>F </c><c>   2</c></rc>
    <rc><c>F </c><c>   2</c></rc>
    <rc><c>C </c><c>   3</c></rc>
    <rc><c>C </c><c>   3</c></rc>
    <rc><c>C </c><c>   3</c></rc>
    <rc><c>C </c><c>   3</c></rc>
    <rc><c>C </c><c>   3</c></rc>
    <rc><c>C </c><c>   3</c></rc>
    <rc><c>C </c><c>   3</c></rc>
    <rc><c>C </c><c>   3</c></rc>
    <rc><c>C </c><c>   3</c></rc>
    <rc><c>C </c><c>   3</c></rc>
    <rc><c>C </c><c>   3</c></rc>
    <rc><c>C </c><c>   3</c></rc>
    <rc><c>C </c><c>   3</c></rc>
    <rc><c>C </c><c>   3</c></rc>
    <rc><c>C </c><c>   3</c></rc>
    <rc><c>C </c><c>   3</c></rc>
   </set>
  </array>
  <array name="atomtypes" >
   <dimension dim="1">type</dimension>
   <field type="int">atomspertype</field>
   <field type="string">element</field>
   <field>mass</field>
   <field>valence</field>
   <field type="string">pseudopotential</field>
   <set>
    <rc><c>  32</c><c>Sc</c><c>     44.95600000</c><c>     11.00000000</c><c>  PAW_PBE Sc_sv 07Sep2000               </c></rc>
    <rc><c>  32</c><c>F </c><c>     18.99800000</c><c>      7.00000000</c><c>  PAW_PBE F 08Apr2002                   </c></rc>
    <rc><c>  16</c><c>C </c><c>     12.01100000</c><c>      4.00000000</c><c>  PAW_PBE C 08Apr2002                   </c></rc>
   </set>
  </array>
 </atominfo>
 <structure name="initialpos" >
  <crystal>
   <varray name="basis" >
    <v>      13.12862340       0.00000000       0.00000000 </v>
    <v>      -6.56431170      11.36972138       0.00000000 </v>
    <v>       0.00000000       0.00000000      26.82809424 </v>
   </varray>
   <i name="volume">   4004.59716953 </i>
   <varray name="rec_basis" >
    <v>       0.07616945       0.04397645       0.00000000 </v>
    <v>       0.00000000       0.08795290       0.00000000 </v>
    <v>       0.00000000       0.00000000       0.03727436 </v>
   </varray>
  </crystal>
  <varray name="positions" >
   <v>       0.08014803       0.16390083       0.44915297 </v>
   <v>       0.07439702       0.41777561       0.45015550 </v>
   <v>       0.08788394       0.66488377       0.45274806 </v>
   <v>       0.08349456       0.91461114       0.45572371 </v>
   <v>       0.33401197       0.16872998       0.45533240 </v>
   <v>       0.33059962       0.41171389       0.45420859 </v>
   <v>       0.34604523       0.65853474       0.45564987 </v>
   <v>       0.33870305       0.91758792       0.45654756 </v>
   <v>       0.57515866       0.15936102       0.45144462 </v>
   <v>       0.58834749       0.42141034       0.45265541 </v>
   <v>       0.58822649       0.66904595       0.45728866 </v>
   <v>       0.57200192       0.90622460       0.45223611 </v>
   <v>       0.82926029       0.16220778       0.44964573 </v>
   <v>       0.83661846       0.41652624       0.45060053 </v>
   <v>       0.83557582       0.67419784       0.45622586 </v>
   <v>       0.83257663       0.91660244       0.45170763 </v>
   <v>       0.16257267       0.09321259       0.55291458 </v>
   <v>       0.16040718       0.32669054       0.54604102 </v>
   <v>       0.16990561       0.58101723       0.54815885 </v>
   <v>       0.15941699       0.83353237       0.54695242 </v>
   <v>       0.40845657       0.07137209       0.54954106 </v>
   <v>       0.41800733       0.33486713       0.54843784 </v>
   <v>       0.41807851       0.58350036       0.54841772 </v>
   <v>       0.41794043       0.83942523       0.54713646 </v>
   <v>       0.67665488       0.09042880       0.54295515 </v>
   <v>       0.67247846       0.33183209       0.54153986 </v>
   <v>       0.67412052       0.58782528       0.54653718 </v>
   <v>       0.66302950       0.83905053       0.55349827 </v>
   <v>       0.91792982       0.08881117       0.54631136 </v>
   <v>       0.91388027       0.32758646       0.54244156 </v>
   <v>       0.89769571       0.57244935       0.54736059 </v>
   <v>       0.91598275       0.83876270       0.54810688 </v>
   <v>       0.07204383       0.17802012       0.59209930 </v>
   <v>       0.07830726       0.41357053       0.58764618 </v>
   <v>       0.09381589       0.65761035       0.58849200 </v>
   <v>       0.07871933       0.92929944       0.59878654 </v>
   <v>       0.33625496       0.17984354       0.59918323 </v>
   <v>       0.32794380       0.41638157       0.58448695 </v>
   <v>       0.35476297       0.67116259       0.59393130 </v>
   <v>       0.33966729       0.91930967       0.59383142 </v>
   <v>       0.58818142       0.16995579       0.58797547 </v>
   <v>       0.59454566       0.41188185       0.58710128 </v>
   <v>       0.58439396       0.67345387       0.59587124 </v>
   <v>       0.57453340       0.91671959       0.58857385 </v>
   <v>       0.82971567       0.15621748       0.59149267 </v>
   <v>       0.83332741       0.41245065       0.59009856 </v>
   <v>       0.84958910       0.67040783       0.59135244 </v>
   <v>       0.82989059       0.92867991       0.58809261 </v>
   <v>       0.16203863       0.06274661       0.40838796 </v>
   <v>       0.16330582       0.32284744       0.40989607 </v>
   <v>       0.18136807       0.59962179       0.40983972 </v>
   <v>       0.17650730       0.84615984       0.40506220 </v>
   <v>       0.40467408       0.07086698       0.40995514 </v>
   <v>       0.40568955       0.33849504       0.41367583 </v>
   <v>       0.42600115       0.58457500       0.40862864 </v>
   <v>       0.40944813       0.83118925       0.40754519 </v>
   <v>       0.64420753       0.07150937       0.40175565 </v>
   <v>       0.66613874       0.34331139       0.40963357 </v>
   <v>       0.66306104       0.57955620       0.41156351 </v>
   <v>       0.66307307       0.81980685       0.40911824 </v>
   <v>       0.90272598       0.07472752       0.40554142 </v>
   <v>       0.92607142       0.32712295       0.40714928 </v>
   <v>       0.94712123       0.59174829       0.39908299 </v>
   <v>       0.91497652       0.84064381       0.40916651 </v>
   <v>       0.00509406       0.00398490       0.50162730 </v>
   <v>       0.99211178       0.25587411       0.49601393 </v>
   <v>       0.98812427       0.49289225       0.49630538 </v>
   <v>       0.00440812       0.76206085       0.49969092 </v>
   <v>       0.24988581       0.00267622       0.50943400 </v>
   <v>       0.25100466       0.25074235       0.49581096 </v>
   <v>       0.24638934       0.49163709       0.50327759 </v>
   <v>       0.25752624       0.75296639       0.49969781 </v>
   <v>       0.50512172       0.00090839       0.50145687 </v>
   <v>       0.50157996       0.25266336       0.49540741 </v>
   <v>       0.50735332       0.50953296       0.50712308 </v>
   <v>       0.51005798       0.75534214       0.49727060 </v>
   <v>       0.75443932       0.00450040       0.49891006 </v>
   <v>       0.74712832       0.24241362       0.49279892 </v>
   <v>       0.75753610       0.50481117       0.49757038 </v>
   <v>       0.76361159       0.76243691       0.50257947 </v>
  </varray>
  <varray name="velocities" >
   <v>       0.00000000       0.00000000       0.00000000 </v>
   <v>       0.00000000       0.00000000       0.00000000 </v>
   <v>       0.00000000       0.00000000       0.00000000 </v>
   <v>       0.00000000       0.00000000       0.00000000 </v>
   <v>       0.00000000       0.00000000       0.00000000 </v>
   <v>       0.00000000       0.00000000       0.00000000 </v>
   <v>       0.00000000       0.00000000       0.00000000 </v>
   <v>       0.00000000       0.00000000       0.00000000 </v>
   <v>       0.00000000       0.00000000       0.00000000 </v>
   <v>       0.00000000       0.00000000       0.00000000 </v>
   <v>       0.00000000       0.00000000       0.00000000 </v>
   <v>       0.00000000       0.00000000       0.00000000 </v>
   <v>       0.00000000       0.00000000       0.00000000 </v>
   <v>       0.00000000       0.00000000       0.00000000 </v>
   <v>       0.00000000       0.00000000       0.00000000 </v>
   <v>       0.00000000       0.00000000       0.00000000 </v>
   <v>       0.00000000       0.00000000       0.00000000 </v>
   <v>       0.00000000       0.00000000       0.00000000 </v>
   <v>       0.00000000       0.00000000       0.00000000 </v>
   <v>       0.00000000       0.00000000       0.00000000 </v>
   <v>       0.00000000       0.00000000       0.00000000 </v>
   <v>       0.00000000       0.00000000       0.00000000 </v>
   <v>       0.00000000       0.00000000       0.00000000 </v>
   <v>       0.00000000       0.00000000       0.00000000 </v>
   <v>       0.00000000       0.00000000       0.00000000 </v>
   <v>       0.00000000       0.00000000       0.00000000 </v>
   <v>       0.00000000       0.00000000       0.00000000 </v>
   <v>       0.00000000       0.00000000       0.00000000 </v>
   <v>       0.00000000       0.00000000       0.00000000 </v>
   <v>       0.00000000       0.00000000       0.00000000 </v>
   <v>       0.00000000       0.00000000       0.00000000 </v>
   <v>       0.00000000       0.00000000       0.00000000 </v>
   <v>       0.00000000       0.00000000       0.00000000 </v>
   <v>       0.00000000       0.00000000       0.00000000 </v>
   <v>       0.00000000       0.00000000       0.00000000 </v>
   <v>       0.00000000       0.00000000       0.00000000 </v>
   <v>       0.00000000       0.00000000       0.00000000 </v>
   <v>       0.00000000       0.00000000       0.00000000 </v>
   <v>       0.00000000       0.00000000       0.00000000 </v>
   <v>       0.00000000       0.00000000       0.00000000 </v>
   <v>       0.00000000       0.00000000       0.00000000 </v>
   <v>       0.00000000       0.00000000       0.00000000 </v>
   <v>       0.00000000       0.00000000       0.00000000 </v>
   <v>       0.00000000       0.00000000       0.00000000 </v>
   <v>       0.00000000       0.00000000       0.00000000 </v>
   <v>       0.00000000       0.00000000       0.00000000 </v>
   <v>       0.00000000       0.00000000       0.00000000 </v>
   <v>       0.00000000       0.00000000       0.00000000 </v>
   <v>       0.00000000       0.00000000       0.00000000 </v>
   <v>       0.00000000       0.00000000       0.00000000 </v>
   <v>       0.00000000       0.00000000       0.00000000 </v>
   <v>       0.00000000       0.00000000       0.00000000 </v>
   <v>       0.00000000       0.00000000       0.00000000 </v>
   <v>       0.00000000       0.00000000       0.00000000 </v>
   <v>       0.00000000       0.00000000       0.00000000 </v>
   <v>       0.00000000       0.00000000       0.00000000 </v>
   <v>       0.00000000       0.00000000       0.00000000 </v>
   <v>       0.00000000       0.00000000       0.00000000 </v>
   <v>       0.00000000       0.00000000       0.00000000 </v>
   <v>       0.00000000       0.00000000       0.00000000 </v>
   <v>       0.00000000       0.00000000       0.00000000 </v>
   <v>       0.00000000       0.00000000       0.00000000 </v>
   <v>       0.00000000       0.00000000       0.00000000 </v>
   <v>       0.00000000       0.00000000       0.00000000 </v>
   <v>       0.00000000       0.00000000       0.00000000 </v>
   <v>       0.00000000       0.00000000       0.00000000 </v>
   <v>       0.00000000       0.00000000       0.00000000 </v>
   <v>       0.00000000       0.00000000       0.00000000 </v>
   <v>       0.00000000       0.00000000       0.00000000 </v>
   <v>       0.00000000       0.00000000       0.00000000 </v>
   <v>       0.00000000       0.00000000       0.00000000 </v>
   <v>       0.00000000       0.00000000       0.00000000 </v>
   <v>       0.00000000       0.00000000       0.00000000 </v>
   <v>       0.00000000       0.00000000       0.00000000 </v>
   <v>       0.00000000       0.00000000       0.00000000 </v>
   <v>       0.00000000       0.00000000       0.00000000 </v>
   <v>       0.00000000       0.00000000       0.00000000 </v>
   <v>       0.00000000       0.00000000       0.00000000 </v>
   <v>       0.00000000       0.00000000       0.00000000 </v>
   <v>       0.00000000       0.00000000       0.00000000 </v>
  </varray>
 </structure>
 <calculation>
  <scstep>
   <time name="dav">   45.87   45.87</time>
   <time name="total">   46.72   46.74</time>
   <energy>
    <i name="alphaZ">    871.83850952 </i>
    <i name="ewald"> 286028.98565440 </i>
    <i name="hartreedc">-340385.43923200 </i>
    <i name="XCdc">   3042.93088071 </i>
    <i name="pawpsdc">  50525.51240023 </i>
    <i name="pawaedc"> -50422.77561733 </i>
    <i name="eentropy">     -0.07665399 </i>
    <i name="bandstr">   -217.19232850 </i>
    <i name="atom">  64207.43592568 </i>
    <i name="e_fr_energy">  13651.21953871 </i>
    <i name="e_wo_entrp">  13651.29619270 </i>
    <i name="e_0_energy">  13651.25786571 </i>
   </energy>
  </scstep>
  <scstep>
   <time name="dav">   49.40   49.42</time>
   <time name="total">   49.40   49.42</time>
   <energy>
    <i name="e_fr_energy">   2480.24497456 </i>
    <i name="e_wo_entrp">   2480.29454517 </i>
    <i name="e_0_energy">   2480.26975986 </i>
   </energy>
  </scstep>
  <scstep>
   <time name="dav">   67.09   67.11</time>
   <time name="total">   67.09   67.11</time>
   <energy>
    <i name="e_fr_energy">   -375.47619922 </i>
    <i name="e_wo_entrp">   -375.47619922 </i>
    <i name="e_0_energy">   -375.47619922 </i>
   </energy>
  </scstep>
  <scstep>
   <time name="dav">   60.79   60.80</time>
   <time name="total">   60.79   60.80</time>
   <energy>
    <i name="e_fr_energy">   -737.49259524 </i>
    <i name="e_wo_entrp">   -737.49259524 </i>
    <i name="e_0_energy">   -737.49259524 </i>
   </energy>
  </scstep>
  <scstep>
   <time name="dav">   61.06   61.07</time>
   <time name="total">   64.68   64.69</time>
   <energy>
    <i name="e_fr_energy">   -752.12225447 </i>
    <i name="e_wo_entrp">   -752.12225447 </i>
    <i name="e_0_energy">   -752.12225447 </i>
   </energy>
  </scstep>
  <scstep>
   <time name="dav">   58.68   58.68</time>
   <time name="total">   63.08   63.09</time>
   <energy>
    <i name="e_fr_energy">   -596.79789985 </i>
    <i name="e_wo_entrp">   -596.79789985 </i>
    <i name="e_0_energy">   -596.79789985 </i>
   </energy>
  </scstep>
  <scstep>
   <time name="dav">   59.63   59.64</time>
   <time name="total">   63.97   63.98</time>
   <energy>
    <i name="e_fr_energy">   -597.11259344 </i>
    <i name="e_wo_entrp">   -597.11259344 </i>
    <i name="e_0_energy">   -597.11259344 </i>
   </energy>
  </scstep>
  <scstep>
   <time name="dav">   56.48   56.48</time>
   <time name="total">   60.85   60.87</time>
   <energy>
    <i name="e_fr_energy">   -595.74245543 </i>
    <i name="e_wo_entrp">   -595.74245543 </i>
    <i name="e_0_energy">   -595.74245543 </i>
   </energy>
  </scstep>
  <scstep>
   <time name="dav">   55.95   55.95</time>
   <time name="total">   60.38   60.39</time>
   <energy>
    <i name="e_fr_energy">   -595.22848889 </i>
    <i name="e_wo_entrp">   -595.22848889 </i>
    <i name="e_0_energy">   -595.22848889 </i>
   </energy>
  </scstep>
  <scstep>
   <time name="dav">   60.64   60.64</time>
   <time name="total">   65.05   65.06</time>
   <energy>
    <i name="e_fr_energy">   -595.19676670 </i>
    <i name="e_wo_entrp">   -595.19676670 </i>
    <i name="e_0_energy">   -595.19676670 </i>
   </energy>
  </scstep>
  <scstep>
   <time name="dav">   56.59   56.59</time>
   <time name="total">   61.03   61.04</time>
   <energy>
    <i name="e_fr_energy">   -595.09214753 </i>
    <i name="e_wo_entrp">   -595.09214753 </i>
    <i name="e_0_energy">   -595.09214753 </i>
   </energy>
  </scstep>
  <scstep>
   <time name="dav">   61.25   61.25</time>
   <time name="total">   65.66   65.67</time>
   <energy>
    <i name="e_fr_energy">   -595.06953552 </i>
    <i name="e_wo_entrp">   -595.06953552 </i>
    <i name="e_0_energy">   -595.06953552 </i>
   </energy>
  </scstep>
  <scstep>
   <time name="dav">   57.86   57.86</time>
   <time name="total">   62.22   62.23</time>
   <energy>
    <i name="e_fr_energy">   -595.06274932 </i>
    <i name="e_wo_entrp">   -595.06274932 </i>
    <i name="e_0_energy">   -595.06274932 </i>
   </energy>
  </scstep>
  <scstep>
   <time name="dav">   57.12   57.12</time>
   <time name="total">   61.51   61.52</time>
   <energy>
    <i name="e_fr_energy">   -595.06040650 </i>
    <i name="e_wo_entrp">   -595.06040650 </i>
    <i name="e_0_energy">   -595.06040650 </i>
   </energy>
  </scstep>
  <scstep>
   <time name="dav">   56.78   56.79</time>
   <time name="total">   61.18   61.20</time>
   <energy>
    <i name="e_fr_energy">   -595.06583532 </i>
    <i name="e_wo_entrp">   -595.06583532 </i>
    <i name="e_0_energy">   -595.06583532 </i>
   </energy>
  </scstep>
  <scstep>
   <time name="dav">   58.06   58.07</time>
   <time name="total">   62.48   62.50</time>
   <energy>
    <i name="e_fr_energy">   -595.06917781 </i>
    <i name="e_wo_entrp">   -595.06917781 </i>
    <i name="e_0_energy">   -595.06917781 </i>
   </energy>
  </scstep>
  <scstep>
   <time name="dav">   59.13   59.13</time>
   <time name="total">   63.51   63.53</time>
   <energy>
    <i name="e_fr_energy">   -595.07441652 </i>
    <i name="e_wo_entrp">   -595.07441652 </i>
    <i name="e_0_energy">   -595.07441652 </i>
   </energy>
  </scstep>
  <scstep>
   <time name="dav">   54.61   54.61</time>
   <time name="total">   59.01   59.03</time>
   <energy>
    <i name="e_fr_energy">   -595.07722419 </i>
    <i name="e_wo_entrp">   -595.07722419 </i>
    <i name="e_0_energy">   -595.07722419 </i>
   </energy>
  </scstep>
  <scstep>
   <time name="dav">   57.08   57.08</time>
   <time name="total">   61.47   61.48</time>
   <energy>
    <i name="e_fr_energy">   -595.07889773 </i>
    <i name="e_wo_entrp">   -595.07889773 </i>
    <i name="e_0_energy">   -595.07889773 </i>
   </energy>
  </scstep>
  <scstep>
   <time name="dav">   54.56   54.56</time>
   <time name="total">   58.96   58.97</time>
   <energy>
    <i name="e_fr_energy">   -595.08144636 </i>
    <i name="e_wo_entrp">   -595.08144636 </i>
    <i name="e_0_energy">   -595.08144636 </i>
   </energy>
  </scstep>
  <scstep>
   <time name="dav">   42.75   42.75</time>
   <time name="total">   47.15   47.16</time>
   <energy>
    <i name="e_fr_energy">   -595.08356032 </i>
    <i name="e_wo_entrp">   -595.08356032 </i>
    <i name="e_0_energy">   -595.08356032 </i>
   </energy>
  </scstep>
  <scstep>
   <time name="dav">   50.82   50.83</time>
   <time name="total">   55.24   55.25</time>
   <energy>
    <i name="e_fr_energy">   -595.08466019 </i>
    <i name="e_wo_entrp">   -595.08466019 </i>
    <i name="e_0_energy">   -595.08466019 </i>
   </energy>
  </scstep>
  <scstep>
   <time name="dav">   52.16   52.16</time>
   <time name="total">   56.56   56.56</time>
   <energy>
    <i name="e_fr_energy">   -595.08497450 </i>
    <i name="e_wo_entrp">   -595.08497450 </i>
    <i name="e_0_energy">   -595.08497450 </i>
   </energy>
  </scstep>
  <scstep>
   <time name="dav">   47.08   47.08</time>
   <time name="total">   51.49   51.50</time>
   <energy>
    <i name="e_fr_energy">   -595.08527224 </i>
    <i name="e_wo_entrp">   -595.08527224 </i>
    <i name="e_0_energy">   -595.08527224 </i>
   </energy>
  </scstep>
  <scstep>
   <time name="dav">   41.89   41.89</time>
   <time name="total">   46.28   46.29</time>
   <energy>
    <i name="e_fr_energy">   -595.08541777 </i>
    <i name="e_wo_entrp">   -595.08541777 </i>
    <i name="e_0_energy">   -595.08541777 </i>
   </energy>
  </scstep>
  <scstep>
   <time name="dav">   34.38   34.38</time>
   <time name="total">   38.79   38.81</time>
   <energy>
    <i name="e_fr_energy">   -595.08547280 </i>
    <i name="e_wo_entrp">   -595.08547280 </i>
    <i name="e_0_energy">   -595.08547280 </i>
   </energy>
  </scstep>
  <scstep>
   <time name="dav">   32.06   32.06</time>
   <time name="total">   36.46   36.46</time>
   <energy>
    <i name="e_fr_energy">   -595.08549461 </i>
    <i name="e_wo_entrp">   -595.08549461 </i>
    <i name="e_0_energy">   -595.08549461 </i>
   </energy>
  </scstep>
  <scstep>
   <time name="dav">   33.65   33.65</time>
   <time name="total">   38.14   38.15</time>
   <energy>
    <i name="e_fr_energy">   -595.08551893 </i>
    <i name="e_wo_entrp">   -595.08551893 </i>
    <i name="e_0_energy">   -595.08551893 </i>
   </energy>
  </scstep>
  <scstep>
   <time name="dav">   32.05   32.06</time>
   <time name="total">   36.42   36.43</time>
   <energy>
    <i name="e_fr_energy">   -595.08552718 </i>
    <i name="e_wo_entrp">   -595.08552718 </i>
    <i name="e_0_energy">   -595.08552718 </i>
   </energy>
  </scstep>
  <scstep>
   <time name="dav">   31.79   31.79</time>
   <time name="total">   36.18   36.19</time>
   <energy>
    <i name="e_fr_energy">   -595.08552970 </i>
    <i name="e_wo_entrp">   -595.08552970 </i>
    <i name="e_0_energy">   -595.08552970 </i>
   </energy>
  </scstep>
  <scstep>
   <time name="dav">   31.45   31.45</time>
   <time name="total">   32.22   32.23</time>
   <energy>
    <i name="alphaZ">    871.83850952 </i>
    <i name="ewald"> 286028.98565440 </i>
    <i name="hartreedc">-341483.48876415 </i>
    <i name="XCdc">   3053.74944079 </i>
    <i name="pawpsdc">  66349.50527029 </i>
    <i name="pawaedc"> -66343.08738860 </i>
    <i name="eentropy">     -0.00000000 </i>
    <i name="bandstr"> -13280.02417832 </i>
    <i name="atom">  64207.43592568 </i>
    <i name="e_fr_energy">   -595.08553040 </i>
    <i name="e_wo_entrp">   -595.08553040 </i>
    <i name="e_0_energy">   -595.08553040 </i>
   </energy>
  </scstep>
  <structure>
   <crystal>
    <varray name="basis" >
     <v>      13.12862340       0.00000000       0.00000000 </v>
     <v>      -6.56431170      11.36972138       0.00000000 </v>
     <v>       0.00000000       0.00000000      26.82809424 </v>
    </varray>
    <i name="volume">   4004.59716953 </i>
    <varray name="rec_basis" >
     <v>       0.07616945       0.04397645       0.00000000 </v>
     <v>       0.00000000       0.08795290       0.00000000 </v>
     <v>       0.00000000       0.00000000       0.03727436 </v>
    </varray>
   </crystal>
   <varray name="positions" >
    <v>       0.08014803       0.16390083       0.44915297 </v>
    <v>       0.07439702       0.41777561       0.45015550 </v>
    <v>       0.08788394       0.66488377       0.45274806 </v>
    <v>       0.08349456       0.91461114       0.45572371 </v>
    <v>       0.33401197       0.16872998       0.45533240 </v>
    <v>       0.33059962       0.41171389       0.45420859 </v>
    <v>       0.34604523       0.65853474       0.45564987 </v>
    <v>       0.33870305       0.91758792       0.45654756 </v>
    <v>       0.57515866       0.15936102       0.45144462 </v>
    <v>       0.58834749       0.42141034       0.45265541 </v>
    <v>       0.58822649       0.66904595       0.45728866 </v>
    <v>       0.57200192       0.90622460       0.45223611 </v>
    <v>       0.82926029       0.16220778       0.44964573 </v>
    <v>       0.83661846       0.41652624       0.45060053 </v>
    <v>       0.83557582       0.67419784       0.45622586 </v>
    <v>       0.83257663       0.91660244       0.45170763 </v>
    <v>       0.16257267       0.09321259       0.55291458 </v>
    <v>       0.16040718       0.32669054       0.54604102 </v>
    <v>       0.16990561       0.58101723       0.54815885 </v>
    <v>       0.15941699       0.83353237       0.54695242 </v>
    <v>       0.40845657       0.07137209       0.54954106 </v>
    <v>       0.41800733       0.33486713       0.54843784 </v>
    <v>       0.41807851       0.58350036       0.54841772 </v>
    <v>       0.41794043       0.83942523       0.54713646 </v>
    <v>       0.67665488       0.09042880       0.54295515 </v>
    <v>       0.67247846       0.33183209       0.54153986 </v>
    <v>       0.67412052       0.58782528       0.54653718 </v>
    <v>       0.66302950       0.83905053       0.55349827 </v>
    <v>       0.91792982       0.08881117       0.54631136 </v>
    <v>       0.91388027       0.32758646       0.54244156 </v>
    <v>       0.89769571       0.57244935       0.54736059 </v>
    <v>       0.91598275       0.83876270       0.54810688 </v>
    <v>       0.07204383       0.17802012       0.59209930 </v>
    <v>       0.07830726       0.41357053       0.58764618 </v>
    <v>       0.09381589       0.65761035       0.58849200 </v>
    <v>       0.07871933       0.92929944       0.59878654 </v>
    <v>       0.33625496       0.17984354       0.59918323 </v>
    <v>       0.32794380       0.41638157       0.58448695 </v>
    <v>       0.35476297       0.67116259       0.59393130 </v>
    <v>       0.33966729       0.91930967       0.59383142 </v>
    <v>       0.58818142       0.16995579       0.58797547 </v>
    <v>       0.59454566       0.41188185       0.58710128 </v>
    <v>       0.58439396       0.67345387       0.59587124 </v>
    <v>       0.57453340       0.91671959       0.58857385 </v>
    <v>       0.82971567       0.15621748       0.59149267 </v>
    <v>       0.83332741       0.41245065       0.59009856 </v>
    <v>       0.84958910       0.67040783       0.59135244 </v>
    <v>       0.82989059       0.92867991       0.58809261 </v>
    <v>       0.16203863       0.06274661       0.40838796 </v>
    <v>       0.16330582       0.32284744       0.40989607 </v>
    <v>       0.18136807       0.59962179       0.40983972 </v>
    <v>       0.17650730       0.84615984       0.40506220 </v>
    <v>       0.40467408       0.07086698       0.40995514 </v>
    <v>       0.40568955       0.33849504       0.41367583 </v>
    <v>       0.42600115       0.58457500       0.40862864 </v>
    <v>       0.40944813       0.83118925       0.40754519 </v>
    <v>       0.64420753       0.07150937       0.40175565 </v>
    <v>       0.66613874       0.34331139       0.40963357 </v>
    <v>       0.66306104       0.57955620       0.41156351 </v>
    <v>       0.66307307       0.81980685       0.40911824 </v>
    <v>       0.90272598       0.07472752       0.40554142 </v>
    <v>       0.92607142       0.32712295       0.40714928 </v>
    <v>       0.94712123       0.59174829       0.39908299 </v>
    <v>       0.91497652       0.84064381       0.40916651 </v>
    <v>       0.00509406       0.00398490       0.50162730 </v>
    <v>       0.99211178       0.25587411       0.49601393 </v>
    <v>       0.98812427       0.49289225       0.49630538 </v>
    <v>       0.00440812       0.76206085       0.49969092 </v>
    <v>       0.24988581       0.00267622       0.50943400 </v>
    <v>       0.25100466       0.25074235       0.49581096 </v>
    <v>       0.24638934       0.49163709       0.50327759 </v>
    <v>       0.25752624       0.75296639       0.49969781 </v>
    <v>       0.50512172       0.00090839       0.50145687 </v>
    <v>       0.50157996       0.25266336       0.49540741 </v>
    <v>       0.50735332       0.50953296       0.50712308 </v>
    <v>       0.51005798       0.75534214       0.49727060 </v>
    <v>       0.75443932       0.00450040       0.49891006 </v>
    <v>       0.74712832       0.24241362       0.49279892 </v>
    <v>       0.75753610       0.50481117       0.49757038 </v>
    <v>       0.76361159       0.76243691       0.50257947 </v>
   </varray>
  </structure>
  <varray name="forces" >
   <v>       0.33718167      -0.34689523       0.25436899 </v>
   <v>       1.41520436       0.09953295       0.06438957 </v>
   <v>      -0.35427498       0.68702018      -0.91520826 </v>
   <v>       0.26151982       0.83140456      -1.23528033 </v>
   <v>       0.08215766      -0.79717989      -0.62059820 </v>
   <v>      -0.70155605       0.63097960      -0.22835690 </v>
   <v>      -2.19270546       0.57027843      -1.04175872 </v>
   <v>      -1.03048291      -0.77083785      -1.54216519 </v>
   <v>       0.26586696       0.23161890      -1.04485261 </v>
   <v>      -0.46173627      -0.56301712      -0.33842778 </v>
   <v>       0.13603858      -0.02141299      -0.96301285 </v>
   <v>       0.81971749       1.41329336      -1.14675595 </v>
   <v>       0.09029407      -0.35495325      -0.94878485 </v>
   <v>      -0.45661510       0.13283964      -1.50868185 </v>
   <v>       0.41918340       0.42859332      -1.53276196 </v>
   <v>      -0.29190703       0.26500798       0.03958530 </v>
   <v>       1.14200212      -1.29771556      -0.52715350 </v>
   <v>      -0.43603820       1.39787561      -0.56729228 </v>
   <v>      -0.10080392       0.13651242      -0.17354926 </v>
   <v>       0.86384582      -0.30766311       1.15700787 </v>
   <v>       0.44972878       1.67856157       0.85131606 </v>
   <v>       0.68548891      -0.08439388       0.07508334 </v>
   <v>       0.16389038      -0.09739149       0.78318436 </v>
   <v>      -0.01424277      -0.90819313       0.56979459 </v>
   <v>      -0.90689526      -0.84527156       0.84771890 </v>
   <v>      -0.99823596      -0.97875434       0.96086323 </v>
   <v>      -0.91495081      -0.25176516       1.14969111 </v>
   <v>       0.55149556      -0.02392813      -1.09735800 </v>
   <v>      -0.43771975      -0.59796150      -0.63163674 </v>
   <v>      -0.16265521       0.74559422       0.92341350 </v>
   <v>       2.80568546       0.93216255       0.20998782 </v>
   <v>       0.79795883       0.64686346       0.82370173 </v>
   <v>       0.59307223      -0.32076853       0.09980904 </v>
   <v>      -0.03981378      -0.11303735      -0.01497643 </v>
   <v>      -0.81851238       0.39279723       0.20072317 </v>
   <v>       0.05379572      -0.18041948      -0.83541199 </v>
   <v>      -0.12414381       0.04781937      -1.05243727 </v>
   <v>       0.22691466      -0.39719913       0.87690306 </v>
   <v>      -0.71890603       0.06657577      -0.48242717 </v>
   <v>      -0.00020823      -0.21243802      -0.24421716 </v>
   <v>       0.13450397       0.19799356      -0.35568273 </v>
   <v>      -0.24779082       0.23242790      -0.06514397 </v>
   <v>       0.22659924       0.13204691      -0.64299725 </v>
   <v>       0.65183578       0.27158022       0.39980250 </v>
   <v>      -0.20297404       0.56439964      -0.40180266 </v>
   <v>      -0.22897011      -0.03566946      -0.55573362 </v>
   <v>      -0.74243651      -0.02228366       0.07879598 </v>
   <v>       0.36278274      -0.30032078       0.57443945 </v>
   <v>      -0.26406366       1.00295427       0.42055984 </v>
   <v>      -0.06300546       0.58622445      -0.12640791 </v>
   <v>       0.07243800      -0.70407131       0.41270219 </v>
   <v>      -0.04127366      -0.23967294       1.44949017 </v>
   <v>       0.10016515       0.50809355       0.43475712 </v>
   <v>       1.15660618      -0.22462388      -0.71057399 </v>
   <v>      -0.07634546      -0.19113219       0.69766640 </v>
   <v>       0.48840508       0.07743146       0.82871452 </v>
   <v>       0.26768597       0.15876121       0.94795464 </v>
   <v>       0.20753984      -0.17515909      -0.13368338 </v>
   <v>       0.11751969       0.43970037       0.12081064 </v>
   <v>       0.07262576       0.47369453       0.37801645 </v>
   <v>       0.53666003       0.20359711       0.35717245 </v>
   <v>      -0.77915786       0.13498469      -0.40243163 </v>
   <v>      -0.45821582      -0.29902399       1.27373233 </v>
   <v>       0.27159401      -0.33481706       0.39549440 </v>
   <v>      -0.61167884       0.61826801      -0.04717010 </v>
   <v>       1.51212163      -0.97124702       0.26647190 </v>
   <v>       1.00681399       0.82309519       0.56601557 </v>
   <v>       0.05100027      -1.77089325       0.49588949 </v>
   <v>      -0.28290010       0.05460481      -1.25823470 </v>
   <v>      -0.66349325      -0.40404636       1.83550733 </v>
   <v>       0.15285196       1.10721785      -1.03063987 </v>
   <v>      -0.37317527      -0.65336937       0.75119955 </v>
   <v>      -0.81097837      -0.25762131      -0.45127894 </v>
   <v>      -0.06482592       0.07897640       1.01844261 </v>
   <v>       0.48960748      -0.71544701      -1.15103300 </v>
   <v>      -0.53585697      -0.74097912       1.52954811 </v>
   <v>      -0.38882767      -0.59245671      -0.06182598 </v>
   <v>      -0.37184223       0.99711673       0.89681810 </v>
   <v>      -0.72564102      -0.34441026       0.16204749 </v>
   <v>      -0.94454234      -1.55005851      -0.09184590 </v>
  </varray>
  <varray name="stress" >
   <v>       3.48665548      -0.70301299       0.33768839 </v>
   <v>      -0.70301300       2.77894265      -2.22590419 </v>
   <v>       0.33768840      -2.22590416      -1.81578120 </v>
  </varray>
  <energy>
   <i name="e_fr_energy">   -595.08553040 </i>
   <i name="e_wo_entrp">   -595.08553040 </i>
   <i name="e_0_energy">     -0.00000000 </i>
  </energy>
  <time name="totalsc"> 1758.54 1758.94</time>
  <eigenvalues>
   <array>
    <dimension dim="1">band</dimension>
    <dimension dim="2">kpoint</dimension>
    <dimension dim="3">spin</dimension>
    <field>eigene</field>
    <field>occ</field>
    <set>
     <set comment="spin 1">
      <set comment="kpoint 1">
       <r>  -52.2224    1.0000 </r>
       <r>  -52.0771    1.0000 </r>
       <r>  -52.0263    1.0000 </r>
       <r>  -51.9624    1.0000 </r>
       <r>  -51.9447    1.0000 </r>
       <r>  -51.8879    1.0000 </r>
       <r>  -51.8568    1.0000 </r>
       <r>  -51.8384    1.0000 </r>
       <r>  -51.8159    1.0000 </r>
       <r>  -51.7816    1.0000 </r>
       <r>  -51.7596    1.0000 </r>
       <r>  -51.7340    1.0000 </r>
       <r>  -51.7047    1.0000 </r>
       <r>  -51.6946    1.0000 </r>
       <r>  -51.6866    1.0000 </r>
       <r>  -51.6700    1.0000 </r>
       <r>  -51.6577    1.0000 </r>
       <r>  -51.6460    1.0000 </r>
       <r>  -51.6418    1.0000 </r>
       <r>  -51.6335    1.0000 </r>
       <r>  -51.5922    1.0000 </r>
       <r>  -51.5783    1.0000 </r>
       <r>  -51.5693    1.0000 </r>
       <r>  -51.5290    1.0000 </r>
       <r>  -51.5226    1.0000 </r>
       <r>  -51.5192    1.0000 </r>
       <r>  -51.5158    1.0000 </r>
       <r>  -51.4911    1.0000 </r>
       <r>  -51.4744    1.0000 </r>
       <r>  -51.4262    1.0000 </r>
       <r>  -51.3647    1.0000 </r>
       <r>  -51.3154    1.0000 </r>
       <r>  -31.1334    1.0000 </r>
       <r>  -31.0565    1.0000 </r>
       <r>  -30.9583    1.0000 </r>
       <r>  -30.9421    1.0000 </r>
       <r>  -30.9227    1.0000 </r>
       <r>  -30.9092    1.0000 </r>
       <r>  -30.8916    1.0000 </r>
       <r>  -30.8539    1.0000 </r>
       <r>  -30.8393    1.0000 </r>
       <r>  -30.8204    1.0000 </r>
       <r>  -30.8150    1.0000 </r>
       <r>  -30.7946    1.0000 </r>
       <r>  -30.7907    1.0000 </r>
       <r>  -30.7769    1.0000 </r>
       <r>  -30.7666    1.0000 </r>
       <r>  -30.7487    1.0000 </r>
       <r>  -30.7442    1.0000 </r>
       <r>  -30.7176    1.0000 </r>
       <r>  -30.7051    1.0000 </r>
       <r>  -30.6822    1.0000 </r>
       <r>  -30.6655    1.0000 </r>
       <r>  -30.6510    1.0000 </r>
       <r>  -30.6448    1.0000 </r>
       <r>  -30.6277    1.0000 </r>
       <r>  -30.6246    1.0000 </r>
       <r>  -30.6051    1.0000 </r>
       <r>  -30.5997    1.0000 </r>
       <r>  -30.5876    1.0000 </r>
       <r>  -30.5800    1.0000 </r>
       <r>  -30.5704    1.0000 </r>
       <r>  -30.5641    1.0000 </r>
       <r>  -30.5533    1.0000 </r>
       <r>  -30.5410    1.0000 </r>
       <r>  -30.5231    1.0000 </r>
       <r>  -30.5131    1.0000 </r>
       <r>  -30.5059    1.0000 </r>
       <r>  -30.4989    1.0000 </r>
       <r>  -30.4921    1.0000 </r>
       <r>  -30.4882    1.0000 </r>
       <r>  -30.4762    1.0000 </r>
       <r>  -30.4741    1.0000 </r>
       <r>  -30.4647    1.0000 </r>
       <r>  -30.4521    1.0000 </r>
       <r>  -30.4505    1.0000 </r>
       <r>  -30.4447    1.0000 </r>
       <r>  -30.4408    1.0000 </r>
       <r>  -30.4267    1.0000 </r>
       <r>  -30.4164    1.0000 </r>
       <r>  -30.4024    1.0000 </r>
       <r>  -30.3900    1.0000 </r>
       <r>  -30.3861    1.0000 </r>
       <r>  -30.3764    1.0000 </r>
       <r>  -30.3722    1.0000 </r>
       <r>  -30.3527    1.0000 </r>
       <r>  -30.3495    1.0000 </r>
       <r>  -30.3394    1.0000 </r>
       <r>  -30.3381    1.0000 </r>
       <r>  -30.3360    1.0000 </r>
       <r>  -30.3216    1.0000 </r>
       <r>  -30.3170    1.0000 </r>
       <r>  -30.3143    1.0000 </r>
       <r>  -30.3058    1.0000 </r>
       <r>  -30.2914    1.0000 </r>
       <r>  -30.2859    1.0000 </r>
       <r>  -30.2816    1.0000 </r>
       <r>  -30.2709    1.0000 </r>
       <r>  -30.2632    1.0000 </r>
       <r>  -30.2513    1.0000 </r>
       <r>  -30.2444    1.0000 </r>
       <r>  -30.2338    1.0000 </r>
       <r>  -30.2283    1.0000 </r>
       <r>  -30.2226    1.0000 </r>
       <r>  -30.2142    1.0000 </r>
       <r>  -30.2009    1.0000 </r>
       <r>  -30.1996    1.0000 </r>
       <r>  -30.1905    1.0000 </r>
       <r>  -30.1788    1.0000 </r>
       <r>  -30.1703    1.0000 </r>
       <r>  -30.1678    1.0000 </r>
       <r>  -30.1568    1.0000 </r>
       <r>  -30.1526    1.0000 </r>
       <r>  -30.1370    1.0000 </r>
       <r>  -30.1311    1.0000 </r>
       <r>  -30.1260    1.0000 </r>
       <r>  -30.1213    1.0000 </r>
       <r>  -30.1030    1.0000 </r>
       <r>  -30.0960    1.0000 </r>
       <r>  -30.0865    1.0000 </r>
       <r>  -30.0777    1.0000 </r>
       <r>  -30.0597    1.0000 </r>
       <r>  -30.0438    1.0000 </r>
       <r>  -30.0358    1.0000 </r>
       <r>  -30.0237    1.0000 </r>
       <r>  -29.9890    1.0000 </r>
       <r>  -29.9841    1.0000 </r>
       <r>  -29.9611    1.0000 </r>
       <r>  -27.3026    1.0000 </r>
       <r>  -27.1353    1.0000 </r>
       <r>  -27.1133    1.0000 </r>
       <r>  -27.0482    1.0000 </r>
       <r>  -27.0147    1.0000 </r>
       <r>  -26.9231    1.0000 </r>
       <r>  -26.8960    1.0000 </r>
       <r>  -26.8573    1.0000 </r>
       <r>  -26.8312    1.0000 </r>
       <r>  -26.8194    1.0000 </r>
       <r>  -26.8066    1.0000 </r>
       <r>  -26.7735    1.0000 </r>
       <r>  -26.7630    1.0000 </r>
       <r>  -26.7270    1.0000 </r>
       <r>  -26.6970    1.0000 </r>
       <r>  -26.6533    1.0000 </r>
       <r>  -26.6305    1.0000 </r>
       <r>  -26.6013    1.0000 </r>
       <r>  -26.5661    1.0000 </r>
       <r>  -26.5279    1.0000 </r>
       <r>  -26.5241    1.0000 </r>
       <r>  -26.5076    1.0000 </r>
       <r>  -26.4824    1.0000 </r>
       <r>  -26.4280    1.0000 </r>
       <r>  -26.4237    1.0000 </r>
       <r>  -26.3187    1.0000 </r>
       <r>  -26.2822    1.0000 </r>
       <r>  -26.2190    1.0000 </r>
       <r>  -26.2037    1.0000 </r>
       <r>  -25.9357    1.0000 </r>
       <r>  -25.6840    1.0000 </r>
       <r>  -25.6117    1.0000 </r>
       <r>  -12.3631    1.0000 </r>
       <r>  -12.0192    1.0000 </r>
       <r>  -11.9744    1.0000 </r>
       <r>  -11.9202    1.0000 </r>
       <r>  -11.8749    1.0000 </r>
       <r>  -11.8304    1.0000 </r>
       <r>  -11.7600    1.0000 </r>
       <r>  -11.4658    1.0000 </r>
       <r>  -11.3706    1.0000 </r>
       <r>  -11.3617    1.0000 </r>
       <r>  -11.3195    1.0000 </r>
       <r>  -11.2772    1.0000 </r>
       <r>  -11.2367    1.0000 </r>
       <r>  -11.2012    1.0000 </r>
       <r>  -11.1829    1.0000 </r>
       <r>  -11.1337    1.0000 </r>
       <r>   -9.6068    1.0000 </r>
       <r>   -9.5571    1.0000 </r>
       <r>   -9.4737    1.0000 </r>
       <r>   -9.3820    1.0000 </r>
       <r>   -9.3761    1.0000 </r>
       <r>   -9.3361    1.0000 </r>
       <r>   -9.3112    1.0000 </r>
       <r>   -9.2765    1.0000 </r>
       <r>   -9.2565    1.0000 </r>
       <r>   -9.2480    1.0000 </r>
       <r>   -9.2261    1.0000 </r>
       <r>   -9.1772    1.0000 </r>
       <r>   -9.1524    1.0000 </r>
       <r>   -9.1151    1.0000 </r>
       <r>   -9.0988    1.0000 </r>
       <r>   -9.0728    1.0000 </r>
       <r>   -9.0533    1.0000 </r>
       <r>   -9.0436    1.0000 </r>
       <r>   -9.0202    1.0000 </r>
       <r>   -9.0184    1.0000 </r>
       <r>   -8.9699    1.0000 </r>
       <r>   -8.9293    1.0000 </r>
       <r>   -8.9056    1.0000 </r>
       <r>   -8.8993    1.0000 </r>
       <r>   -8.8760    1.0000 </r>
       <r>   -8.8670    1.0000 </r>
       <r>   -8.8599    1.0000 </r>
       <r>   -8.8446    1.0000 </r>
       <r>   -8.8316    1.0000 </r>
       <r>   -8.8144    1.0000 </r>
       <r>   -8.7977    1.0000 </r>
       <r>   -8.7635    1.0000 </r>
       <r>   -8.7434    1.0000 </r>
       <r>   -8.7348    1.0000 </r>
       <r>   -8.7012    1.0000 </r>
       <r>   -8.6933    1.0000 </r>
       <r>   -8.6875    1.0000 </r>
       <r>   -8.6809    1.0000 </r>
       <r>   -8.6545    1.0000 </r>
       <r>   -8.6379    1.0000 </r>
       <r>   -8.6284    1.0000 </r>
       <r>   -8.6117    1.0000 </r>
       <r>   -8.6060    1.0000 </r>
       <r>   -8.5990    1.0000 </r>
       <r>   -8.5913    1.0000 </r>
       <r>   -8.5841    1.0000 </r>
       <r>   -8.5792    1.0000 </r>
       <r>   -8.5575    1.0000 </r>
       <r>   -8.5431    1.0000 </r>
       <r>   -8.5391    1.0000 </r>
       <r>   -8.5325    1.0000 </r>
       <r>   -8.5213    1.0000 </r>
       <r>   -8.5096    1.0000 </r>
       <r>   -8.4893    1.0000 </r>
       <r>   -8.4835    1.0000 </r>
       <r>   -8.4580    1.0000 </r>
       <r>   -8.4424    1.0000 </r>
       <r>   -8.4299    1.0000 </r>
       <r>   -8.4100    1.0000 </r>
       <r>   -8.3953    1.0000 </r>
       <r>   -8.3890    1.0000 </r>
       <r>   -8.3694    1.0000 </r>
       <r>   -8.3576    1.0000 </r>
       <r>   -8.3465    1.0000 </r>
       <r>   -8.3369    1.0000 </r>
       <r>   -8.3100    1.0000 </r>
       <r>   -8.2965    1.0000 </r>
       <r>   -8.2827    1.0000 </r>
       <r>   -8.2733    1.0000 </r>
       <r>   -8.2693    1.0000 </r>
       <r>   -8.2294    1.0000 </r>
       <r>   -8.2184    1.0000 </r>
       <r>   -8.2078    1.0000 </r>
       <r>   -8.1930    1.0000 </r>
       <r>   -8.1607    1.0000 </r>
       <r>   -8.1352    1.0000 </r>
       <r>   -8.1280    1.0000 </r>
       <r>   -8.0975    1.0000 </r>
       <r>   -8.0946    1.0000 </r>
       <r>   -8.0752    1.0000 </r>
       <r>   -8.0683    1.0000 </r>
       <r>   -8.0295    1.0000 </r>
       <r>   -8.0026    1.0000 </r>
       <r>   -7.9702    1.0000 </r>
       <r>   -7.9602    1.0000 </r>
       <r>   -7.9292    1.0000 </r>
       <r>   -7.9187    1.0000 </r>
       <r>   -7.7893    1.0000 </r>
       <r>   -7.6981    1.0000 </r>
       <r>   -7.6588    1.0000 </r>
       <r>   -7.5961    1.0000 </r>
       <r>   -7.5164    1.0000 </r>
       <r>   -7.4123    1.0000 </r>
       <r>   -7.3806    1.0000 </r>
       <r>   -7.3252    1.0000 </r>
       <r>   -7.2157    1.0000 </r>
       <r>   -5.4632    1.0000 </r>
       <r>   -5.4334    1.0000 </r>
       <r>   -5.4265    1.0000 </r>
       <r>   -5.1978    1.0000 </r>
       <r>   -5.1838    1.0000 </r>
       <r>   -5.1385    1.0000 </r>
       <r>   -5.1065    1.0000 </r>
       <r>   -5.0830    1.0000 </r>
       <r>   -5.0284    1.0000 </r>
       <r>   -4.8424    1.0000 </r>
       <r>   -4.7399    1.0000 </r>
       <r>   -4.6948    1.0000 </r>
       <r>   -4.6442    1.0000 </r>
       <r>   -4.6294    1.0000 </r>
       <r>   -4.6084    1.0000 </r>
       <r>   -4.5981    1.0000 </r>
       <r>   -4.5636    1.0000 </r>
       <r>   -4.5283    1.0000 </r>
       <r>   -4.4933    1.0000 </r>
       <r>   -4.4836    1.0000 </r>
       <r>   -4.4527    1.0000 </r>
       <r>   -4.4150    1.0000 </r>
       <r>   -4.4004    1.0000 </r>
       <r>   -4.3809    1.0000 </r>
       <r>   -4.3617    1.0000 </r>
       <r>   -4.3235    1.0000 </r>
       <r>   -4.2964    1.0000 </r>
       <r>   -4.2903    1.0000 </r>
       <r>   -4.2335    1.0000 </r>
       <r>   -4.2075    1.0000 </r>
       <r>   -4.1820    1.0000 </r>
       <r>   -4.1390    1.0000 </r>
       <r>   -4.0989    1.0000 </r>
       <r>   -4.0857    1.0000 </r>
       <r>   -4.0641    1.0000 </r>
       <r>   -3.9820    1.0000 </r>
       <r>   -3.8374    1.0000 </r>
       <r>   -3.6883    1.0000 </r>
       <r>   -3.6254    1.0000 </r>
       <r>   -3.6132    1.0000 </r>
       <r>   -3.5604    1.0000 </r>
       <r>   -3.4957    1.0000 </r>
       <r>   -3.4664    1.0000 </r>
       <r>   -3.4414    1.0000 </r>
       <r>   -3.4027    1.0000 </r>
       <r>   -3.3555    1.0000 </r>
       <r>   -3.2197    1.0000 </r>
       <r>   -3.1884    1.0000 </r>
       <r>   -2.1473    0.0000 </r>
       <r>   -2.1239    0.0000 </r>
       <r>   -2.0971    0.0000 </r>
       <r>   -1.5850    0.0000 </r>
       <r>   -1.5207    0.0000 </r>
       <r>   -1.5102    0.0000 </r>
       <r>   -1.4995    0.0000 </r>
       <r>   -1.4048    0.0000 </r>
       <r>   -1.3463    0.0000 </r>
       <r>   -0.8164    0.0000 </r>
       <r>   -0.7715    0.0000 </r>
       <r>   -0.6963    0.0000 </r>
       <r>   -0.6637    0.0000 </r>
       <r>   -0.6171    0.0000 </r>
       <r>   -0.6083    0.0000 </r>
       <r>   -0.5828    0.0000 </r>
       <r>   -0.5659    0.0000 </r>
       <r>   -0.5243    0.0000 </r>
       <r>   -0.4751    0.0000 </r>
       <r>   -0.4730    0.0000 </r>
       <r>   -0.4347    0.0000 </r>
       <r>   -0.4069    0.0000 </r>
       <r>   -0.3768    0.0000 </r>
       <r>   -0.3069    0.0000 </r>
       <r>   -0.0297    0.0000 </r>
       <r>    0.0103    0.0000 </r>
       <r>    0.0674    0.0000 </r>
       <r>    0.0920    0.0000 </r>
       <r>    0.1301    0.0000 </r>
       <r>    0.1592    0.0000 </r>
       <r>    0.1969    0.0000 </r>
       <r>    0.2246    0.0000 </r>
       <r>    0.2521    0.0000 </r>
       <r>    0.2740    0.0000 </r>
       <r>    0.2888    0.0000 </r>
       <r>    0.3759    0.0000 </r>
       <r>    0.4086    0.0000 </r>
       <r>    0.4431    0.0000 </r>
       <r>    0.4547    0.0000 </r>
       <r>    0.4737    0.0000 </r>
       <r>    0.4926    0.0000 </r>
       <r>    0.5160    0.0000 </r>
       <r>    0.5506    0.0000 </r>
       <r>    0.5733    0.0000 </r>
       <r>    0.5850    0.0000 </r>
       <r>    0.5892    0.0000 </r>
       <r>    0.6522    0.0000 </r>
       <r>    0.6843    0.0000 </r>
       <r>    0.7025    0.0000 </r>
       <r>    0.7072    0.0000 </r>
       <r>    0.7392    0.0000 </r>
       <r>    0.7605    0.0000 </r>
       <r>    0.7751    0.0000 </r>
       <r>    0.7907    0.0000 </r>
       <r>    0.8125    0.0000 </r>
       <r>    0.8262    0.0000 </r>
       <r>    0.8397    0.0000 </r>
       <r>    0.8476    0.0000 </r>
       <r>    0.8605    0.0000 </r>
       <r>    0.8896    0.0000 </r>
       <r>    0.8915    0.0000 </r>
       <r>    0.9297    0.0000 </r>
       <r>    0.9416    0.0000 </r>
       <r>    0.9997    0.0000 </r>
      </set>
      <set comment="kpoint 2">
       <r>  -52.2224    1.0000 </r>
       <r>  -52.0771    1.0000 </r>
       <r>  -52.0263    1.0000 </r>
       <r>  -51.9624    1.0000 </r>
       <r>  -51.9447    1.0000 </r>
       <r>  -51.8879    1.0000 </r>
       <r>  -51.8568    1.0000 </r>
       <r>  -51.8384    1.0000 </r>
       <r>  -51.8159    1.0000 </r>
       <r>  -51.7816    1.0000 </r>
       <r>  -51.7596    1.0000 </r>
       <r>  -51.7340    1.0000 </r>
       <r>  -51.7048    1.0000 </r>
       <r>  -51.6946    1.0000 </r>
       <r>  -51.6866    1.0000 </r>
       <r>  -51.6700    1.0000 </r>
       <r>  -51.6578    1.0000 </r>
       <r>  -51.6460    1.0000 </r>
       <r>  -51.6418    1.0000 </r>
       <r>  -51.6335    1.0000 </r>
       <r>  -51.5922    1.0000 </r>
       <r>  -51.5783    1.0000 </r>
       <r>  -51.5693    1.0000 </r>
       <r>  -51.5290    1.0000 </r>
       <r>  -51.5226    1.0000 </r>
       <r>  -51.5192    1.0000 </r>
       <r>  -51.5158    1.0000 </r>
       <r>  -51.4911    1.0000 </r>
       <r>  -51.4744    1.0000 </r>
       <r>  -51.4262    1.0000 </r>
       <r>  -51.3647    1.0000 </r>
       <r>  -51.3154    1.0000 </r>
       <r>  -31.1324    1.0000 </r>
       <r>  -31.0520    1.0000 </r>
       <r>  -30.9653    1.0000 </r>
       <r>  -30.9365    1.0000 </r>
       <r>  -30.9194    1.0000 </r>
       <r>  -30.9110    1.0000 </r>
       <r>  -30.8908    1.0000 </r>
       <r>  -30.8482    1.0000 </r>
       <r>  -30.8359    1.0000 </r>
       <r>  -30.8251    1.0000 </r>
       <r>  -30.8128    1.0000 </r>
       <r>  -30.7969    1.0000 </r>
       <r>  -30.7921    1.0000 </r>
       <r>  -30.7767    1.0000 </r>
       <r>  -30.7738    1.0000 </r>
       <r>  -30.7562    1.0000 </r>
       <r>  -30.7483    1.0000 </r>
       <r>  -30.7163    1.0000 </r>
       <r>  -30.7085    1.0000 </r>
       <r>  -30.6885    1.0000 </r>
       <r>  -30.6621    1.0000 </r>
       <r>  -30.6520    1.0000 </r>
       <r>  -30.6430    1.0000 </r>
       <r>  -30.6255    1.0000 </r>
       <r>  -30.6163    1.0000 </r>
       <r>  -30.6099    1.0000 </r>
       <r>  -30.6037    1.0000 </r>
       <r>  -30.5883    1.0000 </r>
       <r>  -30.5761    1.0000 </r>
       <r>  -30.5697    1.0000 </r>
       <r>  -30.5623    1.0000 </r>
       <r>  -30.5586    1.0000 </r>
       <r>  -30.5503    1.0000 </r>
       <r>  -30.5295    1.0000 </r>
       <r>  -30.5117    1.0000 </r>
       <r>  -30.5065    1.0000 </r>
       <r>  -30.4987    1.0000 </r>
       <r>  -30.4845    1.0000 </r>
       <r>  -30.4803    1.0000 </r>
       <r>  -30.4770    1.0000 </r>
       <r>  -30.4707    1.0000 </r>
       <r>  -30.4606    1.0000 </r>
       <r>  -30.4545    1.0000 </r>
       <r>  -30.4510    1.0000 </r>
       <r>  -30.4450    1.0000 </r>
       <r>  -30.4419    1.0000 </r>
       <r>  -30.4297    1.0000 </r>
       <r>  -30.4134    1.0000 </r>
       <r>  -30.4055    1.0000 </r>
       <r>  -30.3950    1.0000 </r>
       <r>  -30.3842    1.0000 </r>
       <r>  -30.3771    1.0000 </r>
       <r>  -30.3678    1.0000 </r>
       <r>  -30.3551    1.0000 </r>
       <r>  -30.3485    1.0000 </r>
       <r>  -30.3450    1.0000 </r>
       <r>  -30.3383    1.0000 </r>
       <r>  -30.3289    1.0000 </r>
       <r>  -30.3199    1.0000 </r>
       <r>  -30.3179    1.0000 </r>
       <r>  -30.3108    1.0000 </r>
       <r>  -30.2970    1.0000 </r>
       <r>  -30.2894    1.0000 </r>
       <r>  -30.2838    1.0000 </r>
       <r>  -30.2788    1.0000 </r>
       <r>  -30.2663    1.0000 </r>
       <r>  -30.2633    1.0000 </r>
       <r>  -30.2566    1.0000 </r>
       <r>  -30.2378    1.0000 </r>
       <r>  -30.2325    1.0000 </r>
       <r>  -30.2266    1.0000 </r>
       <r>  -30.2219    1.0000 </r>
       <r>  -30.2100    1.0000 </r>
       <r>  -30.2006    1.0000 </r>
       <r>  -30.1983    1.0000 </r>
       <r>  -30.1896    1.0000 </r>
       <r>  -30.1788    1.0000 </r>
       <r>  -30.1716    1.0000 </r>
       <r>  -30.1682    1.0000 </r>
       <r>  -30.1619    1.0000 </r>
       <r>  -30.1511    1.0000 </r>
       <r>  -30.1399    1.0000 </r>
       <r>  -30.1334    1.0000 </r>
       <r>  -30.1273    1.0000 </r>
       <r>  -30.1230    1.0000 </r>
       <r>  -30.1031    1.0000 </r>
       <r>  -30.0953    1.0000 </r>
       <r>  -30.0892    1.0000 </r>
       <r>  -30.0784    1.0000 </r>
       <r>  -30.0608    1.0000 </r>
       <r>  -30.0457    1.0000 </r>
       <r>  -30.0367    1.0000 </r>
       <r>  -30.0255    1.0000 </r>
       <r>  -29.9908    1.0000 </r>
       <r>  -29.9858    1.0000 </r>
       <r>  -29.9615    1.0000 </r>
       <r>  -27.3021    1.0000 </r>
       <r>  -27.1361    1.0000 </r>
       <r>  -27.1127    1.0000 </r>
       <r>  -27.0483    1.0000 </r>
       <r>  -27.0146    1.0000 </r>
       <r>  -26.9222    1.0000 </r>
       <r>  -26.8964    1.0000 </r>
       <r>  -26.8583    1.0000 </r>
       <r>  -26.8312    1.0000 </r>
       <r>  -26.8192    1.0000 </r>
       <r>  -26.8063    1.0000 </r>
       <r>  -26.7734    1.0000 </r>
       <r>  -26.7630    1.0000 </r>
       <r>  -26.7272    1.0000 </r>
       <r>  -26.6970    1.0000 </r>
       <r>  -26.6533    1.0000 </r>
       <r>  -26.6305    1.0000 </r>
       <r>  -26.6012    1.0000 </r>
       <r>  -26.5661    1.0000 </r>
       <r>  -26.5285    1.0000 </r>
       <r>  -26.5237    1.0000 </r>
       <r>  -26.5076    1.0000 </r>
       <r>  -26.4824    1.0000 </r>
       <r>  -26.4280    1.0000 </r>
       <r>  -26.4237    1.0000 </r>
       <r>  -26.3187    1.0000 </r>
       <r>  -26.2822    1.0000 </r>
       <r>  -26.2190    1.0000 </r>
       <r>  -26.2037    1.0000 </r>
       <r>  -25.9357    1.0000 </r>
       <r>  -25.6840    1.0000 </r>
       <r>  -25.6117    1.0000 </r>
       <r>  -12.3192    1.0000 </r>
       <r>  -12.1340    1.0000 </r>
       <r>  -12.0142    1.0000 </r>
       <r>  -11.9924    1.0000 </r>
       <r>  -11.7494    1.0000 </r>
       <r>  -11.7254    1.0000 </r>
       <r>  -11.5977    1.0000 </r>
       <r>  -11.5432    1.0000 </r>
       <r>  -11.5176    1.0000 </r>
       <r>  -11.3866    1.0000 </r>
       <r>  -11.3416    1.0000 </r>
       <r>  -11.2968    1.0000 </r>
       <r>  -11.2578    1.0000 </r>
[...]
       <r>   -32.6367     0.0000    64.0000 </r>
       <r>   -32.4415     0.0000    64.0000 </r>
       <r>   -32.2464     0.0000    64.0000 </r>
       <r>   -32.0512     0.0000    64.0000 </r>
       <r>   -31.8561     0.0000    64.0000 </r>
       <r>   -31.6609     0.0000    64.0000 </r>
       <r>   -31.4658     0.0000    64.0000 </r>
       <r>   -31.2706     0.0005    64.0001 </r>
       <r>   -31.0755    12.4095    66.4218 </r>
       <r>   -30.8803    55.5105    77.2545 </r>
       <r>   -30.6852   134.2369   103.4505 </r>
       <r>   -30.4900   188.8789   140.3098 </r>
       <r>   -30.2949   244.3468   187.9935 </r>
       <r>   -30.0998   246.2020   236.0392 </r>
       <r>   -29.9046   101.5302   255.8526 </r>
       <r>   -29.7095     0.7554   256.0000 </r>
       <r>   -29.5143     0.0000   256.0000 </r>
       <r>   -29.3192     0.0000   256.0000 </r>
       <r>   -29.1240     0.0000   256.0000 </r>
       <r>   -28.9289     0.0000   256.0000 </r>
       <r>   -28.7337     0.0000   256.0000 </r>
       <r>   -28.5386     0.0000   256.0000 </r>
       <r>   -28.3434     0.0000   256.0000 </r>
       <r>   -28.1483     0.0000   256.0000 </r>
       <r>   -27.9531     0.0000   256.0000 </r>
       <r>   -27.7580     0.0000   256.0000 </r>
       <r>   -27.5628     0.0000   256.0000 </r>
       <r>   -27.3677     0.3277   256.0639 </r>
       <r>   -27.1725    11.9097   258.3881 </r>
       <r>   -26.9774    38.0121   265.8061 </r>
       <r>   -26.7822    65.2353   278.5366 </r>
       <r>   -26.5871    67.8532   291.7780 </r>
       <r>   -26.3919    69.5533   305.3511 </r>
       <r>   -26.1968    37.1954   312.6097 </r>
       <r>   -26.0017     7.4428   314.0622 </r>
       <r>   -25.8065     9.9316   316.0003 </r>
       <r>   -25.6114    15.2121   318.9689 </r>
       <r>   -25.4162     5.2838   320.0000 </r>
       <r>   -25.2211     0.0000   320.0000 </r>
       <r>   -25.0259     0.0000   320.0000 </r>
       <r>   -24.8308     0.0000   320.0000 </r>
       <r>   -24.6356     0.0000   320.0000 </r>
       <r>   -24.4405     0.0000   320.0000 </r>
       <r>   -24.2453     0.0000   320.0000 </r>
       <r>   -24.0502     0.0000   320.0000 </r>
       <r>   -23.8550     0.0000   320.0000 </r>
       <r>   -23.6599     0.0000   320.0000 </r>
       <r>   -23.4647     0.0000   320.0000 </r>
       <r>   -23.2696     0.0000   320.0000 </r>
       <r>   -23.0744     0.0000   320.0000 </r>
       <r>   -22.8793     0.0000   320.0000 </r>
       <r>   -22.6841     0.0000   320.0000 </r>
       <r>   -22.4890     0.0000   320.0000 </r>
       <r>   -22.2938     0.0000   320.0000 </r>
       <r>   -22.0987     0.0000   320.0000 </r>
       <r>   -21.9036     0.0000   320.0000 </r>
       <r>   -21.7084     0.0000   320.0000 </r>
       <r>   -21.5133     0.0000   320.0000 </r>
       <r>   -21.3181     0.0000   320.0000 </r>
       <r>   -21.1230     0.0000   320.0000 </r>
       <r>   -20.9278     0.0000   320.0000 </r>
       <r>   -20.7327     0.0000   320.0000 </r>
       <r>   -20.5375     0.0000   320.0000 </r>
       <r>   -20.3424     0.0000   320.0000 </r>
       <r>   -20.1472     0.0000   320.0000 </r>
       <r>   -19.9521     0.0000   320.0000 </r>
       <r>   -19.7569     0.0000   320.0000 </r>
       <r>   -19.5618     0.0000   320.0000 </r>
       <r>   -19.3666     0.0000   320.0000 </r>
       <r>   -19.1715     0.0000   320.0000 </r>
       <r>   -18.9763     0.0000   320.0000 </r>
       <r>   -18.7812     0.0000   320.0000 </r>
       <r>   -18.5860     0.0000   320.0000 </r>
       <r>   -18.3909     0.0000   320.0000 </r>
       <r>   -18.1957     0.0000   320.0000 </r>
       <r>   -18.0006     0.0000   320.0000 </r>
       <r>   -17.8055     0.0000   320.0000 </r>
       <r>   -17.6103     0.0000   320.0000 </r>
       <r>   -17.4152     0.0000   320.0000 </r>
       <r>   -17.2200     0.0000   320.0000 </r>
       <r>   -17.0249     0.0000   320.0000 </r>
       <r>   -16.8297     0.0000   320.0000 </r>
       <r>   -16.6346     0.0000   320.0000 </r>
       <r>   -16.4394     0.0000   320.0000 </r>
       <r>   -16.2443     0.0000   320.0000 </r>
       <r>   -16.0491     0.0000   320.0000 </r>
       <r>   -15.8540     0.0000   320.0000 </r>
       <r>   -15.6588     0.0000   320.0000 </r>
       <r>   -15.4637     0.0000   320.0000 </r>
       <r>   -15.2685     0.0000   320.0000 </r>
       <r>   -15.0734     0.0000   320.0000 </r>
       <r>   -14.8782     0.0000   320.0000 </r>
       <r>   -14.6831     0.0000   320.0000 </r>
       <r>   -14.4879     0.0000   320.0000 </r>
       <r>   -14.2928     0.0000   320.0000 </r>
       <r>   -14.0976     0.0000   320.0000 </r>
       <r>   -13.9025     0.0000   320.0000 </r>
       <r>   -13.7074     0.0000   320.0000 </r>
       <r>   -13.5122     0.0000   320.0000 </r>
       <r>   -13.3171     0.0000   320.0000 </r>
       <r>   -13.1219     0.0000   320.0000 </r>
       <r>   -12.9268     0.0000   320.0000 </r>
       <r>   -12.7316     0.0000   320.0000 </r>
       <r>   -12.5365     0.0000   320.0000 </r>
       <r>   -12.3413     2.4452   320.4772 </r>
       <r>   -12.1462    14.3353   323.2747 </r>
       <r>   -11.9510    16.8745   326.5677 </r>
       <r>   -11.7559    18.8798   330.2520 </r>
       <r>   -11.5607    20.3790   334.2290 </r>
       <r>   -11.3656    31.7262   340.4202 </r>
       <r>   -11.1704    38.9412   348.0195 </r>
       <r>   -10.9753    20.3750   351.9957 </r>
       <r>   -10.7801     0.0223   352.0000 </r>
       <r>   -10.5850     0.0000   352.0000 </r>
       <r>   -10.3898     0.0000   352.0000 </r>
       <r>   -10.1947     0.0000   352.0000 </r>
       <r>    -9.9995     0.0000   352.0000 </r>
       <r>    -9.8044     0.0000   352.0000 </r>
       <r>    -9.6093     4.1123   352.8025 </r>
       <r>    -9.4141    29.4461   358.5488 </r>
       <r>    -9.2190    71.7535   372.5514 </r>
       <r>    -9.0238    79.3032   388.0272 </r>
       <r>    -8.8287   105.6880   408.6519 </r>
       <r>    -8.6335   126.5458   433.3471 </r>
       <r>    -8.4384   168.6281   466.2544 </r>
       <r>    -8.2432   135.2763   492.6533 </r>
       <r>    -8.0481   105.1738   513.1777 </r>
       <r>    -7.8529    65.2915   525.9192 </r>
       <r>    -7.6578    25.0692   530.8114 </r>
       <r>    -7.4626    26.7466   536.0309 </r>
       <r>    -7.2675    30.7687   542.0353 </r>
       <r>    -7.0723    10.0673   543.9999 </r>
       <r>    -6.8772     0.0003   544.0000 </r>
       <r>    -6.6820     0.0000   544.0000 </r>
       <r>    -6.4869     0.0000   544.0000 </r>
       <r>    -6.2917     0.0000   544.0000 </r>
       <r>    -6.0966     0.0000   544.0000 </r>
       <r>    -5.9015     0.0000   544.0000 </r>
       <r>    -5.7063     0.0000   544.0000 </r>
       <r>    -5.5112     0.2155   544.0421 </r>
       <r>    -5.3160    28.2250   549.5501 </r>
       <r>    -5.1209    38.9546   557.1520 </r>
       <r>    -4.9257    33.7381   563.7359 </r>
       <r>    -4.7306    30.5751   569.7026 </r>
       <r>    -4.5354    38.8303   577.2802 </r>
       <r>    -4.3403    53.5156   587.7236 </r>
       <r>    -4.1451    75.8765   602.5308 </r>
       <r>    -3.9500    58.1726   613.8830 </r>
       <r>    -3.7548    39.8486   621.6594 </r>
       <r>    -3.5597    41.5100   629.7599 </r>
       <r>    -3.3645    32.9748   636.1949 </r>
       <r>    -3.1694    18.6506   639.8345 </r>
       <r>    -2.9742     0.8480   640.0000 </r>
       <r>    -2.7791     0.0000   640.0000 </r>
       <r>    -2.5839     0.0000   640.0000 </r>
       <r>    -2.3888     0.0000   640.0000 </r>
       <r>    -2.1936     0.1400   640.0273 </r>
       <r>    -1.9985     9.7350   641.9271 </r>
       <r>    -1.8034    18.2609   645.4907 </r>
       <r>    -1.6082    14.7664   648.3723 </r>
       <r>    -1.4131    19.4154   652.1612 </r>
       <r>    -1.2179    22.6843   656.5880 </r>
       <r>    -1.0228    24.7807   661.4238 </r>
       <r>    -0.8276    20.2985   665.3851 </r>
       <r>    -0.6325    31.8831   671.6070 </r>
       <r>    -0.4373    35.8918   678.6112 </r>
       <r>    -0.2422    30.7580   684.6135 </r>
       <r>    -0.0470    27.1532   689.9124 </r>
       <r>     0.1481    34.0206   696.5514 </r>
       <r>     0.3433    38.7092   704.1054 </r>
       <r>     0.5384    85.1469   720.7216 </r>
       <r>     0.7336   107.6786   741.7349 </r>
       <r>     0.9287   109.7396   763.1503 </r>
       <r>     1.1239    24.8512   767.9999 </r>
       <r>     1.3190     0.0003   768.0000 </r>
       <r>     1.5142     0.0000   768.0000 </r>
       <r>     1.7093     0.0000   768.0000 </r>
       <r>     1.9045     0.0000   768.0000 </r>
       <r>     2.0996     0.0000   768.0000 </r>
       <r>     2.2947     0.0000   768.0000 </r>
       <r>     2.4899     0.0000   768.0000 </r>
       <r>     2.6850     0.0000   768.0000 </r>
       <r>     2.8802     0.0000   768.0000 </r>
       <r>     3.0753     0.0000   768.0000 </r>
       <r>     3.2705     0.0000   768.0000 </r>
       <r>     3.4656     0.0000   768.0000 </r>
       <r>     3.6608     0.0000   768.0000 </r>
      </set>
     </set>
    </array>
   </total>
  </dos>
 </calculation>
 <structure name="finalpos" >
  <crystal>
   <varray name="basis" >
    <v>      13.12862340       0.00000000       0.00000000 </v>
    <v>      -6.56431170      11.36972138       0.00000000 </v>
    <v>       0.00000000       0.00000000      26.82809424 </v>
   </varray>
   <i name="volume">   4004.59716953 </i>
   <varray name="rec_basis" >
    <v>       0.07616945       0.04397645       0.00000000 </v>
    <v>       0.00000000       0.08795290       0.00000000 </v>
    <v>       0.00000000       0.00000000       0.03727436 </v>
   </varray>
  </crystal>
  <varray name="positions" >
   <v>       0.08014803       0.16390083       0.44915297 </v>
   <v>       0.07439702       0.41777561       0.45015550 </v>
   <v>       0.08788394       0.66488377       0.45274806 </v>
   <v>       0.08349456       0.91461114       0.45572371 </v>
   <v>       0.33401197       0.16872998       0.45533240 </v>
   <v>       0.33059962       0.41171389       0.45420859 </v>
   <v>       0.34604523       0.65853474       0.45564987 </v>
   <v>       0.33870305       0.91758792       0.45654756 </v>
   <v>       0.57515866       0.15936102       0.45144462 </v>
   <v>       0.58834749       0.42141034       0.45265541 </v>
   <v>       0.58822649       0.66904595       0.45728866 </v>
   <v>       0.57200192       0.90622460       0.45223611 </v>
   <v>       0.82926029       0.16220778       0.44964573 </v>
   <v>       0.83661846       0.41652624       0.45060053 </v>
   <v>       0.83557582       0.67419784       0.45622586 </v>
   <v>       0.83257663       0.91660244       0.45170763 </v>
   <v>       0.16257267       0.09321259       0.55291458 </v>
   <v>       0.16040718       0.32669054       0.54604102 </v>
   <v>       0.16990561       0.58101723       0.54815885 </v>
   <v>       0.15941699       0.83353237       0.54695242 </v>
   <v>       0.40845657       0.07137209       0.54954106 </v>
   <v>       0.41800733       0.33486713       0.54843784 </v>
   <v>       0.41807851       0.58350036       0.54841772 </v>
   <v>       0.41794043       0.83942523       0.54713646 </v>
   <v>       0.67665488       0.09042880       0.54295515 </v>
   <v>       0.67247846       0.33183209       0.54153986 </v>
   <v>       0.67412052       0.58782528       0.54653718 </v>
   <v>       0.66302950       0.83905053       0.55349827 </v>
   <v>       0.91792982       0.08881117       0.54631136 </v>
   <v>       0.91388027       0.32758646       0.54244156 </v>
   <v>       0.89769571       0.57244935       0.54736059 </v>
   <v>       0.91598275       0.83876270       0.54810688 </v>
   <v>       0.07204383       0.17802012       0.59209930 </v>
   <v>       0.07830726       0.41357053       0.58764618 </v>
   <v>       0.09381589       0.65761035       0.58849200 </v>
   <v>       0.07871933       0.92929944       0.59878654 </v>
   <v>       0.33625496       0.17984354       0.59918323 </v>
   <v>       0.32794380       0.41638157       0.58448695 </v>
   <v>       0.35476297       0.67116259       0.59393130 </v>
   <v>       0.33966729       0.91930967       0.59383142 </v>
   <v>       0.58818142       0.16995579       0.58797547 </v>
   <v>       0.59454566       0.41188185       0.58710128 </v>
   <v>       0.58439396       0.67345387       0.59587124 </v>
   <v>       0.57453340       0.91671959       0.58857385 </v>
   <v>       0.82971567       0.15621748       0.59149267 </v>
   <v>       0.83332741       0.41245065       0.59009856 </v>
   <v>       0.84958910       0.67040783       0.59135244 </v>
   <v>       0.82989059       0.92867991       0.58809261 </v>
   <v>       0.16203863       0.06274661       0.40838796 </v>
   <v>       0.16330582       0.32284744       0.40989607 </v>
   <v>       0.18136807       0.59962179       0.40983972 </v>
   <v>       0.17650730       0.84615984       0.40506220 </v>
   <v>       0.40467408       0.07086698       0.40995514 </v>
   <v>       0.40568955       0.33849504       0.41367583 </v>
   <v>       0.42600115       0.58457500       0.40862864 </v>
   <v>       0.40944813       0.83118925       0.40754519 </v>
   <v>       0.64420753       0.07150937       0.40175565 </v>
   <v>       0.66613874       0.34331139       0.40963357 </v>
   <v>       0.66306104       0.57955620       0.41156351 </v>
   <v>       0.66307307       0.81980685       0.40911824 </v>
   <v>       0.90272598       0.07472752       0.40554142 </v>
   <v>       0.92607142       0.32712295       0.40714928 </v>
   <v>       0.94712123       0.59174829       0.39908299 </v>
   <v>       0.91497652       0.84064381       0.40916651 </v>
   <v>       0.00509406       0.00398490       0.50162730 </v>
   <v>       0.99211178       0.25587411       0.49601393 </v>
   <v>       0.98812427       0.49289225       0.49630538 </v>
   <v>       0.00440812       0.76206085       0.49969092 </v>
   <v>       0.24988581       0.00267622       0.50943400 </v>
   <v>       0.25100466       0.25074235       0.49581096 </v>
   <v>       0.24638934       0.49163709       0.50327759 </v>
   <v>       0.25752624       0.75296639       0.49969781 </v>
   <v>       0.50512172       0.00090839       0.50145687 </v>
   <v>       0.50157996       0.25266336       0.49540741 </v>
   <v>       0.50735332       0.50953296       0.50712308 </v>
   <v>       0.51005798       0.75534214       0.49727060 </v>
   <v>       0.75443932       0.00450040       0.49891006 </v>
   <v>       0.74712832       0.24241362       0.49279892 </v>
   <v>       0.75753610       0.50481117       0.49757038 </v>
   <v>       0.76361159       0.76243691       0.50257947 </v>
  </varray>
  <varray name="velocities" >
   <v>       0.00000000       0.00000000       0.00000000 </v>
   <v>       0.00000000       0.00000000       0.00000000 </v>
   <v>       0.00000000       0.00000000       0.00000000 </v>
   <v>       0.00000000       0.00000000       0.00000000 </v>
   <v>       0.00000000       0.00000000       0.00000000 </v>
   <v>       0.00000000       0.00000000       0.00000000 </v>
   <v>       0.00000000       0.00000000       0.00000000 </v>
   <v>       0.00000000       0.00000000       0.00000000 </v>
   <v>       0.00000000       0.00000000       0.00000000 </v>
   <v>       0.00000000       0.00000000       0.00000000 </v>
   <v>       0.00000000       0.00000000       0.00000000 </v>
   <v>       0.00000000       0.00000000       0.00000000 </v>
   <v>       0.00000000       0.00000000       0.00000000 </v>
   <v>       0.00000000       0.00000000       0.00000000 </v>
   <v>       0.00000000       0.00000000       0.00000000 </v>
   <v>       0.00000000       0.00000000       0.00000000 </v>
   <v>       0.00000000       0.00000000       0.00000000 </v>
   <v>       0.00000000       0.00000000       0.00000000 </v>
   <v>       0.00000000       0.00000000       0.00000000 </v>
   <v>       0.00000000       0.00000000       0.00000000 </v>
   <v>       0.00000000       0.00000000       0.00000000 </v>
   <v>       0.00000000       0.00000000       0.00000000 </v>
   <v>       0.00000000       0.00000000       0.00000000 </v>
   <v>       0.00000000       0.00000000       0.00000000 </v>
   <v>       0.00000000       0.00000000       0.00000000 </v>
   <v>       0.00000000       0.00000000       0.00000000 </v>
   <v>       0.00000000       0.00000000       0.00000000 </v>
   <v>       0.00000000       0.00000000       0.00000000 </v>
   <v>       0.00000000       0.00000000       0.00000000 </v>
   <v>       0.00000000       0.00000000       0.00000000 </v>
   <v>       0.00000000       0.00000000       0.00000000 </v>
   <v>       0.00000000       0.00000000       0.00000000 </v>
   <v>       0.00000000       0.00000000       0.00000000 </v>
   <v>       0.00000000       0.00000000       0.00000000 </v>
   <v>       0.00000000       0.00000000       0.00000000 </v>
   <v>       0.00000000       0.00000000       0.00000000 </v>
   <v>       0.00000000       0.00000000       0.00000000 </v>
   <v>       0.00000000       0.00000000       0.00000000 </v>
   <v>       0.00000000       0.00000000       0.00000000 </v>
   <v>       0.00000000       0.00000000       0.00000000 </v>
   <v>       0.00000000       0.00000000       0.00000000 </v>
   <v>       0.00000000       0.00000000       0.00000000 </v>
   <v>       0.00000000       0.00000000       0.00000000 </v>
   <v>       0.00000000       0.00000000       0.00000000 </v>
   <v>       0.00000000       0.00000000       0.00000000 </v>
   <v>       0.00000000       0.00000000       0.00000000 </v>
   <v>       0.00000000       0.00000000       0.00000000 </v>
   <v>       0.00000000       0.00000000       0.00000000 </v>
   <v>       0.00000000       0.00000000       0.00000000 </v>
   <v>       0.00000000       0.00000000       0.00000000 </v>
   <v>       0.00000000       0.00000000       0.00000000 </v>
   <v>       0.00000000       0.00000000       0.00000000 </v>
   <v>       0.00000000       0.00000000       0.00000000 </v>
   <v>       0.00000000       0.00000000       0.00000000 </v>
   <v>       0.00000000       0.00000000       0.00000000 </v>
   <v>       0.00000000       0.00000000       0.00000000 </v>
   <v>       0.00000000       0.00000000       0.00000000 </v>
   <v>       0.00000000       0.00000000       0.00000000 </v>
   <v>       0.00000000       0.00000000       0.00000000 </v>
   <v>       0.00000000       0.00000000       0.00000000 </v>
   <v>       0.00000000       0.00000000       0.00000000 </v>
   <v>       0.00000000       0.00000000       0.00000000 </v>
   <v>       0.00000000       0.00000000       0.00000000 </v>
   <v>       0.00000000       0.00000000       0.00000000 </v>
   <v>       0.00000000       0.00000000       0.00000000 </v>
   <v>       0.00000000       0.00000000       0.00000000 </v>
   <v>       0.00000000       0.00000000       0.00000000 </v>
   <v>       0.00000000       0.00000000       0.00000000 </v>
   <v>       0.00000000       0.00000000       0.00000000 </v>
   <v>       0.00000000       0.00000000       0.00000000 </v>
   <v>       0.00000000       0.00000000       0.00000000 </v>
   <v>       0.00000000       0.00000000       0.00000000 </v>
   <v>       0.00000000       0.00000000       0.00000000 </v>
   <v>       0.00000000       0.00000000       0.00000000 </v>
   <v>       0.00000000       0.00000000       0.00000000 </v>
   <v>       0.00000000       0.00000000       0.00000000 </v>
   <v>       0.00000000       0.00000000       0.00000000 </v>
   <v>       0.00000000       0.00000000       0.00000000 </v>
   <v>       0.00000000       0.00000000       0.00000000 </v>
   <v>       0.00000000       0.00000000       0.00000000 </v>
  </varray>
 </structure>
</modeling>
