<?xml version="1.0" encoding="ISO-8859-1"?>
<modeling>
 <generator>
  <i name="program" type="string">vasp </i>
  <i name="version" type="string">5.4.4.18Apr17-6-g9f103f2a35  </i>
  <i name="subversion" type="string">(build Oct 31 2019 15:01:46) complex            parallel </i>
  <i name="platform" type="string">LinuxIFC </i>
  <i name="date" type="string">2024 04 29 </i>
  <i name="time" type="string">11:46:30 </i>
 </generator>
 <incar>
  <i type="int" name="ISTART">     0</i>
  <i type="string" name="PREC">a</i>
  <i type="logical" name="ADDGRID"> T  </i>
  <i type="int" name="IBRION">    -1</i>
  <i name="EDIFF">      0.00000100</i>
  <i name="EDIFFG">     -0.01000000</i>
  <i type="int" name="NSW">     1</i>
  <i type="int" name="ISIF">     2</i>
  <i type="int" name="ISYM">     0</i>
  <i name="ENCUT">    600.00000000</i>
  <i name="POTIM">      1.00000000</i>
  <i type="string" name="LREAL">  Auto</i>
  <i type="int" name="ISMEAR">     0</i>
  <i name="SIGMA">      0.05000000</i>
  <i name="KSPACING">      0.30000000</i>
  <i type="logical" name="KGAMMA"> T  </i>
  <i type="logical" name="LWAVE"> F  </i>
  <i type="logical" name="LCHARG"> F  </i>
  <i type="logical" name="LSCALAPACK"> F  </i>
  <v type="int" name="KPOINT_BSE">    -1     0     0     0</v>
 </incar>
 <structure name="primitive_cell" >
  <crystal>
   <varray name="basis" >
    <v>      13.31093562       0.00000000       0.00000000 </v>
    <v>       0.00000000      13.31093562       0.00000000 </v>
    <v>       0.00000000       0.00000000      13.31093562 </v>
   </varray>
   <i name="volume">   2358.44497833 </i>
   <varray name="rec_basis" >
    <v>       0.07512620       0.00000000       0.00000000 </v>
    <v>       0.00000000       0.07512620       0.00000000 </v>
    <v>       0.00000000       0.00000000       0.07512620 </v>
   </varray>
  </crystal>
  <varray name="positions" >
   <v>       0.13732984      -0.15307701      -0.19916610 </v>
   <v>       0.22064171      -0.14837329      -0.34814672 </v>
   <v>       0.07180147      -0.28253386      -0.29043099 </v>
   <v>       0.24643896      -0.07386604      -0.08236025 </v>
   <v>      -0.00062089      -0.03567149      -0.16238839 </v>
   <v>       0.02785078      -0.11504900       0.00965425 </v>
   <v>       0.28491881      -0.18275533      -0.00364186 </v>
   <v>       0.06073215       0.01848282      -0.36024329 </v>
   <v>      -0.06735603      -0.09648418      -0.06876560 </v>
   <v>       0.26009985       0.02303180      -0.33454501 </v>
   <v>      -0.07852722      -0.26494220      -0.27509337 </v>
   <v>       0.28382457      -0.29876310      -0.04586857 </v>
   <v>       0.10719852      -0.35901183      -0.03711909 </v>
   <v>      -0.10994411      -0.20288381      -0.11992653 </v>
   <v>       0.09765294      -0.38479990      -0.32716989 </v>
   <v>       0.22577832      -0.41579792      -0.17093748 </v>
   <v>       0.19326873      -0.14828131       0.07854331 </v>
   <v>      -0.03924974      -0.40142181      -0.13524285 </v>
   <v>       0.43352705      -0.16644181      -0.30293986 </v>
   <v>       0.25169358      -0.10396712      -0.49236979 </v>
   <v>       0.37974768      -0.10231622       0.01421472 </v>
   <v>      -0.05493794      -0.31295983       0.01501638 </v>
   <v>       0.06717955      -0.11711383       0.12139139 </v>
   <v>       0.30292867      -0.41779765      -0.08158145 </v>
   <v>       0.46566229      -0.21521962      -0.15550455 </v>
   <v>      -0.02473790      -0.33690854      -0.43149718 </v>
   <v>      -0.08316315      -0.10873236      -0.45139635 </v>
   <v>       0.15928426      -0.40327100      -0.43269613 </v>
   <v>      -0.13019345      -0.34905039      -0.08672748 </v>
   <v>       0.40696896      -0.02080013      -0.38886867 </v>
   <v>       0.00441469       0.07768043      -0.44116945 </v>
   <v>       0.00758865      -0.47425987      -0.30976463 </v>
   <v>      -0.13421029      -0.03409436       0.01935109 </v>
   <v>       0.48406769      -0.02271381      -0.16582336 </v>
   <v>       0.38155888      -0.31685835      -0.44587426 </v>
   <v>      -0.19533433      -0.26490029      -0.35704323 </v>
   <v>       0.22876522       0.08634877      -0.48735685 </v>
   <v>      -0.00552154      -0.01004218       0.45847265 </v>
   <v>       0.10853033       0.01503785       0.16131042 </v>
   <v>       0.37210286       0.17237437      -0.21778951 </v>
   <v>       0.21254034      -0.30807120       0.43743767 </v>
   <v>       0.26342789       0.09546829       0.09710709 </v>
   <v>       0.22991572      -0.46507491       0.04565878 </v>
   <v>       0.26672723      -0.38875616       0.49422965 </v>
   <v>      -0.14371489      -0.29636425      -0.45943559 </v>
   <v>      -0.47005368      -0.11865694      -0.08127481 </v>
   <v>      -0.10809166       0.05095053      -0.46120267 </v>
   <v>       0.23553540       0.23660453      -0.33007507 </v>
   <v>       0.41768340      -0.45303934      -0.08092277 </v>
   <v>       0.21456291       0.26176220      -0.11771465 </v>
   <v>       0.32211683      -0.05893311       0.18750324 </v>
   <v>       0.35224828      -0.20002821       0.42002796 </v>
   <v>       0.47955783       0.12546241      -0.16547475 </v>
   <v>       0.14400286       0.41079347      -0.27728851 </v>
   <v>       0.28332856       0.26984268      -0.22463103 </v>
   <v>      -0.11885486      -0.36957709       0.10144006 </v>
   <v>       0.36761899       0.16216622       0.03331758 </v>
   <v>      -0.23735078      -0.39156720      -0.09961485 </v>
   <v>      -0.04436164      -0.09638346       0.21439934 </v>
   <v>       0.03306763       0.19973160      -0.47390253 </v>
   <v>      -0.17925656      -0.04057495       0.12369874 </v>
   <v>       0.16886272       0.12792197       0.17196396 </v>
   <v>       0.30317654      -0.05617152       0.37243779 </v>
   <v>      -0.00802238      -0.15748658       0.34896969 </v>
   <v>       0.32580952      -0.25532465       0.22806055 </v>
   <v>      -0.16467333      -0.23905965       0.42854907 </v>
   <v>       0.11444201       0.09001480       0.37843328 </v>
   <v>      -0.23190774       0.09101394      -0.40669357 </v>
   <v>      -0.10787344       0.27582339      -0.18933445 </v>
   <v>       0.13634746      -0.22777257       0.28991792 </v>
   <v>       0.30864397       0.38259583      -0.17818298 </v>
   <v>       0.31319584       0.06441942       0.39000966 </v>
   <v>       0.24092879      -0.24858623       0.32187796 </v>
   <v>       0.25539131      -0.47437737       0.16800783 </v>
   <v>      -0.23024628      -0.39907101      -0.44089224 </v>
   <v>      -0.31162062       0.01370914      -0.36345006 </v>
   <v>      -0.21802625       0.18701639      -0.33055644 </v>
   <v>       0.49730232      -0.38810376      -0.47477075 </v>
   <v>       0.15344620      -0.44026042       0.22521844 </v>
   <v>      -0.41675308       0.10234081      -0.20659899 </v>
   <v>       0.42597086       0.11552740       0.13085161 </v>
   <v>      -0.00842033       0.38850284      -0.01715574 </v>
   <v>      -0.38005976      -0.08335745      -0.03552644 </v>
   <v>       0.49264844      -0.10993769       0.43032521 </v>
   <v>      -0.48507409       0.09396655      -0.44844768 </v>
   <v>      -0.23495634      -0.14300680       0.15879773 </v>
   <v>       0.21802184       0.36822097      -0.01546210 </v>
   <v>      -0.37400815      -0.34342393      -0.21366561 </v>
   <v>       0.34048499      -0.46017123       0.42316155 </v>
   <v>      -0.14920440      -0.33738286       0.20405376 </v>
   <v>      -0.17189838      -0.48670612       0.07955029 </v>
   <v>       0.09785435      -0.48200428       0.37849165 </v>
   <v>       0.12409935       0.24365824       0.16534887 </v>
   <v>       0.48680098       0.24953499      -0.09592128 </v>
   <v>      -0.11722591       0.42189747      -0.42964843 </v>
   <v>      -0.41361707      -0.42302223      -0.36618095 </v>
   <v>       0.24652485       0.08947402       0.28795942 </v>
   <v>      -0.19146915       0.05279980       0.19978981 </v>
   <v>       0.39191220       0.26899852       0.07380511 </v>
   <v>       0.44930572       0.40299997      -0.04457978 </v>
   <v>      -0.19048791       0.38682350      -0.26707833 </v>
   <v>      -0.33675362      -0.08713791       0.48754830 </v>
   <v>      -0.42843794      -0.24995113       0.16645727 </v>
   <v>       0.42171103       0.15384186       0.39843969 </v>
   <v>      -0.24073683      -0.08895454       0.36130218 </v>
   <v>       0.00162274       0.40849490       0.43824415 </v>
   <v>      -0.48460914       0.40319828      -0.26644869 </v>
   <v>       0.31697065       0.43665481       0.18126060 </v>
   <v>      -0.00570477       0.20113569       0.35404197 </v>
   <v>      -0.43808521      -0.32374783       0.43038159 </v>
   <v>      -0.28604916       0.22552790      -0.03544091 </v>
   <v>      -0.03254211       0.28008549       0.43604840 </v>
   <v>      -0.14256867       0.28246673       0.09360013 </v>
   <v>       0.44591216      -0.38202463       0.25740912 </v>
   <v>      -0.34598426      -0.35245076       0.09270207 </v>
   <v>      -0.29149564       0.27037153      -0.17828619 </v>
   <v>      -0.43290204       0.45502464      -0.35891764 </v>
   <v>      -0.47802552       0.46512478      -0.47649628 </v>
   <v>      -0.26905100       0.29868922      -0.29396224 </v>
   <v>      -0.05359874       0.35764963       0.12949828 </v>
   <v>      -0.15545915       0.27750235       0.44592046 </v>
   <v>      -0.34783448       0.02843703       0.43824497 </v>
   <v>      -0.35932928      -0.14300740       0.20675247 </v>
   <v>      -0.29370662      -0.45671284       0.41895905 </v>
   <v>       0.40434622       0.39631940       0.41354133 </v>
   <v>      -0.05487485       0.38643203       0.23793404 </v>
   <v>      -0.42070889      -0.07716065       0.29014463 </v>
   <v>      -0.32455868       0.38337704      -0.38474316 </v>
   <v>      -0.48041206       0.22276218       0.22226522 </v>
   <v>      -0.20432403       0.25323607       0.27415614 </v>
   <v>      -0.37387308      -0.46619911       0.21581689 </v>
   <v>      -0.35034533       0.32346372       0.14504850 </v>
   <v>      -0.29000879       0.40969190       0.32427044 </v>
   <v>      -0.38473438       0.41436187       0.23864116 </v>
   <v>       0.49872823       0.35128793       0.30195266 </v>
  </varray>
 </structure>
 <varray name="primitive_index" >
  <v type="int" >        1 </v>
  <v type="int" >       96 </v>
  <v type="int" >      116 </v>
  <v type="int" >       87 </v>
  <v type="int" >       72 </v>
  <v type="int" >      128 </v>
  <v type="int" >       48 </v>
  <v type="int" >       73 </v>
  <v type="int" >       29 </v>
  <v type="int" >       26 </v>
  <v type="int" >        7 </v>
  <v type="int" >      107 </v>
  <v type="int" >       17 </v>
  <v type="int" >       63 </v>
  <v type="int" >       50 </v>
  <v type="int" >      126 </v>
  <v type="int" >      105 </v>
  <v type="int" >       67 </v>
  <v type="int" >        9 </v>
  <v type="int" >       16 </v>
  <v type="int" >      103 </v>
  <v type="int" >      134 </v>
  <v type="int" >       43 </v>
  <v type="int" >       42 </v>
  <v type="int" >      111 </v>
  <v type="int" >      101 </v>
  <v type="int" >       13 </v>
  <v type="int" >       94 </v>
  <v type="int" >       51 </v>
  <v type="int" >       95 </v>
  <v type="int" >       36 </v>
  <v type="int" >      120 </v>
  <v type="int" >      133 </v>
  <v type="int" >      108 </v>
  <v type="int" >      123 </v>
  <v type="int" >       99 </v>
  <v type="int" >       69 </v>
  <v type="int" >      131 </v>
  <v type="int" >       62 </v>
  <v type="int" >      109 </v>
  <v type="int" >       55 </v>
  <v type="int" >       86 </v>
  <v type="int" >       90 </v>
  <v type="int" >       44 </v>
  <v type="int" >       38 </v>
  <v type="int" >       33 </v>
  <v type="int" >       61 </v>
  <v type="int" >      114 </v>
  <v type="int" >       76 </v>
  <v type="int" >       74 </v>
  <v type="int" >       22 </v>
  <v type="int" >       80 </v>
  <v type="int" >       30 </v>
  <v type="int" >        3 </v>
  <v type="int" >       46 </v>
  <v type="int" >       49 </v>
  <v type="int" >       35 </v>
  <v type="int" >      102 </v>
  <v type="int" >      135 </v>
  <v type="int" >       70 </v>
  <v type="int" >       37 </v>
  <v type="int" >       54 </v>
  <v type="int" >      113 </v>
  <v type="int" >       20 </v>
  <v type="int" >       85 </v>
  <v type="int" >      117 </v>
  <v type="int" >        5 </v>
  <v type="int" >       53 </v>
  <v type="int" >        2 </v>
  <v type="int" >      127 </v>
  <v type="int" >       75 </v>
  <v type="int" >       28 </v>
  <v type="int" >       39 </v>
  <v type="int" >       52 </v>
  <v type="int" >      119 </v>
  <v type="int" >       83 </v>
  <v type="int" >      118 </v>
  <v type="int" >       34 </v>
  <v type="int" >       97 </v>
  <v type="int" >       78 </v>
  <v type="int" >       59 </v>
  <v type="int" >      129 </v>
  <v type="int" >       68 </v>
  <v type="int" >       11 </v>
  <v type="int" >       27 </v>
  <v type="int" >       66 </v>
  <v type="int" >        8 </v>
  <v type="int" >        4 </v>
  <v type="int" >       93 </v>
  <v type="int" >       98 </v>
  <v type="int" >       91 </v>
  <v type="int" >        6 </v>
  <v type="int" >      121 </v>
  <v type="int" >       71 </v>
  <v type="int" >       10 </v>
  <v type="int" >      130 </v>
  <v type="int" >      132 </v>
  <v type="int" >      104 </v>
  <v type="int" >       56 </v>
  <v type="int" >       12 </v>
  <v type="int" >       84 </v>
  <v type="int" >       82 </v>
  <v type="int" >      124 </v>
  <v type="int" >       64 </v>
  <v type="int" >       21 </v>
  <v type="int" >      115 </v>
  <v type="int" >      106 </v>
  <v type="int" >       60 </v>
  <v type="int" >       79 </v>
  <v type="int" >       89 </v>
  <v type="int" >       18 </v>
  <v type="int" >       45 </v>
  <v type="int" >       81 </v>
  <v type="int" >       25 </v>
  <v type="int" >       24 </v>
  <v type="int" >      125 </v>
  <v type="int" >       40 </v>
  <v type="int" >       77 </v>
  <v type="int" >       32 </v>
  <v type="int" >       41 </v>
  <v type="int" >       92 </v>
  <v type="int" >      112 </v>
  <v type="int" >       47 </v>
  <v type="int" >       15 </v>
  <v type="int" >       14 </v>
  <v type="int" >       57 </v>
  <v type="int" >      100 </v>
  <v type="int" >      110 </v>
  <v type="int" >       23 </v>
  <v type="int" >       19 </v>
  <v type="int" >       58 </v>
  <v type="int" >      122 </v>
  <v type="int" >       65 </v>
  <v type="int" >       31 </v>
  <v type="int" >       88 </v>
 </varray>
 <kpoints>
  <generation param="Gamma">
   <v type="int" name="divisions">       2        2        2 </v>
   <v name="usershift">      0.00000000       0.00000000       0.00000000 </v>
   <v name="genvec1">      0.50000000       0.00000000       0.00000000 </v>
   <v name="genvec2">      0.00000000       0.50000000       0.00000000 </v>
   <v name="genvec3">      0.00000000       0.00000000       0.50000000 </v>
   <v name="shift">      0.00000000       0.00000000       0.00000000 </v>
  </generation>
  <varray name="kpointlist" >
   <v>       0.00000000       0.00000000       0.00000000 </v>
   <v>       0.50000000       0.00000000       0.00000000 </v>
   <v>       0.00000000       0.50000000       0.00000000 </v>
   <v>       0.50000000       0.50000000       0.00000000 </v>
   <v>       0.00000000       0.00000000       0.50000000 </v>
   <v>       0.50000000       0.00000000       0.50000000 </v>
   <v>       0.00000000       0.50000000       0.50000000 </v>
   <v>       0.50000000       0.50000000       0.50000000 </v>
  </varray>
  <varray name="weights" >
   <v>       0.12500000 </v>
   <v>       0.12500000 </v>
   <v>       0.12500000 </v>
   <v>       0.12500000 </v>
   <v>       0.12500000 </v>
   <v>       0.12500000 </v>
   <v>       0.12500000 </v>
   <v>       0.12500000 </v>
  </varray>
 </kpoints>
 <parameters>
  <separator name="general" >
   <i type="string" name="SYSTEM">unknown system</i>
   <i type="logical" name="LCOMPAT"> F  </i>
  </separator>
  <separator name="electronic" >
   <i type="string" name="PREC">a</i>
   <i name="ENMAX">    600.00000000</i>
   <i name="ENAUG">    605.39200000</i>
   <i name="EDIFF">      0.00000100</i>
   <i type="int" name="IALGO">    38</i>
   <i type="int" name="IWAVPR">    10</i>
   <i type="int" name="NBANDS">   520</i>
   <i name="NELECT">    864.00000000</i>
   <i type="int" name="TURBO">     0</i>
   <i type="int" name="IRESTART">     0</i>
   <i type="int" name="NREBOOT">     0</i>
   <i type="int" name="NMIN">     0</i>
   <i name="EREF">      0.00000000</i>
   <separator name="electronic smearing" >
    <i type="int" name="ISMEAR">     0</i>
    <i name="SIGMA">      0.05000000</i>
    <i name="KSPACING">      0.30000000</i>
    <i type="logical" name="KGAMMA"> T  </i>
   </separator>
   <separator name="electronic projectors" >
    <i type="logical" name="LREAL"> T  </i>
    <v name="ROPT">     -0.00025000     -0.00025000     -0.00025000</v>
    <i type="int" name="LMAXPAW">  -100</i>
    <i type="int" name="LMAXMIX">     2</i>
    <i type="logical" name="NLSPLINE"> F  </i>
   </separator>
   <separator name="electronic startup" >
    <i type="int" name="ISTART">     0</i>
    <i type="int" name="ICHARG">     2</i>
    <i type="int" name="INIWAV">     1</i>
   </separator>
   <separator name="electronic spin" >
    <i type="int" name="ISPIN">     1</i>
    <i type="logical" name="LNONCOLLINEAR"> F  </i>
    <v name="MAGMOM">      1.00000000      1.00000000      1.00000000      1.00000000      1.00000000      1.00000000      1.00000000      1.00000000      1.00000000      1.00000000      1.00000000      1.00000000      1.00000000      1.00000000      1.00000000      1.00000000      1.00000000      1.00000000      1.00000000      1.00000000
      1.00000000      1.00000000      1.00000000      1.00000000      1.00000000      1.00000000      1.00000000      1.00000000      1.00000000      1.00000000      1.00000000      1.00000000      1.00000000      1.00000000      1.00000000      1.00000000      1.00000000      1.00000000      1.00000000      1.00000000
      1.00000000      1.00000000      1.00000000      1.00000000      1.00000000      1.00000000      1.00000000      1.00000000      1.00000000      1.00000000      1.00000000      1.00000000      1.00000000      1.00000000      1.00000000      1.00000000      1.00000000      1.00000000      1.00000000      1.00000000
      1.00000000      1.00000000      1.00000000      1.00000000      1.00000000      1.00000000      1.00000000      1.00000000      1.00000000      1.00000000      1.00000000      1.00000000      1.00000000      1.00000000      1.00000000      1.00000000      1.00000000      1.00000000      1.00000000      1.00000000
      1.00000000      1.00000000      1.00000000      1.00000000      1.00000000      1.00000000      1.00000000      1.00000000      1.00000000      1.00000000      1.00000000      1.00000000      1.00000000      1.00000000      1.00000000      1.00000000      1.00000000      1.00000000      1.00000000      1.00000000
      1.00000000      1.00000000      1.00000000      1.00000000      1.00000000      1.00000000      1.00000000      1.00000000      1.00000000      1.00000000      1.00000000      1.00000000      1.00000000      1.00000000      1.00000000      1.00000000      1.00000000      1.00000000      1.00000000      1.00000000
      1.00000000      1.00000000      1.00000000      1.00000000      1.00000000      1.00000000      1.00000000      1.00000000      1.00000000      1.00000000      1.00000000      1.00000000      1.00000000      1.00000000      1.00000000</v>
    <i name="NUPDOWN">     -1.00000000</i>
    <i type="logical" name="LSORBIT"> F  </i>
    <v name="SAXIS">      0.00000000      0.00000000      1.00000000</v>
    <i type="logical" name="LSPIRAL"> F  </i>
    <v name="QSPIRAL">      0.00000000      0.00000000      0.00000000</v>
    <i type="logical" name="LZEROZ"> F  </i>
   </separator>
   <separator name="electronic exchange-correlation" >
    <i type="logical" name="LASPH"> F  </i>
    <i type="logical" name="LMETAGGA"> F  </i>
   </separator>
   <separator name="electronic convergence" >
    <i type="int" name="NELM">    60</i>
    <i type="int" name="NELMDL">    -5</i>
    <i type="int" name="NELMIN">     2</i>
    <i name="ENINI">    600.00000000</i>
    <separator name="electronic convergence detail" >
     <i type="logical" name="LDIAG"> T  </i>
     <i type="logical" name="LSUBROT"> F  </i>
     <i name="WEIMIN">      0.00000000</i>
     <i name="EBREAK">      0.00000000</i>
     <i name="DEPER">      0.30000000</i>
     <i type="int" name="NRMM">     4</i>
     <i name="TIME">      0.40000000</i>
    </separator>
   </separator>
   <separator name="electronic mixer" >
    <i name="AMIX">      0.40000000</i>
    <i name="BMIX">      1.00000000</i>
    <i name="AMIN">      0.10000000</i>
    <i name="AMIX_MAG">      1.60000000</i>
    <i name="BMIX_MAG">      1.00000000</i>
    <separator name="electronic mixer details" >
     <i type="int" name="IMIX">     4</i>
     <i type="logical" name="MIXFIRST"> F  </i>
     <i type="int" name="MAXMIX">   -45</i>
     <i name="WC">    100.00000000</i>
     <i type="int" name="INIMIX">     1</i>
     <i type="int" name="MIXPRE">     1</i>
     <i type="int" name="MREMOVE">     5</i>
    </separator>
   </separator>
   <separator name="electronic dipolcorrection" >
    <i type="logical" name="LDIPOL"> F  </i>
    <i type="logical" name="LMONO"> F  </i>
    <i type="int" name="IDIPOL">     0</i>
    <i name="EPSILON">      1.00000000</i>
    <v name="DIPOL">   -100.00000000   -100.00000000   -100.00000000</v>
    <i name="EFIELD">      0.00000000</i>
   </separator>
  </separator>
  <separator name="grids" >
   <i type="int" name="NGX">   108</i>
   <i type="int" name="NGY">   108</i>
   <i type="int" name="NGZ">   108</i>
   <i type="int" name="NGXF">   216</i>
   <i type="int" name="NGYF">   216</i>
   <i type="int" name="NGZF">   216</i>
   <i type="logical" name="ADDGRID"> T  </i>
  </separator>
  <separator name="ionic" >
   <i type="int" name="NSW">     1</i>
   <i type="int" name="IBRION">    -1</i>
   <i type="int" name="MDALGO">     0</i>
   <i type="int" name="ISIF">     2</i>
   <i name="PSTRESS">      0.00000000</i>
   <i name="EDIFFG">     -0.01000000</i>
   <i type="int" name="NFREE">     0</i>
   <i name="POTIM">      1.00000000</i>
   <i name="SMASS">     -3.00000000</i>
   <i name="SCALEE">      1.00000000</i>
  </separator>
  <separator name="ionic md" >
   <i name="TEBEG">      0.00010000</i>
   <i name="TEEND">      0.00010000</i>
   <i type="int" name="NBLOCK">     1</i>
   <i type="int" name="KBLOCK">     1</i>
   <i type="int" name="NPACO">   256</i>
   <i name="APACO">     16.00000000</i>
  </separator>
  <separator name="symmetry" >
   <i type="int" name="ISYM">     0</i>
   <i name="SYMPREC">      0.00001000</i>
  </separator>
  <separator name="dos" >
   <i type="int" name="LORBIT">     0</i>
   <v name="RWIGS">     -1.00000000     -1.00000000     -1.00000000</v>
   <i type="int" name="NEDOS">   301</i>
   <i name="EMIN">     10.00000000</i>
   <i name="EMAX">    -10.00000000</i>
   <i name="EFERMI">      0.00000000</i>
  </separator>
  <separator name="writing" >
   <i type="int" name="NWRITE">     2</i>
   <i type="logical" name="LWAVE"> F  </i>
   <i type="logical" name="LDOWNSAMPLE"> F  </i>
   <i type="logical" name="LCHARG"> F  </i>
   <i type="logical" name="LPARD"> F  </i>
   <i type="logical" name="LVTOT"> F  </i>
   <i type="logical" name="LVHAR"> F  </i>
   <i type="logical" name="LELF"> F  </i>
   <i type="logical" name="LOPTICS"> F  </i>
   <v name="STM">      0.00000000      0.00000000      0.00000000      0.00000000      0.00000000      0.00000000      0.00000000</v>
  </separator>
  <separator name="performance" >
   <i type="int" name="NPAR">     4</i>
   <i type="int" name="NSIM">     4</i>
   <i type="int" name="NBLK">    -1</i>
   <i type="logical" name="LPLANE"> T  </i>
   <i type="logical" name="LSCALAPACK"> F  </i>
   <i type="logical" name="LSCAAWARE"> F  </i>
   <i type="logical" name="LSCALU"> F  </i>
   <i type="logical" name="LASYNC"> F  </i>
   <i type="logical" name="LORBITALREAL"> F  </i>
  </separator>
  <separator name="miscellaneous" >
   <i type="int" name="IDIOT">     3</i>
   <i type="int" name="ISPECIAL">     0</i>
   <i type="logical" name="LMUSIC"> F  </i>
   <v name="POMASS">     40.07800000     28.08500000     16.00000000</v>
   <v name="DARWINR">      0.00000000      0.00000000      0.00000000</v>
   <v name="DARWINV">      1.00000000      1.00000000      1.00000000</v>
   <i type="logical" name="LCORR"> T  </i>
  </separator>
  <i type="logical" name="GGA_COMPAT"> T  </i>
  <i type="logical" name="LBERRY"> F  </i>
  <i type="int" name="ICORELEVEL">     0</i>
  <i type="logical" name="LDAU"> F  </i>
  <i type="int" name="I_CONSTRAINED_M">     0</i>
  <separator name="electronic exchange-correlation" >
   <i type="string" name="GGA">--</i>
   <i type="int" name="VOSKOWN">     0</i>
   <i type="logical" name="LHFCALC"> F  </i>
   <i type="string" name="PRECFOCK"></i>
   <i type="logical" name="LSYMGRAD"> F  </i>
   <i type="logical" name="LHFONE"> F  </i>
   <i type="logical" name="LRHFCALC"> F  </i>
   <i type="logical" name="LTHOMAS"> F  </i>
   <i type="logical" name="LMODELHF"> F  </i>
   <i name="ENCUT4O">     -1.00000000</i>
   <i type="int" name="EXXOEP">     0</i>
   <i type="int" name="FOURORBIT">     0</i>
   <i name="AEXX">      0.00000000</i>
   <i name="HFALPHA">      0.00000000</i>
   <i name="MCALPHA">      0.00000000</i>
   <i name="ALDAX">      1.00000000</i>
   <i name="AGGAX">      1.00000000</i>
   <i name="ALDAC">      1.00000000</i>
   <i name="AGGAC">      1.00000000</i>
   <i type="int" name="NKREDX">     1</i>
   <i type="int" name="NKREDY">     1</i>
   <i type="int" name="NKREDZ">     1</i>
   <i type="logical" name="SHIFTRED"> F  </i>
   <i type="logical" name="ODDONLY"> F  </i>
   <i type="logical" name="EVENONLY"> F  </i>
   <i type="int" name="LMAXFOCK">     0</i>
   <i type="int" name="NMAXFOCKAE">     0</i>
   <i type="logical" name="LFOCKAEDFT"> F  </i>
   <i name="HFSCREEN">      0.00000000</i>
   <i name="HFSCREENC">      0.00000000</i>
   <i type="int" name="NBANDSGWLOW">     0</i>
  </separator>
  <separator name="vdW DFT" >
   <i type="logical" name="LUSE_VDW"> F  </i>
   <i name="Zab_VDW">     -0.84910000</i>
   <i name="PARAM1">      0.12340000</i>
   <i name="PARAM2">      1.00000000</i>
   <i name="PARAM3">      0.00000000</i>
  </separator>
  <separator name="model GW" >
   <i type="int" name="MODEL_GW">     0</i>
   <i name="MODEL_EPS0">     10.48197768</i>
   <i name="MODEL_ALPHA">      1.00000000</i>
  </separator>
  <separator name="linear response parameters" >
   <i type="logical" name="LEPSILON"> F  </i>
   <i type="logical" name="LRPA"> F  </i>
   <i type="logical" name="LNABLA"> F  </i>
   <i type="logical" name="LVEL"> F  </i>
   <i type="int" name="KINTER">     0</i>
   <i name="CSHIFT">      0.10000000</i>
   <i name="OMEGAMAX">     -1.00000000</i>
   <i name="DEG_THRESHOLD">      0.00200000</i>
   <i name="RTIME">     -0.10000000</i>
   <i name="WPLASMAI">      0.00000000</i>
   <v name="DFIELD">      0.00000000      0.00000000      0.00000000</v>
   <v name="WPLASMA">      0.00000000      0.00000000      0.00000000      0.00000000      0.00000000      0.00000000      0.00000000      0.00000000      0.00000000</v>
  </separator>
  <separator name="orbital magnetization" >
   <i type="logical" name="NUCIND"> F  </i>
   <v name="MAGPOS">      0.00000000      0.00000000      0.00000000</v>
   <i type="logical" name="LNICSALL"> T  </i>
   <i type="logical" name="ORBITALMAG"> F  </i>
   <i type="logical" name="LMAGBLOCH"> F  </i>
   <i type="logical" name="LCHIMAG"> F  </i>
   <i type="logical" name="LGAUGE"> T  </i>
   <i type="int" name="MAGATOM">     0</i>
   <v name="MAGDIPOL">      0.00000000      0.00000000      0.00000000</v>
   <v name="AVECCONST">      0.00000000      0.00000000      0.00000000</v>
  </separator>
  <separator name="response functions" >
   <i type="logical" name="LADDER"> F  </i>
   <i type="logical" name="LRPAFORCE"> F  </i>
   <i type="logical" name="LFXC"> F  </i>
   <i type="logical" name="LHARTREE"> T  </i>
   <i type="int" name="IBSE">     0</i>
   <v type="int" name="KPOINT">    -1     0     0     0</v>
   <i type="logical" name="LTCTE"> F  </i>
   <i type="logical" name="LTETE"> F  </i>
   <i type="logical" name="LTRIPLET"> F  </i>
   <i type="logical" name="LFXCEPS"> F  </i>
   <i type="logical" name="LFXHEG"> F  </i>
   <i type="int" name="NATURALO">     2</i>
   <i type="logical" name="L2ORDER"> F  </i>
   <i type="logical" name="LMP2LT"> F  </i>
   <i type="logical" name="LUSEW"> F  </i>
   <i name="ENCUTGW">     -2.00000000</i>
   <i name="ENCUTGWSOFT">     -2.00000000</i>
   <i name="ENCUTLF">     -1.00000000</i>
   <i type="int" name="LMAXMP2">    -1</i>
   <i name="SCISSOR">      0.00000000</i>
   <i type="int" name="NOMEGA">     0</i>
   <i type="int" name="NOMEGAR">     0</i>
   <i type="int" name="NBANDSGW">    -1</i>
   <i type="int" name="NBANDSO">    -1</i>
   <i type="int" name="NBANDSV">    -1</i>
   <i type="int" name="NELM">     1</i>
   <i type="int" name="NELMHF">     1</i>
   <i type="int" name="DIM">     3</i>
   <i type="int" name="ANTIRES">     0</i>
   <i name="OMEGAMAX">    -30.00000000</i>
   <i name="OMEGAMIN">    -30.00000000</i>
   <i name="OMEGATL">   -200.00000000</i>
   <i type="int" name="OMEGAGRID">   140</i>
   <i name="CSHIFT">     -0.10000000</i>
   <i type="logical" name="SELFENERGY"> F  </i>
   <i type="logical" name="LSPECTRAL"> F  </i>
   <i type="logical" name="LSPECTRALGW"> F  </i>
   <i type="logical" name="LSINGLES"> F  </i>
   <i type="logical" name="LFERMIGW"> F  </i>
   <i type="logical" name="ODDONLYGW"> F  </i>
   <i type="logical" name="EVENONLYGW"> F  </i>
   <i type="int" name="NKREDLFX">     1</i>
   <i type="int" name="NKREDLFY">     1</i>
   <i type="int" name="NKREDLFZ">     1</i>
   <i type="int" name="MAXMEM">  2800</i>
   <i type="int" name="TELESCOPE">     0</i>
   <i type="int" name="TAUPAR">     1</i>
   <i type="int" name="OMEGAPAR">    -1</i>
   <i name="LAMBDA">      1.00000000</i>
  </separator>
  <separator name="External order field" >
   <i name="OFIELD_KAPPA">      0.00000000</i>
   <v name="OFIELD_K">      0.00000000      0.00000000      0.00000000</v>
   <i name="OFIELD_Q6_NEAR">      0.00000000</i>
   <i name="OFIELD_Q6_FAR">      0.00000000</i>
   <i name="OFIELD_A">      0.00000000</i>
  </separator>
 </parameters>
 <atominfo>
  <atoms>     135 </atoms>
  <types>       3 </types>
  <array name="atoms" >
   <dimension dim="1">ion</dimension>
   <field type="string">element</field>
   <field type="int">atomtype</field>
   <set>
    <rc><c>Ca</c><c>   1</c></rc>
    <rc><c>Ca</c><c>   1</c></rc>
    <rc><c>Ca</c><c>   1</c></rc>
    <rc><c>Ca</c><c>   1</c></rc>
    <rc><c>Ca</c><c>   1</c></rc>
    <rc><c>Ca</c><c>   1</c></rc>
    <rc><c>Ca</c><c>   1</c></rc>
    <rc><c>Ca</c><c>   1</c></rc>
    <rc><c>Ca</c><c>   1</c></rc>
    <rc><c>Ca</c><c>   1</c></rc>
    <rc><c>Ca</c><c>   1</c></rc>
    <rc><c>Ca</c><c>   1</c></rc>
    <rc><c>Ca</c><c>   1</c></rc>
    <rc><c>Ca</c><c>   1</c></rc>
    <rc><c>Ca</c><c>   1</c></rc>
    <rc><c>Ca</c><c>   1</c></rc>
    <rc><c>Ca</c><c>   1</c></rc>
    <rc><c>Ca</c><c>   1</c></rc>
    <rc><c>Ca</c><c>   1</c></rc>
    <rc><c>Ca</c><c>   1</c></rc>
    <rc><c>Ca</c><c>   1</c></rc>
    <rc><c>Ca</c><c>   1</c></rc>
    <rc><c>Ca</c><c>   1</c></rc>
    <rc><c>Ca</c><c>   1</c></rc>
    <rc><c>Ca</c><c>   1</c></rc>
    <rc><c>Ca</c><c>   1</c></rc>
    <rc><c>Ca</c><c>   1</c></rc>
    <rc><c>Si</c><c>   2</c></rc>
    <rc><c>Si</c><c>   2</c></rc>
    <rc><c>Si</c><c>   2</c></rc>
    <rc><c>Si</c><c>   2</c></rc>
    <rc><c>Si</c><c>   2</c></rc>
    <rc><c>Si</c><c>   2</c></rc>
    <rc><c>Si</c><c>   2</c></rc>
    <rc><c>Si</c><c>   2</c></rc>
    <rc><c>Si</c><c>   2</c></rc>
    <rc><c>Si</c><c>   2</c></rc>
    <rc><c>Si</c><c>   2</c></rc>
    <rc><c>Si</c><c>   2</c></rc>
    <rc><c>Si</c><c>   2</c></rc>
    <rc><c>Si</c><c>   2</c></rc>
    <rc><c>Si</c><c>   2</c></rc>
    <rc><c>Si</c><c>   2</c></rc>
    <rc><c>Si</c><c>   2</c></rc>
    <rc><c>Si</c><c>   2</c></rc>
    <rc><c>Si</c><c>   2</c></rc>
    <rc><c>Si</c><c>   2</c></rc>
    <rc><c>Si</c><c>   2</c></rc>
    <rc><c>Si</c><c>   2</c></rc>
    <rc><c>Si</c><c>   2</c></rc>
    <rc><c>Si</c><c>   2</c></rc>
    <rc><c>Si</c><c>   2</c></rc>
    <rc><c>Si</c><c>   2</c></rc>
    <rc><c>Si</c><c>   2</c></rc>
    <rc><c>O </c><c>   3</c></rc>
    <rc><c>O </c><c>   3</c></rc>
    <rc><c>O </c><c>   3</c></rc>
    <rc><c>O </c><c>   3</c></rc>
    <rc><c>O </c><c>   3</c></rc>
    <rc><c>O </c><c>   3</c></rc>
    <rc><c>O </c><c>   3</c></rc>
    <rc><c>O </c><c>   3</c></rc>
    <rc><c>O </c><c>   3</c></rc>
    <rc><c>O </c><c>   3</c></rc>
    <rc><c>O </c><c>   3</c></rc>
    <rc><c>O </c><c>   3</c></rc>
    <rc><c>O </c><c>   3</c></rc>
    <rc><c>O </c><c>   3</c></rc>
    <rc><c>O </c><c>   3</c></rc>
    <rc><c>O </c><c>   3</c></rc>
    <rc><c>O </c><c>   3</c></rc>
    <rc><c>O </c><c>   3</c></rc>
    <rc><c>O </c><c>   3</c></rc>
    <rc><c>O </c><c>   3</c></rc>
    <rc><c>O </c><c>   3</c></rc>
    <rc><c>O </c><c>   3</c></rc>
    <rc><c>O </c><c>   3</c></rc>
    <rc><c>O </c><c>   3</c></rc>
    <rc><c>O </c><c>   3</c></rc>
    <rc><c>O </c><c>   3</c></rc>
    <rc><c>O </c><c>   3</c></rc>
    <rc><c>O </c><c>   3</c></rc>
    <rc><c>O </c><c>   3</c></rc>
    <rc><c>O </c><c>   3</c></rc>
    <rc><c>O </c><c>   3</c></rc>
    <rc><c>O </c><c>   3</c></rc>
    <rc><c>O </c><c>   3</c></rc>
    <rc><c>O </c><c>   3</c></rc>
    <rc><c>O </c><c>   3</c></rc>
    <rc><c>O </c><c>   3</c></rc>
    <rc><c>O </c><c>   3</c></rc>
    <rc><c>O </c><c>   3</c></rc>
    <rc><c>O </c><c>   3</c></rc>
    <rc><c>O </c><c>   3</c></rc>
    <rc><c>O </c><c>   3</c></rc>
    <rc><c>O </c><c>   3</c></rc>
    <rc><c>O </c><c>   3</c></rc>
    <rc><c>O </c><c>   3</c></rc>
    <rc><c>O </c><c>   3</c></rc>
    <rc><c>O </c><c>   3</c></rc>
    <rc><c>O </c><c>   3</c></rc>
    <rc><c>O </c><c>   3</c></rc>
    <rc><c>O </c><c>   3</c></rc>
    <rc><c>O </c><c>   3</c></rc>
    <rc><c>O </c><c>   3</c></rc>
    <rc><c>O </c><c>   3</c></rc>
    <rc><c>O </c><c>   3</c></rc>
    <rc><c>O </c><c>   3</c></rc>
    <rc><c>O </c><c>   3</c></rc>
    <rc><c>O </c><c>   3</c></rc>
    <rc><c>O </c><c>   3</c></rc>
    <rc><c>O </c><c>   3</c></rc>
    <rc><c>O </c><c>   3</c></rc>
    <rc><c>O </c><c>   3</c></rc>
    <rc><c>O </c><c>   3</c></rc>
    <rc><c>O </c><c>   3</c></rc>
    <rc><c>O </c><c>   3</c></rc>
    <rc><c>O </c><c>   3</c></rc>
    <rc><c>O </c><c>   3</c></rc>
    <rc><c>O </c><c>   3</c></rc>
    <rc><c>O </c><c>   3</c></rc>
    <rc><c>O </c><c>   3</c></rc>
    <rc><c>O </c><c>   3</c></rc>
    <rc><c>O </c><c>   3</c></rc>
    <rc><c>O </c><c>   3</c></rc>
    <rc><c>O </c><c>   3</c></rc>
    <rc><c>O </c><c>   3</c></rc>
    <rc><c>O </c><c>   3</c></rc>
    <rc><c>O </c><c>   3</c></rc>
    <rc><c>O </c><c>   3</c></rc>
    <rc><c>O </c><c>   3</c></rc>
    <rc><c>O </c><c>   3</c></rc>
    <rc><c>O </c><c>   3</c></rc>
    <rc><c>O </c><c>   3</c></rc>
    <rc><c>O </c><c>   3</c></rc>
   </set>
  </array>
  <array name="atomtypes" >
   <dimension dim="1">type</dimension>
   <field type="int">atomspertype</field>
   <field type="string">element</field>
   <field>mass</field>
   <field>valence</field>
   <field type="string">pseudopotential</field>
   <set>
    <rc><c>  27</c><c>Ca</c><c>     40.07800000</c><c>     10.00000000</c><c>  PAW_PBE Ca_sv 06Sep2000               </c></rc>
    <rc><c>  27</c><c>Si</c><c>     28.08500000</c><c>      4.00000000</c><c>  PAW_PBE Si 05Jan2001                  </c></rc>
    <rc><c>  81</c><c>O </c><c>     16.00000000</c><c>      6.00000000</c><c>  PAW_PBE O 08Apr2002                   </c></rc>
   </set>
  </array>
 </atominfo>
 <structure name="initialpos" >
  <crystal>
   <varray name="basis" >
    <v>      13.31093562       0.00000000       0.00000000 </v>
    <v>       0.00000000      13.31093562       0.00000000 </v>
    <v>       0.00000000       0.00000000      13.31093562 </v>
   </varray>
   <i name="volume">   2358.44497833 </i>
   <varray name="rec_basis" >
    <v>       0.07512620       0.00000000       0.00000000 </v>
    <v>       0.00000000       0.07512620       0.00000000 </v>
    <v>       0.00000000       0.00000000       0.07512620 </v>
   </varray>
  </crystal>
  <varray name="positions" >
   <v>       0.13732984       0.84692299       0.80083390 </v>
   <v>       0.89212656       0.27582339       0.81066555 </v>
   <v>       0.14400286       0.41079347       0.72271149 </v>
   <v>       0.62599185       0.65657607       0.78633439 </v>
   <v>       0.11444201       0.09001480       0.37843328 </v>
   <v>       0.09785435       0.51799572       0.37849165 </v>
   <v>       0.92147278       0.73505780       0.72490663 </v>
   <v>       0.21802184       0.36822097       0.98453790 </v>
   <v>       0.43352705       0.83355819       0.69706014 </v>
   <v>       0.88277409       0.42189747       0.57035157 </v>
   <v>       0.49264844       0.89006231       0.43032521 </v>
   <v>       0.44930572       0.40299997       0.95542022 </v>
   <v>       0.91683685       0.89126764       0.54860365 </v>
   <v>       0.40434622       0.39631940       0.41354133 </v>
   <v>       0.70629338       0.54328716       0.41895905 </v>
   <v>       0.25169358       0.89603288       0.50763021 </v>
   <v>       0.10719852       0.64098817       0.96288091 </v>
   <v>       0.71395084       0.22552790       0.96455909 </v>
   <v>       0.79567597       0.25323607       0.27415614 </v>
   <v>       0.99197762       0.84251342       0.34896969 </v>
   <v>       0.75926317       0.91104546       0.36130218 </v>
   <v>       0.32211683       0.94106689       0.18750324 </v>
   <v>       0.51958794       0.22276218       0.22226522 </v>
   <v>       0.65401574       0.64754924       0.09270207 </v>
   <v>       0.44591216       0.61797537       0.25740912 </v>
   <v>       0.26009985       0.02303180       0.66545499 </v>
   <v>       0.51492591       0.09396655       0.55155232 </v>
   <v>       0.31319584       0.06441942       0.39000966 </v>
   <v>       0.93264397       0.90351582       0.93123440 </v>
   <v>       0.47955783       0.12546241       0.83452525 </v>
   <v>       0.61526562       0.41436187       0.23864116 </v>
   <v>       0.73094900       0.29868922       0.70603776 </v>
   <v>       0.52994632       0.88134306       0.91872519 </v>
   <v>       0.49730232       0.61189624       0.52522925 </v>
   <v>       0.36761899       0.16216622       0.03331758 </v>
   <v>       0.00441469       0.07768043       0.55883055 </v>
   <v>       0.82074344       0.95942505       0.12369874 </v>
   <v>       0.85628511       0.70363575       0.54056441 </v>
   <v>       0.24092879       0.75141377       0.32187796 </v>
   <v>       0.56709796       0.45502464       0.64108236 </v>
   <v>       0.94640126       0.35764963       0.12949828 </v>
   <v>       0.30292867       0.58220235       0.91841855 </v>
   <v>       0.06717955       0.88288617       0.12139139 </v>
   <v>       0.26672723       0.61124384       0.49422965 </v>
   <v>       0.96745789       0.28008549       0.43604840 </v>
   <v>       0.28332856       0.26984268       0.77536897 </v>
   <v>       0.64067072       0.85699260       0.20675247 </v>
   <v>       0.28491881       0.81724467       0.99635814 </v>
   <v>       0.88114514       0.63042291       0.10144006 </v>
   <v>       0.09765294       0.61520010       0.67283011 </v>
   <v>       0.86980655       0.65094961       0.91327252 </v>
   <v>       0.25539131       0.52562263       0.16800783 </v>
   <v>       0.76809226       0.09101394       0.59330643 </v>
   <v>       0.16886272       0.12792197       0.17196396 </v>
   <v>       0.21254034       0.69192880       0.43743767 </v>
   <v>       0.39191220       0.26899852       0.07380511 </v>
   <v>       0.94512515       0.38643203       0.23793404 </v>
   <v>       0.62612692       0.53380089       0.21581689 </v>
   <v>       0.42597086       0.11552740       0.13085161 </v>
   <v>       0.31697065       0.43665481       0.18126060 </v>
   <v>       0.89190834       0.05095053       0.53879733 </v>
   <v>       0.10853033       0.01503785       0.16131042 </v>
   <v>       0.89005589       0.79711619       0.88007347 </v>
   <v>       0.42171103       0.15384186       0.39843969 </v>
   <v>       0.70999121       0.40969190       0.32427044 </v>
   <v>       0.76504366       0.85699320       0.15879773 </v>
   <v>       0.96075026       0.59857819       0.86475715 </v>
   <v>       0.61994024       0.91664255       0.96447356 </v>
   <v>       0.22876522       0.08634877       0.51264315 </v>
   <v>       0.03306763       0.19973160       0.52609747 </v>
   <v>       0.48680098       0.24953499       0.90407872 </v>
   <v>       0.99937911       0.96432851       0.83761161 </v>
   <v>       0.06073215       0.01848282       0.63975671 </v>
   <v>       0.21456291       0.26176220       0.88228535 </v>
   <v>       0.30864397       0.38259583       0.82181702 </v>
   <v>       0.41768340       0.54696066       0.91907723 </v>
   <v>       0.52197448       0.46512478       0.52350372 </v>
   <v>       0.58324692       0.10234081       0.79340101 </v>
   <v>       0.99429523       0.20113569       0.35404197 </v>
   <v>       0.35224828       0.79997179       0.42002796 </v>
   <v>       0.85743133       0.28246673       0.09360013 </v>
   <v>       0.66324638       0.91286209       0.48754830 </v>
   <v>       0.68837938       0.01370914       0.63654994 </v>
   <v>       0.80951209       0.38682350       0.73292167 </v>
   <v>       0.32580952       0.74467535       0.22806055 </v>
   <v>       0.26342789       0.09546829       0.09710709 </v>
   <v>       0.24643896       0.92613396       0.91763975 </v>
   <v>       0.49872823       0.35128793       0.30195266 </v>
   <v>       0.56191479       0.67625217       0.43038159 </v>
   <v>       0.22991572       0.53492509       0.04565878 </v>
   <v>       0.82810162       0.51329388       0.07955029 </v>
   <v>       0.84454085       0.27750235       0.44592046 </v>
   <v>       0.34048499       0.53982877       0.42316155 </v>
   <v>       0.15928426       0.59672900       0.56730387 </v>
   <v>       0.40696896       0.97919987       0.61113133 </v>
   <v>       0.22064171       0.85162671       0.65185328 </v>
   <v>       0.15344620       0.55973958       0.22521844 </v>
   <v>       0.85079560       0.66261714       0.20405376 </v>
   <v>       0.80466567       0.73509971       0.64295677 </v>
   <v>       0.57929111       0.92283935       0.29014463 </v>
   <v>       0.97526210       0.66309146       0.56850282 </v>
   <v>       0.76264922       0.60843280       0.90038515 </v>
   <v>       0.37974768       0.89768378       0.01421472 </v>
   <v>       0.80853085       0.05279980       0.19978981 </v>
   <v>       0.19326873       0.85171869       0.07854331 </v>
   <v>       0.51539086       0.40319828       0.73355131 </v>
   <v>       0.28382457       0.70123690       0.95413143 </v>
   <v>       0.48406769       0.97728619       0.83417664 </v>
   <v>       0.37210286       0.17237437       0.78221049 </v>
   <v>       0.67544132       0.38337704       0.61525684 </v>
   <v>       0.46566229       0.78478038       0.84449545 </v>
   <v>       0.65216552       0.02843703       0.43824497 </v>
   <v>       0.30317654       0.94382848       0.37243779 </v>
   <v>       0.23553540       0.23660453       0.66992493 </v>
   <v>       0.00162274       0.40849490       0.43824415 </v>
   <v>       0.07180147       0.71746614       0.70956901 </v>
   <v>       0.83532667       0.76094035       0.42854907 </v>
   <v>       0.78197375       0.18701639       0.66944356 </v>
   <v>       0.76975372       0.60092899       0.55910776 </v>
   <v>       0.00758865       0.52574013       0.69023537 </v>
   <v>       0.12409935       0.24365824       0.16534887 </v>
   <v>       0.64965467       0.32346372       0.14504850 </v>
   <v>       0.38155888       0.68314165       0.55412574 </v>
   <v>       0.57156206       0.75004887       0.16645727 </v>
   <v>       0.70850436       0.27037153       0.82171381 </v>
   <v>       0.22577832       0.58420208       0.82906252 </v>
   <v>       0.13634746       0.77222743       0.28991792 </v>
   <v>       0.02785078       0.88495100       0.00965425 </v>
   <v>       0.99157967       0.38850284       0.98284426 </v>
   <v>       0.58638293       0.57697777       0.63381905 </v>
   <v>       0.99447846       0.98995782       0.45847265 </v>
   <v>       0.24652485       0.08947402       0.28795942 </v>
   <v>       0.86578971       0.96590564       0.01935109 </v>
   <v>       0.94506206       0.68704017       0.01501638 </v>
   <v>       0.95563836       0.90361654       0.21439934 </v>
  </varray>
  <varray name="velocities" >
   <v>       0.00000000       0.00000000       0.00000000 </v>
   <v>       0.00000000       0.00000000       0.00000000 </v>
   <v>       0.00000000       0.00000000       0.00000000 </v>
   <v>       0.00000000       0.00000000       0.00000000 </v>
   <v>       0.00000000       0.00000000       0.00000000 </v>
   <v>       0.00000000       0.00000000       0.00000000 </v>
   <v>       0.00000000       0.00000000       0.00000000 </v>
   <v>       0.00000000       0.00000000       0.00000000 </v>
   <v>       0.00000000       0.00000000       0.00000000 </v>
   <v>       0.00000000       0.00000000       0.00000000 </v>
   <v>       0.00000000       0.00000000       0.00000000 </v>
   <v>       0.00000000       0.00000000       0.00000000 </v>
   <v>       0.00000000       0.00000000       0.00000000 </v>
   <v>       0.00000000       0.00000000       0.00000000 </v>
   <v>       0.00000000       0.00000000       0.00000000 </v>
   <v>       0.00000000       0.00000000       0.00000000 </v>
   <v>       0.00000000       0.00000000       0.00000000 </v>
   <v>       0.00000000       0.00000000       0.00000000 </v>
   <v>       0.00000000       0.00000000       0.00000000 </v>
   <v>       0.00000000       0.00000000       0.00000000 </v>
   <v>       0.00000000       0.00000000       0.00000000 </v>
   <v>       0.00000000       0.00000000       0.00000000 </v>
   <v>       0.00000000       0.00000000       0.00000000 </v>
   <v>       0.00000000       0.00000000       0.00000000 </v>
   <v>       0.00000000       0.00000000       0.00000000 </v>
   <v>       0.00000000       0.00000000       0.00000000 </v>
   <v>       0.00000000       0.00000000       0.00000000 </v>
   <v>       0.00000000       0.00000000       0.00000000 </v>
   <v>       0.00000000       0.00000000       0.00000000 </v>
   <v>       0.00000000       0.00000000       0.00000000 </v>
   <v>       0.00000000       0.00000000       0.00000000 </v>
   <v>       0.00000000       0.00000000       0.00000000 </v>
   <v>       0.00000000       0.00000000       0.00000000 </v>
   <v>       0.00000000       0.00000000       0.00000000 </v>
   <v>       0.00000000       0.00000000       0.00000000 </v>
   <v>       0.00000000       0.00000000       0.00000000 </v>
   <v>       0.00000000       0.00000000       0.00000000 </v>
   <v>       0.00000000       0.00000000       0.00000000 </v>
   <v>       0.00000000       0.00000000       0.00000000 </v>
   <v>       0.00000000       0.00000000       0.00000000 </v>
   <v>       0.00000000       0.00000000       0.00000000 </v>
   <v>       0.00000000       0.00000000       0.00000000 </v>
   <v>       0.00000000       0.00000000       0.00000000 </v>
   <v>       0.00000000       0.00000000       0.00000000 </v>
   <v>       0.00000000       0.00000000       0.00000000 </v>
   <v>       0.00000000       0.00000000       0.00000000 </v>
   <v>       0.00000000       0.00000000       0.00000000 </v>
   <v>       0.00000000       0.00000000       0.00000000 </v>
   <v>       0.00000000       0.00000000       0.00000000 </v>
   <v>       0.00000000       0.00000000       0.00000000 </v>
   <v>       0.00000000       0.00000000       0.00000000 </v>
   <v>       0.00000000       0.00000000       0.00000000 </v>
   <v>       0.00000000       0.00000000       0.00000000 </v>
   <v>       0.00000000       0.00000000       0.00000000 </v>
   <v>       0.00000000       0.00000000       0.00000000 </v>
   <v>       0.00000000       0.00000000       0.00000000 </v>
   <v>       0.00000000       0.00000000       0.00000000 </v>
   <v>       0.00000000       0.00000000       0.00000000 </v>
   <v>       0.00000000       0.00000000       0.00000000 </v>
   <v>       0.00000000       0.00000000       0.00000000 </v>
   <v>       0.00000000       0.00000000       0.00000000 </v>
   <v>       0.00000000       0.00000000       0.00000000 </v>
   <v>       0.00000000       0.00000000       0.00000000 </v>
   <v>       0.00000000       0.00000000       0.00000000 </v>
   <v>       0.00000000       0.00000000       0.00000000 </v>
   <v>       0.00000000       0.00000000       0.00000000 </v>
   <v>       0.00000000       0.00000000       0.00000000 </v>
   <v>       0.00000000       0.00000000       0.00000000 </v>
   <v>       0.00000000       0.00000000       0.00000000 </v>
   <v>       0.00000000       0.00000000       0.00000000 </v>
   <v>       0.00000000       0.00000000       0.00000000 </v>
   <v>       0.00000000       0.00000000       0.00000000 </v>
   <v>       0.00000000       0.00000000       0.00000000 </v>
   <v>       0.00000000       0.00000000       0.00000000 </v>
   <v>       0.00000000       0.00000000       0.00000000 </v>
   <v>       0.00000000       0.00000000       0.00000000 </v>
   <v>       0.00000000       0.00000000       0.00000000 </v>
   <v>       0.00000000       0.00000000       0.00000000 </v>
   <v>       0.00000000       0.00000000       0.00000000 </v>
   <v>       0.00000000       0.00000000       0.00000000 </v>
   <v>       0.00000000       0.00000000       0.00000000 </v>
   <v>       0.00000000       0.00000000       0.00000000 </v>
   <v>       0.00000000       0.00000000       0.00000000 </v>
   <v>       0.00000000       0.00000000       0.00000000 </v>
   <v>       0.00000000       0.00000000       0.00000000 </v>
   <v>       0.00000000       0.00000000       0.00000000 </v>
   <v>       0.00000000       0.00000000       0.00000000 </v>
   <v>       0.00000000       0.00000000       0.00000000 </v>
   <v>       0.00000000       0.00000000       0.00000000 </v>
   <v>       0.00000000       0.00000000       0.00000000 </v>
   <v>       0.00000000       0.00000000       0.00000000 </v>
   <v>       0.00000000       0.00000000       0.00000000 </v>
   <v>       0.00000000       0.00000000       0.00000000 </v>
   <v>       0.00000000       0.00000000       0.00000000 </v>
   <v>       0.00000000       0.00000000       0.00000000 </v>
   <v>       0.00000000       0.00000000       0.00000000 </v>
   <v>       0.00000000       0.00000000       0.00000000 </v>
   <v>       0.00000000       0.00000000       0.00000000 </v>
   <v>       0.00000000       0.00000000       0.00000000 </v>
   <v>       0.00000000       0.00000000       0.00000000 </v>
   <v>       0.00000000       0.00000000       0.00000000 </v>
   <v>       0.00000000       0.00000000       0.00000000 </v>
   <v>       0.00000000       0.00000000       0.00000000 </v>
   <v>       0.00000000       0.00000000       0.00000000 </v>
   <v>       0.00000000       0.00000000       0.00000000 </v>
   <v>       0.00000000       0.00000000       0.00000000 </v>
   <v>       0.00000000       0.00000000       0.00000000 </v>
   <v>       0.00000000       0.00000000       0.00000000 </v>
   <v>       0.00000000       0.00000000       0.00000000 </v>
   <v>       0.00000000       0.00000000       0.00000000 </v>
   <v>       0.00000000       0.00000000       0.00000000 </v>
   <v>       0.00000000       0.00000000       0.00000000 </v>
   <v>       0.00000000       0.00000000       0.00000000 </v>
   <v>       0.00000000       0.00000000       0.00000000 </v>
   <v>       0.00000000       0.00000000       0.00000000 </v>
   <v>       0.00000000       0.00000000       0.00000000 </v>
   <v>       0.00000000       0.00000000       0.00000000 </v>
   <v>       0.00000000       0.00000000       0.00000000 </v>
   <v>       0.00000000       0.00000000       0.00000000 </v>
   <v>       0.00000000       0.00000000       0.00000000 </v>
   <v>       0.00000000       0.00000000       0.00000000 </v>
   <v>       0.00000000       0.00000000       0.00000000 </v>
   <v>       0.00000000       0.00000000       0.00000000 </v>
   <v>       0.00000000       0.00000000       0.00000000 </v>
   <v>       0.00000000       0.00000000       0.00000000 </v>
   <v>       0.00000000       0.00000000       0.00000000 </v>
   <v>       0.00000000       0.00000000       0.00000000 </v>
   <v>       0.00000000       0.00000000       0.00000000 </v>
   <v>       0.00000000       0.00000000       0.00000000 </v>
   <v>       0.00000000       0.00000000       0.00000000 </v>
   <v>       0.00000000       0.00000000       0.00000000 </v>
   <v>       0.00000000       0.00000000       0.00000000 </v>
   <v>       0.00000000       0.00000000       0.00000000 </v>
   <v>       0.00000000       0.00000000       0.00000000 </v>
   <v>       0.00000000       0.00000000       0.00000000 </v>
  </varray>
 </structure>
 <calculation>
  <scstep>
   <time name="dav">   48.13   48.13</time>
   <time name="total">   48.71   48.72</time>
   <energy>
    <i name="alphaZ">   2026.14881195 </i>
    <i name="ewald"> -35650.64329201 </i>
    <i name="hartreedc"> -25081.10005311 </i>
    <i name="XCdc">   3125.82826096 </i>
    <i name="pawpsdc">  50594.51003143 </i>
    <i name="pawaedc"> -49994.65612350 </i>
    <i name="eentropy">     -0.03840632 </i>
    <i name="bandstr">   -746.34963868 </i>
    <i name="atom">  64968.54023382 </i>
    <i name="e_fr_energy">   9242.23982456 </i>
    <i name="e_wo_entrp">   9242.27823088 </i>
    <i name="e_0_energy">   9242.25902772 </i>
   </energy>
  </scstep>
  <scstep>
   <time name="dav">   56.48   56.50</time>
   <time name="total">   56.48   56.50</time>
   <energy>
    <i name="e_fr_energy">     53.26116310 </i>
    <i name="e_wo_entrp">     53.26116310 </i>
    <i name="e_0_energy">     53.26116310 </i>
   </energy>
  </scstep>
  <scstep>
   <time name="dav">   56.86   56.86</time>
   <time name="total">   56.86   56.86</time>
   <energy>
    <i name="e_fr_energy">   -988.97415736 </i>
    <i name="e_wo_entrp">   -988.97415736 </i>
    <i name="e_0_energy">   -988.97415736 </i>
   </energy>
  </scstep>
  <scstep>
   <time name="dav">   59.89   59.91</time>
   <time name="total">   59.89   59.91</time>
   <energy>
    <i name="e_fr_energy">  -1036.88763662 </i>
    <i name="e_wo_entrp">  -1036.88731457 </i>
    <i name="e_0_energy">  -1036.88747559 </i>
   </energy>
  </scstep>
  <scstep>
   <time name="dav">   77.46   77.46</time>
   <time name="total">   79.71   79.71</time>
   <energy>
    <i name="e_fr_energy">  -1043.31870837 </i>
    <i name="e_wo_entrp">  -1043.31829481 </i>
    <i name="e_0_energy">  -1043.31850159 </i>
   </energy>
  </scstep>
  <scstep>
   <time name="dav">   56.93   56.92</time>
   <time name="total">   59.77   59.78</time>
   <energy>
    <i name="e_fr_energy">   -876.21726971 </i>
    <i name="e_wo_entrp">   -876.17696166 </i>
    <i name="e_0_energy">   -876.19711569 </i>
   </energy>
  </scstep>
  <scstep>
   <time name="dav">   58.18   58.18</time>
   <time name="total">   60.96   60.96</time>
   <energy>
    <i name="e_fr_energy">   -877.65579164 </i>
    <i name="e_wo_entrp">   -877.65029117 </i>
    <i name="e_0_energy">   -877.65304141 </i>
   </energy>
  </scstep>
  <scstep>
   <time name="dav">   66.03   66.03</time>
   <time name="total">   68.86   68.88</time>
   <energy>
    <i name="e_fr_energy">   -872.70322127 </i>
    <i name="e_wo_entrp">   -872.67146232 </i>
    <i name="e_0_energy">   -872.68734180 </i>
   </energy>
  </scstep>
  <scstep>
   <time name="dav">   55.06   55.06</time>
   <time name="total">   57.88   57.90</time>
   <energy>
    <i name="e_fr_energy">   -871.68231608 </i>
    <i name="e_wo_entrp">   -871.67776480 </i>
    <i name="e_0_energy">   -871.68004044 </i>
   </energy>
  </scstep>
  <scstep>
   <time name="dav">   61.03   61.03</time>
   <time name="total">   63.85   63.85</time>
   <energy>
    <i name="e_fr_energy">   -871.35993625 </i>
    <i name="e_wo_entrp">   -871.33926347 </i>
    <i name="e_0_energy">   -871.34959986 </i>
   </energy>
  </scstep>
  <scstep>
   <time name="dav">   59.30   59.30</time>
   <time name="total">   62.14   62.16</time>
   <energy>
    <i name="e_fr_energy">   -871.35871285 </i>
    <i name="e_wo_entrp">   -871.33542014 </i>
    <i name="e_0_energy">   -871.34706650 </i>
   </energy>
  </scstep>
  <scstep>
   <time name="dav">   58.23   58.23</time>
   <time name="total">   61.01   61.02</time>
   <energy>
    <i name="e_fr_energy">   -871.27452604 </i>
    <i name="e_wo_entrp">   -871.24896063 </i>
    <i name="e_0_energy">   -871.26174333 </i>
   </energy>
  </scstep>
  <scstep>
   <time name="dav">   60.80   60.80</time>
   <time name="total">   63.63   63.64</time>
   <energy>
    <i name="e_fr_energy">   -871.32114529 </i>
    <i name="e_wo_entrp">   -871.29048434 </i>
    <i name="e_0_energy">   -871.30581481 </i>
   </energy>
  </scstep>
  <scstep>
   <time name="dav">   60.45   60.45</time>
   <time name="total">   63.25   63.26</time>
   <energy>
    <i name="e_fr_energy">   -871.31810456 </i>
    <i name="e_wo_entrp">   -871.29649898 </i>
    <i name="e_0_energy">   -871.30730177 </i>
   </energy>
  </scstep>
  <scstep>
   <time name="dav">   55.87   55.87</time>
   <time name="total">   58.70   58.72</time>
   <energy>
    <i name="e_fr_energy">   -871.32878019 </i>
    <i name="e_wo_entrp">   -871.30373128 </i>
    <i name="e_0_energy">   -871.31625573 </i>
   </energy>
  </scstep>
  <scstep>
   <time name="dav">   56.08   56.08</time>
   <time name="total">   58.92   58.92</time>
   <energy>
    <i name="e_fr_energy">   -871.33609370 </i>
    <i name="e_wo_entrp">   -871.31293368 </i>
    <i name="e_0_energy">   -871.32451369 </i>
   </energy>
  </scstep>
  <scstep>
   <time name="dav">   58.18   58.18</time>
   <time name="total">   60.94   60.96</time>
   <energy>
    <i name="e_fr_energy">   -871.33808074 </i>
    <i name="e_wo_entrp">   -871.31347475 </i>
    <i name="e_0_energy">   -871.32577774 </i>
   </energy>
  </scstep>
  <scstep>
   <time name="dav">   59.90   59.90</time>
   <time name="total">   62.71   62.72</time>
   <energy>
    <i name="e_fr_energy">   -871.33930969 </i>
    <i name="e_wo_entrp">   -871.31458844 </i>
    <i name="e_0_energy">   -871.32694906 </i>
   </energy>
  </scstep>
  <scstep>
   <time name="dav">   55.21   55.21</time>
   <time name="total">   58.04   58.05</time>
   <energy>
    <i name="e_fr_energy">   -871.33980274 </i>
    <i name="e_wo_entrp">   -871.31517639 </i>
    <i name="e_0_energy">   -871.32748956 </i>
   </energy>
  </scstep>
  <scstep>
   <time name="dav">   54.21   54.21</time>
   <time name="total">   56.99   57.00</time>
   <energy>
    <i name="e_fr_energy">   -871.34032573 </i>
    <i name="e_wo_entrp">   -871.31564115 </i>
    <i name="e_0_energy">   -871.32798344 </i>
   </energy>
  </scstep>
  <scstep>
   <time name="dav">   62.86   62.86</time>
   <time name="total">   65.68   65.69</time>
   <energy>
    <i name="e_fr_energy">   -871.34044157 </i>
    <i name="e_wo_entrp">   -871.31579652 </i>
    <i name="e_0_energy">   -871.32811904 </i>
   </energy>
  </scstep>
  <scstep>
   <time name="dav">   57.48   57.48</time>
   <time name="total">   60.29   60.30</time>
   <energy>
    <i name="e_fr_energy">   -871.34048227 </i>
    <i name="e_wo_entrp">   -871.31581437 </i>
    <i name="e_0_energy">   -871.32814832 </i>
   </energy>
  </scstep>
  <scstep>
   <time name="dav">   52.97   52.97</time>
   <time name="total">   55.82   55.83</time>
   <energy>
    <i name="e_fr_energy">   -871.34050428 </i>
    <i name="e_wo_entrp">   -871.31585433 </i>
    <i name="e_0_energy">   -871.32817930 </i>
   </energy>
  </scstep>
  <scstep>
   <time name="dav">   49.32   49.32</time>
   <time name="total">   52.14   52.15</time>
   <energy>
    <i name="e_fr_energy">   -871.34051068 </i>
    <i name="e_wo_entrp">   -871.31583954 </i>
    <i name="e_0_energy">   -871.32817511 </i>
   </energy>
  </scstep>
  <scstep>
   <time name="dav">   44.89   44.89</time>
   <time name="total">   45.41   45.43</time>
   <energy>
    <i name="alphaZ">   2026.14881195 </i>
    <i name="ewald"> -35650.64329201 </i>
    <i name="hartreedc"> -26933.67170977 </i>
    <i name="XCdc">   3229.49968326 </i>
    <i name="pawpsdc">  86078.20894320 </i>
    <i name="pawaedc"> -85737.39667675 </i>
    <i name="eentropy">     -0.02465599 </i>
    <i name="bandstr">  -8852.00184850 </i>
    <i name="atom">  64968.54023382 </i>
    <i name="e_fr_energy">   -871.34051077 </i>
    <i name="e_wo_entrp">   -871.31585478 </i>
    <i name="e_0_energy">   -871.32818277 </i>
   </energy>
  </scstep>
  <structure>
   <crystal>
    <varray name="basis" >
     <v>      13.31093562       0.00000000       0.00000000 </v>
     <v>       0.00000000      13.31093562       0.00000000 </v>
     <v>       0.00000000       0.00000000      13.31093562 </v>
    </varray>
    <i name="volume">   2358.44497833 </i>
    <varray name="rec_basis" >
     <v>       0.07512620       0.00000000       0.00000000 </v>
     <v>       0.00000000       0.07512620       0.00000000 </v>
     <v>       0.00000000       0.00000000       0.07512620 </v>
    </varray>
   </crystal>
   <varray name="positions" >
    <v>       0.13732984       0.84692299       0.80083390 </v>
    <v>       0.89212656       0.27582339       0.81066555 </v>
    <v>       0.14400286       0.41079347       0.72271149 </v>
    <v>       0.62599185       0.65657607       0.78633439 </v>
    <v>       0.11444201       0.09001480       0.37843328 </v>
    <v>       0.09785435       0.51799572       0.37849165 </v>
    <v>       0.92147278       0.73505780       0.72490663 </v>
    <v>       0.21802184       0.36822097       0.98453790 </v>
    <v>       0.43352705       0.83355819       0.69706014 </v>
    <v>       0.88277409       0.42189747       0.57035157 </v>
    <v>       0.49264844       0.89006231       0.43032521 </v>
    <v>       0.44930572       0.40299997       0.95542022 </v>
    <v>       0.91683685       0.89126764       0.54860365 </v>
    <v>       0.40434622       0.39631940       0.41354133 </v>
    <v>       0.70629338       0.54328716       0.41895905 </v>
    <v>       0.25169358       0.89603288       0.50763021 </v>
    <v>       0.10719852       0.64098817       0.96288091 </v>
    <v>       0.71395084       0.22552790       0.96455909 </v>
    <v>       0.79567597       0.25323607       0.27415614 </v>
    <v>       0.99197762       0.84251342       0.34896969 </v>
    <v>       0.75926317       0.91104546       0.36130218 </v>
    <v>       0.32211683       0.94106689       0.18750324 </v>
    <v>       0.51958794       0.22276218       0.22226522 </v>
    <v>       0.65401574       0.64754924       0.09270207 </v>
    <v>       0.44591216       0.61797537       0.25740912 </v>
    <v>       0.26009985       0.02303180       0.66545499 </v>
    <v>       0.51492591       0.09396655       0.55155232 </v>
    <v>       0.31319584       0.06441942       0.39000966 </v>
    <v>       0.93264397       0.90351582       0.93123440 </v>
    <v>       0.47955783       0.12546241       0.83452525 </v>
    <v>       0.61526562       0.41436187       0.23864116 </v>
    <v>       0.73094900       0.29868922       0.70603776 </v>
    <v>       0.52994632       0.88134306       0.91872519 </v>
    <v>       0.49730232       0.61189624       0.52522925 </v>
    <v>       0.36761899       0.16216622       0.03331758 </v>
    <v>       0.00441469       0.07768043       0.55883055 </v>
    <v>       0.82074344       0.95942505       0.12369874 </v>
    <v>       0.85628511       0.70363575       0.54056441 </v>
    <v>       0.24092879       0.75141377       0.32187796 </v>
    <v>       0.56709796       0.45502464       0.64108236 </v>
    <v>       0.94640126       0.35764963       0.12949828 </v>
    <v>       0.30292867       0.58220235       0.91841855 </v>
    <v>       0.06717955       0.88288617       0.12139139 </v>
    <v>       0.26672723       0.61124384       0.49422965 </v>
    <v>       0.96745789       0.28008549       0.43604840 </v>
    <v>       0.28332856       0.26984268       0.77536897 </v>
    <v>       0.64067072       0.85699260       0.20675247 </v>
    <v>       0.28491881       0.81724467       0.99635814 </v>
    <v>       0.88114514       0.63042291       0.10144006 </v>
    <v>       0.09765294       0.61520010       0.67283011 </v>
    <v>       0.86980655       0.65094961       0.91327252 </v>
    <v>       0.25539131       0.52562263       0.16800783 </v>
    <v>       0.76809226       0.09101394       0.59330643 </v>
    <v>       0.16886272       0.12792197       0.17196396 </v>
    <v>       0.21254034       0.69192880       0.43743767 </v>
    <v>       0.39191220       0.26899852       0.07380511 </v>
    <v>       0.94512515       0.38643203       0.23793404 </v>
    <v>       0.62612692       0.53380089       0.21581689 </v>
    <v>       0.42597086       0.11552740       0.13085161 </v>
    <v>       0.31697065       0.43665481       0.18126060 </v>
    <v>       0.89190834       0.05095053       0.53879733 </v>
    <v>       0.10853033       0.01503785       0.16131042 </v>
    <v>       0.89005589       0.79711619       0.88007347 </v>
    <v>       0.42171103       0.15384186       0.39843969 </v>
    <v>       0.70999121       0.40969190       0.32427044 </v>
    <v>       0.76504366       0.85699320       0.15879773 </v>
    <v>       0.96075026       0.59857819       0.86475715 </v>
    <v>       0.61994024       0.91664255       0.96447356 </v>
    <v>       0.22876522       0.08634877       0.51264315 </v>
    <v>       0.03306763       0.19973160       0.52609747 </v>
    <v>       0.48680098       0.24953499       0.90407872 </v>
    <v>       0.99937911       0.96432851       0.83761161 </v>
    <v>       0.06073215       0.01848282       0.63975671 </v>
    <v>       0.21456291       0.26176220       0.88228535 </v>
    <v>       0.30864397       0.38259583       0.82181702 </v>
    <v>       0.41768340       0.54696066       0.91907723 </v>
    <v>       0.52197448       0.46512478       0.52350372 </v>
    <v>       0.58324692       0.10234081       0.79340101 </v>
    <v>       0.99429523       0.20113569       0.35404197 </v>
    <v>       0.35224828       0.79997179       0.42002796 </v>
    <v>       0.85743133       0.28246673       0.09360013 </v>
    <v>       0.66324638       0.91286209       0.48754830 </v>
    <v>       0.68837938       0.01370914       0.63654994 </v>
    <v>       0.80951209       0.38682350       0.73292167 </v>
    <v>       0.32580952       0.74467535       0.22806055 </v>
    <v>       0.26342789       0.09546829       0.09710709 </v>
    <v>       0.24643896       0.92613396       0.91763975 </v>
    <v>       0.49872823       0.35128793       0.30195266 </v>
    <v>       0.56191479       0.67625217       0.43038159 </v>
    <v>       0.22991572       0.53492509       0.04565878 </v>
    <v>       0.82810162       0.51329388       0.07955029 </v>
    <v>       0.84454085       0.27750235       0.44592046 </v>
    <v>       0.34048499       0.53982877       0.42316155 </v>
    <v>       0.15928426       0.59672900       0.56730387 </v>
    <v>       0.40696896       0.97919987       0.61113133 </v>
    <v>       0.22064171       0.85162671       0.65185328 </v>
    <v>       0.15344620       0.55973958       0.22521844 </v>
    <v>       0.85079560       0.66261714       0.20405376 </v>
    <v>       0.80466567       0.73509971       0.64295677 </v>
    <v>       0.57929111       0.92283935       0.29014463 </v>
    <v>       0.97526210       0.66309146       0.56850282 </v>
    <v>       0.76264922       0.60843280       0.90038515 </v>
    <v>       0.37974768       0.89768378       0.01421472 </v>
    <v>       0.80853085       0.05279980       0.19978981 </v>
    <v>       0.19326873       0.85171869       0.07854331 </v>
    <v>       0.51539086       0.40319828       0.73355131 </v>
    <v>       0.28382457       0.70123690       0.95413143 </v>
    <v>       0.48406769       0.97728619       0.83417664 </v>
    <v>       0.37210286       0.17237437       0.78221049 </v>
    <v>       0.67544132       0.38337704       0.61525684 </v>
    <v>       0.46566229       0.78478038       0.84449545 </v>
    <v>       0.65216552       0.02843703       0.43824497 </v>
    <v>       0.30317654       0.94382848       0.37243779 </v>
    <v>       0.23553540       0.23660453       0.66992493 </v>
    <v>       0.00162274       0.40849490       0.43824415 </v>
    <v>       0.07180147       0.71746614       0.70956901 </v>
    <v>       0.83532667       0.76094035       0.42854907 </v>
    <v>       0.78197375       0.18701639       0.66944356 </v>
    <v>       0.76975372       0.60092899       0.55910776 </v>
    <v>       0.00758865       0.52574013       0.69023537 </v>
    <v>       0.12409935       0.24365824       0.16534887 </v>
    <v>       0.64965467       0.32346372       0.14504850 </v>
    <v>       0.38155888       0.68314165       0.55412574 </v>
    <v>       0.57156206       0.75004887       0.16645727 </v>
    <v>       0.70850436       0.27037153       0.82171381 </v>
    <v>       0.22577832       0.58420208       0.82906252 </v>
    <v>       0.13634746       0.77222743       0.28991792 </v>
    <v>       0.02785078       0.88495100       0.00965425 </v>
    <v>       0.99157967       0.38850284       0.98284426 </v>
    <v>       0.58638293       0.57697777       0.63381905 </v>
    <v>       0.99447846       0.98995782       0.45847265 </v>
    <v>       0.24652485       0.08947402       0.28795942 </v>
    <v>       0.86578971       0.96590564       0.01935109 </v>
    <v>       0.94506206       0.68704017       0.01501638 </v>
    <v>       0.95563836       0.90361654       0.21439934 </v>
   </varray>
  </structure>
  <varray name="forces" >
   <v>       0.77661444       1.98297763      -0.50511617 </v>
   <v>       1.75206844       0.57104717       2.07689052 </v>
   <v>       0.73884905      -0.42050213       0.61407879 </v>
   <v>       0.43503589      -0.44370225      -0.12184590 </v>
   <v>      -2.76376084       1.08254175       0.50024506 </v>
   <v>      -0.78718414       0.23707515      -1.08872397 </v>
   <v>       1.60387403      -0.70875332       3.99884916 </v>
   <v>      -1.41928140      -0.93186429       1.98105807 </v>
   <v>      -1.75329043       1.48745258      -0.56092191 </v>
   <v>      -1.02180558       1.85324910       0.38824894 </v>
   <v>      -0.16277296      -0.97562700      -0.12551469 </v>
   <v>       0.93994603      -3.81808073      -0.43313895 </v>
   <v>      -0.32450738       0.14720420       2.28496998 </v>
   <v>      -0.06789401      -2.06320622       0.75034753 </v>
   <v>      -0.57676361       0.75987697      -0.52088426 </v>
   <v>      -0.98848419      -1.71368536       1.30755229 </v>
   <v>      -1.35228761      -0.98511747      -0.11599816 </v>
   <v>      -1.27995890       0.10958192       2.79790702 </v>
   <v>       1.32115140       1.05158254      -0.63572138 </v>
   <v>       0.95294583      -1.37604269      -0.19420311 </v>
   <v>      -0.22856840       1.01711900       0.12891474 </v>
   <v>       0.32145777       0.93895631      -1.39684599 </v>
   <v>      -1.33626550      -2.40573700      -1.78623051 </v>
   <v>       2.03955714      -2.29072821      -0.47660422 </v>
   <v>       0.75050384       1.43441300       0.52850591 </v>
   <v>      -0.71843431       2.10088200       1.77864799 </v>
   <v>       0.10413461      -0.17795798       0.84938958 </v>
   <v>       1.34377774       4.31390596       2.31994467 </v>
   <v>       2.82238695       1.52971772      -2.81939687 </v>
   <v>      -2.92429246       2.75306266       1.63985090 </v>
   <v>       2.82341158      -3.01686651       0.69675783 </v>
   <v>      -3.03203016       2.71525948      -1.12617063 </v>
   <v>     -12.63367261      -0.17202711      -6.62666418 </v>
   <v>       0.88438825       0.73218035      -0.64924942 </v>
   <v>      -0.45096758      -2.18171035       3.41578880 </v>
   <v>       3.27191974       3.16614420      -1.88994034 </v>
   <v>       1.21647487       2.07737676       5.82551493 </v>
   <v>      -2.44635411      -7.48271405      -1.76264645 </v>
   <v>       8.73424229      -0.66167128       2.72391649 </v>
   <v>       1.14211497      -2.95207709       0.03307912 </v>
   <v>      -0.69630939      -1.21667793      -8.67218875 </v>
   <v>       1.86792873       0.73020674       1.18651362 </v>
   <v>       2.06131843       4.46167142       2.38204013 </v>
   <v>       5.34158587      -0.64341756       4.14769508 </v>
   <v>       0.04637563      -0.10570083      -0.55614180 </v>
   <v>       1.53422742      -2.71896492       3.41498372 </v>
   <v>      -3.42661922      -2.73114142      -1.47107257 </v>
   <v>      -0.04525603       6.83407298      -2.50900140 </v>
   <v>      -1.14600732      -6.79252250      -0.57725276 </v>
   <v>      -3.47153398      -4.20440572      -2.90451306 </v>
   <v>       2.38226095       1.70509670       0.57146886 </v>
   <v>      -6.10529088       5.32532854      -0.89824092 </v>
   <v>       0.23565186      -1.90349171       0.07682218 </v>
   <v>       0.77112120       0.74227085      -2.51494690 </v>
   <v>      -3.09108459       2.76216575      -4.97307686 </v>
   <v>      -1.30775553       5.50129195      -0.98241391 </v>
   <v>       0.62455812       1.48108410       3.50262229 </v>
   <v>      -2.97570410       0.82044145      -0.83320792 </v>
   <v>       3.26980999      -3.13176667       0.33891602 </v>
   <v>       5.08196880      -5.06680863       1.91240553 </v>
   <v>     -11.03719354       2.90032412       3.90857848 </v>
   <v>      -0.54461519      -1.08469562       0.75726969 </v>
   <v>      -1.23811656      -0.57219542       0.71642096 </v>
   <v>      -2.17514103      -3.14234457       0.39323124 </v>
   <v>      -1.51164433      -1.46247800      -0.56818410 </v>
   <v>      -2.75638371      -0.81903227       0.41987852 </v>
   <v>       1.65714451      -0.18501262      -2.07470635 </v>
   <v>       7.82503871       1.09555096       4.58092433 </v>
   <v>       1.83495266      -1.34345248      -4.42008764 </v>
   <v>      -1.02866210      -0.62670781       1.95063764 </v>
   <v>       0.90653040      -3.76385820      -0.03914003 </v>
   <v>      -2.73458344      -2.02974141       2.04074315 </v>
   <v>       0.77809931      -0.77778408       1.64229814 </v>
   <v>      -1.65132138      -3.50460366      -1.65530552 </v>
   <v>       0.84158519       2.10074584      -1.93414819 </v>
   <v>      -1.12293832       2.29752288       0.19905923 </v>
   <v>      -1.97336263       1.27922295      -1.80448307 </v>
   <v>       3.61275209       1.58939607      -2.03390471 </v>
   <v>       0.63466299      -0.63277945      -2.79697199 </v>
   <v>      -0.31586059      -2.24934758      -1.80667838 </v>
   <v>      -0.57679457      -1.00663426       0.18428509 </v>
   <v>      -0.86283344       1.56030241      -1.29487347 </v>
   <v>       1.40116644       1.33459138      -0.11327504 </v>
   <v>       3.55448531      -0.21557347      -1.06003721 </v>
   <v>      -0.78474123      -1.09806504       1.08083851 </v>
   <v>      -1.03747845       1.17471382      -2.02335793 </v>
   <v>      -1.42160495      -3.98753270      -1.38379571 </v>
   <v>       2.96015881       3.52997182      -1.34301209 </v>
   <v>      -1.91347430      -2.61591382       2.28511259 </v>
   <v>       0.43492702       1.28737360      -3.27369375 </v>
   <v>       1.60996493       3.93165830      -0.60528516 </v>
   <v>       0.34194757       0.93357087       1.55834058 </v>
   <v>      -1.78926283       0.88726958       0.45049634 </v>
   <v>       2.57397269      -2.11715965       0.53000023 </v>
   <v>       1.32386811      -0.69707516      -1.79857066 </v>
   <v>       0.68169835       0.54599432       2.26381682 </v>
   <v>       0.95480616      -0.15444128       0.33200737 </v>
   <v>      -0.68408285       2.71134197       3.80085892 </v>
   <v>      -2.64379877       5.03809329      -0.04067188 </v>
   <v>       1.40868595      -0.81415978      -2.03404231 </v>
   <v>      -2.50546534       2.36980609      -2.40765598 </v>
   <v>      -3.55409130       1.26926924      -0.60726310 </v>
   <v>       2.62742536      -2.90702804       1.86911154 </v>
   <v>      -0.99233170      -1.00836798      -0.81422924 </v>
   <v>      -1.22752543      -1.48703243       2.08930416 </v>
   <v>       0.09280485       0.92438062      -0.00543406 </v>
   <v>      -0.28721964       1.16922075       1.14011024 </v>
   <v>      -1.61132316      -1.26242633       1.85285212 </v>
   <v>       0.40410125      -1.48204391      -0.51541927 </v>
   <v>      -0.68038131      -1.81638612       0.70587760 </v>
   <v>       3.98187269       0.02684062       2.02365281 </v>
   <v>       0.41851437      -1.50907526       1.39597384 </v>
   <v>       1.94569695       3.30228950      -2.64384726 </v>
   <v>      -0.91840921       2.34361846       0.23628140 </v>
   <v>      -0.38685688      -2.97192067       1.89863292 </v>
   <v>       2.54101147       3.92875288       3.10919263 </v>
   <v>       1.73303633       1.44472142       1.62163567 </v>
   <v>       0.49883626       1.75250117      -0.72540344 </v>
   <v>       2.61332815      -1.70508705      -3.30277985 </v>
   <v>       3.73520037      -0.82344149      -0.19741177 </v>
   <v>       0.87977334      -2.80099405       0.31172934 </v>
   <v>      -1.91347255       1.16652980       2.21997782 </v>
   <v>       1.34884889      -3.62941326       0.45874412 </v>
   <v>       0.88359882       3.32364292       1.61640874 </v>
   <v>       0.32379496      -0.35550458      -0.14974485 </v>
   <v>      -2.22619705      -1.06465916      -0.92011222 </v>
   <v>      -5.77248417       2.52243980      -1.37622773 </v>
   <v>      -0.68221853      -1.43199691      -0.86383226 </v>
   <v>       0.66229566      -0.40798637       2.86318380 </v>
   <v>      -1.05612006       3.47973863       0.91136321 </v>
   <v>       5.00103703      -2.38088221      -3.84174903 </v>
   <v>      -0.53905279       1.82888814      -1.51203156 </v>
   <v>       0.18162668       0.07053854      -4.36640650 </v>
   <v>      -0.63017108       0.28368910       2.09531226 </v>
   <v>       0.92043913      -0.59194575      -3.60642048 </v>
  </varray>
  <varray name="stress" >
   <v>      -9.72775894     -13.02918457       6.40266060 </v>
   <v>     -13.02918454     -30.53672111      -3.05275230 </v>
   <v>       6.40266059      -3.05275231       6.65231491 </v>
  </varray>
  <energy>
[...]
       <r>     1.2500    32.0313   835.0980 </r>
       <r>     1.4233    44.9533   842.8899 </r>
       <r>     1.5966     6.4090   844.0008 </r>
       <r>     1.7700    14.2800   846.4760 </r>
       <r>     1.9433    25.1083   850.8280 </r>
       <r>     2.1166    26.6112   855.4406 </r>
       <r>     2.2900    19.2252   858.7730 </r>
       <r>     2.4633    26.2027   863.3148 </r>
       <r>     2.6366    23.3940   867.3698 </r>
       <r>     2.8100    21.7814   871.1452 </r>
       <r>     2.9833    17.1421   874.1165 </r>
       <r>     3.1566    15.8984   876.8722 </r>
       <r>     3.3300    19.9392   880.3283 </r>
       <r>     3.5033     9.8656   882.0384 </r>
       <r>     3.6766    22.2199   885.8898 </r>
       <r>     3.8500    23.6896   889.9960 </r>
       <r>     4.0233    17.2738   892.9901 </r>
       <r>     4.1966    37.8599   899.5525 </r>
       <r>     4.3700    32.7096   905.2222 </r>
       <r>     4.5433    30.8467   910.5689 </r>
       <r>     4.7166    42.0648   917.8602 </r>
       <r>     4.8900    50.1833   926.5586 </r>
       <r>     5.0633    56.5686   936.3638 </r>
       <r>     5.2366    56.1381   946.0944 </r>
       <r>     5.4100    66.9500   957.6991 </r>
       <r>     5.5833    68.3498   969.5463 </r>
       <r>     5.7566    72.3500   982.0870 </r>
       <r>     5.9300    68.5403   993.9673 </r>
       <r>     6.1033    81.0469  1008.0154 </r>
       <r>     6.2766    84.1551  1022.6023 </r>
       <r>     6.4500    78.0982  1036.1393 </r>
       <r>     6.6233    22.2708  1039.9995 </r>
       <r>     6.7966     0.0026  1040.0000 </r>
       <r>     6.9700     0.0000  1040.0000 </r>
       <r>     7.1433     0.0000  1040.0000 </r>
       <r>     7.3166     0.0000  1040.0000 </r>
       <r>     7.4900     0.0000  1040.0000 </r>
       <r>     7.6633     0.0000  1040.0000 </r>
       <r>     7.8366     0.0000  1040.0000 </r>
       <r>     8.0100     0.0000  1040.0000 </r>
       <r>     8.1833     0.0000  1040.0000 </r>
       <r>     8.3566     0.0000  1040.0000 </r>
       <r>     8.5300     0.0000  1040.0000 </r>
       <r>     8.7033     0.0000  1040.0000 </r>
       <r>     8.8766     0.0000  1040.0000 </r>
      </set>
     </set>
    </array>
   </total>
  </dos>
 </calculation>
 <structure name="finalpos" >
  <crystal>
   <varray name="basis" >
    <v>      13.31093562       0.00000000       0.00000000 </v>
    <v>       0.00000000      13.31093562       0.00000000 </v>
    <v>       0.00000000       0.00000000      13.31093562 </v>
   </varray>
   <i name="volume">   2358.44497833 </i>
   <varray name="rec_basis" >
    <v>       0.07512620       0.00000000       0.00000000 </v>
    <v>       0.00000000       0.07512620       0.00000000 </v>
    <v>       0.00000000       0.00000000       0.07512620 </v>
   </varray>
  </crystal>
  <varray name="positions" >
   <v>       0.13732984       0.84692299       0.80083390 </v>
   <v>       0.89212656       0.27582339       0.81066555 </v>
   <v>       0.14400286       0.41079347       0.72271149 </v>
   <v>       0.62599185       0.65657607       0.78633439 </v>
   <v>       0.11444201       0.09001480       0.37843328 </v>
   <v>       0.09785435       0.51799572       0.37849165 </v>
   <v>       0.92147278       0.73505780       0.72490663 </v>
   <v>       0.21802184       0.36822097       0.98453790 </v>
   <v>       0.43352705       0.83355819       0.69706014 </v>
   <v>       0.88277409       0.42189747       0.57035157 </v>
   <v>       0.49264844       0.89006231       0.43032521 </v>
   <v>       0.44930572       0.40299997       0.95542022 </v>
   <v>       0.91683685       0.89126764       0.54860365 </v>
   <v>       0.40434622       0.39631940       0.41354133 </v>
   <v>       0.70629338       0.54328716       0.41895905 </v>
   <v>       0.25169358       0.89603288       0.50763021 </v>
   <v>       0.10719852       0.64098817       0.96288091 </v>
   <v>       0.71395084       0.22552790       0.96455909 </v>
   <v>       0.79567597       0.25323607       0.27415614 </v>
   <v>       0.99197762       0.84251342       0.34896969 </v>
   <v>       0.75926317       0.91104546       0.36130218 </v>
   <v>       0.32211683       0.94106689       0.18750324 </v>
   <v>       0.51958794       0.22276218       0.22226522 </v>
   <v>       0.65401574       0.64754924       0.09270207 </v>
   <v>       0.44591216       0.61797537       0.25740912 </v>
   <v>       0.26009985       0.02303180       0.66545499 </v>
   <v>       0.51492591       0.09396655       0.55155232 </v>
   <v>       0.31319584       0.06441942       0.39000966 </v>
   <v>       0.93264397       0.90351582       0.93123440 </v>
   <v>       0.47955783       0.12546241       0.83452525 </v>
   <v>       0.61526562       0.41436187       0.23864116 </v>
   <v>       0.73094900       0.29868922       0.70603776 </v>
   <v>       0.52994632       0.88134306       0.91872519 </v>
   <v>       0.49730232       0.61189624       0.52522925 </v>
   <v>       0.36761899       0.16216622       0.03331758 </v>
   <v>       0.00441469       0.07768043       0.55883055 </v>
   <v>       0.82074344       0.95942505       0.12369874 </v>
   <v>       0.85628511       0.70363575       0.54056441 </v>
   <v>       0.24092879       0.75141377       0.32187796 </v>
   <v>       0.56709796       0.45502464       0.64108236 </v>
   <v>       0.94640126       0.35764963       0.12949828 </v>
   <v>       0.30292867       0.58220235       0.91841855 </v>
   <v>       0.06717955       0.88288617       0.12139139 </v>
   <v>       0.26672723       0.61124384       0.49422965 </v>
   <v>       0.96745789       0.28008549       0.43604840 </v>
   <v>       0.28332856       0.26984268       0.77536897 </v>
   <v>       0.64067072       0.85699260       0.20675247 </v>
   <v>       0.28491881       0.81724467       0.99635814 </v>
   <v>       0.88114514       0.63042291       0.10144006 </v>
   <v>       0.09765294       0.61520010       0.67283011 </v>
   <v>       0.86980655       0.65094961       0.91327252 </v>
   <v>       0.25539131       0.52562263       0.16800783 </v>
   <v>       0.76809226       0.09101394       0.59330643 </v>
   <v>       0.16886272       0.12792197       0.17196396 </v>
   <v>       0.21254034       0.69192880       0.43743767 </v>
   <v>       0.39191220       0.26899852       0.07380511 </v>
   <v>       0.94512515       0.38643203       0.23793404 </v>
   <v>       0.62612692       0.53380089       0.21581689 </v>
   <v>       0.42597086       0.11552740       0.13085161 </v>
   <v>       0.31697065       0.43665481       0.18126060 </v>
   <v>       0.89190834       0.05095053       0.53879733 </v>
   <v>       0.10853033       0.01503785       0.16131042 </v>
   <v>       0.89005589       0.79711619       0.88007347 </v>
   <v>       0.42171103       0.15384186       0.39843969 </v>
   <v>       0.70999121       0.40969190       0.32427044 </v>
   <v>       0.76504366       0.85699320       0.15879773 </v>
   <v>       0.96075026       0.59857819       0.86475715 </v>
   <v>       0.61994024       0.91664255       0.96447356 </v>
   <v>       0.22876522       0.08634877       0.51264315 </v>
   <v>       0.03306763       0.19973160       0.52609747 </v>
   <v>       0.48680098       0.24953499       0.90407872 </v>
   <v>       0.99937911       0.96432851       0.83761161 </v>
   <v>       0.06073215       0.01848282       0.63975671 </v>
   <v>       0.21456291       0.26176220       0.88228535 </v>
   <v>       0.30864397       0.38259583       0.82181702 </v>
   <v>       0.41768340       0.54696066       0.91907723 </v>
   <v>       0.52197448       0.46512478       0.52350372 </v>
   <v>       0.58324692       0.10234081       0.79340101 </v>
   <v>       0.99429523       0.20113569       0.35404197 </v>
   <v>       0.35224828       0.79997179       0.42002796 </v>
   <v>       0.85743133       0.28246673       0.09360013 </v>
   <v>       0.66324638       0.91286209       0.48754830 </v>
   <v>       0.68837938       0.01370914       0.63654994 </v>
   <v>       0.80951209       0.38682350       0.73292167 </v>
   <v>       0.32580952       0.74467535       0.22806055 </v>
   <v>       0.26342789       0.09546829       0.09710709 </v>
   <v>       0.24643896       0.92613396       0.91763975 </v>
   <v>       0.49872823       0.35128793       0.30195266 </v>
   <v>       0.56191479       0.67625217       0.43038159 </v>
   <v>       0.22991572       0.53492509       0.04565878 </v>
   <v>       0.82810162       0.51329388       0.07955029 </v>
   <v>       0.84454085       0.27750235       0.44592046 </v>
   <v>       0.34048499       0.53982877       0.42316155 </v>
   <v>       0.15928426       0.59672900       0.56730387 </v>
   <v>       0.40696896       0.97919987       0.61113133 </v>
   <v>       0.22064171       0.85162671       0.65185328 </v>
   <v>       0.15344620       0.55973958       0.22521844 </v>
   <v>       0.85079560       0.66261714       0.20405376 </v>
   <v>       0.80466567       0.73509971       0.64295677 </v>
   <v>       0.57929111       0.92283935       0.29014463 </v>
   <v>       0.97526210       0.66309146       0.56850282 </v>
   <v>       0.76264922       0.60843280       0.90038515 </v>
   <v>       0.37974768       0.89768378       0.01421472 </v>
   <v>       0.80853085       0.05279980       0.19978981 </v>
   <v>       0.19326873       0.85171869       0.07854331 </v>
   <v>       0.51539086       0.40319828       0.73355131 </v>
   <v>       0.28382457       0.70123690       0.95413143 </v>
   <v>       0.48406769       0.97728619       0.83417664 </v>
   <v>       0.37210286       0.17237437       0.78221049 </v>
   <v>       0.67544132       0.38337704       0.61525684 </v>
   <v>       0.46566229       0.78478038       0.84449545 </v>
   <v>       0.65216552       0.02843703       0.43824497 </v>
   <v>       0.30317654       0.94382848       0.37243779 </v>
   <v>       0.23553540       0.23660453       0.66992493 </v>
   <v>       0.00162274       0.40849490       0.43824415 </v>
   <v>       0.07180147       0.71746614       0.70956901 </v>
   <v>       0.83532667       0.76094035       0.42854907 </v>
   <v>       0.78197375       0.18701639       0.66944356 </v>
   <v>       0.76975372       0.60092899       0.55910776 </v>
   <v>       0.00758865       0.52574013       0.69023537 </v>
   <v>       0.12409935       0.24365824       0.16534887 </v>
   <v>       0.64965467       0.32346372       0.14504850 </v>
   <v>       0.38155888       0.68314165       0.55412574 </v>
   <v>       0.57156206       0.75004887       0.16645727 </v>
   <v>       0.70850436       0.27037153       0.82171381 </v>
   <v>       0.22577832       0.58420208       0.82906252 </v>
   <v>       0.13634746       0.77222743       0.28991792 </v>
   <v>       0.02785078       0.88495100       0.00965425 </v>
   <v>       0.99157967       0.38850284       0.98284426 </v>
   <v>       0.58638293       0.57697777       0.63381905 </v>
   <v>       0.99447846       0.98995782       0.45847265 </v>
   <v>       0.24652485       0.08947402       0.28795942 </v>
   <v>       0.86578971       0.96590564       0.01935109 </v>
   <v>       0.94506206       0.68704017       0.01501638 </v>
   <v>       0.95563836       0.90361654       0.21439934 </v>
  </varray>
  <varray name="velocities" >
   <v>       0.00000000       0.00000000       0.00000000 </v>
   <v>       0.00000000       0.00000000       0.00000000 </v>
   <v>       0.00000000       0.00000000       0.00000000 </v>
   <v>       0.00000000       0.00000000       0.00000000 </v>
   <v>       0.00000000       0.00000000       0.00000000 </v>
   <v>       0.00000000       0.00000000       0.00000000 </v>
   <v>       0.00000000       0.00000000       0.00000000 </v>
   <v>       0.00000000       0.00000000       0.00000000 </v>
   <v>       0.00000000       0.00000000       0.00000000 </v>
   <v>       0.00000000       0.00000000       0.00000000 </v>
   <v>       0.00000000       0.00000000       0.00000000 </v>
   <v>       0.00000000       0.00000000       0.00000000 </v>
   <v>       0.00000000       0.00000000       0.00000000 </v>
   <v>       0.00000000       0.00000000       0.00000000 </v>
   <v>       0.00000000       0.00000000       0.00000000 </v>
   <v>       0.00000000       0.00000000       0.00000000 </v>
   <v>       0.00000000       0.00000000       0.00000000 </v>
   <v>       0.00000000       0.00000000       0.00000000 </v>
   <v>       0.00000000       0.00000000       0.00000000 </v>
   <v>       0.00000000       0.00000000       0.00000000 </v>
   <v>       0.00000000       0.00000000       0.00000000 </v>
   <v>       0.00000000       0.00000000       0.00000000 </v>
   <v>       0.00000000       0.00000000       0.00000000 </v>
   <v>       0.00000000       0.00000000       0.00000000 </v>
   <v>       0.00000000       0.00000000       0.00000000 </v>
   <v>       0.00000000       0.00000000       0.00000000 </v>
   <v>       0.00000000       0.00000000       0.00000000 </v>
   <v>       0.00000000       0.00000000       0.00000000 </v>
   <v>       0.00000000       0.00000000       0.00000000 </v>
   <v>       0.00000000       0.00000000       0.00000000 </v>
   <v>       0.00000000       0.00000000       0.00000000 </v>
   <v>       0.00000000       0.00000000       0.00000000 </v>
   <v>       0.00000000       0.00000000       0.00000000 </v>
   <v>       0.00000000       0.00000000       0.00000000 </v>
   <v>       0.00000000       0.00000000       0.00000000 </v>
   <v>       0.00000000       0.00000000       0.00000000 </v>
   <v>       0.00000000       0.00000000       0.00000000 </v>
   <v>       0.00000000       0.00000000       0.00000000 </v>
   <v>       0.00000000       0.00000000       0.00000000 </v>
   <v>       0.00000000       0.00000000       0.00000000 </v>
   <v>       0.00000000       0.00000000       0.00000000 </v>
   <v>       0.00000000       0.00000000       0.00000000 </v>
   <v>       0.00000000       0.00000000       0.00000000 </v>
   <v>       0.00000000       0.00000000       0.00000000 </v>
   <v>       0.00000000       0.00000000       0.00000000 </v>
   <v>       0.00000000       0.00000000       0.00000000 </v>
   <v>       0.00000000       0.00000000       0.00000000 </v>
   <v>       0.00000000       0.00000000       0.00000000 </v>
   <v>       0.00000000       0.00000000       0.00000000 </v>
   <v>       0.00000000       0.00000000       0.00000000 </v>
   <v>       0.00000000       0.00000000       0.00000000 </v>
   <v>       0.00000000       0.00000000       0.00000000 </v>
   <v>       0.00000000       0.00000000       0.00000000 </v>
   <v>       0.00000000       0.00000000       0.00000000 </v>
   <v>       0.00000000       0.00000000       0.00000000 </v>
   <v>       0.00000000       0.00000000       0.00000000 </v>
   <v>       0.00000000       0.00000000       0.00000000 </v>
   <v>       0.00000000       0.00000000       0.00000000 </v>
   <v>       0.00000000       0.00000000       0.00000000 </v>
   <v>       0.00000000       0.00000000       0.00000000 </v>
   <v>       0.00000000       0.00000000       0.00000000 </v>
   <v>       0.00000000       0.00000000       0.00000000 </v>
   <v>       0.00000000       0.00000000       0.00000000 </v>
   <v>       0.00000000       0.00000000       0.00000000 </v>
   <v>       0.00000000       0.00000000       0.00000000 </v>
   <v>       0.00000000       0.00000000       0.00000000 </v>
   <v>       0.00000000       0.00000000       0.00000000 </v>
   <v>       0.00000000       0.00000000       0.00000000 </v>
   <v>       0.00000000       0.00000000       0.00000000 </v>
   <v>       0.00000000       0.00000000       0.00000000 </v>
   <v>       0.00000000       0.00000000       0.00000000 </v>
   <v>       0.00000000       0.00000000       0.00000000 </v>
   <v>       0.00000000       0.00000000       0.00000000 </v>
   <v>       0.00000000       0.00000000       0.00000000 </v>
   <v>       0.00000000       0.00000000       0.00000000 </v>
   <v>       0.00000000       0.00000000       0.00000000 </v>
   <v>       0.00000000       0.00000000       0.00000000 </v>
   <v>       0.00000000       0.00000000       0.00000000 </v>
   <v>       0.00000000       0.00000000       0.00000000 </v>
   <v>       0.00000000       0.00000000       0.00000000 </v>
   <v>       0.00000000       0.00000000       0.00000000 </v>
   <v>       0.00000000       0.00000000       0.00000000 </v>
   <v>       0.00000000       0.00000000       0.00000000 </v>
   <v>       0.00000000       0.00000000       0.00000000 </v>
   <v>       0.00000000       0.00000000       0.00000000 </v>
   <v>       0.00000000       0.00000000       0.00000000 </v>
   <v>       0.00000000       0.00000000       0.00000000 </v>
   <v>       0.00000000       0.00000000       0.00000000 </v>
   <v>       0.00000000       0.00000000       0.00000000 </v>
   <v>       0.00000000       0.00000000       0.00000000 </v>
   <v>       0.00000000       0.00000000       0.00000000 </v>
   <v>       0.00000000       0.00000000       0.00000000 </v>
   <v>       0.00000000       0.00000000       0.00000000 </v>
   <v>       0.00000000       0.00000000       0.00000000 </v>
   <v>       0.00000000       0.00000000       0.00000000 </v>
   <v>       0.00000000       0.00000000       0.00000000 </v>
   <v>       0.00000000       0.00000000       0.00000000 </v>
   <v>       0.00000000       0.00000000       0.00000000 </v>
   <v>       0.00000000       0.00000000       0.00000000 </v>
   <v>       0.00000000       0.00000000       0.00000000 </v>
   <v>       0.00000000       0.00000000       0.00000000 </v>
   <v>       0.00000000       0.00000000       0.00000000 </v>
   <v>       0.00000000       0.00000000       0.00000000 </v>
   <v>       0.00000000       0.00000000       0.00000000 </v>
   <v>       0.00000000       0.00000000       0.00000000 </v>
   <v>       0.00000000       0.00000000       0.00000000 </v>
   <v>       0.00000000       0.00000000       0.00000000 </v>
   <v>       0.00000000       0.00000000       0.00000000 </v>
   <v>       0.00000000       0.00000000       0.00000000 </v>
   <v>       0.00000000       0.00000000       0.00000000 </v>
   <v>       0.00000000       0.00000000       0.00000000 </v>
   <v>       0.00000000       0.00000000       0.00000000 </v>
   <v>       0.00000000       0.00000000       0.00000000 </v>
   <v>       0.00000000       0.00000000       0.00000000 </v>
   <v>       0.00000000       0.00000000       0.00000000 </v>
   <v>       0.00000000       0.00000000       0.00000000 </v>
   <v>       0.00000000       0.00000000       0.00000000 </v>
   <v>       0.00000000       0.00000000       0.00000000 </v>
   <v>       0.00000000       0.00000000       0.00000000 </v>
   <v>       0.00000000       0.00000000       0.00000000 </v>
   <v>       0.00000000       0.00000000       0.00000000 </v>
   <v>       0.00000000       0.00000000       0.00000000 </v>
   <v>       0.00000000       0.00000000       0.00000000 </v>
   <v>       0.00000000       0.00000000       0.00000000 </v>
   <v>       0.00000000       0.00000000       0.00000000 </v>
   <v>       0.00000000       0.00000000       0.00000000 </v>
   <v>       0.00000000       0.00000000       0.00000000 </v>
   <v>       0.00000000       0.00000000       0.00000000 </v>
   <v>       0.00000000       0.00000000       0.00000000 </v>
   <v>       0.00000000       0.00000000       0.00000000 </v>
   <v>       0.00000000       0.00000000       0.00000000 </v>
   <v>       0.00000000       0.00000000       0.00000000 </v>
   <v>       0.00000000       0.00000000       0.00000000 </v>
   <v>       0.00000000       0.00000000       0.00000000 </v>
   <v>       0.00000000       0.00000000       0.00000000 </v>
  </varray>
 </structure>
</modeling>
