 running on   52 total cores
 distrk:  each k-point on   52 cores,    1 groups
 distr:  one band on   13 cores,    4 groups
 using from now: INCAR     
 vasp.5.4.4.18Apr17-6-g9f103f2a35 (build Oct 31 2019 15:01:46) complex          
  
 POSCAR found type information on POSCAR  Ca Si O 
 POSCAR found :  3 types and     135 ions
 scaLAPACK is switched off
 LDA part: xc-table for Pade appr. of Perdew
 generate k-points for:    2    2    2
 POSCAR, INCAR and KPOINTS ok, starting setup
 FFT: planning ...
 WAVECAR not read
 entering main loop
       N       E                     dE             d eps       ncg     rms          rms(c)
DAV:   1     0.974149189031E+04    0.97415E+04   -0.48391E+05  8320   0.185E+03
DAV:   2     0.904333607512E+02   -0.96511E+04   -0.93261E+04  9712   0.499E+02
DAV:   3    -0.981924157104E+03   -0.10724E+04   -0.10638E+04 10312   0.168E+02
DAV:   4    -0.103377281327E+04   -0.51849E+02   -0.51641E+02 11304   0.334E+01
DAV:   5    -0.103906603259E+04   -0.52932E+01   -0.52901E+01 14224   0.790E+00    0.848E+01
DAV:   6    -0.894740622407E+03    0.14433E+03   -0.64489E+02  9864   0.405E+01    0.362E+01
DAV:   7    -0.896817580686E+03   -0.20770E+01   -0.74860E+01 10856   0.141E+01    0.179E+01
DAV:   8    -0.895631773724E+03    0.11858E+01   -0.12259E+01 10568   0.633E+00    0.783E+00
DAV:   9    -0.895764571942E+03   -0.13280E+00   -0.26361E+00 10872   0.345E+00    0.980E+00
DAV:  10    -0.895383268905E+03    0.38130E+00   -0.78990E-01 10896   0.178E+00    0.274E+00
DAV:  11    -0.895388352623E+03   -0.50837E-02   -0.33036E-01 10440   0.111E+00    0.172E+00
DAV:  12    -0.895385981878E+03    0.23707E-02   -0.98880E-02 10912   0.611E-01    0.131E+00
DAV:  13    -0.895375316145E+03    0.10666E-01   -0.36417E-02 11448   0.385E-01    0.103E+00
DAV:  14    -0.895366081777E+03    0.92344E-02   -0.17258E-02 11048   0.278E-01    0.190E-01
DAV:  15    -0.895366755223E+03   -0.67345E-03   -0.48458E-03 10064   0.120E-01    0.259E-01
DAV:  16    -0.895366608214E+03    0.14701E-03   -0.14354E-03 11880   0.588E-02    0.963E-02
DAV:  17    -0.895366650152E+03   -0.41939E-04   -0.75480E-04  9520   0.464E-02    0.411E-02
DAV:  18    -0.895366692514E+03   -0.42362E-04   -0.36357E-04 11344   0.371E-02    0.582E-02
DAV:  19    -0.895366678608E+03    0.13906E-04   -0.19407E-04 10240   0.188E-02    0.334E-02
DAV:  20    -0.895366679072E+03   -0.46416E-06   -0.33928E-05  9888   0.110E-02    0.109E-02
DAV:  21    -0.895366680129E+03   -0.10567E-05   -0.14432E-05 10896   0.696E-03    0.821E-03
DAV:  22    -0.895366679952E+03    0.17726E-06   -0.31531E-06  7064   0.400E-03
   1 F= -.89536668E+03 E0= -.89535571E+03  d E =-.219425E-01
