 vasp.5.4.4.18Apr17-6-g9f103f2a35 (build Oct 31 2019 15:01:46) complex          
  
 executed on             LinuxIFC date 2024.04.29  23:32:16
 running on   52 total cores
 distrk:  each k-point on   52 cores,    1 groups
 distr:  one band on NCORES_PER_BAND=  13 cores,    4 groups


--------------------------------------------------------------------------------------------------------


 INCAR:
 POTCAR:    PAW_PBE Ca_sv 06Sep2000               
 POTCAR:    PAW_PBE Si 05Jan2001                  
 POTCAR:    PAW_PBE O 08Apr2002                   
 POTCAR:    PAW_PBE Ca_sv 06Sep2000               
   SHA256 =  a47365830e737f14e0e6c5cf1ed81b94e081eecf0a33df105380881bc9da05d5 Ca
   COPYR  = (c) Copyright 06Sep2000 Georg Kresse                                
   COPYR  = This file is part of the software VASP. Any use, copying, and all ot
   COPYR  = If you do not have a valid VASP license, you may not use, copy or di
   VRHFIN =Ca: 3s3p4s                                                           
   LEXCH  = PE                                                                  
   EATOM  =  1006.0909 eV,   73.9456 Ry                                         
                                                                                
   TITEL  = PAW_PBE Ca_sv 06Sep2000                                             
   LULTRA =        F    use ultrasoft PP ?                                      
   IUNSCR =        1    unscreen: 0-lin 1-nonlin 2-no                           
   RPACOR =    2.000    partial core radius                                     
   POMASS =   40.078; ZVAL   =   10.000    mass and valenz                      
   RCORE  =    2.300    outmost cutoff radius                                   
   RWIGS  =    2.500; RWIGS  =    1.323    wigner-seitz radius (au A)           
   ENMAX  =  266.622; ENMIN  =  199.967 eV                                      
   RCLOC  =    1.808    cutoff for local pot                                    
   LCOR   =        T    correct aug charges                                     
   LPAW   =        T    paw PP                                                  
   EAUG   =  420.852                                                            
   RMAX   =    2.359    core radius for proj-oper                               
   RAUG   =    1.300    factor for augmentation sphere                          
   RDEP   =    2.392    radius for radial grids                                 
   RDEPT  =    1.987    core radius for aug-charge                              
                                                                                
   Atomic configuration                                                         
    7 entries                                                                   
     n  l   j            E        occ.                                          
     1  0  0.50     -3949.1705   2.0000                                         
     2  0  0.50      -414.3434   2.0000                                         
     2  1  1.50      -334.7047   6.0000                                         
     3  0  0.50       -47.0896   2.0000                                         
     4  0  0.50        -3.7663   2.0000                                         
     3  1  1.50       -28.0061   6.0000                                         
     3  2  1.50        -4.0817   0.0000                                         
   Description                                                                  
     l       E           TYP  RCUT    TYP  RCUT                                 
     0    -47.0896403     23  2.300                                             
     0     -3.7663320     23  2.300                                             
     1    -28.0060855     23  2.300                                             
     1      6.8029130     23  2.300                                             
     2     -4.0817478     23  2.300                                             
     2      0.4464412     23  2.300                                             
  local pseudopotential read in
  partial core-charges read in
  partial kinetic energy density read in
  atomic valenz-charges read in
  non local Contribution for L=           0  read in
    real space projection operators read in
  non local Contribution for L=           0  read in
    real space projection operators read in
  non local Contribution for L=           1  read in
    real space projection operators read in
  non local Contribution for L=           1  read in
    real space projection operators read in
  non local Contribution for L=           2  read in
    real space projection operators read in
  non local Contribution for L=           2  read in
    real space projection operators read in
    PAW grid and wavefunctions read in
 
   number of l-projection  operators is LMAX  =           6
   number of lm-projection operators is LMMAX =          18
 
 POTCAR:    PAW_PBE Si 05Jan2001                  
   SHA256 =  79d9987ad8750f624c4d6acb2a16d13abf6a777132adc04dc6c8399be72b42bb Si
   COPYR  = (c) Copyright 05Jan2001 Georg Kresse                                
   COPYR  = This file is part of the software VASP. Any use, copying, and all ot
   COPYR  = If you do not have a valid VASP license, you may not use, copy or di
   VRHFIN =Si: s2p2                                                             
   LEXCH  = PE                                                                  
   EATOM  =   103.0669 eV,    7.5752 Ry                                         
                                                                                
   TITEL  = PAW_PBE Si 05Jan2001                                                
   LULTRA =        F    use ultrasoft PP ?                                      
   IUNSCR =        1    unscreen: 0-lin 1-nonlin 2-no                           
   RPACOR =    1.500    partial core radius                                     
   POMASS =   28.085; ZVAL   =    4.000    mass and valenz                      
   RCORE  =    1.900    outmost cutoff radius                                   
   RWIGS  =    2.480; RWIGS  =    1.312    wigner-seitz radius (au A)           
   ENMAX  =  245.345; ENMIN  =  184.009 eV                                      
   ICORE  =        2    local potential                                         
   LCOR   =        T    correct aug charges                                     
   LPAW   =        T    paw PP                                                  
   EAUG   =  322.069                                                            
   DEXC   =    0.000                                                            
   RMAX   =    1.950    core radius for proj-oper                               
   RAUG   =    1.300    factor for augmentation sphere                          
   RDEP   =    1.993    radius for radial grids                                 
   RDEPT  =    1.837    core radius for aug-charge                              
                                                                                
   Atomic configuration                                                         
    6 entries                                                                   
     n  l   j            E        occ.                                          
     1  0  0.50     -1785.8828   2.0000                                         
     2  0  0.50      -139.4969   2.0000                                         
     2  1  1.50       -95.5546   6.0000                                         
     3  0  0.50       -10.8127   2.0000                                         
     3  1  0.50        -4.0811   2.0000                                         
     3  2  1.50        -4.0817   0.0000                                         
   Description                                                                  
     l       E           TYP  RCUT    TYP  RCUT                                 
     0    -10.8127223     23  1.900                                             
     0     -7.6451159     23  1.900                                             
     1     -4.0811372     23  1.900                                             
     1      2.4879257     23  1.900                                             
     2     -4.0817478      7  1.900                                             
  local pseudopotential read in
  partial core-charges read in
  partial kinetic energy density read in
  atomic valenz-charges read in
  non local Contribution for L=           0  read in
    real space projection operators read in
  non local Contribution for L=           0  read in
    real space projection operators read in
  non local Contribution for L=           1  read in
    real space projection operators read in
  non local Contribution for L=           1  read in
    real space projection operators read in
    PAW grid and wavefunctions read in
 
   number of l-projection  operators is LMAX  =           4
   number of lm-projection operators is LMMAX =           8
 
 POTCAR:    PAW_PBE O 08Apr2002                   
   SHA256 =  818f92134a0a090dccd8ba1447fa70422a3b330e708bb4f08108d8ae51209ddf O/
   COPYR  = (c) Copyright 08Apr2002 Georg Kresse                                
   COPYR  = This file is part of the software VASP. Any use, copying, and all ot
   COPYR  = If you do not have a valid VASP license, you may not use, copy or di
   VRHFIN =O: s2p4                                                              
   LEXCH  = PE                                                                  
   EATOM  =   432.3788 eV,   31.7789 Ry                                         
                                                                                
   TITEL  = PAW_PBE O 08Apr2002                                                 
   LULTRA =        F    use ultrasoft PP ?                                      
   IUNSCR =        1    unscreen: 0-lin 1-nonlin 2-no                           
   RPACOR =    1.200    partial core radius                                     
   POMASS =   16.000; ZVAL   =    6.000    mass and valenz                      
   RCORE  =    1.520    outmost cutoff radius                                   
   RWIGS  =    1.550; RWIGS  =    0.820    wigner-seitz radius (au A)           
   ENMAX  =  400.000; ENMIN  =  300.000 eV                                      
   ICORE  =        2    local potential                                         
   LCOR   =        T    correct aug charges                                     
   LPAW   =        T    paw PP                                                  
   EAUG   =  605.392                                                            
   DEXC   =    0.000                                                            
   RMAX   =    1.553    core radius for proj-oper                               
   RAUG   =    1.300    factor for augmentation sphere                          
   RDEP   =    1.550    radius for radial grids                                 
   RDEPT  =    1.329    core radius for aug-charge                              
                                                                                
   Atomic configuration                                                         
    4 entries                                                                   
     n  l   j            E        occ.                                          
     1  0  0.50      -514.6923   2.0000                                         
     2  0  0.50       -23.9615   2.0000                                         
     2  1  0.50        -9.0305   4.0000                                         
     3  2  1.50        -9.5241   0.0000                                         
   Description                                                                  
     l       E           TYP  RCUT    TYP  RCUT                                 
     0    -23.9615318     23  1.200                                             
     0     -9.5240782     23  1.200                                             
     1     -9.0304911     23  1.520                                             
     1      8.1634956     23  1.520                                             
     2     -9.5240782      7  1.500                                             
  local pseudopotential read in
  partial core-charges read in
  partial kinetic energy density read in
  kinetic energy density of atom read in
  atomic valenz-charges read in
  non local Contribution for L=           0  read in
    real space projection operators read in
  non local Contribution for L=           0  read in
    real space projection operators read in
  non local Contribution for L=           1  read in
    real space projection operators read in
  non local Contribution for L=           1  read in
    real space projection operators read in
    PAW grid and wavefunctions read in
 
   number of l-projection  operators is LMAX  =           4
   number of lm-projection operators is LMMAX =           8
 
 Optimization of the real space projectors (new method)

 maximal supplied QI-value         = 16.25
 optimisation between [QCUT,QGAM] = [ 12.51, 25.03] = [ 43.85,175.40] Ry 
 Optimized for a Real-space Cutoff    1.47 Angstroem

   l    n(q)    QCUT    max X(q) W(low)/X(q) W(high)/X(q)  e(spline) 
   0     11    12.514    11.817    0.25E-04    0.32E-05    0.87E-07
   0     11    12.514     8.461    0.39E-04    0.59E-05    0.18E-06
   1     11    12.514     3.957    0.97E-05    0.57E-05    0.28E-07
   1     11    12.514     4.314    0.42E-04    0.14E-04    0.23E-06
   2     10    12.514    14.565    0.79E-04    0.50E-03    0.16E-05
   2     10    12.514    14.552    0.75E-04    0.48E-03    0.15E-05
 Optimization of the real space projectors (new method)

 maximal supplied QI-value         = 19.84
 optimisation between [QCUT,QGAM] = [ 12.50, 25.00] = [ 43.76,175.03] Ry 
 Optimized for a Real-space Cutoff    1.16 Angstroem

   l    n(q)    QCUT    max X(q) W(low)/X(q) W(high)/X(q)  e(spline) 
   0      9    12.501   159.560    0.10E-03    0.83E-04    0.71E-07
   0      9    12.501   115.863    0.99E-04    0.81E-04    0.70E-07
   1      8    12.501    88.339    0.20E-03    0.25E-03    0.76E-07
   1      8    12.501    48.592    0.20E-03    0.24E-03    0.75E-07
 Optimization of the real space projectors (new method)

 maximal supplied QI-value         = 24.76
 optimisation between [QCUT,QGAM] = [ 12.38, 25.00] = [ 42.90,175.06] Ry 
 Optimized for a Real-space Cutoff    1.16 Angstroem

   l    n(q)    QCUT    max X(q) W(low)/X(q) W(high)/X(q)  e(spline) 
   0      9    12.378    20.381    0.16E-03    0.67E-05    0.31E-06
   0      9    12.378    15.268    0.17E-03    0.81E-05    0.33E-06
   1      8    12.378     5.964    0.20E-03    0.16E-03    0.30E-06
   1      8    12.378     5.382    0.18E-03    0.14E-03    0.26E-06
  PAW_PBE Ca_sv 06Sep2000               :
 energy of atom  1       EATOM=-1006.0909
 kinetic energy error for atom=    0.0012 (will be added to EATOM!!)
  PAW_PBE Si 05Jan2001                  :
 energy of atom  2       EATOM= -103.0669
 kinetic energy error for atom=    0.0003 (will be added to EATOM!!)
  PAW_PBE O 08Apr2002                   :
 energy of atom  3       EATOM= -432.3788
 kinetic energy error for atom=    0.0168 (will be added to EATOM!!)
 
 
 POSCAR: Ca Si  O                                
  positions in direct lattice
  No initial velocities read in
 exchange correlation table for  LEXCH =        8
   RHO(1)=    0.500       N(1)  =     2000
   RHO(2)=  100.500       N(2)  =     4000
 


--------------------------------------------------------------------------------------------------------


 ion  position               nearest neighbor table
   1  0.747  0.140  0.549-  81 2.03  90 2.37 117 2.38 127 2.45  42 2.88  34 2.91  39 3.10
   2  0.830  0.684  0.179-  97 2.07  92 2.24 118 2.34 111 2.49  55 2.55  28 2.97  36 3.12  12 3.12

   3  0.967  0.702  0.461-  92 2.05  80 2.29  72 2.30  55 2.34 101 2.46   8 2.85  39 3.04
   4  0.136  0.365  0.083- 100 2.15  56 2.37 120 2.44  86 2.50  31 2.92
   5  0.798  0.743  0.853- 118 1.94 122 2.07  98 2.31  99 2.33 110 2.38  17 2.65  46 2.74  40 2.77

   6  0.298  0.845  0.757- 135 1.78  78 2.14 107 2.17  53 2.44  60 2.45  54 3.02   8 3.03
   7  0.508  0.625  0.845- 106 2.05 107 2.13 103 2.40  67 2.40  66 2.41 122 2.44  53 2.70  10 2.83
                            36 2.86  29 3.03  44 3.12
   8  0.106  0.863  0.583-  80 2.28   3 2.85   6 3.03
   9  0.879  0.462  0.998-  85 2.29  61 2.37 120 2.39 115 2.55  36 2.93  51 3.10  46 3.12
  10  0.358  0.440  0.895- 114 1.92  56 2.16 103 2.23  87 2.24   7 2.83  23 3.02  33 3.04
  11  0.923  0.442  0.575- 129 2.09  94 2.23  84 2.33 109 2.38  72 2.51  46 2.85  45 3.08
  12  0.094  0.730  0.185-  92 2.12  97 2.31  93 2.45 119 2.47  31 2.67   2 3.12
  13  0.497  0.512  0.579- 103 1.97 123 2.27 105 2.31  66 2.43  79 2.47  65 2.53  45 2.84
  14  0.271  0.156  0.361-  58 2.23 113 2.30  82 2.30  62 2.39  38 2.70  30 2.71  47 2.94  43 3.09

  15  0.213  0.537  0.638- 123 2.19  94 2.34 116 2.35 101 2.39 103 2.42  37 2.80  49 3.06  23 3.08

  16  0.971  0.036  0.792-  89 2.29 102 2.42  48 2.88  52 3.15
  17  0.747  0.734  0.631-  66 2.05  75 2.25  72 2.31  99 2.45  42 2.59   5 2.65
  18  0.551  0.826  0.220- 112 2.11 134 2.20 111 2.23 124 2.34  41 2.68  32 2.81
  19  0.660  0.249  0.994-  85 2.08  63 2.35 128 2.51  51 2.88  26 2.91
  20  0.849  0.296  0.265- 104 2.13 109 2.19 126 2.25  86 2.42  47 2.76  26 2.92
  21  0.348  0.744  0.432- 112 2.12  93 2.14 123 2.20  69 2.44  30 2.44  78 2.54  37 3.09
  22  0.515  0.040  0.436-  90 2.09 124 2.09  74 2.12  68 2.30  77 2.37 113 2.42  64 2.43  81 2.51
                            34 2.60  42 2.60  43 3.02
  23  0.292  0.290  0.693-  71 2.36  82 2.36 114 2.54  88 2.55  43 2.75  52 2.84  49 2.94  10 3.02
                            15 3.08
  24  0.244  0.127  0.912-  89 2.11  57 2.12 130 2.25  87 2.53  71 2.53  50 3.10
  25  0.510  0.124  0.779- 128 2.23  81 2.33  77 2.39  57 2.48  43 3.01
  26  0.600  0.280  0.235- 121 2.08 113 2.12 126 2.13  90 2.22  59 2.33  38 2.63  50 2.87  19 2.91
                            20 2.92  34 2.93
  27  0.022  0.997  0.293-  80 2.04 131 2.08  58 2.26 132 2.28 117 2.46  76 2.51  28 2.94  39 3.01
                            30 3.14
  28  0.850  0.931  0.120-  91 1.55 131 1.64  97 1.73  70 1.76  48 2.78  27 2.94   2 2.97
  29  0.310  0.695  1.000- 133 1.54 107 1.61 119 1.76  54 2.77  35 2.81  33 3.02   7 3.03
  30  0.276  0.923  0.350- 112 1.67  58 1.68  93 1.82  76 1.87  74 2.11  21 2.44  14 2.71  35 3.10
                            27 3.14
  31  0.049  0.519  0.263- 120 1.51 104 1.59  92 1.70  95 2.11 101 2.47  12 2.67  47 2.67   4 2.92
                            37 2.99
  32  0.553  0.602  0.310-  65 1.54 111 1.61  69 1.64 108 1.64  33 2.70  18 2.81  45 3.00
  33  0.429  0.509  0.137-  67 1.62  56 1.63  59 1.67 125 2.03  69 2.10  32 2.70  36 2.85  29 3.02
                            10 3.04  50 3.14
  34  0.702  0.063  0.315-  90 1.53 124 1.63 126 1.79 117 1.87  68 1.94  91 2.13  39 2.56  22 2.60
                             1 2.91  26 2.93  41 3.05
  35  0.294  0.921  0.084- 130 1.41  73 1.55  76 1.81 133 1.86  29 2.81  41 3.03  30 3.10
  36  0.647  0.552  0.035-  67 1.56 106 1.61  61 1.72 118 1.89 111 2.22  33 2.85   7 2.86   9 2.93
                             2 3.12
  37  0.261  0.494  0.406- 123 1.54  95 1.66 101 1.83  88 1.88  62 1.97 125 2.31  38 2.76  15 2.80
                            31 2.99  21 3.09
  38  0.427  0.328  0.373- 125 1.53 113 1.57  79 1.77  88 1.91  62 2.39  26 2.63  14 2.70  37 2.76

  39  0.817  0.913  0.427-  68 1.55 117 1.73  55 1.74  75 1.93  80 1.97  34 2.56  42 2.76  27 3.01
                             3 3.04   1 3.10
  40  0.648  0.911  0.931- 122 1.57  70 1.72 128 1.82 134 1.86  99 2.10   5 2.77  41 3.00
  41  0.526  0.033  0.123- 121 1.59  73 1.75 134 1.75 124 1.79 128 2.24  18 2.68  50 2.86  40 3.00
                            35 3.03  34 3.05
  42  0.637  0.921  0.581-  64 1.61  81 1.64  75 1.74  68 1.88  99 2.25  17 2.59  22 2.60  53 2.68
                            39 2.76   1 2.88
  43  0.323  0.071  0.608-  57 1.65  77 1.67  74 1.70  82 1.83  23 2.75  25 3.01  22 3.02  14 3.09

  44  0.696  0.449  0.769-  96 1.56  98 1.78  85 1.84 106 1.85 105 2.45  51 2.69   7 3.12
  45  0.689  0.434  0.450- 105 1.58 109 1.63 108 1.68  79 2.16  13 2.84  32 3.00  11 3.08
  46  0.952  0.586  0.772- 115 1.57  72 1.65  98 1.81 116 2.05 110 2.17   5 2.74  54 2.77  11 2.85
                            49 2.86   9 3.12
  47  0.070  0.308  0.350- 132 1.49  84 1.61 104 1.81  62 1.98  31 2.67  20 2.76  14 2.94
  48  0.940  0.129  0.020-  63 1.58  86 1.61  89 1.72 131 1.74  28 2.78  16 2.88  51 3.11
  49  0.084  0.381  0.805-  83 1.57 115 1.61 114 1.63  94 1.70  71 2.24  46 2.86  23 2.94  15 3.06
                            52 3.14
  50  0.403  0.244  0.090- 121 1.55 100 1.61  87 1.81  59 1.98  41 2.86  26 2.87  24 3.10  33 3.14

  51  0.834  0.270  0.819- 129 1.58  85 1.64 127 1.72  63 1.97  83 2.17  44 2.69  19 2.88   9 3.10
                            48 3.11
  52  0.083  0.199  0.606- 102 1.60  82 1.69  71 1.72  84 1.96  94 2.24  23 2.84  49 3.14  16 3.15

  53  0.480  0.781  0.675-  78 1.54 135 1.61  66 1.62  64 1.80   6 2.44  42 2.68   7 2.70
  54  0.104  0.729  0.886- 119 1.56  60 1.60 110 1.62 116 1.69  46 2.77  29 2.77   6 3.02
  55  0.799  0.774  0.376-  39 1.74   3 2.34   2 2.55
  56  0.310  0.472  0.071-  33 1.63  10 2.16   4 2.37
  57  0.304  0.074  0.749-  43 1.65  24 2.12  25 2.48
  58  0.173  0.001  0.416-  30 1.68  14 2.23  27 2.26
  59  0.496  0.387  0.101-  33 1.67  50 1.98  26 2.33
  60  0.099  0.853  0.827-  54 1.60   6 2.45
  61  0.722  0.467  0.128-  36 1.72   9 2.37
  62  0.230  0.353  0.318-  37 1.97  47 1.98  14 2.39  38 2.39
  63  0.831  0.154  0.943-  48 1.58  51 1.97  19 2.35
  64  0.515  0.864  0.549-  42 1.61  53 1.80  22 2.43
  65  0.552  0.660  0.429-  32 1.54  13 2.53
  66  0.580  0.687  0.660-  53 1.62  17 2.05   7 2.41  13 2.43
  67  0.513  0.567  0.043-  36 1.56  33 1.62   7 2.40
  68  0.688  0.942  0.429-  39 1.55  42 1.88  34 1.94  22 2.30
  69  0.417  0.623  0.276-  32 1.64  33 2.10  21 2.44
  70  0.780  0.946  0.986-  40 1.72  28 1.76
  71  0.119  0.200  0.749-  52 1.72  49 2.24  23 2.36  24 2.53
  72  0.925  0.646  0.646-  46 1.65   3 2.30  17 2.31  11 2.51
  73  0.377  0.014  0.130-  35 1.55  41 1.75
  74  0.358  0.977  0.503-  43 1.70  30 2.11  22 2.12
  75  0.787  0.918  0.590-  42 1.74  39 1.93  17 2.25
  76  0.220  0.976  0.209-  35 1.81  30 1.87  27 2.51
  77  0.440  0.153  0.588-  43 1.67  22 2.37  25 2.39
  78  0.368  0.715  0.647-  53 1.54   6 2.14  21 2.54
  79  0.537  0.330  0.478-  38 1.77  45 2.16  13 2.47
  80  0.986  0.896  0.432-  39 1.97  27 2.04   8 2.28   3 2.29
  81  0.617  0.053  0.626-  42 1.64   1 2.03  25 2.33  22 2.51
  82  0.214  0.169  0.550-  52 1.69  43 1.83  14 2.30  23 2.36
  83  0.008  0.296  0.880-  49 1.57  51 2.17
  84  0.032  0.302  0.483-  47 1.61  52 1.96  11 2.33
  85  0.751  0.361  0.888-  51 1.64  44 1.84  19 2.08   9 2.29
  86  0.963  0.239  0.100-  48 1.61  20 2.42   4 2.50
  87  0.413  0.260  0.936-  50 1.81  10 2.24  24 2.53
  88  0.318  0.368  0.490-  37 1.88  38 1.91  23 2.55
  89  0.068  0.101  0.951-  48 1.72  24 2.11  16 2.29
  90  0.637  0.159  0.378-  34 1.53  22 2.09  26 2.22   1 2.37
  91  0.750  0.922  0.208-  28 1.55  34 2.13
  92  0.978  0.642  0.295-  31 1.70   3 2.05  12 2.12   2 2.24
  93  0.185  0.797  0.364-  30 1.82  21 2.14  12 2.45
  94  0.085  0.384  0.659-  49 1.70  11 2.23  52 2.24  15 2.34
  95  0.230  0.531  0.271-  37 1.66  31 2.11
  96  0.598  0.362  0.744-  44 1.56
  97  0.932  0.808  0.103-  28 1.73   2 2.07  12 2.31
  98  0.799  0.562  0.771-  44 1.78  46 1.81   5 2.31
  99  0.704  0.894  0.760-  40 2.10  42 2.25   5 2.33  17 2.45
 100  0.276  0.259  0.142-  50 1.61   4 2.15
 101  0.130  0.568  0.452-  37 1.83  15 2.39   3 2.46  31 2.47
 102  0.029  0.072  0.595-  52 1.60  16 2.42
 103  0.402  0.502  0.718-  13 1.97  10 2.23   7 2.40  15 2.42
 104  0.969  0.422  0.318-  31 1.59  47 1.81  20 2.13
 105  0.695  0.505  0.566-  45 1.58  13 2.31  44 2.45
 106  0.637  0.517  0.901-  36 1.61  44 1.85   7 2.05
 107  0.342  0.699  0.865-  29 1.61   7 2.13   6 2.17
 108  0.626  0.483  0.330-  32 1.64  45 1.68
 109  0.801  0.351  0.438-  45 1.63  20 2.19  11 2.38
 110  0.979  0.684  0.928-  54 1.62  46 2.17   5 2.38
 111  0.619  0.648  0.198-  32 1.61  36 2.22  18 2.23   2 2.49
 112  0.406  0.874  0.318-  30 1.67  18 2.11  21 2.12
 113  0.459  0.206  0.324-  38 1.57  26 2.12  14 2.30  22 2.42
 114  0.206  0.379  0.874-  49 1.63  10 1.92  23 2.54
 115  0.030  0.502  0.845-  46 1.57  49 1.61   9 2.55
 116  0.109  0.665  0.755-  54 1.69  46 2.05  15 2.35
 117  0.844  0.055  0.389-  39 1.73  34 1.87   1 2.38  27 2.46
 118  0.765  0.655  0.991-  36 1.89   5 1.94   2 2.34
 119  0.161  0.671  0.992-  54 1.56  29 1.76  12 2.47
 120  0.015  0.528  0.138-  31 1.51   9 2.39   4 2.44
 121  0.494  0.164  0.148-  50 1.55  41 1.59  26 2.08
 122  0.635  0.777  0.916-  40 1.57   5 2.07   7 2.44
 123  0.330  0.566  0.493-  37 1.54  15 2.19  21 2.20  13 2.27
 124  0.576  0.020  0.268-  34 1.63  41 1.79  22 2.09  18 2.34
 125  0.398  0.418  0.283-  38 1.53  33 2.03  37 2.31
 126  0.731  0.158  0.196-  34 1.79  26 2.13  20 2.25
 127  0.777  0.148  0.758-  51 1.72   1 2.45
 128  0.585  0.054  0.941-  40 1.82  25 2.23  41 2.24  19 2.51
 129  0.866  0.324  0.699-  51 1.58  11 2.09
 130  0.264  0.942  0.968-  35 1.41  24 2.25
 131  0.938  0.040  0.141-  28 1.64  48 1.74  27 2.08
 132  0.047  0.191  0.302-  47 1.49  27 2.28
 133  0.305  0.765  0.112-  29 1.54  35 1.86
 134  0.538  0.903  0.047-  41 1.75  40 1.86  18 2.20
 135  0.442  0.894  0.747-  53 1.61   6 1.78
 

IMPORTANT INFORMATION: All symmetrisations will be switched off!
NOSYMM: (Re-)initialisation of all symmetry stuff for point group C_1.

 
 

Automatic generation of k-mesh.
 generate k-points for:    2    2    2
Space group operators:
 irot       det(A)        alpha          n_x          n_y          n_z        tau_x        tau_y        tau_z
    1     1.000000     0.000001     1.000000     0.000000     0.000000     0.000000     0.000000     0.000000
 
 Subroutine IBZKPT returns following result:
 ===========================================
 
 Found      8 irreducible k-points:
 
 Following reciprocal coordinates:
            Coordinates               Weight
  0.000000  0.000000  0.000000      1.000000
  0.500000  0.000000  0.000000      1.000000
  0.000000  0.500000  0.000000      1.000000
  0.500000  0.500000  0.000000      1.000000
  0.000000  0.000000  0.500000      1.000000
  0.500000  0.000000  0.500000      1.000000
  0.000000  0.500000  0.500000      1.000000
  0.500000  0.500000  0.500000      1.000000
 
 Following cartesian coordinates:
            Coordinates               Weight
  0.000000  0.000000  0.000000      1.000000
  0.042999  0.000000  0.000000      1.000000
  0.000000  0.042999  0.000000      1.000000
  0.042999  0.042999  0.000000      1.000000
  0.000000  0.000000  0.042999      1.000000
  0.042999  0.000000  0.042999      1.000000
  0.000000  0.042999  0.042999      1.000000
  0.042999  0.042999  0.042999      1.000000
 


--------------------------------------------------------------------------------------------------------




 Dimension of arrays:
   k-points           NKPTS =      8   k-points in BZ     NKDIM =      8   number of bands    NBANDS=    520
   number of dos      NEDOS =    301   number of ions     NIONS =    135
   non local maximal  LDIM  =      6   non local SUM 2l+1 LMDIM =     18
   total plane-waves  NPLWV = 884736
   max r-space proj   IRMAX =   7548   max aug-charges    IRDMAX= 214954
   dimension x,y,z NGX =    96 NGY =   96 NGZ =   96
   dimension x,y,z NGXF=   192 NGYF=  192 NGZF=  192
   support grid    NGXF=   384 NGYF=  384 NGZF=  384
   ions per type =              27  27  81
   NGX,Y,Z   is equivalent  to a cutoff of  13.72, 13.72, 13.72 a.u.
   NGXF,Y,Z  is equivalent  to a cutoff of  27.45, 27.45, 27.45 a.u.

 SYSTEM =  unknown system                          
 POSCAR =  Ca Si  O                                

 Startparameter for this run:
   NWRITE =      2    write-flag & timer
   PREC   = a         normal or accurate (medium, high low for compatibility)
   ISTART =      0    job   : 0-new  1-cont  2-samecut
   ICHARG =      2    charge: 1-file 2-atom 10-const
   ISPIN  =      1    spin polarized calculation?
   LNONCOLLINEAR =      F non collinear calculations
   LSORBIT =      F    spin-orbit coupling
   INIWAV =      1    electr: 0-lowe 1-rand  2-diag
   LASPH  =      F    aspherical Exc in radial PAW
   METAGGA=      F    non-selfconsistent MetaGGA calc.

 Electronic Relaxation 1
   ENCUT  =  600.0 eV  44.10 Ry    6.64 a.u.  23.22 23.22 23.22*2*pi/ulx,y,z
   ENINI  =  600.0     initial cutoff
   ENAUG  =  605.4 eV  augmentation charge cutoff
   NELM   =     60;   NELMIN=  2; NELMDL= -5     # of ELM steps 
   EDIFF  = 0.1E-05   stopping-criterion for ELM
   LREAL  =      T    real-space projection
   NLSPLINE    = F    spline interpolate recip. space projectors
   LCOMPAT=      F    compatible to vasp.4.4
   GGA_COMPAT  = T    GGA compatible to vasp.4.4-vasp.4.6
   LMAXPAW     = -100 max onsite density
   LMAXMIX     =    2 max onsite mixed and CHGCAR
   VOSKOWN=      0    Vosko Wilk Nusair interpolation
   ROPT   =   -0.00025  -0.00025  -0.00025
 Ionic relaxation
   EDIFFG = -.1E-01   stopping-criterion for IOM
   NSW    =      1    number of steps for IOM
   NBLOCK =      1;   KBLOCK =      1    inner block; outer block 
   IBRION =     -1    ionic relax: 0-MD 1-quasi-New 2-CG
   NFREE  =      0    steps in history (QN), initial steepest desc. (CG)
   ISIF   =      2    stress and relaxation
   IWAVPR =     10    prediction:  0-non 1-charg 2-wave 3-comb
   ISYM   =      0    0-nonsym 1-usesym 2-fastsym
   LCORR  =      T    Harris-Foulkes like correction to forces

   POTIM  = 1.0000    time-step for ionic-motion
   TEIN   =    0.0    initial temperature
   TEBEG  =    0.0;   TEEND  =   0.0 temperature during run
   SMASS  =  -3.00    Nose mass-parameter (am)
   estimated Nose-frequenzy (Omega)   =  0.10E-29 period in steps =****** mass=  -0.309E-26a.u.
   SCALEE = 1.0000    scale energy and forces
   NPACO  =    256;   APACO  = 16.0  distance and # of slots for P.C.
   PSTRESS=    0.0 pullay stress

  Mass of Ions in am
   POMASS =  40.08 28.09 16.00
  Ionic Valenz
   ZVAL   =  10.00  4.00  6.00
  Atomic Wigner-Seitz radii
   RWIGS  =  -1.00 -1.00 -1.00
  virtual crystal weights 
   VCA    =   1.00  1.00  1.00
   NELECT =     864.0000    total number of electrons
   NUPDOWN=      -1.0000    fix difference up-down

 DOS related values:
   EMIN   =  10.00;   EMAX   =-10.00  energy-range for DOS
   EFERMI =   0.00
   ISMEAR =     0;   SIGMA  =   0.05  broadening in eV -4-tet -1-fermi 0-gaus

 Electronic relaxation 2 (details)
   IALGO  =     38    algorithm
   LDIAG  =      T    sub-space diagonalisation (order eigenvalues)
   LSUBROT=      F    optimize rotation matrix (better conditioning)
   TURBO    =      0    0=normal 1=particle mesh
   IRESTART =      0    0=no restart 2=restart with 2 vectors
   NREBOOT  =      0    no. of reboots
   NMIN     =      0    reboot dimension
   EREF     =   0.00    reference energy to select bands
   IMIX   =      4    mixing-type and parameters
     AMIX     =   0.40;   BMIX     =  1.00
     AMIX_MAG =   1.60;   BMIX_MAG =  1.00
     AMIN     =   0.10
     WC   =   100.;   INIMIX=   1;  MIXPRE=   1;  MAXMIX= -45

 Intra band minimization:
   WEIMIN = 0.0000     energy-eigenvalue tresh-hold
   EBREAK =  0.48E-09  absolut break condition
   DEPER  =   0.30     relativ break condition  

   TIME   =   0.40     timestep for ELM

  volume/ion in A,a.u.               =      11.65        78.60
  Fermi-wavevector in a.u.,A,eV,Ry     =   1.340915  2.533962 24.463997  1.798053
  Thomas-Fermi vector in A             =   2.469190
 
 Write flags
   LWAVE        =      F    write WAVECAR
   LDOWNSAMPLE  =      F    k-point downsampling of WAVECAR
   LCHARG       =      F    write CHGCAR
   LVTOT        =      F    write LOCPOT, total local potential
   LVHAR        =      F    write LOCPOT, Hartree potential only
   LELF         =      F    write electronic localiz. function (ELF)
   LORBIT       =      0    0 simple, 1 ext, 2 COOP (PROOUT), +10 PAW based schemes


 Dipole corrections
   LMONO  =      F    monopole corrections only (constant potential shift)
   LDIPOL =      F    correct potential (dipole corrections)
   IDIPOL =      0    1-x, 2-y, 3-z, 4-all directions 
   EPSILON=  1.0000000 bulk dielectric constant

 Exchange correlation treatment:
   GGA     =    --    GGA type
   LEXCH   =     8    internal setting for exchange type
   VOSKOWN=      0    Vosko Wilk Nusair interpolation
   LHFCALC =     F    Hartree Fock is set to
   LHFONE  =     F    Hartree Fock one center treatment
   AEXX    =    0.0000 exact exchange contribution

 Linear response parameters
   LEPSILON=     F    determine dielectric tensor
   LRPA    =     F    only Hartree local field effects (RPA)
   LNABLA  =     F    use nabla operator in PAW spheres
   LVEL    =     F    velocity operator in full k-point grid
   LINTERFAST=   F  fast interpolation
   KINTER  =     0    interpolate to denser k-point grid
   CSHIFT  =0.1000    complex shift for real part using Kramers Kronig
   OMEGAMAX=  -1.0    maximum frequency
   DEG_THRESHOLD= 0.2000000E-02 threshold for treating states as degnerate
   RTIME   =   -0.100 relaxation time in fs
  (WPLASMAI=    0.000 imaginary part of plasma frequency in eV, 0.658/RTIME)
   DFIELD  = 0.0000000 0.0000000 0.0000000 field for delta impulse in time
 
 Orbital magnetization related:
   ORBITALMAG=     F  switch on orbital magnetization
   LCHIMAG   =     F  perturbation theory with respect to B field
   DQ        =  0.001000  dq finite difference perturbation B field
   LLRAUG    =     F  two centre corrections for induced B field



--------------------------------------------------------------------------------------------------------


 Static calculation
 charge density and potential will be updated during run
 non-spin polarized calculation
 Variant of blocked Davidson
 Davidson routine will perform the subspace rotation
 perform sub-space diagonalisation
    after iterative eigenvector-optimisation
 modified Broyden-mixing scheme, WC =      100.0
 initial mixing is a Kerker type mixing with AMIX =  0.4000 and BMIX =      1.0000
 Hartree-type preconditioning will be used
 using additional bands           88
 real space projection scheme for non local part
 use partial core corrections
 calculate Harris-corrections to forces 
   (improved forces if not selfconsistent)
 use gradient corrections 
 use of overlap-Matrix (Vanderbilt PP)
 Gauss-broadening in eV      SIGMA  =   0.05


--------------------------------------------------------------------------------------------------------


  energy-cutoff  :      600.00
  volume of cell :     1572.30
      direct lattice vectors                 reciprocal lattice vectors
    11.628173330  0.000000000  0.000000000     0.085998030  0.000000000  0.000000000
     0.000000000 11.628173330  0.000000000     0.000000000  0.085998030  0.000000000
     0.000000000  0.000000000 11.628173330     0.000000000  0.000000000  0.085998030

  length of vectors
    11.628173330 11.628173330 11.628173330     0.085998030  0.085998030  0.085998030


 
 k-points in units of 2pi/SCALE and weight: read from INCAR                         
   0.00000000  0.00000000  0.00000000       0.125
   0.04299902  0.00000000  0.00000000       0.125
   0.00000000  0.04299902  0.00000000       0.125
   0.04299902  0.04299902  0.00000000       0.125
   0.00000000  0.00000000  0.04299902       0.125
   0.04299902  0.00000000  0.04299902       0.125
   0.00000000  0.04299902  0.04299902       0.125
   0.04299902  0.04299902  0.04299902       0.125
 
 k-points in reciprocal lattice and weights: read from INCAR                         
   0.00000000  0.00000000  0.00000000       0.125
   0.50000000  0.00000000  0.00000000       0.125
   0.00000000  0.50000000  0.00000000       0.125
   0.50000000  0.50000000  0.00000000       0.125
   0.00000000  0.00000000  0.50000000       0.125
   0.50000000  0.00000000  0.50000000       0.125
   0.00000000  0.50000000  0.50000000       0.125
   0.50000000  0.50000000  0.50000000       0.125
 
 position of ions in fractional coordinates (direct lattice) 
   0.74729876  0.13994088  0.54890483
   0.83020147  0.68386901  0.17933711
   0.96681067  0.70213802  0.46102339
   0.13624254  0.36546894  0.08349510
   0.79807484  0.74326225  0.85304625
   0.29782913  0.84490041  0.75732414
   0.50844070  0.62541804  0.84497467
   0.10566261  0.86275117  0.58270113
   0.87889428  0.46195139  0.99819471
   0.35803576  0.44043905  0.89460605
   0.92296932  0.44190474  0.57538724
   0.09441592  0.72975693  0.18506907
   0.49724478  0.51238709  0.57909617
   0.27118038  0.15612517  0.36138174
   0.21335176  0.53715156  0.63797945
   0.97111890  0.03627500  0.79162105
   0.74722785  0.73354951  0.63075342
   0.55060943  0.82586576  0.21984879
   0.66035258  0.24892447  0.99436780
   0.84853932  0.29562166  0.26468627
   0.34771567  0.74419565  0.43207085
   0.51530314  0.03971531  0.43613710
   0.29174175  0.29023503  0.69316604
   0.24363822  0.12661986  0.91234935
   0.50953369  0.12416471  0.77912665
   0.59972549  0.27974273  0.23505614
   0.02219372  0.99672758  0.29269277
   0.85001526  0.93110509  0.11970141
   0.31027108  0.69481640  0.99998304
   0.27551415  0.92336819  0.34969269
   0.04897902  0.51882977  0.26258734
   0.55257490  0.60154086  0.30989838
   0.42858599  0.50852390  0.13667657
   0.70166577  0.06324840  0.31497426
   0.29402818  0.92130272  0.08353646
   0.64671138  0.55227593  0.03470388
   0.26107637  0.49388562  0.40602631
   0.42684471  0.32763474  0.37346621
   0.81734548  0.91344473  0.42705726
   0.64783058  0.91087572  0.93097598
   0.52629034  0.03349234  0.12274197
   0.63716532  0.92076306  0.58097172
   0.32271813  0.07134201  0.60809907
   0.69599524  0.44923206  0.76928996
   0.68917601  0.43398205  0.45046497
   0.95244815  0.58553694  0.77155068
   0.06952289  0.30763220  0.35012508
   0.94014794  0.12865036  0.01979153
   0.08374596  0.38058396  0.80545516
   0.40343691  0.24389272  0.09040302
   0.83388223  0.26975513  0.81899331
   0.08271144  0.19861791  0.60629927
   0.47975241  0.78140475  0.67487437
   0.10404772  0.72905849  0.88577143
   0.79933022  0.77395777  0.37641091
   0.31005558  0.47192027  0.07138214
   0.30446466  0.07423072  0.74908479
   0.17311101  0.00080382  0.41568799
   0.49582223  0.38673418  0.10138575
   0.09864632  0.85275051  0.82658363
   0.72237778  0.46684164  0.12829267
   0.23033490  0.35276877  0.31805861
   0.83069485  0.15390493  0.94278308
   0.51475181  0.86427059  0.54899818
   0.55223662  0.66009945  0.42904346
   0.58020473  0.68657828  0.66043624
   0.51336683  0.56729916  0.04331477
   0.68752765  0.94207736  0.42899449
   0.41736976  0.62331217  0.27585368
   0.78034947  0.94621577  0.98607392
   0.11927959  0.19970731  0.74932739
   0.92509503  0.64559080  0.64614378
   0.37738750  0.01430967  0.13009735
   0.35768881  0.97700206  0.50252922
   0.78691590  0.91821707  0.58996342
   0.21962135  0.97570515  0.20871148
   0.43955056  0.15283453  0.58790298
   0.36846996  0.71538945  0.64741139
   0.53732350  0.32995520  0.47752853
   0.98554820  0.89561912  0.43160456
   0.61745502  0.05295352  0.62582678
   0.21363500  0.16895716  0.55044979
   0.00794612  0.29646030  0.87954827
   0.03230347  0.30153678  0.48326637
   0.75097827  0.36059441  0.88823618
   0.96319273  0.23920955  0.10003773
   0.41337824  0.26029004  0.93583540
   0.31801401  0.36785945  0.48979584
   0.06767794  0.10126137  0.95078172
   0.63735676  0.15869908  0.37822421
   0.75001566  0.92229652  0.20801848
   0.97828333  0.64240209  0.29522059
   0.18491995  0.79680364  0.36354839
   0.08544962  0.38369121  0.65924595
   0.23012522  0.53101576  0.27136004
   0.59751743  0.36237105  0.74354340
   0.93173829  0.80830959  0.10300887
   0.79888755  0.56205161  0.77148880
   0.70404118  0.89390618  0.76030932
   0.27574725  0.25872733  0.14174910
   0.13012870  0.56779208  0.45230715
   0.02930007  0.07240880  0.59486956
   0.40173972  0.50182604  0.71824665
   0.96923898  0.42213631  0.31788717
   0.69537999  0.50467264  0.56606773
   0.63677946  0.51747922  0.90073875
   0.34158722  0.69926349  0.86492187
   0.62648037  0.48277867  0.33008255
   0.80103883  0.35096031  0.43791557
   0.97876460  0.68395223  0.92785856
   0.61948899  0.64802495  0.19750764
   0.40634974  0.87379924  0.31826685
   0.45873150  0.20591644  0.32390758
   0.20640226  0.37919424  0.87384460
   0.02981948  0.50203956  0.84483929
   0.10880670  0.66471315  0.75507697
   0.84373074  0.05487263  0.38940739
   0.76534492  0.65472185  0.99067165
   0.16083779  0.67089784  0.99248508
   0.01482536  0.52760503  0.13768524
   0.49400504  0.16429499  0.14798745
   0.63491990  0.77712347  0.91565039
   0.33034190  0.56575094  0.49272671
   0.57648468  0.01996112  0.26789614
   0.39769250  0.41827656  0.28251850
   0.73102702  0.15755801  0.19643889
   0.77672372  0.14783970  0.75751526
   0.58468698  0.05380904  0.94060349
   0.86597028  0.32419639  0.69863357
   0.26417147  0.94243179  0.96824424
   0.93773718  0.03995213  0.14054793
   0.04689918  0.19121182  0.30198349
   0.30477804  0.76458176  0.11194290
   0.53805887  0.90333572  0.04731419
   0.44233873  0.89383137  0.74670059
 
 position of ions in cartesian coordinates  (Angst):
   8.68971949  1.62725679  6.38276056
   9.65372661  7.95214734  2.08536301
  11.24224209  8.16458255  5.36085991
   1.58425186  4.24973616  0.97089553
   9.28015261  8.64278232  9.91936971
   3.46320878  9.82464838  8.80629637
   5.91223663  7.27246934  9.82551198
   1.22866317 10.03222017  6.77574975
  10.21993499  5.37165085 11.60718111
   4.16330183  5.12150165 10.40263420
  10.73244720  5.13854488  6.69070252
   1.09788465  8.48574011  2.15201525
   5.78204854  5.95812589  6.73383067
   3.15333247  1.81545050  4.20220953
   2.48089125  6.24609148  7.41853566
  11.29233892  0.42181203  9.20510680
   8.68889494  8.52984082  7.33451004
   6.40258193  9.60331024  2.55643982
   7.67869429  2.89453689 11.56268114
   9.86696229  3.43753991  3.07781788
   4.04329809  8.65363605  5.02419479
   5.99203422  0.46181651  5.07147781
   3.39242362  3.37490321  8.06025488
   2.83306751  1.47235767 10.60895639
   5.92494609  1.44380878  9.05981968
   6.97371198  3.25289690  2.73327353
   0.25807248 11.59012109  3.40348227
   9.88412475 10.82705136  1.39190870
   3.60788593  8.07944555 11.62797613
   3.20372633 10.73708536  4.06628716
   0.56953655  6.03304250  3.05341106
   6.42543670  6.99482140  3.60355209
   4.98367222  5.91320408  1.58929880
   8.15909122  0.73546337  3.66257526
   3.41901061 10.71306769  0.97137647
   7.52007205  6.42196025  0.40354270
   3.03584126  5.74298764  4.72134436
   4.96342429  3.80979355  4.34272983
   9.50423490 10.62169369  4.96589585
   7.53308630 10.59182071 10.82555007
   6.11979535  0.38945468  1.42726492
   7.40906877 10.70679251  6.75563986
   3.75262237  0.82957731  7.07108140
   8.09315331  5.22374827  8.94543704
   8.01385809  5.04641851  5.23808478
  11.07523217  6.80872503  8.97172499
   0.80842422  3.57720055  4.07131506
  10.93220321  1.49596868  0.23013931
   0.97381255  4.42549621  9.36597219
   4.69123434  2.83602680  1.05122204
   9.69652705  3.13675944  9.52339616
   0.96178297  2.30956353  7.05015296
   5.57864416  9.08630982  7.84755610
   1.20988491  8.47761852 10.29990367
   9.29475033  8.99971508  4.37697125
   3.60537997  5.48757064  0.83004385
   3.54036787  0.86316772  8.71048780
   2.01296482  0.00934695  4.83369196
   5.76550678  4.49701210  1.17893107
   1.14707650  9.91593075  9.61165774
   8.39993399  5.42851555  1.49180940
   2.67837409  4.10205644  3.69844061
   9.65946368  1.78963318 10.96284507
   5.98562323 10.04988828  6.38384599
   6.42150309  7.67575079  4.98899171
   6.74672115  7.98365128  7.67966705
   5.96951848  6.59665296  0.50367168
   7.99469065 10.95463883  4.98842224
   4.85324796  7.24798191  3.20767438
   9.07403890 11.00276093 11.46623849
   1.38700369  2.32223122  8.71330875
  10.75716536  7.50704167  7.51347184
   4.38832725  0.16639533  1.51279459
   4.15926743 11.36074932  5.84349686
   9.15039451 10.67718722  6.86019696
   2.55379518 11.34566866  2.42693324
   5.11117010  1.77718645  6.83623781
   4.28463252  8.31867247  7.52821188
   6.24809079  3.83677621  5.55278449
  11.46012532 10.41441436  5.01877258
   7.17987399  0.61575276  7.27722228
   2.48418482  1.96466313  6.40072562
   0.09239884  3.44729174 10.22753968
   0.37563033  3.50632197  5.61950511
   8.73250552  4.19305426 10.32856430
  11.20017203  2.78157013  1.16325602
   4.80683378  3.02669771 10.88205629
   3.69792208  4.27753345  5.69543095
   0.78697086  1.17748479 11.05585469
   7.41129490  1.84538042  4.39805667
   8.72131212 10.72462377  2.41887491
  11.37564810  7.46996290  3.43287619
   2.15028122  9.26537079  4.22740373
   0.99362305  4.46162786  7.66582623
   2.67593593  6.17474335  3.15542163
   6.94803624  4.21371338  8.64605159
  10.83441435  9.39916399  1.19780502
   9.28960294  6.53563353  8.97100549
   8.18671285 10.39449597  8.84100850
   3.20643678  3.00852627  1.64828313
   1.51315903  6.60238471  5.25950598
   0.34070635  0.84198212  6.91724641
   4.67149915  5.83532012  8.35189657
  11.27047887  4.90867419  3.69644706
   8.08599901  5.86842098  6.58233369
   7.40458189  6.01733809 10.47394627
   3.97203538  8.13115703 10.05746141
   7.28482228  5.61383404  3.83825712
   9.31461841  4.08102727  5.09215818
  11.38124438  7.95311511 10.78930011
   7.20352540  7.53534643  2.29665313
   4.72510516 10.16068904  3.70086215
   5.33420942  2.39443209  3.76645345
   2.40008124  4.40933638 10.16121647
   0.34674614  5.83780304  9.82393768
   1.26522321  7.72939967  8.78016592
   9.81104727  0.63806851  4.52809659
   8.89956337  7.61321914 11.51970167
   1.87024965  7.80131642 11.54078854
   0.17239181  6.13508269  1.60102788
   5.74437619  1.91045065  1.72082369
   7.38295866  9.03652646 10.64734147
   3.84127292  6.57865003  5.72951163
   6.70346380  0.23211137  3.11514274
   4.62443738  4.86379235  3.28517405
   8.50050885  1.83211185  2.28422548
   9.03187801  1.71910565  8.80851875
   6.79884151  0.62570086 10.93750044
  10.06965257  3.76981181  8.12383228
   3.07183163 10.95876019 11.25891188
  10.90417043  0.46457033  1.63431572
   0.54535181  2.22344420  3.51151633
   3.54401187  8.89068926  1.30169145
   6.25664178 10.50414434  0.55017766
   5.14359148 10.39362609  8.68276393
 


--------------------------------------------------------------------------------------------------------


 k-point  1 :   0.0000 0.0000 0.0000  plane waves:   52515
 k-point  2 :   0.5000 0.0000 0.0000  plane waves:   52518
 k-point  3 :   0.0000 0.5000 0.0000  plane waves:   52518
 k-point  4 :   0.5000 0.5000 0.0000  plane waves:   52456
 k-point  5 :   0.0000 0.0000 0.5000  plane waves:   52518
 k-point  6 :   0.5000 0.0000 0.5000  plane waves:   52456
 k-point  7 :   0.0000 0.5000 0.5000  plane waves:   52456
 k-point  8 :   0.5000 0.5000 0.5000  plane waves:   52568

 maximum and minimum number of plane-waves per node :      4066     3984

 maximum number of plane-waves:     52568
 maximum index in each direction: 
   IXMAX=   23   IYMAX=   23   IZMAX=   23
   IXMIN=  -23   IYMIN=  -23   IZMIN=  -23


 real space projection operators:
  total allocation   :      51781.30 KBytes
  max/ min on nodes  :       4390.80       3719.45


 parallel 3D FFT for wavefunctions:
    minimum data exchange during FFTs selected (reduces bandwidth)
 parallel 3D FFT for charge:
    minimum data exchange during FFTs selected (reduces bandwidth)


 total amount of memory used by VASP MPI-rank0   158177. kBytes
=======================================================================

   base      :      30000. kBytes
   nonlr-proj:      22626. kBytes
   fftplans  :      23353. kBytes
   grid      :      12472. kBytes
   one-center:        171. kBytes
   wavefun   :      69555. kBytes
 
     INWAV:  cpu time    0.0000: real time    0.0000
 Broyden mixing: mesh for mixing (old mesh)
   NGX = 47   NGY = 47   NGZ = 47
  (NGX  =192   NGY  =192   NGZ  =192)
  gives a total of 103823 points

 initial charge density was supplied:
 charge density of overlapping atoms calculated
 number of electron     864.0000000 magnetization 
 keeping initial charge density in first step


--------------------------------------------------------------------------------------------------------


 Maximum index for non-local projection operator          871
 Maximum index for augmentation-charges         7863 (set IRDMAX)


--------------------------------------------------------------------------------------------------------


 First call to EWALD:  gamma=   0.152
 Maximum number of real-space cells 3x 3x 3
 Maximum number of reciprocal cells 3x 3x 3

    FEWALD:  cpu time    0.0043: real time    0.0043


--------------------------------------- Iteration      1(   1)  ---------------------------------------


    POTLOK:  cpu time    0.1444: real time    0.1507
    SETDIJ:  cpu time    0.3832: real time    0.3833
     EDDAV:  cpu time   34.1219: real time   34.1287
       DOS:  cpu time    0.0023: real time    0.0023
    --------------------------------------------
      LOOP:  cpu time   34.6519: real time   34.6650

 eigenvalue-minimisations  :  8320
 total energy-change (2. order) : 0.9741492E+04  (-0.4839109E+05)
 number of electron     864.0000000 magnetization 
 augmentation part      864.0000000 magnetization 

 Free energy of the ion-electron system (eV)
  ---------------------------------------------------
  alpha Z        PSCENC =      3039.22321400
  Ewald energy   TEWEN  =    -48261.03904162
  -Hartree energ DENC   =    -16460.23910312
  -exchange      EXHF   =         0.00000000
  -V(xc)+E(xc)   XCENC  =      3193.28289573
  PAW double counting   =     50594.51003143   -49994.65612350
  entropy T*S    EENTRO =        -0.04209542
  eigenvalues    EBANDS =      2661.91187898
  atomic energy  EATOM  =     64968.54023382
  Solvation  Ediel_sol  =         0.00000000
  ---------------------------------------------------
  free energy    TOTEN  =      9741.49189031 eV

  energy without entropy =     9741.53398573  energy(sigma->0) =     9741.51293802


--------------------------------------------------------------------------------------------------------




--------------------------------------- Iteration      1(   2)  ---------------------------------------


     EDDAV:  cpu time   38.6205: real time   38.6299
       DOS:  cpu time    0.0012: real time    0.0012
    --------------------------------------------
      LOOP:  cpu time   38.6217: real time   38.6311

 eigenvalue-minimisations  :  9712
 total energy-change (2. order) :-0.9651059E+04  (-0.9326080E+04)
 number of electron     864.0000000 magnetization 
 augmentation part      864.0000000 magnetization 

 Free energy of the ion-electron system (eV)
  ---------------------------------------------------
  alpha Z        PSCENC =      3039.22321400
  Ewald energy   TEWEN  =    -48261.03904162
  -Hartree energ DENC   =    -16460.23910312
  -exchange      EXHF   =         0.00000000
  -V(xc)+E(xc)   XCENC  =      3193.28289573
  PAW double counting   =     50594.51003143   -49994.65612350
  entropy T*S    EENTRO =        -0.00000000
  eigenvalues    EBANDS =     -6989.18874599
  atomic energy  EATOM  =     64968.54023382
  Solvation  Ediel_sol  =         0.00000000
  ---------------------------------------------------
  free energy    TOTEN  =        90.43336075 eV

  energy without entropy =       90.43336075  energy(sigma->0) =       90.43336075


--------------------------------------------------------------------------------------------------------




--------------------------------------- Iteration      1(   3)  ---------------------------------------


     EDDAV:  cpu time   40.5493: real time   40.5668
       DOS:  cpu time    0.0009: real time    0.0009
    --------------------------------------------
      LOOP:  cpu time   40.5502: real time   40.5677

 eigenvalue-minimisations  : 10312
 total energy-change (2. order) :-0.1072358E+04  (-0.1063787E+04)
 number of electron     864.0000000 magnetization 
 augmentation part      864.0000000 magnetization 

 Free energy of the ion-electron system (eV)
  ---------------------------------------------------
  alpha Z        PSCENC =      3039.22321400
  Ewald energy   TEWEN  =    -48261.03904162
  -Hartree energ DENC   =    -16460.23910312
  -exchange      EXHF   =         0.00000000
  -V(xc)+E(xc)   XCENC  =      3193.28289573
  PAW double counting   =     50594.51003143   -49994.65612350
  entropy T*S    EENTRO =        -0.00000000
  eigenvalues    EBANDS =     -8061.54626385
  atomic energy  EATOM  =     64968.54023382
  Solvation  Ediel_sol  =         0.00000000
  ---------------------------------------------------
  free energy    TOTEN  =      -981.92415710 eV

  energy without entropy =     -981.92415710  energy(sigma->0) =     -981.92415710


--------------------------------------------------------------------------------------------------------




--------------------------------------- Iteration      1(   4)  ---------------------------------------


     EDDAV:  cpu time   43.1511: real time   43.1600
       DOS:  cpu time    0.0009: real time    0.0009
    --------------------------------------------
      LOOP:  cpu time   43.1520: real time   43.1609

 eigenvalue-minimisations  : 11304
 total energy-change (2. order) :-0.5184866E+02  (-0.5164052E+02)
 number of electron     864.0000000 magnetization 
 augmentation part      864.0000000 magnetization 

 Free energy of the ion-electron system (eV)
  ---------------------------------------------------
  alpha Z        PSCENC =      3039.22321400
  Ewald energy   TEWEN  =    -48261.03904162
  -Hartree energ DENC   =    -16460.23910312
  -exchange      EXHF   =         0.00000000
  -V(xc)+E(xc)   XCENC  =      3193.28289573
  PAW double counting   =     50594.51003143   -49994.65612350
  entropy T*S    EENTRO =        -0.00000000
  eigenvalues    EBANDS =     -8113.39492001
  atomic energy  EATOM  =     64968.54023382
  Solvation  Ediel_sol  =         0.00000000
  ---------------------------------------------------
  free energy    TOTEN  =     -1033.77281327 eV

  energy without entropy =    -1033.77281327  energy(sigma->0) =    -1033.77281327


--------------------------------------------------------------------------------------------------------




--------------------------------------- Iteration      1(   5)  ---------------------------------------


     EDDAV:  cpu time   51.9729: real time   51.9920
       DOS:  cpu time    0.0008: real time    0.0008
    CHARGE:  cpu time    1.3374: real time    1.3375
    MIXING:  cpu time    0.0060: real time    0.0061
    --------------------------------------------
      LOOP:  cpu time   53.3172: real time   53.3365

 eigenvalue-minimisations  : 14224
 total energy-change (2. order) :-0.5293219E+01  (-0.5290105E+01)
 number of electron     864.0000008 magnetization 
 augmentation part      133.2364206 magnetization 

 Broyden mixing:
  rms(total) = 0.84817E+01    rms(broyden)= 0.84811E+01
  rms(prec ) = 0.10121E+02
  weight for this iteration     100.00

 Free energy of the ion-electron system (eV)
  ---------------------------------------------------
  alpha Z        PSCENC =      3039.22321400
  Ewald energy   TEWEN  =    -48261.03904162
  -Hartree energ DENC   =    -16460.23910312
  -exchange      EXHF   =         0.00000000
  -V(xc)+E(xc)   XCENC  =      3193.28289573
  PAW double counting   =     50594.51003143   -49994.65612350
  entropy T*S    EENTRO =        -0.00000000
  eigenvalues    EBANDS =     -8118.68813934
  atomic energy  EATOM  =     64968.54023382
  Solvation  Ediel_sol  =         0.00000000
  ---------------------------------------------------
  free energy    TOTEN  =     -1039.06603259 eV

  energy without entropy =    -1039.06603259  energy(sigma->0) =    -1039.06603259


--------------------------------------------------------------------------------------------------------




--------------------------------------- Iteration      1(   6)  ---------------------------------------


    POTLOK:  cpu time    0.1000: real time    0.1076
    SETDIJ:  cpu time    0.3652: real time    0.3652
     EDDAV:  cpu time   38.7259: real time   38.7268
       DOS:  cpu time    0.0012: real time    0.0012
    CHARGE:  cpu time    1.3737: real time    1.3737
    MIXING:  cpu time    0.0053: real time    0.0054
    --------------------------------------------
      LOOP:  cpu time   40.5713: real time   40.5800

 eigenvalue-minimisations  :  9864
 total energy-change (2. order) : 0.1443254E+03  (-0.6448935E+02)
 number of electron     864.0000007 magnetization 
 augmentation part      119.8701275 magnetization 

 Broyden mixing:
  rms(total) = 0.36221E+01    rms(broyden)= 0.36211E+01
  rms(prec ) = 0.38368E+01
  weight for this iteration     100.00

 eigenvalues of (default mixing * dielectric matrix)
  average eigenvalue GAMMA=   1.0292
  1.0292

 Free energy of the ion-electron system (eV)
  ---------------------------------------------------
  alpha Z        PSCENC =      3039.22321400
  Ewald energy   TEWEN  =    -48261.03904162
  -Hartree energ DENC   =    -17766.99130929
  -exchange      EXHF   =         0.00000000
  -V(xc)+E(xc)   XCENC  =      3281.38395249
  PAW double counting   =     65619.14318849   -65158.65091495
  entropy T*S    EENTRO =        -0.00000000
  eigenvalues    EBANDS =     -6616.34994535
  atomic energy  EATOM  =     64968.54023382
  Solvation  Ediel_sol  =         0.00000000
  ---------------------------------------------------
  free energy    TOTEN  =      -894.74062241 eV

  energy without entropy =     -894.74062241  energy(sigma->0) =     -894.74062241


--------------------------------------------------------------------------------------------------------




--------------------------------------- Iteration      1(   7)  ---------------------------------------


    POTLOK:  cpu time    0.1326: real time    0.1670
    SETDIJ:  cpu time    0.3816: real time    0.3816
     EDDAV:  cpu time   42.0349: real time   42.0382
       DOS:  cpu time    0.0025: real time    0.0025
    CHARGE:  cpu time    1.3733: real time    1.3734
    MIXING:  cpu time    0.0058: real time    0.0058
    --------------------------------------------
      LOOP:  cpu time   43.9306: real time   43.9684

 eigenvalue-minimisations  : 10856
 total energy-change (2. order) :-0.2076958E+01  (-0.7486010E+01)
 number of electron     864.0000007 magnetization 
 augmentation part      118.8497682 magnetization 

 Broyden mixing:
  rms(total) = 0.17902E+01    rms(broyden)= 0.17902E+01
  rms(prec ) = 0.19587E+01
  weight for this iteration     100.00

 eigenvalues of (default mixing * dielectric matrix)
  average eigenvalue GAMMA=   1.2124
  1.2124  1.2124

 Free energy of the ion-electron system (eV)
  ---------------------------------------------------
  alpha Z        PSCENC =      3039.22321400
  Ewald energy   TEWEN  =    -48261.03904162
  -Hartree energ DENC   =    -17828.95142241
  -exchange      EXHF   =         0.00000000
  -V(xc)+E(xc)   XCENC  =      3284.26908905
  PAW double counting   =     78792.87541579   -78387.15444375
  entropy T*S    EENTRO =        -0.01655636
  eigenvalues    EBANDS =     -6504.56406920
  atomic energy  EATOM  =     64968.54023382
  Solvation  Ediel_sol  =         0.00000000
  ---------------------------------------------------
  free energy    TOTEN  =      -896.81758069 eV

  energy without entropy =     -896.80102432  energy(sigma->0) =     -896.80930250


--------------------------------------------------------------------------------------------------------




--------------------------------------- Iteration      1(   8)  ---------------------------------------


    POTLOK:  cpu time    0.1152: real time    0.1224
    SETDIJ:  cpu time    0.3733: real time    0.3734
     EDDAV:  cpu time   40.8574: real time   40.8599
       DOS:  cpu time    0.0022: real time    0.0022
    CHARGE:  cpu time    1.3636: real time    1.3637
    MIXING:  cpu time    0.0058: real time    0.0058
    --------------------------------------------
      LOOP:  cpu time   42.7176: real time   42.7274

 eigenvalue-minimisations  : 10568
 total energy-change (2. order) : 0.1185807E+01  (-0.1225950E+01)
 number of electron     864.0000007 magnetization 
 augmentation part      119.1077444 magnetization 

 Broyden mixing:
  rms(total) = 0.78268E+00    rms(broyden)= 0.78257E+00
  rms(prec ) = 0.91159E+00
  weight for this iteration     100.00

 eigenvalues of (default mixing * dielectric matrix)
  average eigenvalue GAMMA=   1.3111
  2.0466  0.9433  0.9433

 Free energy of the ion-electron system (eV)
  ---------------------------------------------------
  alpha Z        PSCENC =      3039.22321400
  Ewald energy   TEWEN  =    -48261.03904162
  -Hartree energ DENC   =    -17818.05256944
  -exchange      EXHF   =         0.00000000
  -V(xc)+E(xc)   XCENC  =      3282.54968777
  PAW double counting   =     86372.41206637   -86003.16236356
  entropy T*S    EENTRO =        -0.00040209
  eigenvalues    EBANDS =     -6476.10259898
  atomic energy  EATOM  =     64968.54023382
  Solvation  Ediel_sol  =         0.00000000
  ---------------------------------------------------
  free energy    TOTEN  =      -895.63177372 eV

  energy without entropy =     -895.63137163  energy(sigma->0) =     -895.63157268


--------------------------------------------------------------------------------------------------------




--------------------------------------- Iteration      1(   9)  ---------------------------------------


    POTLOK:  cpu time    0.1231: real time    0.1408
    SETDIJ:  cpu time    0.3715: real time    0.3716
     EDDAV:  cpu time   41.7533: real time   41.7574
       DOS:  cpu time    0.0022: real time    0.0022
    CHARGE:  cpu time    1.3854: real time    1.3855
    MIXING:  cpu time    0.0047: real time    0.0047
    --------------------------------------------
      LOOP:  cpu time   43.6403: real time   43.6622

 eigenvalue-minimisations  : 10872
 total energy-change (2. order) :-0.1327982E+00  (-0.2636091E+00)
 number of electron     864.0000007 magnetization 
 augmentation part      118.2002678 magnetization 

 Broyden mixing:
  rms(total) = 0.97982E+00    rms(broyden)= 0.97954E+00
  rms(prec ) = 0.15026E+01
  weight for this iteration     100.00

 eigenvalues of (default mixing * dielectric matrix)
  average eigenvalue GAMMA=   1.0584
  2.0908  0.9498  0.9498  0.2431

 Free energy of the ion-electron system (eV)
  ---------------------------------------------------
  alpha Z        PSCENC =      3039.22321400
  Ewald energy   TEWEN  =    -48261.03904162
  -Hartree energ DENC   =    -17888.10020347
  -exchange      EXHF   =         0.00000000
  -V(xc)+E(xc)   XCENC  =      3286.97335745
  PAW double counting   =     92254.94992219   -91908.43796994
  entropy T*S    EENTRO =        -0.00091041
  eigenvalues    EBANDS =     -6387.87317396
  atomic energy  EATOM  =     64968.54023382
  Solvation  Ediel_sol  =         0.00000000
  ---------------------------------------------------
  free energy    TOTEN  =      -895.76457194 eV

  energy without entropy =     -895.76366153  energy(sigma->0) =     -895.76411674


--------------------------------------------------------------------------------------------------------




--------------------------------------- Iteration      1(  10)  ---------------------------------------


    POTLOK:  cpu time    0.1226: real time    0.1274
    SETDIJ:  cpu time    0.3731: real time    0.3731
     EDDAV:  cpu time   41.8529: real time   41.8587
       DOS:  cpu time    0.0020: real time    0.0020
    CHARGE:  cpu time    1.3750: real time    1.3750
    MIXING:  cpu time    0.0059: real time    0.0059
    --------------------------------------------
      LOOP:  cpu time   43.7315: real time   43.7422

 eigenvalue-minimisations  : 10896
 total energy-change (2. order) : 0.3813030E+00  (-0.7899040E-01)
 number of electron     864.0000007 magnetization 
 augmentation part      118.4495804 magnetization 

 Broyden mixing:
  rms(total) = 0.27411E+00    rms(broyden)= 0.27342E+00
  rms(prec ) = 0.35255E+00
  weight for this iteration     100.00

 eigenvalues of (default mixing * dielectric matrix)
  average eigenvalue GAMMA=   1.0788
  2.3095  1.0991  0.9153  0.9153  0.1544

 Free energy of the ion-electron system (eV)
  ---------------------------------------------------
  alpha Z        PSCENC =      3039.22321400
  Ewald energy   TEWEN  =    -48261.03904162
  -Hartree energ DENC   =    -17889.04421251
  -exchange      EXHF   =         0.00000000
  -V(xc)+E(xc)   XCENC  =      3287.03417291
  PAW double counting   =     92520.33583538   -92174.54310960
  entropy T*S    EENTRO =        -0.00003742
  eigenvalues    EBANDS =     -6385.89032388
  atomic energy  EATOM  =     64968.54023382
  Solvation  Ediel_sol  =         0.00000000
  ---------------------------------------------------
  free energy    TOTEN  =      -895.38326890 eV

  energy without entropy =     -895.38323149  energy(sigma->0) =     -895.38325020


--------------------------------------------------------------------------------------------------------




--------------------------------------- Iteration      1(  11)  ---------------------------------------


    POTLOK:  cpu time    0.1018: real time    0.1160
    SETDIJ:  cpu time    0.3646: real time    0.3646
     EDDAV:  cpu time   40.5225: real time   40.5347
       DOS:  cpu time    0.0018: real time    0.0018
    CHARGE:  cpu time    1.3673: real time    1.3674
    MIXING:  cpu time    0.0070: real time    0.0070
    --------------------------------------------
      LOOP:  cpu time   42.3650: real time   42.3914

 eigenvalue-minimisations  : 10440
 total energy-change (2. order) :-0.5083719E-02  (-0.3303642E-01)
 number of electron     864.0000007 magnetization 
 augmentation part      118.3885484 magnetization 

 Broyden mixing:
  rms(total) = 0.17194E+00    rms(broyden)= 0.17190E+00
  rms(prec ) = 0.24268E+00
  weight for this iteration     100.00

 eigenvalues of (default mixing * dielectric matrix)
  average eigenvalue GAMMA=   1.1056
  2.3613  1.4547  0.8811  0.8811  0.8955  0.1597

 Free energy of the ion-electron system (eV)
  ---------------------------------------------------
  alpha Z        PSCENC =      3039.22321400
  Ewald energy   TEWEN  =    -48261.03904162
  -Hartree energ DENC   =    -17905.51496838
  -exchange      EXHF   =         0.00000000
  -V(xc)+E(xc)   XCENC  =      3287.98763191
  PAW double counting   =     93584.27042297   -93240.92466778
  entropy T*S    EENTRO =        -0.00002036
  eigenvalues    EBANDS =     -6367.93115718
  atomic energy  EATOM  =     64968.54023382
  Solvation  Ediel_sol  =         0.00000000
  ---------------------------------------------------
  free energy    TOTEN  =      -895.38835262 eV

  energy without entropy =     -895.38833227  energy(sigma->0) =     -895.38834245


--------------------------------------------------------------------------------------------------------




--------------------------------------- Iteration      1(  12)  ---------------------------------------


    POTLOK:  cpu time    0.1172: real time    0.1224
    SETDIJ:  cpu time    0.3645: real time    0.3706
     EDDAV:  cpu time   41.8794: real time   41.8832
       DOS:  cpu time    0.0021: real time    0.0021
    CHARGE:  cpu time    1.3705: real time    1.3706
    MIXING:  cpu time    0.0061: real time    0.0061
    --------------------------------------------
      LOOP:  cpu time   43.7398: real time   43.7549

 eigenvalue-minimisations  : 10912
 total energy-change (2. order) : 0.2370745E-02  (-0.9887982E-02)
 number of electron     864.0000007 magnetization 
 augmentation part      118.3481811 magnetization 

 Broyden mixing:
  rms(total) = 0.13100E+00    rms(broyden)= 0.13100E+00
  rms(prec ) = 0.19624E+00
  weight for this iteration     100.00

 eigenvalues of (default mixing * dielectric matrix)
  average eigenvalue GAMMA=   1.1344
  2.4643  1.6504  0.9456  0.9456  0.9716  0.8041  0.1592

 Free energy of the ion-electron system (eV)
  ---------------------------------------------------
  alpha Z        PSCENC =      3039.22321400
  Ewald energy   TEWEN  =    -48261.03904162
  -Hartree energ DENC   =    -17913.39311211
  -exchange      EXHF   =         0.00000000
  -V(xc)+E(xc)   XCENC  =      3288.39690654
  PAW double counting   =     93586.56396184   -93242.28735586
  entropy T*S    EENTRO =        -0.00062520
  eigenvalues    EBANDS =     -6361.39016330
  atomic energy  EATOM  =     64968.54023382
  Solvation  Ediel_sol  =         0.00000000
  ---------------------------------------------------
  free energy    TOTEN  =      -895.38598188 eV

  energy without entropy =     -895.38535668  energy(sigma->0) =     -895.38566928


--------------------------------------------------------------------------------------------------------




--------------------------------------- Iteration      1(  13)  ---------------------------------------


    POTLOK:  cpu time    0.1202: real time    0.1366
    SETDIJ:  cpu time    0.3717: real time    0.3717
     EDDAV:  cpu time   43.4830: real time   43.4856
       DOS:  cpu time    0.0023: real time    0.0023
    CHARGE:  cpu time    1.3671: real time    1.3672
    MIXING:  cpu time    0.0059: real time    0.0059
    --------------------------------------------
      LOOP:  cpu time   45.3503: real time   45.3694

 eigenvalue-minimisations  : 11448
 total energy-change (2. order) : 0.1066573E-01  (-0.3641657E-02)
 number of electron     864.0000007 magnetization 
 augmentation part      118.3298445 magnetization 

 Broyden mixing:
  rms(total) = 0.10273E+00    rms(broyden)= 0.10272E+00
  rms(prec ) = 0.15722E+00
  weight for this iteration     100.00

 eigenvalues of (default mixing * dielectric matrix)
  average eigenvalue GAMMA=   1.1861
  2.3764  2.3172  0.9364  0.9364  0.8576  0.9527  0.9527  0.1592

 Free energy of the ion-electron system (eV)
  ---------------------------------------------------
  alpha Z        PSCENC =      3039.22321400
  Ewald energy   TEWEN  =    -48261.03904162
  -Hartree energ DENC   =    -17918.09249483
  -exchange      EXHF   =         0.00000000
  -V(xc)+E(xc)   XCENC  =      3288.61775980
  PAW double counting   =     93538.51903892   -93193.36828636
  entropy T*S    EENTRO =        -0.00436002
  eigenvalues    EBANDS =     -6357.77137985
  atomic energy  EATOM  =     64968.54023382
  Solvation  Ediel_sol  =         0.00000000
  ---------------------------------------------------
  free energy    TOTEN  =      -895.37531614 eV

  energy without entropy =     -895.37095613  energy(sigma->0) =     -895.37313614


--------------------------------------------------------------------------------------------------------




--------------------------------------- Iteration      1(  14)  ---------------------------------------


    POTLOK:  cpu time    0.0997: real time    0.1056
    SETDIJ:  cpu time    0.3644: real time    0.3644
     EDDAV:  cpu time   42.2819: real time   42.2839
       DOS:  cpu time    0.0024: real time    0.0024
    CHARGE:  cpu time    1.3631: real time    1.3632
    MIXING:  cpu time    0.0054: real time    0.0054
    --------------------------------------------
      LOOP:  cpu time   44.1170: real time   44.1248

 eigenvalue-minimisations  : 11048
 total energy-change (2. order) : 0.9234368E-02  (-0.1725775E-02)
 number of electron     864.0000007 magnetization 
 augmentation part      118.3137185 magnetization 

 Broyden mixing:
  rms(total) = 0.18995E-01    rms(broyden)= 0.18898E-01
  rms(prec ) = 0.26586E-01
  weight for this iteration     100.00

 eigenvalues of (default mixing * dielectric matrix)
  average eigenvalue GAMMA=   1.1731
  2.5024  2.3694  1.0327  0.9721  0.9721  0.9270  0.9270  0.6962  0.1592

 Free energy of the ion-electron system (eV)
  ---------------------------------------------------
  alpha Z        PSCENC =      3039.22321400
  Ewald energy   TEWEN  =    -48261.03904162
  -Hartree energ DENC   =    -17920.23607621
  -exchange      EXHF   =         0.00000000
  -V(xc)+E(xc)   XCENC  =      3288.68131131
  PAW double counting   =     93396.28129614   -93050.07391551
  entropy T*S    EENTRO =        -0.01968965
  eigenvalues    EBANDS =     -6356.72341406
  atomic energy  EATOM  =     64968.54023382
  Solvation  Ediel_sol  =         0.00000000
  ---------------------------------------------------
  free energy    TOTEN  =      -895.36608178 eV

  energy without entropy =     -895.34639213  energy(sigma->0) =     -895.35623695


--------------------------------------------------------------------------------------------------------




--------------------------------------- Iteration      1(  15)  ---------------------------------------


    POTLOK:  cpu time    0.1206: real time    0.1356
    SETDIJ:  cpu time    0.3717: real time    0.3717
     EDDAV:  cpu time   39.3187: real time   39.3214
       DOS:  cpu time    0.0023: real time    0.0023
    CHARGE:  cpu time    1.3619: real time    1.3620
    MIXING:  cpu time    0.0070: real time    0.0070
    --------------------------------------------
      LOOP:  cpu time   41.1823: real time   41.2001

 eigenvalue-minimisations  : 10064
 total energy-change (2. order) :-0.6734461E-03  (-0.4845796E-03)
 number of electron     864.0000007 magnetization 
 augmentation part      118.3045983 magnetization 

 Broyden mixing:
  rms(total) = 0.25913E-01    rms(broyden)= 0.25894E-01
  rms(prec ) = 0.35395E-01
  weight for this iteration     100.00

 eigenvalues of (default mixing * dielectric matrix)
  average eigenvalue GAMMA=   1.1282
  2.4903  2.4528  1.0719  1.0719  0.9303  0.9303  0.9223  0.1592  0.6264  0.6264

 Free energy of the ion-electron system (eV)
  ---------------------------------------------------
  alpha Z        PSCENC =      3039.22321400
  Ewald energy   TEWEN  =    -48261.03904162
  -Hartree energ DENC   =    -17921.53079366
  -exchange      EXHF   =         0.00000000
  -V(xc)+E(xc)   XCENC  =      3288.73508632
  PAW double counting   =     93373.90895689   -93027.47579839
  entropy T*S    EENTRO =        -0.02498648
  eigenvalues    EBANDS =     -6355.70362612
  atomic energy  EATOM  =     64968.54023382
  Solvation  Ediel_sol  =         0.00000000
  ---------------------------------------------------
  free energy    TOTEN  =      -895.36675522 eV

  energy without entropy =     -895.34176875  energy(sigma->0) =     -895.35426199


--------------------------------------------------------------------------------------------------------




--------------------------------------- Iteration      1(  16)  ---------------------------------------


    POTLOK:  cpu time    0.1001: real time    0.1069
    SETDIJ:  cpu time    0.3643: real time    0.3643
     EDDAV:  cpu time   44.8035: real time   44.8060
       DOS:  cpu time    0.0022: real time    0.0022
    CHARGE:  cpu time    1.3622: real time    1.3622
    MIXING:  cpu time    0.0063: real time    0.0063
    --------------------------------------------
      LOOP:  cpu time   46.6386: real time   46.6480

 eigenvalue-minimisations  : 11880
 total energy-change (2. order) : 0.1470093E-03  (-0.1435378E-03)
 number of electron     864.0000007 magnetization 
 augmentation part      118.3146215 magnetization 

 Broyden mixing:
  rms(total) = 0.96302E-02    rms(broyden)= 0.96260E-02
  rms(prec ) = 0.11866E-01
  weight for this iteration     100.00

 eigenvalues of (default mixing * dielectric matrix)
  average eigenvalue GAMMA=   1.1508
  2.6106  2.4338  1.2471  1.2471  1.0059  1.0059  0.8264  0.8264  0.8202  0.1592
  0.4758

 Free energy of the ion-electron system (eV)
  ---------------------------------------------------
  alpha Z        PSCENC =      3039.22321400
  Ewald energy   TEWEN  =    -48261.03904162
  -Hartree energ DENC   =    -17921.74061510
  -exchange      EXHF   =         0.00000000
  -V(xc)+E(xc)   XCENC  =      3288.74071350
  PAW double counting   =     93362.26509976   -93015.75696677
  entropy T*S    EENTRO =        -0.02137274
  eigenvalues    EBANDS =     -6355.57787307
  atomic energy  EATOM  =     64968.54023382
  Solvation  Ediel_sol  =         0.00000000
  ---------------------------------------------------
  free energy    TOTEN  =      -895.36660821 eV

  energy without entropy =     -895.34523547  energy(sigma->0) =     -895.35592184


--------------------------------------------------------------------------------------------------------




--------------------------------------- Iteration      1(  17)  ---------------------------------------


    POTLOK:  cpu time    0.1365: real time    0.1522
    SETDIJ:  cpu time    0.3827: real time    0.3827
     EDDAV:  cpu time   37.7363: real time   37.7386
       DOS:  cpu time    0.0023: real time    0.0023
    CHARGE:  cpu time    1.3603: real time    1.3604
    MIXING:  cpu time    0.0057: real time    0.0057
    --------------------------------------------
      LOOP:  cpu time   39.6237: real time   39.6419

 eigenvalue-minimisations  :  9520
 total energy-change (2. order) :-0.4193855E-04  (-0.7547977E-04)
 number of electron     864.0000007 magnetization 
 augmentation part      118.3138421 magnetization 

 Broyden mixing:
  rms(total) = 0.41054E-02    rms(broyden)= 0.41040E-02
  rms(prec ) = 0.56491E-02
  weight for this iteration     100.00

 eigenvalues of (default mixing * dielectric matrix)
  average eigenvalue GAMMA=   1.1642
  2.8528  2.3590  1.4070  1.2125  1.2125  1.0713  0.8447  0.8447  0.7738  0.7738
  0.1592  0.4591

 Free energy of the ion-electron system (eV)
  ---------------------------------------------------
  alpha Z        PSCENC =      3039.22321400
  Ewald energy   TEWEN  =    -48261.03904162
  -Hartree energ DENC   =    -17922.28102352
  -exchange      EXHF   =         0.00000000
  -V(xc)+E(xc)   XCENC  =      3288.75999623
  PAW double counting   =     93354.33192766   -93007.77696010
  entropy T*S    EENTRO =        -0.02163500
  eigenvalues    EBANDS =     -6355.10336164
  atomic energy  EATOM  =     64968.54023382
  Solvation  Ediel_sol  =         0.00000000
  ---------------------------------------------------
  free energy    TOTEN  =      -895.36665015 eV

  energy without entropy =     -895.34501515  energy(sigma->0) =     -895.35583265


--------------------------------------------------------------------------------------------------------




--------------------------------------- Iteration      1(  18)  ---------------------------------------


    POTLOK:  cpu time    0.1314: real time    0.1393
    SETDIJ:  cpu time    0.3820: real time    0.3821
     EDDAV:  cpu time   43.2571: real time   43.2582
       DOS:  cpu time    0.0023: real time    0.0023
    CHARGE:  cpu time    1.3392: real time    1.3392
    MIXING:  cpu time    0.0087: real time    0.0087
    --------------------------------------------
      LOOP:  cpu time   45.1207: real time   45.1298

 eigenvalue-minimisations  : 11344
 total energy-change (2. order) :-0.4236170E-04  (-0.3635668E-04)
 number of electron     864.0000007 magnetization 
 augmentation part      118.3121119 magnetization 

 Broyden mixing:
[...]
   0.262E+02 0.487E+02 -.973E+02   -.296E+02 -.552E+02 0.112E+03   0.472E+01 0.573E+01 -.157E+02   0.447E-04 -.121E-02 0.219E-02
   -.103E+02 0.131E+03 -.746E+02   0.278E+02 -.132E+03 0.690E+02   -.209E+02 0.347E+00 0.676E+01   -.461E-02 -.139E-02 -.223E-02
   -.118E+03 -.161E+03 -.127E+03   0.101E+03 0.188E+03 0.141E+03   0.192E+02 -.236E+02 -.892E+01   0.245E-02 -.190E-02 0.212E-02
   -.429E+02 0.758E+02 0.557E+02   0.198E+02 -.828E+02 -.401E+02   0.221E+02 0.710E+01 -.134E+02   0.167E-02 0.461E-03 -.227E-02
   0.748E+02 0.170E+02 -.448E+02   -.866E+02 -.364E+01 0.497E+02   0.124E+02 -.145E+02 -.483E+01   -.353E-02 0.912E-03 0.110E-02
   0.102E+03 0.529E+02 0.262E+02   -.116E+03 -.656E+02 -.262E+02   0.159E+02 0.138E+02 -.951E-01   -.275E-02 0.204E-02 0.302E-02
   0.219E+02 -.105E+02 0.466E+02   -.229E+02 0.953E+01 -.687E+02   0.269E+01 0.216E+01 0.242E+02   -.361E-02 -.140E-02 0.660E-03
   0.753E+02 -.116E+03 0.115E+03   -.666E+02 0.121E+03 -.140E+03   -.136E+02 -.139E+01 0.229E+02   -.449E-02 -.436E-03 0.620E-02
   0.519E+02 0.134E+03 0.571E+02   -.771E+02 -.156E+03 -.642E+02   0.245E+02 0.219E+02 0.567E+01   0.483E-02 -.343E-02 -.631E-03
   -.103E+03 -.980E+02 0.110E+03   0.116E+03 0.841E+02 -.122E+03   -.123E+02 0.175E+02 0.127E+02   -.386E-02 0.187E-02 -.314E-02
   -.970E+01 0.394E+02 0.494E+02   0.376E+01 -.288E+02 -.503E+02   0.631E+01 -.128E+02 0.125E+01   -.961E-04 0.363E-02 0.893E-04
   -.636E+02 -.120E+03 -.649E+02   0.690E+02 0.128E+03 0.609E+02   -.664E+01 -.819E+01 0.521E+01   0.469E-02 0.384E-02 0.789E-05
   0.117E+03 0.123E+03 0.432E+02   -.141E+03 -.121E+03 -.269E+02   0.260E+02 -.442E+01 -.180E+02   -.201E-02 -.571E-02 0.164E-03
   0.119E+03 -.405E+02 -.301E+02   -.128E+03 0.509E+02 0.304E+02   0.725E+01 -.126E+02 0.741E+00   -.338E-02 0.584E-03 0.269E-02
   0.115E+03 0.842E+02 -.126E+02   -.125E+03 -.109E+03 0.262E+01   0.819E+01 0.237E+02 0.109E+02   -.468E-02 -.832E-03 0.325E-02
   0.239E+02 0.634E+02 -.600E+02   -.240E+02 -.621E+02 0.594E+02   -.251E+01 -.250E+01 0.394E+01   0.247E-02 -.161E-02 -.368E-02
   0.686E+02 -.599E+02 -.302E+02   -.950E+02 0.581E+02 0.414E+02   0.285E+02 -.553E+00 -.101E+02   -.258E-02 -.458E-03 0.857E-03
   -.101E+03 -.147E+02 -.362E+01   0.102E+03 0.322E+02 0.265E+02   -.197E+00 -.167E+02 -.217E+02   0.224E-02 0.447E-03 0.170E-02
   -.860E+01 0.735E+02 0.349E+02   0.536E+01 -.777E+02 -.449E+02   0.314E+01 0.228E+01 0.732E+01   0.690E-02 0.235E-02 -.308E-02
   0.685E+02 -.271E+02 -.719E+02   -.665E+02 0.252E+02 0.441E+02   -.216E+01 0.159E+01 0.308E+02   0.454E-03 0.801E-02 -.182E-01
   -.138E+03 -.279E+02 -.232E+01   0.142E+03 0.172E+02 -.159E+02   -.151E+01 0.847E+01 0.195E+02   0.357E-02 -.377E-03 0.218E-02
   -.270E+02 -.235E+01 -.606E+02   0.480E+02 -.146E+02 0.615E+02   -.227E+02 0.177E+02 -.647E+00   0.572E-03 -.111E-02 0.233E-02
   0.405E+01 -.946E+02 -.528E+02   -.243E+02 0.894E+02 0.738E+02   0.167E+02 0.430E+01 -.240E+02   -.739E-02 0.340E-02 -.245E-02
   -.892E+02 -.449E+02 0.209E+02   0.101E+03 0.520E+02 -.387E+02   -.105E+02 -.609E+01 0.169E+02   0.691E-02 0.240E-02 0.611E-03
   0.238E+02 0.249E+02 0.853E+02   -.407E+01 -.299E+02 -.918E+02   -.217E+02 0.721E+01 0.685E+01   0.170E-02 0.257E-02 0.296E-02
   0.104E+03 0.270E+02 -.212E+02   -.947E+02 -.543E+02 0.116E+02   -.134E+02 0.263E+02 0.109E+02   0.215E-02 -.175E-02 0.163E-02
   0.476E+02 0.708E+01 -.551E+02   -.341E+02 -.960E+01 0.686E+02   -.158E+02 0.150E+01 -.148E+02   -.433E-02 -.469E-02 -.415E-02
   -.286E+02 -.307E+02 -.710E+02   0.402E+02 0.389E+02 0.968E+02   -.129E+02 -.928E+01 -.251E+02   -.516E-02 -.762E-03 -.216E-02
   -.143E+02 -.733E+02 0.619E+02   0.193E+02 0.704E+02 -.805E+02   -.432E+01 0.171E+01 0.176E+02   -.626E-02 0.206E-02 -.294E-02
   -.171E+03 -.917E+02 -.283E+02   0.190E+03 0.111E+03 0.301E+02   -.204E+02 -.196E+02 -.355E+01   -.105E-02 -.125E-02 0.295E-02
   -.409E+02 -.287E+02 -.981E+02   0.481E+02 0.370E+02 0.964E+02   -.864E+01 -.132E+02 0.688E+01   -.581E-03 0.655E-02 -.502E-02
   0.144E+01 0.117E+02 -.433E+02   -.114E+02 -.329E+02 0.658E+02   0.147E+02 0.207E+02 -.200E+02   -.172E-01 0.332E-02 -.314E-02
   0.121E+02 0.119E+01 0.997E+02   -.219E+02 0.515E+01 -.131E+03   0.971E+01 -.762E+01 0.244E+02   -.591E-02 -.190E-03 -.496E-04
   0.468E+02 0.497E+02 0.159E+03   -.388E+02 -.478E+02 -.137E+03   -.548E+01 -.945E+00 -.260E+02   0.296E-02 -.219E-02 -.717E-03
   0.109E+03 -.429E+02 -.561E+02   -.115E+03 0.162E+02 0.577E+02   0.265E+01 0.252E+02 -.186E+01   0.988E-02 0.848E-02 -.869E-02
   -.521E+00 -.483E+02 -.686E+01   0.172E+02 0.633E+02 0.257E+02   -.140E+02 -.122E+02 -.179E+02   -.132E-03 0.459E-03 0.219E-02
   0.132E+02 0.103E+03 0.133E+03   -.283E+02 -.107E+03 -.125E+03   0.123E+02 0.110E+01 -.140E+02   0.308E-02 0.469E-03 0.614E-03
   -.190E+02 -.714E+02 0.416E+02   0.662E+01 0.879E+02 -.592E+02   0.146E+02 -.135E+02 0.153E+02   0.294E-02 -.347E-02 0.481E-02
   -.157E+03 0.379E+02 0.160E+03   0.164E+03 -.359E+02 -.174E+03   -.677E+01 -.255E+01 0.134E+02   0.175E-02 -.136E-02 -.127E-02
   0.155E+02 0.833E+02 0.221E+02   -.266E+02 -.104E+03 -.284E+02   0.119E+02 0.219E+02 0.597E+01   -.189E-03 -.715E-02 0.149E-02
   -.528E+01 -.435E+01 0.521E+02   0.900E+00 0.151E+02 -.538E+02   0.514E+01 -.967E+01 0.207E+01   0.711E-02 -.352E-02 -.628E-02
   0.399E+02 0.686E+02 0.657E+02   -.342E+02 -.657E+02 -.891E+02   -.593E+01 -.115E+00 0.224E+02   -.299E-02 -.599E-02 0.192E-02
   0.826E+02 0.339E+02 0.636E+02   -.953E+02 -.277E+02 -.107E+03   0.100E+02 -.582E+01 0.333E+02   -.277E-02 0.609E-02 -.321E-02
   -.807E+02 0.208E+02 0.884E+02   0.958E+02 -.696E+01 -.711E+02   -.169E+02 -.146E+02 -.206E+02   -.183E-02 -.306E-03 -.291E-02
   0.160E+02 0.576E+02 0.593E+02   -.223E+02 -.907E+02 -.741E+02   0.588E+01 0.297E+02 0.126E+02   -.262E-02 -.124E-02 0.203E-03
   -.308E+01 -.831E+01 -.137E+02   0.342E+01 0.864E+01 0.491E+02   0.843E+00 0.395E+01 -.330E+02   -.663E-02 0.145E-01 0.975E-02
   0.573E+02 0.822E+02 0.111E+03   -.674E+02 -.989E+02 -.119E+03   0.111E+02 0.168E+02 0.988E+01   0.902E-02 0.222E-02 -.578E-02
   -.111E+03 -.134E+03 -.149E+03   0.116E+03 0.162E+03 0.163E+03   0.243E+01 -.263E+02 -.124E+02   0.931E-02 0.255E-02 -.789E-03
 -----------------------------------------------------------------------------------------------
   -.239E+03 0.334E+01 -.222E+02   -.369E-12 -.142E-12 0.398E-12   0.239E+03 -.334E+01 0.222E+02   0.154E-01 0.132E-02 0.985E-02
 
 
 POSITION                                       TOTAL-FORCE (eV/Angst)
 -----------------------------------------------------------------------------------
      8.68972      1.62726      6.38276         1.998029      2.415160      1.086325
      9.65373      7.95215      2.08536        -2.283561     -1.141506      1.117631
     11.24224      8.16458      5.36086         0.364060      0.057404     -1.101733
      1.58425      4.24974      0.97090        -0.078263     -0.560965     -0.385611
      9.28015      8.64278      9.91937         1.611623      2.168401      0.600036
      3.46321      9.82465      8.80630        -9.018011      0.220043      2.630416
      5.91224      7.27247      9.82551         0.456185      1.244020     -1.452004
      1.22866     10.03222      6.77575        -0.719550      2.301076     -1.690827
     10.21993      5.37165     11.60718         0.991856      0.793919      0.769259
      4.16330      5.12150     10.40263         3.750903      0.839485      0.100576
     10.73245      5.13854      6.69070        -0.229534     -0.545502     -2.281911
      1.09788      8.48574      2.15202         1.714631      1.235663     -0.460111
      5.78205      5.95813      6.73383         0.241204     -0.029529     -2.056472
      3.15333      1.81545      4.20221        -1.486739      0.932406     -1.031600
      2.48089      6.24609      7.41854         0.880671      1.608657      0.033778
     11.29234      0.42181      9.20511        -0.177978      0.407902     -0.383018
      8.68889      8.52984      7.33451         1.083839     -1.693070     -1.659140
      6.40258      9.60331      2.55644         1.336481     -1.431451      0.554804
      7.67869      2.89454     11.56268        -0.806552     -2.114718      0.550472
      9.86696      3.43754      3.07782         0.163207     -2.140741     -1.853409
      4.04330      8.65364      5.02419         2.256323     -3.954937      2.118312
      5.99203      0.46182      5.07148        -2.451490      1.155432      1.434454
      3.39242      3.37490      8.06025         1.312388      0.436418     -1.614727
      2.83307      1.47236     10.60896        -1.291174      0.314468      0.858608
      5.92495      1.44381      9.05982         1.289966     -0.477082     -1.280715
      6.97371      3.25290      2.73327         1.600785      2.723548      2.024956
      0.25807     11.59012      3.40348         2.311072      1.402931      1.020105
      9.88412     10.82705      1.39191         0.743310     -2.223839     -4.536984
      3.60789      8.07945     11.62798        -3.249760     -3.029819     -2.444779
      3.20373     10.73709      4.06629        -5.068975     -0.720665     -1.847844
      0.56954      6.03304      3.05341         3.255075      4.012109      5.625939
      6.42544      6.99482      3.60355         0.616234      0.512582      0.522127
      4.98367      5.91320      1.58930        -3.253111     -2.259033      4.736657
      8.15909      0.73546      3.66258         4.972746     -0.966337     -4.787476
      3.41901     10.71307      0.97138         0.193908     -2.002672     12.017414
      7.52007      6.42196      0.40354         7.645902      2.212448      2.412344
      3.03584      5.74299      4.72134        -3.359059     -3.175034     -2.260739
      4.96342      3.80979      4.34273         0.480255      0.638354      8.297501
      9.50423     10.62169      4.96590         7.365297     -4.037104      1.472088
      7.53309     10.59182     10.82555        -0.617016      3.435132     -0.040124
      6.11980      0.38945      1.42726        -1.418581     -3.684461     -1.563192
      7.40907     10.70679      6.75564         2.694373      4.520167      3.130238
      3.75262      0.82958      7.07108         1.626218      2.893985     -2.427589
      8.09315      5.22375      8.94544         1.126405      0.386896      3.236806
      8.01386      5.04642      5.23808        -2.976375     -3.069578     -0.614100
     11.07523      6.80873      8.97172         1.182686      5.089525      0.581107
      0.80842      3.57720      4.07132         4.020146      4.001612      2.543725
     10.93220      1.49597      0.23014         4.942024      2.179470      2.484832
      0.97381      4.42550      9.36597         0.502126     -3.952939     -1.267988
      4.69123      2.83603      1.05122        -2.913089      5.547227     -3.640945
      9.69653      3.13676      9.52340         1.733149     -6.538320     -0.484556
      0.96178      2.30956      7.05015         0.865308     -0.106519     -0.289959
      5.57864      9.08631      7.84756         3.558397      2.507328     -4.382484
      1.20988      8.47762     10.29990        -4.018645      0.324635     -4.641500
      9.29475      8.99972      4.37697         0.956792      0.949668      1.678047
      3.60538      5.48757      0.83004        -0.601946      3.320190     -0.396574
      3.54037      0.86317      8.71049         0.401022     -1.207767     -1.962162
      2.01296      0.00935      4.83369         1.439177      0.268326     -0.584590
      5.76551      4.49701      1.17893         0.418586     -4.661042      0.003096
      1.14708      9.91593      9.61166         0.040546      2.706511     -0.283906
      8.39993      5.42852      1.49181         0.072396     -0.922800     -2.483082
      2.67837      4.10206      3.69844        -7.575517     -3.117953      1.502285
      9.65946      1.78963     10.96285        -0.365485      1.258695     -0.129064
      5.98562     10.04989      6.38385         1.657309     -1.943394      0.897270
      6.42150      7.67575      4.98899         0.323931      1.524880      1.916820
      6.74672      7.98365      7.67967        -0.618163     -0.585540      2.831393
      5.96952      6.59665      0.50367        -3.976468      3.277504     -1.202522
      7.99469     10.95464      4.98842        -7.333364      1.562109     -0.650565
      4.85325      7.24798      3.20767         0.645172     -1.378178     -4.172816
      9.07404     11.00276     11.46624         0.640204     -1.364467      0.869384
      1.38700      2.32223      8.71331         0.267783      0.386494     -2.152164
     10.75717      7.50704      7.51347         0.845893      0.019039     -0.727338
      4.38833      0.16640      1.51279         6.306732      2.019598     -0.261689
      4.15927     11.36075      5.84350        -3.492508     -0.781670      1.805008
      9.15039     10.67719      6.86020         1.813023     -1.525206     -2.792856
      2.55380     11.34567      2.42693        -1.671242     -3.091249      0.267281
      5.11117      1.77719      6.83624        -2.850047      0.187708      1.481455
      4.28463      8.31867      7.52821        -3.234997     -0.568541     -1.366671
      6.24809      3.83678      5.55278         1.780673      3.358968     -1.600377
     11.46013     10.41441      5.01877        -3.342720     -2.371846      2.766856
      7.17987      0.61575      7.27722        -1.333818     -1.963975     -0.879453
      2.48418      1.96466      6.40073         1.704679     -0.283553      1.126131
      0.09240      3.44729     10.22754        -5.327008      0.346303      1.517843
      0.37563      3.50632      5.61951         0.267480     -1.567276      3.118455
      8.73251      4.19305     10.32856         2.372910      0.554912     -1.051198
     11.20017      2.78157      1.16326        -0.295207      3.401854      0.474410
      4.80683      3.02670     10.88206         0.076524     -2.230547      2.111564
      3.69792      4.27753      5.69543         1.253670     -0.686719     -0.712419
      0.78697      1.17748     11.05585        -3.418994     -1.418468      1.119233
      7.41129      1.84538      4.39806         2.252554      3.716139      4.989097
      8.72131     10.72462      2.41887        -0.959037      0.152948      2.280512
     11.37565      7.46996      3.43288         0.596907     -1.153024      0.029948
      2.15028      9.26537      4.22740         1.542487      1.037491     -0.090497
      0.99362      4.46163      7.66583         1.608754      1.211950      2.085374
      2.67594      6.17474      3.15542        -4.858575      3.339745     -2.308711
      6.94804      4.21371      8.64605        -0.723539     -0.141917     -1.439374
     10.83441      9.39916      1.19781         0.032406      3.617522      1.151590
      9.28960      6.53563      8.97101         0.369986     -2.209029      0.349129
      8.18671     10.39450      8.84101        -1.205212     -0.448395      1.184567
      3.20644      3.00853      1.64828         1.854626     -2.204727     -1.717319
      1.51316      6.60238      5.25951        -1.171257     -2.065443      0.974428
      0.34071      0.84198      6.91725        -2.015986     -0.960485      0.935879
      4.67150      5.83532      8.35190        -2.633730     -1.231937      3.322913
     11.27048      4.90867      3.69645         2.102163     -2.293928      1.106129
      8.08600      5.86842      6.58233         1.383615      0.871075      1.181046
      7.40458      6.01734     10.47395        -0.087565     -1.899506     -2.724151
      3.97204      8.13116     10.05746        -0.236903     -0.320991      3.002165
      7.28482      5.61383      3.83826         1.893256     -2.191150      1.206782
      9.31462      4.08103      5.09216        -1.666686      0.798814      0.265779
     11.38124      7.95312     10.78930        -3.530211     -0.861827     -2.920265
      7.20353      7.53535      2.29665         1.464514      1.032339     -0.803058
      4.72511     10.16069      3.70086        -1.932686      2.177708      0.323236
      5.33421      2.39443      3.76645        -4.428879     -0.962658      1.306462
      2.40008      4.40934     10.16122        -2.368713     -1.035050     -1.276858
      0.34675      5.83780      9.82394        -1.297817     -1.113279      0.682963
      1.26522      7.72940      8.78017         0.684227     -1.172802     -0.979739
      9.81105      0.63807      4.52810        -1.198694     -0.379937     -1.774892
      8.89956      7.61322     11.51970        -1.425544     -4.840285      5.183460
      1.87025      7.80132     11.54079         4.690148     -0.512708      2.428350
      0.17239      6.13508      1.60103        -0.075773     -1.291566     -6.364210
      5.74438      1.91045      1.72082         2.508957      0.991038     -3.115756
      7.38296      9.03653     10.64734        -3.211721     -1.594145     -0.263703
      3.84127      6.57865      5.72951         2.691886      2.690620      0.994606
      6.70346      0.23211      3.11514        -2.763946     -3.060498     -6.278891
      4.62444      4.86379      3.28517         2.283732      3.021730     -2.344250
      8.50051      1.83211      2.28423         0.474783     -0.603774     -0.890312
      9.03188      1.71911      8.80852         0.764436      1.517104     -0.313651
      6.79884      0.62570     10.93750         0.767015      1.087473      0.322171
     10.06965      3.76981      8.12383        -0.211808      2.699383     -0.941536
      3.07183     10.95876     11.25891        -2.706586      0.429005    -10.436557
     10.90417      0.46457      1.63432        -1.756475     -0.826756     -3.251701
      0.54535      2.22344      3.51152        -0.490403     -3.375034     -2.230847
      3.54401      8.89069      1.30169         1.174896      4.299693      2.392167
      6.25664     10.50414      0.55018         1.030276      0.092052      2.259930
      5.14359     10.39363      8.68276         7.469787      1.831865      0.951537
 -----------------------------------------------------------------------------------
    total drift:                                0.009065      0.001246      0.013175


--------------------------------------------------------------------------------------------------------



  FREE ENERGIE OF THE ION-ELECTRON SYSTEM (eV)
  ---------------------------------------------------
  free  energy   TOTEN  =      -895.36667995 eV

  energy  without entropy=     -895.34473746  energy(sigma->0) =     -895.35570870
 


--------------------------------------------------------------------------------------------------------


    POTLOK:  cpu time    0.4631: real time    0.4632


--------------------------------------------------------------------------------------------------------


     LOOP+:  cpu time  973.8381: real time  974.2242
    4ORBIT:  cpu time    0.0000: real time    0.0000

 total amount of memory used by VASP MPI-rank0   158177. kBytes
=======================================================================

   base      :      30000. kBytes
   nonlr-proj:      22626. kBytes
   fftplans  :      23353. kBytes
   grid      :      12472. kBytes
   one-center:        171. kBytes
   wavefun   :      69555. kBytes
 
  
  
 General timing and accounting informations for this job:
 ========================================================
  
                  Total CPU time used (sec):      995.900
                            User time (sec):      991.922
                          System time (sec):        3.978
                         Elapsed time (sec):      996.453
  
                   Maximum memory used (kb):      302964.
                   Average memory used (kb):           0.
  
                          Minor page faults:       102554
                          Major page faults:            0
                 Voluntary context switches:         1801
