135
Time=99999.99999996 pbc="T T T" Lattice="11.62817333 0.00000000 0.00000000 0.00000000 11.62817333 0.00000000 0.00000000 0.00000000 11.62817333" energy=-928.60626100 virial="134.14876494 26.94463620 -18.14612656 26.94463620 172.35829125 16.94695891 -18.14612656 16.94695891 164.54928106" stress="0.10751724 0.01713712 -0.01154116 0.01713712 0.13181897 0.01077847 -0.01154116 0.01077847 0.12685235" Properties=species:S:1:pos:R:3
Ca 5.49452754 4.09232393 6.01294219
Ca 3.99277610 7.43302636 5.08135021
Ca 8.48668113 1.44014344 6.28758111
Ca 5.95383452 5.45112952 3.14140476
Ca 5.68909611 6.55454935 11.07204498
Ca 0.06172880 3.11781664 5.75723290
Ca 8.02495211 8.30307318 1.84602772
Ca 11.26317809 3.68037420 10.91244606
Ca 7.99802483 9.16254610 6.38225031
Ca 4.23928942 10.07705838 7.05157670
Ca 5.27693815 0.93195507 0.14600078
Ca 8.01234672 5.86061230 8.31849822
Ca 4.82024762 3.87179412 9.17568977
Ca 7.54918632 6.70315296 4.90716286
Ca 10.73326877 6.91945302 8.69484069
Ca 0.79901759 11.50439410 0.05838232
Ca 3.41084365 0.96497788 8.72550720
Ca 3.31046383 10.96480788 2.59795301
Ca 1.67799522 9.65703008 8.22302082
Ca 7.49398836 3.85711762 10.94602921
Ca 9.07405350 2.04587108 2.04723425
Ca 6.45926241 9.53686344 9.87344099
Ca 0.37300103 8.76976805 10.68408906
Ca 0.02929466 6.16749938 2.90790907
Ca 9.92399395 10.97517409 4.46747144
Ca 1.79722162 6.01959610 11.44156734
Ca 0.99891608 8.69286981 4.99328662
Si 3.80980425 3.49067074 1.00388436
Si 1.58949497 3.97542695 8.76799003
Si 2.56399870 8.12514377 2.16220323
Si 11.57725447 1.45731774 8.50141949
Si 8.99985484 4.13660815 4.45554881
Si 8.52061871 3.04503674 8.64638328
Si 9.34697860 10.83884351 0.64164113
Si 3.31756163 10.54256791 10.78235802
Si 3.75864327 1.93006521 5.87017758
Si 8.84564624 5.28749206 1.92842800
Si 9.49975953 0.88487084 9.88755917
Si 1.34122609 0.27841404 6.28522346
Si 6.04074719 0.24937559 4.40850785
Si 5.78731357 2.40426803 2.58022940
Si 2.64937922 4.83615216 3.52156607
Si 0.83611581 0.43322640 3.31986373
Si 1.05202617 3.66321278 1.56319493
Si 11.58007786 9.33692388 2.05470886
Si 4.80738688 9.01522860 0.88954683
Si 3.26883189 7.33898795 9.36236963
Si 10.55963843 6.24452936 5.70194067
Si 5.39163579 6.81364423 8.15667995
Si 1.70243806 5.85753879 6.44731249
Si 10.16431334 10.12404214 8.23746879
Si 6.94121132 0.54324324 8.52594035
Si 10.05548135 6.16581928 11.48048329
Si 6.21592866 9.15306953 3.68271046
O 0.83929950 8.04938292 1.49079477
O 1.51686029 10.40845620 6.06086911
O 4.75028556 3.46231440 11.42300366
O 0.06277376 5.96428831 7.00813115
O 3.12252776 3.45152617 5.18689328
O 8.83439782 9.09799406 8.41332178
O 4.87113745 1.22558905 4.90310509
O 1.88410605 0.41649206 4.60196348
O 3.72416354 7.30773721 0.92545579
O 10.46860020 5.11649137 4.72819127
O 4.22587179 2.31560129 2.11468562
O 9.83625006 10.64618111 6.73124162
O 5.67959379 0.59024059 9.60664609
O 6.33415819 7.51348786 6.95537854
O 9.56703553 4.11675678 8.51635489
O 5.94691861 3.33812845 3.74801411
O 2.72887715 0.27902891 0.00777944
O 0.64907725 5.09427835 9.30555841
O 4.01558224 7.65754584 7.95124545
O 10.81293065 9.72515035 0.50621818
O 3.98076670 8.54075446 10.32597245
O 9.53717886 4.03935883 2.85334352
O 9.13199811 11.26516478 2.32443324
O 1.76630253 7.64886547 9.45836162
O 11.25720915 1.49067715 10.02406915
O 3.91623323 5.84008792 9.66841236
O 0.55740210 2.87951729 8.07837454
O 9.51643422 4.57865752 0.40021220
O 2.41601149 3.33104779 0.45377246
O 3.95086638 5.25692179 4.74495481
O 10.95458394 7.68967610 5.17455179
O 1.76018386 9.93231964 10.74295256
O 4.54746959 2.33550378 7.18050673
O 5.33313027 5.30409496 7.69600105
O 6.61261056 11.29389741 7.15114972
O 11.50133846 2.50848035 1.01910524
O 7.51434125 2.02361085 7.83519904
O 6.55419682 2.33913110 1.12372274
O 9.02081632 6.38831432 6.45122048
O 5.56900921 9.78251175 2.38970053
O 2.89557720 8.77059528 3.62740212
O 2.81518414 0.92684382 6.39416971
O 3.12992465 9.45896996 1.34148862
O 8.65752254 2.11775361 10.19724975
O 1.50770151 3.66327931 3.13409151
O 10.77502651 8.75069637 3.15594313
O 6.57643208 7.41904881 9.29473690
O 11.35925812 0.80181402 6.35200868
O 4.04897319 5.08607757 1.93023254
O 2.58720925 4.83061059 7.30772726
O 11.24779324 1.18628018 3.93203896
O 7.77634928 0.40897336 4.53109345
O 2.38237456 7.36185479 6.48382979
O 7.56050973 4.59346065 5.30709518
O 7.69910086 9.25429922 3.89298027
O 11.37329178 9.05108247 8.56560697
O 4.96862796 10.40177134 11.41528837
O 2.35315942 6.34292610 3.03633370
O 9.85677257 1.45135915 8.24948101
O 1.21929714 5.46746432 4.97890167
O 9.04737855 6.38897489 10.30446621
O 9.73583644 2.81502363 5.08523877
O 5.60892794 7.60521310 3.53909546
O 9.78466518 6.87315851 1.46692607
O 3.65528088 10.45380304 9.15567983
O 0.53568101 5.05353902 1.02584058
O 6.26816956 8.00838477 0.63514176
O 7.33205400 4.82321636 1.19182277
O 7.99575849 11.48071666 9.43140822
O 9.41107021 0.78761719 11.61805974
O 8.11282840 6.16711014 2.96836884
O 8.28569926 9.72227630 0.22278664
O 5.59945303 10.17857377 4.80000774
O 2.51727905 3.11644884 9.60156540
O 1.67833854 0.84316316 2.09261129
O 7.04865566 3.93855124 8.88167242
O 1.27590833 0.39287160 8.37601960
O 11.37856423 6.81640566 11.08318144
O 5.89226588 0.64156579 2.78029790
O 0.48935455 10.54411317 2.66809869
O 10.39508024 11.00312749 9.52423948
135
Time=199999.99999918 pbc="T T T" Lattice="11.62817333 0.00000000 0.00000000 0.00000000 11.62817333 0.00000000 0.00000000 0.00000000 11.62817333" energy=-924.61111683 virial="134.72761251 7.79799267 13.33852653 7.79799267 129.47547582 28.81917102 13.33852653 28.81917102 173.55913929" stress="0.10788540 0.00495962 0.00848347 0.00495962 0.10454498 0.01832935 0.00848347 0.01832935 0.13258273" Properties=species:S:1:pos:R:3
Ca 5.07720732 5.10287548 3.34421389
Ca 6.16704794 0.14953255 4.96125958
Ca 7.15286840 9.30125339 2.57217542
Ca 6.02955790 2.83719392 10.88369406
Ca 11.41392996 1.24524081 0.86601060
Ca 0.65948287 8.07027789 0.54585736
Ca 3.97217074 2.54645275 5.88111490
Ca 10.79327234 5.49731247 9.69378979
Ca 4.04555084 5.72381923 6.10267585
Ca 2.05447309 4.92241335 0.23053106
Ca 7.96889447 6.37384284 4.11759006
Ca 2.88324886 4.04647333 8.60224818
Ca 0.53606674 9.16769433 6.49956166
Ca 3.99579949 11.10427983 2.43073661
Ca 1.79140661 0.04053722 9.48480657
Ca 0.74483470 2.84977521 5.90556103
Ca 5.79849215 11.35174471 10.92455867
Ca 7.41357302 1.01974303 7.57259391
Ca 9.04520297 9.46459792 5.52636824
Ca 7.55502431 4.30006557 1.10306413
Ca 3.95665898 9.00381258 10.49242612
Ca 6.83499129 5.29588316 8.04642468
Ca 1.01539015 6.10214011 3.77294247
Ca 10.86524459 9.18214709 9.18562354
Ca 0.73604889 5.46862277 6.75486553
Ca 0.72105885 11.20941878 3.45943031
Ca 7.28446926 8.51181655 8.87339600
Si 1.30875586 10.54881308 0.78628931
Si 7.75779782 0.60673967 1.95957801
Si 8.65837444 2.94580472 9.50328050
Si 10.24678586 8.58511435 3.00213861
Si 9.33989251 3.94245368 6.53568216
Si 10.98767906 3.24384500 3.72516248
Si 0.28470837 2.52359035 9.64393973
Si 9.43911980 7.10148065 0.25020312
Si 10.66067962 4.59102145 1.04066711
Si 7.16486531 3.43610618 5.25682692
Si 4.43217897 1.06879371 8.52235788
Si 4.86759244 6.14962271 9.89906307
Si 2.71166340 11.28199056 5.59927950
Si 2.63823156 8.47266483 4.51899417
Si 9.67200138 10.12723935 0.94791123
Si 3.19734662 1.77708170 0.32979751
Si 9.36919680 7.20225010 7.29535787
Si 4.41164229 9.94486485 7.62850769
Si 11.32082980 0.58500898 7.58122488
Si 5.53304840 2.47438080 2.15647645
Si 9.45908165 0.52021437 4.91758882
Si 3.08744772 8.45624170 1.68116152
Si 6.57278951 7.34036435 0.04669343
Si 2.48796576 7.38618751 8.55632027
Si 2.11421603 3.19088322 2.86113718
Si 8.74053707 11.43511615 9.44684767
Si 5.67658506 8.20401661 5.31851891
O 0.31093790 5.29665876 1.05544413
O 3.14239112 2.04360193 8.06902821
O 8.11287484 7.02854681 11.07585023
O 8.01677582 4.93760355 6.06608394
O 4.38367143 1.30346814 1.27345327
O 10.58125178 7.23010779 1.91423390
O 8.40812828 3.03637169 7.71436710
O 9.84845634 0.38649197 8.21443970
O 5.99626884 8.82021034 11.10699804
O 8.63332080 6.27903820 8.32643585
O 3.32809018 6.87196564 9.82275523
O 10.58532059 10.23864373 2.28145065
O 10.38397314 4.37923128 2.56103555
O 7.17488384 2.11627675 1.69883074
O 6.32394631 9.44909868 4.54102186
O 10.69362367 3.14458945 0.15283482
O 8.88652578 8.59656384 3.68653152
O 1.20687636 8.12657280 9.49373544
O 8.25055402 1.25388513 9.95008245
O 0.41448905 2.66250138 2.40687102
O 0.17277567 10.77032003 8.21477011
O 2.54887658 7.22200102 0.82035403
O 5.79614762 3.72426284 6.08009747
O 0.08490003 8.21726928 3.71108736
O 10.15604367 3.45272433 9.54583075
O 4.11651018 11.23489191 8.96774610
O 2.85364600 10.48907344 6.96408604
O 0.50519232 3.92748492 4.36834997
O 4.00338901 8.24439375 5.54475550
O 5.39751756 5.70291073 11.48812358
O 0.34109455 1.84909663 8.24493488
O 10.40106766 7.54541852 10.67874257
O 8.31610825 11.40158642 5.66313762
O 0.60634122 1.17554771 10.73503472
O 7.50458682 4.07214652 10.08878484
O 8.40341852 0.08554992 3.21472388
O 4.84177274 4.84210742 9.22582019
O 9.37462413 5.49386238 0.71823152
O 5.59469051 1.51355047 9.51971640
O 5.17963186 3.88410723 1.55826401
O 0.83020343 4.05926581 9.92001353
O 1.99547259 9.87271171 4.91701132
O 10.49837836 1.18932559 6.12074900
O 5.83427355 6.98900503 4.09446085
O 6.20959434 11.26650033 1.74698366
O 10.00214893 1.58834245 3.74935930
O 4.23524178 11.23907820 4.87267264
O 9.75161748 3.72412310 4.93158730
O 8.91100030 6.90469312 5.85589885
O 5.65099842 7.38812234 9.28519825
O 7.36920426 1.96961884 5.64107123
O 11.21627242 10.46411327 0.14847496
O 2.09393061 7.17369221 5.28460162
O 2.54321692 2.41857565 4.09790917
O 3.08348095 0.26242572 11.62650532
O 2.67310837 3.92905459 6.25933720
O 3.54391717 3.00757891 10.80972624
O 6.41103149 7.43588906 6.73653521
O 2.61020095 6.06585815 7.62972864
O 8.88882065 0.07555964 0.92869100
O 9.61238816 8.77786417 7.33123306
O 1.56488071 0.68204361 6.10331415
O 1.74878398 10.00373387 10.89878060
O 7.28530187 4.27176259 3.79503557
O 2.99597385 7.90005435 3.15338572
O 10.77740352 4.14090492 7.24471100
O 2.21202512 2.75973387 1.26731118
O 3.36182079 8.70674122 8.20261991
O 7.30351512 10.81408786 9.03874401
O 2.69560532 4.69768530 2.78226765
O 1.78529886 9.44969941 1.91939717
O 10.73284088 10.65885139 4.65322913
O 4.33521204 9.37298777 1.19949785
O 9.17091181 10.33754623 10.67862480
O 9.02966896 8.64501961 1.17930178
O 4.77038195 0.62786183 6.90815391
O 5.10674824 2.00638035 3.68997922
O 5.83468077 9.84639981 7.07510943
O 6.25336443 7.54214841 1.67614658
O 11.31450458 7.02095214 7.39430609
O 1.52601832 0.23926774 1.65563933
135
Time=299999.99999840 pbc="T T T" Lattice="11.62817333 0.00000000 0.00000000 0.00000000 11.62817333 0.00000000 0.00000000 0.00000000 11.62817333" energy=-922.13100051 virial="179.77947663 -9.85729046 -33.18128836 -9.85729046 131.77669130 38.36834748 -33.18128836 38.36834748 158.75061576" stress="0.13653894 -0.00626936 -0.02110371 -0.00626936 0.10600858 0.02440274 -0.02110371 0.02440274 0.12316432" Properties=species:S:1:pos:R:3
Ca 5.95213001 8.34969713 8.27132535
Ca 2.70654627 9.80758607 1.91796474
Ca 9.34131618 11.45925972 4.53174606
Ca 10.35343092 7.28749612 3.92947166
Ca 10.71772650 2.38169202 9.51366531
Ca 8.68915731 5.24170778 9.18168732
Ca 10.92814428 3.56129517 1.41811711
Ca 7.45383148 9.90942316 1.44829629
Ca 4.87001077 3.59959199 8.48033768
Ca 6.53911280 11.06434238 10.06470790
Ca 5.54112938 0.80621051 2.11407505
Ca 8.74670511 7.94987338 6.18041537
Ca 1.88150893 8.53771748 4.35925404
Ca 1.69759784 1.23907163 8.34507108
Ca 4.12520774 0.67578564 10.69678115
Ca 3.36281248 3.33384343 2.33025403
Ca 6.03932756 5.66739017 6.22865162
Ca 3.01863226 11.60869492 5.30069955
Ca 11.32692731 8.11187292 0.17853270
Ca 7.50814737 2.99530198 0.94991139
Ca 5.17567429 6.22089612 2.28932738
Ca 8.89248752 10.79151328 7.99976439
Ca 6.21220047 2.03375048 4.81075032
Ca 11.50162593 7.98599712 8.41799531
Ca 8.97538280 6.50590224 0.82954656
Ca 0.37102893 4.22676267 6.84924964
Ca 3.13203125 6.44693326 10.71216945
Si 10.74695445 10.51468272 10.32263517
Si 5.14061372 9.36804452 3.57240560
Si 6.39809088 6.69128958 11.10076108
Si 0.48781519 0.19404097 4.09451878
Si 11.61849872 5.16510528 9.76550889
Si 10.32872983 10.07677897 1.78542382
Si 8.43330000 8.16671082 9.48728595
Si 4.30442915 9.02713820 10.92577584
Si 3.22435729 2.81411618 5.64895292
Si 1.62331983 3.04201953 10.83847804
Si 1.81784881 10.43255079 10.46860245
Si 9.86743596 2.12480273 6.58958218
Si 7.34646356 2.37099041 8.36953138
Si 11.61495643 9.61488358 6.05516746
Si 1.96397267 0.69954087 1.36915254
Si 8.83053042 4.78890492 5.52450379
Si 2.88988299 5.41799003 4.56359761
Si 9.03488336 2.99920037 3.46714264
Si 7.70214622 7.96505397 3.52765932
Si 3.01986105 5.96746352 7.55410626
Si 5.05995560 4.05906135 11.54021113
Si 1.18351471 6.75389709 1.86658255
Si 2.66767703 9.24882367 7.84308261
Si 0.88585524 3.11403757 3.99836514
Si 5.13514320 0.59938876 7.66549490
Si 6.36092980 10.57540915 5.46311784
Si 8.82909537 0.60865091 0.09464562
O 6.75128813 11.13861738 3.75092503
O 3.89056284 2.05002625 4.32920415
O 9.51450391 11.54911641 10.60254051
O 10.27955934 9.43382822 9.23825647
O 6.54535881 0.99987285 8.50463139
O 10.80581836 5.33422699 8.28142454
O 2.33955824 7.50972510 8.10650262
O 8.78327082 1.75539275 8.21821258
O 2.36801194 11.33827362 0.03126348
O 9.55386690 7.28238927 10.39634855
O 7.41574912 10.37473516 6.48256581
O 1.19063399 2.00965916 0.64633053
O 3.42018819 1.16449763 1.69426653
O 0.23186142 8.00376820 5.62778914
O 6.26756011 2.95947743 6.99752816
O 8.93494855 8.89538524 4.17652061
O 11.47001530 3.36605825 5.09963762
O 1.11442531 10.52223885 5.01435100
O 9.47842316 8.67084664 1.47461315
O 2.91056291 3.71318360 11.28384903
O 7.73095005 9.56524966 9.32151466
O 8.26639823 6.68797820 2.89053482
O 4.32200912 8.72118645 9.46341604
O 0.78444922 9.12025745 10.24624127
O 5.35588651 9.26503424 5.21238703
O 5.56437291 2.58332452 0.34158644
O 4.72035039 7.61742543 0.27117269
O 5.73380086 0.25909564 6.05767222
O 11.03345784 10.76968619 3.17595236
O 4.36181164 3.76468538 6.47628930
O 9.48513734 11.40143426 1.56772858
O 4.01160093 8.30672670 3.53936316
O 0.85710107 6.32218561 10.42655905
O 1.61050786 1.68710196 3.86933612
O 8.13007332 4.10017542 4.27525226
O 11.35663551 0.94403103 5.14786794
O 11.04469224 10.20171317 0.37190859
O 4.98094134 10.57523879 11.54920977
O 7.26674071 3.52113803 9.60560002
O 2.07683602 6.46861047 3.51756831
O 7.48548779 5.29712444 11.61245674
O 6.99253305 0.44588491 0.39987513
O 2.64100639 4.96102912 8.85611264
O 2.38294016 5.86005160 5.95582180
O 0.00328512 11.45412936 9.50567521
O 6.64486316 6.64216371 9.44791927
O 3.10956095 9.73789694 6.52519389
O 2.40810509 6.33635860 1.03067475
O 6.37240771 8.86647391 2.75905814
O 4.37698180 10.87231111 3.33948350
O 6.81028258 7.68241898 4.92869750
O 4.70047277 6.17030199 7.52801631
O 1.01396655 8.43696395 1.94672947
O 9.02886771 3.98948975 2.06386014
O 11.19623602 6.34643972 1.92926506
O 5.01214327 4.52113839 1.33793938
O 9.65604850 2.15072519 0.16163811
O 5.24847716 4.96670788 10.27860730
O 2.10147749 1.55857380 10.29258392
O 8.70875117 1.47297012 5.74730023
O 11.17855078 1.72724297 7.39354158
O 0.95422514 3.87879418 9.59377933
O 10.34891074 4.61295221 10.59941338
O 5.08642251 10.79055221 8.63825760
O 9.45887935 3.61634217 6.56405023
O 7.91976869 5.84155207 6.75711080
O 8.46227365 7.81881953 7.96540372
O 1.45686103 11.42811523 2.62259601
O 1.08461479 9.36308930 7.12520983
O 2.18629527 1.86873662 6.42964991
O 2.59997339 10.65472991 8.87566379
O 10.12037756 9.87516278 6.30787105
O 10.29023042 1.95380308 3.20071911
O 2.12033479 3.90652828 5.00488522
O 4.34765952 4.94401436 3.86943550
O 7.66258711 1.82439332 3.04902906
O 1.13434712 3.87125630 2.60461893
O 4.04934557 1.55171953 8.03648998
O 7.14552876 8.14650671 11.36434997
O 10.10852602 5.82453143 5.36061791
O 2.72449428 9.13518569 11.46046916
135
Time=400000.00000008 pbc="T T T" Lattice="11.62817333 0.00000000 0.00000000 0.00000000 11.62817333 0.00000000 0.00000000 0.00000000 11.62817333" energy=-911.88076126 virial="172.50276949 -6.55699311 5.71205662 -6.55699311 141.23355281 -3.97758926 5.71205662 -3.97758926 153.71617158" stress="0.13191086 -0.00417033 0.00363294 -0.00417033 0.11202326 -0.00252980 0.00363294 -0.00252980 0.11996236" Properties=species:S:1:pos:R:3
Ca 9.94986378 8.63518151 8.79810468
Ca 5.99806003 3.82384493 2.60784191
Ca 9.48948635 5.83094938 2.98269408
Ca 5.22575655 9.33470732 9.29091077
Ca 6.65088516 10.88300245 6.82816715
Ca 7.80473447 0.41397717 2.50463036
Ca 4.01443847 10.39515397 3.24000225
Ca 7.53213092 7.56524431 4.42955804
Ca 5.38209601 4.84445513 9.77481517
Ca 10.38793441 2.59660578 9.62653550
Ca 11.24732658 5.81417232 9.77661228
Ca 7.17510786 0.13855608 10.73817613
Ca 7.28492406 8.64634086 1.17747872
Ca 8.42827494 3.14044860 4.35152384
Ca 1.00339245 11.30524753 8.91415047
Ca 7.19531459 7.28598047 8.45900849
Ca 2.60423578 7.40370922 0.56084662
Ca 11.53836097 3.14704109 4.80051864
Ca 5.45489955 5.39914149 5.74118792
Ca 4.32801122 1.36692619 9.08398423
Ca 11.05964558 9.20484129 0.61603578
Ca 2.61578227 3.24832833 6.43448236
Ca 1.65891750 0.60564571 3.33477485
Ca 0.69842110 9.06069724 5.98681722
Ca 7.64873207 4.75869804 10.56118706
Ca 0.07865303 1.74436953 0.92526476
Ca 9.50671295 1.19499945 7.40756421
Si 0.96794101 0.58214564 6.00613799
Si 9.07171556 9.45792931 6.33022439
Si 1.98397728 10.39872916 0.62821154
Si 5.51550718 0.79471801 4.07737723
Si 5.12972603 7.30486774 0.20624862
Si 9.89582371 9.19124294 3.62270487
Si 2.78824815 3.51650540 3.00545693
Si 10.59992310 0.61112620 4.08372227
Si 2.08843804 3.06243073 9.63247982
Si 9.81793978 11.61554779 10.70341077
Si 3.35664502 10.14011376 6.64549986
Si 3.01795493 1.90099280 0.86661865
Si 1.43588276 8.99821701 9.57531170
Si 0.85872384 5.84223064 3.65746605
Si 9.10632292 3.10642141 1.31242838
Si 9.82055428 6.56226268 5.83423120
Si 1.27115320 8.42686418 3.09791496
Si 8.28448512 4.44263950 7.66725278
Si 9.20276891 7.31018098 11.29577114
Si 6.41996383 2.68153104 0.05405732
Si 1.03849015 5.46545248 6.50966133
Si 4.57307032 10.58365725 0.19398184
Si 2.57234695 5.06782632 10.70264268
Si 4.65058821 6.86584520 3.40932436
Si 3.30649729 6.74484349 8.24904742
Si 4.39511867 8.07960686 5.63238791
Si 6.29701556 1.97150923 6.92359791
O 10.30336651 9.28241930 5.15862085
O 8.02113389 2.46659939 11.33853922
O 2.01839396 10.38509931 10.66537695
O 6.38465840 6.93980536 10.64732860
O 4.83670971 2.55430045 7.37072303
O 2.99010439 8.38568137 8.96831376
O 11.52407682 6.60595436 6.99994895
O 9.17096523 7.65789648 6.92152959
O 10.10374446 1.51769152 5.42562632
O 4.33541882 6.61326983 1.72969452
O 2.28036054 1.76993904 8.48090310
O 5.06507792 8.40701546 3.45647090
O 4.44446719 9.89923768 5.53260442
O 3.46968440 3.91003649 9.50937774
O 8.57972184 5.57860370 4.86376115
O 3.85716238 0.50353596 0.60027366
O 5.92563697 7.97460729 6.16655935
O 3.92210128 5.91207416 11.25788014
O 2.28472906 11.19429268 6.18806714
O 8.38249440 8.62770912 10.59844165
O 0.57395160 3.92468706 6.61744784
O 8.13033007 6.47552162 0.53164947
O 1.32704694 5.30567611 11.52456005
O 9.04163397 0.18854172 0.52980647
O 3.01661202 8.27571921 6.72447169
O 8.06328159 9.93930271 5.32020373
O 3.68838750 3.11979439 1.66935344
O 2.75536928 5.82531106 6.98553787
O 9.69332103 10.92832240 3.48157957
O 10.31219182 7.32456357 4.36893704
O 0.91104952 11.34892762 1.22851458
O 6.94661203 9.69076547 8.49400374
O 6.35597301 1.65742750 1.27637550
O 3.65196777 11.03869996 7.91906532
O 1.78720234 2.24484237 1.88037453
O 11.57451288 9.23989168 3.11564556
O 5.88312634 4.29944512 0.10945780
O 6.05702275 10.32094755 0.91534746
O 8.52120807 3.37013736 8.78484281
O 3.98196596 3.31631303 4.20055055
O 0.76922113 3.94901613 9.46137326
O 1.20172343 9.00761658 1.18290144
O 6.00638625 6.01931105 3.64079272
O 2.26275575 4.87686655 2.56496973
O 0.40594199 8.32315587 10.40756778
O 7.99455284 4.05373354 2.11375339
O 3.36629248 10.04226211 1.24497021
O 11.33442900 0.70733636 10.95338141
O 9.22243649 6.53093988 9.58742363
O 10.51749863 10.21671360 10.02181186
O 9.55009945 10.22068450 7.54647260
O 9.47382584 2.09611296 2.37943175
O 5.07815219 11.13497297 10.31534065
O 11.60554586 11.34599004 4.85199601
O 11.20826619 5.08501370 4.21433335
O 2.21840994 6.23912220 9.40520819
O 6.70663682 1.06292767 8.20118470
O 6.77086484 5.16999940 7.90301854
O 10.18481955 3.77418041 0.42951990
O 0.75193498 9.64589358 8.20927277
O 2.21236595 9.31738158 4.34437690
O 0.17009514 6.99188188 2.67561636
O 9.58717072 4.78408334 6.91970842
O 1.95143192 2.49702428 11.18553563
O 1.76101307 5.10873591 4.91926909
O 4.03570066 0.99944945 3.79230331
O 5.88857642 0.91188755 5.62755293
O 10.80992588 6.99032165 0.24457300
O 0.07295446 0.66224211 7.23957232
O 5.95415600 10.96355255 3.49124633
O 5.65660494 2.50240830 10.27714117
O 9.44286964 0.87411988 9.41295914
O 4.42652689 8.94695798 11.46328383
O 7.02654456 3.34144475 6.09491795
O 8.76315821 8.43527586 2.85973049
O 6.67327454 2.03974095 3.66343368
O 2.31962772 7.25470179 2.67171643
O 1.76269073 1.69848298 5.29663439
O 0.10239665 1.78447074 3.26293980
O 4.99137727 6.81874622 8.29939007
O 3.66883565 6.99210329 4.62986382
135
Time=500000.00000301 pbc="T T T" Lattice="11.62817333 0.00000000 0.00000000 0.00000000 11.62817333 0.00000000 0.00000000 0.00000000 11.62817333" energy=-917.30408464 virial="102.09232501 8.72396644 0.69644587 8.72396644 160.75625724 -4.43189974 0.69644587 -4.43189974 128.87342679" stress="0.08712895 0.00554855 0.00044295 0.00554855 0.12443994 -0.00281874 0.00044295 -0.00281874 0.10416206" Properties=species:S:1:pos:R:3
Ca 2.33080673 11.54565322 6.96623463
Ca 9.50218756 6.52215063 6.80444963
Ca 2.34420707 2.75255254 2.43090321
Ca 5.02472136 10.22391231 0.29292015
Ca 0.06973489 0.09484583 9.06879551
Ca 10.59038436 0.00560009 2.24589882
Ca 3.45848733 5.53126599 3.10881954
Ca 8.46870378 1.48666579 4.61728866
Ca 6.64711112 6.16473375 1.20925231
Ca 2.32606750 3.83355259 8.79248733
Ca 4.05725821 9.50371053 5.68035429
Ca 5.30101315 3.13203262 0.75137812
Ca 3.70258134 6.73850901 0.27124112
Ca 11.50326682 9.63853296 5.61477894
Ca 8.41553706 9.57562221 4.21620785
Ca 10.77394449 2.95734844 7.25046497
Ca 0.34483714 6.08513952 4.20847558
Ca 10.18676589 9.56737996 11.54312830
Ca 11.61893532 6.43141802 9.49517162
Ca 3.82111601 7.14749877 6.13102557
Ca 4.32812549 8.85413237 9.32231007
Ca 9.15528006 3.29761054 0.87140932
Ca 3.56045642 2.78295733 5.69297051
Ca 7.51468218 10.51994826 9.53868187
Ca 5.78301348 4.18377612 6.26984153
Ca 7.70184998 6.95544196 9.42166051
Ca 4.72251199 0.32762796 2.93302453
Si 8.34662397 1.47456335 7.87702532
Si 2.07598548 8.42602686 3.29023260
Si 5.97677637 0.33606467 6.26414462
Si 10.02530257 6.18239935 0.82735513
Si 7.31637305 0.78914511 1.66658563
Si 6.87678246 6.46949242 4.73423298
Si 6.10016648 3.42196728 3.48131263
Si 8.11718829 1.55052850 10.74385267
Si 1.56537023 8.20368579 7.38932205
Si 1.35729673 4.63738126 0.27423495
Si 7.32478199 8.76794287 0.79894582
Si 1.75009587 11.45402259 3.81006256
Si 6.55828368 8.71926509 6.93077724
Si 9.01414595 5.60546625 3.87492826
Si 0.39461711 2.57343068 10.45563319
Si 8.11708649 4.36325695 8.41141526
Si 1.50190430 8.84543913 11.54095806
Si 3.48176902 0.40193007 10.31254976
Si 10.58764406 2.93727169 3.63145410
Si 5.25720308 8.19549088 2.95574172
Si 10.80726098 0.52657962 5.57412112
Si 5.50053095 4.86720451 9.84954281
Si 10.14051961 9.26576999 8.34094711
Si 1.41927472 4.22152979 6.16979644
Si 10.46642759 8.31989631 2.78347491
Si 5.21713789 2.10301211 8.98471773
Si 2.07200555 11.40369418 1.08349834
O 10.00133283 4.49133149 4.18720197
O 2.95180100 10.52812435 2.35816640
O 8.88971252 0.80980940 0.48907888
O 9.33978012 5.21185453 1.94152680
O 9.49604052 5.71393615 11.00488040
O 5.24612687 5.20389558 11.43452880
O 1.33891554 0.65416967 2.29966508
O 2.72394655 4.74679623 1.27645600
O 4.99363771 6.86899138 2.22710260
O 8.23577513 5.70654979 5.43242251
O 0.16203325 8.77556970 3.70766679
O 5.96784255 0.32469563 0.84741444
O 0.28199812 8.15840203 10.95512995
O 5.81455190 0.57634298 4.78424393
O 9.51577252 5.19373005 8.62902609
O 1.73243911 2.69902114 6.67151283
O 9.96843135 9.84353438 2.60586008
O 10.05928506 7.89598747 9.50286864
O 11.59805239 4.85084090 6.79210976
O 8.08744789 11.44771734 2.84114429
O 0.41087835 7.30944875 6.36748693
O 7.00519397 5.37337007 7.57995512
O 7.84092967 9.99175397 11.38805990
O 7.19523305 0.34699275 7.36224509
O 8.40741095 7.86944126 1.51838689
O 2.23628769 7.28107484 4.40715529
O 6.69791201 1.90992852 2.45610266
O 7.37354557 2.59090669 0.37179962
O 0.29574644 0.34494425 4.14363718
O 9.53881470 11.32586118 5.04251471
O 7.01810210 7.58456467 5.84036538
O 4.16255873 9.20720692 3.52750737
O 2.39810883 9.40283213 6.95611304
O 9.98309869 10.51112818 9.18490633
O 2.63679782 0.92857937 8.94797250
O 7.26509670 8.95481630 8.38153745
O 3.03919989 4.72806218 6.57459699
O 4.32747072 1.98173387 10.59160204
O 6.17141462 9.28835160 1.80349722
O 5.58289989 5.32938582 4.91665191
O 9.90110099 7.17935740 3.89528897
O 11.49260790 5.45062100 0.55734878
O 2.24004513 5.20560401 10.76376442
O 5.03904524 8.30707821 7.27051413
O 2.29636899 6.96779267 8.38457925
O 10.72681313 3.52155818 10.51380615
O 10.52625068 2.26044322 5.12605677
O 1.89545811 10.30247416 10.02211067
O 2.40322801 7.95114403 1.77330344
O 2.99985415 0.61996294 0.15283264
O 9.47982584 2.05853019 2.80986786
O 5.21254447 6.38850040 9.46706709
O 6.42421985 9.79286693 5.79351109
O 0.34103035 9.34353854 8.15459480
O 9.76749243 1.09424057 6.86630555
O 4.65062421 11.26371852 6.89186872
O 7.57031882 5.76849459 3.43541935
O 0.80880531 2.44845376 8.88378732
O 4.68905959 2.78884969 3.25722374
O 0.08442289 1.08053370 11.26440111
O 6.48426790 7.86567306 11.40571647
O 6.30691158 4.45138007 2.30746177
O 8.32583524 3.10246712 7.44027392
O 0.15306438 11.52423561 6.82243034
O 3.15709295 8.89041281 11.38181499
O 1.51553084 3.05414859 0.03999513
O 0.09986591 3.83748719 2.79509543
O 10.88687626 7.47848458 1.53003172
O 2.10000500 4.34713176 4.24093000
O 9.63057324 8.72256141 6.98691554
O 4.45751374 3.66134411 9.21237170
O 6.78143744 3.05004367 4.91158900
O 6.79645466 3.60063404 9.41070724
O 4.74419196 11.33668256 9.49397452
O 9.05636771 1.46594291 9.48887806
O 1.03358312 10.11586859 1.13212076
O 6.89675666 1.16444988 9.40882831
O 2.96908103 0.81879963 4.39536357
O 5.26489858 2.16465859 7.12971666
O 6.76808282 7.83410091 3.51399925
O 1.89108478 10.23598080 4.57406685
135
Time=600000.00000594 pbc="T T T" Lattice="11.62817333 0.00000000 0.00000000 0.00000000 11.62817333 0.00000000 0.00000000 0.00000000 11.62817333" energy=-919.00735054 virial="133.26089563 4.49156047 4.81279829 4.49156047 153.55369224 23.47969284 4.81279829 23.47969284 155.19712241" stress="0.10695255 0.00285669 0.00306100 0.00285669 0.11985902 0.01493337 0.00306100 0.01493337 0.12090426" Properties=species:S:1:pos:R:3
Ca 1.60022657 5.43926145 6.93542601
Ca 5.08920357 7.76135486 6.24359613
Ca 10.34835111 0.05064481 3.42531021
Ca 2.89670790 6.34313075 10.05857682
Ca 8.23130660 4.92235244 2.21350656
Ca 5.82307404 4.52347529 0.11269766
Ca 11.49516436 7.59090691 10.41648472
Ca 2.26552119 3.39264989 4.35302654
Ca 10.62153845 4.02183737 9.71998285
Ca 8.46766128 9.78938262 1.40095161
Ca 10.66894140 7.40678518 1.68949967
Ca 2.98413094 0.11300942 0.36206282
Ca 1.19758011 2.02607354 1.44722822
Ca 10.93505005 3.86214709 2.75008666
Ca 7.21322329 3.62130603 8.45926589
Ca 2.42828076 8.37435223 1.47266161
Ca 10.24294008 10.39618112 7.18308748
Ca 0.71342777 11.58607332 9.61264808
Ca 4.56783863 0.97138703 6.13684607
Ca 7.91340400 8.66076165 8.48236387
Ca 7.27324136 0.18968194 10.59273130
Ca 10.39251803 3.70992891 6.07185695
Ca 3.53604069 11.00705982 3.91578400
Ca 5.50293033 4.08431165 4.74770834
Ca 7.97197563 6.27574314 4.95195899
Ca 7.62333719 0.56837976 6.87140500
Ca 1.23025666 9.01204378 4.61199526
Si 4.96444913 1.49785732 10.30082099
Si 0.03901737 5.01298737 0.27746176
Si 2.12143403 10.22983238 7.29227050
Si 9.83162538 9.83817473 10.33734957
Si 5.59087852 9.63783191 0.87204679
Si 6.14354694 6.87984414 2.53666215
Si 3.98467737 3.13423010 8.36548734
Si 5.83796639 7.47070376 9.71537319
Si 0.77542658 1.22468634 4.98275342
Si 11.59421896 6.38405743 4.33025180
Si 8.29351058 9.62164343 5.03690249
Si 4.55348594 1.97746671 2.10333700
Si 0.54295720 10.75951003 1.28754613
Si 5.07473240 5.57371094 7.64846721
Si 2.08087761 2.82009481 10.36150596
Si 9.62831392 1.36045059 8.81975264
Si 3.44602321 6.40245496 4.01093777
Si 10.12959976 6.42026090 7.13399673
Si 5.15537604 10.46522338 8.86316475
Si 6.34139220 11.08714946 3.59179212
Si 1.41317753 1.79570528 7.86939953
Si 8.19291154 2.13145257 2.01628934
Si 8.14787017 2.22830515 4.67596923
Si 3.09895274 4.93618072 1.61906870
Si 9.92303729 1.06092297 0.13421129
Si 8.88634240 6.40199104 10.45190148
Si 0.53233031 8.16649983 7.73810415
O 3.54679228 2.22890414 9.96880076
O 3.17911182 8.09436298 4.10095001
O 9.60535855 8.33576941 11.24503623
O 4.04430454 9.59547764 0.22631649
O 10.35650887 1.81951910 10.44944836
O 2.81561527 10.73427355 5.83969097
O 3.45128902 6.42833231 7.84566229
O 5.49029580 9.82341271 2.73601034
O 10.40049096 5.97819148 10.78855897
O 5.57035495 10.67487944 5.12407427
O 11.58413826 6.98081002 5.75646866
O 10.46884208 8.21294906 7.38837425
O 8.66110359 10.25495379 9.45220487
O 5.74762551 7.75334412 1.35198387
O 5.01247933 6.79724947 3.77140722
O 1.99989530 8.60127077 7.13073535
O 0.78588117 2.45363534 9.21927278
O 4.94134012 1.63172278 0.37293461
O 0.67766485 7.09623456 3.14174953
O 5.77997442 9.21082264 9.71280070
O 11.06744383 9.62646332 1.96125840
O 5.15648313 0.01738932 10.06199291
O 4.65660626 3.86453830 6.95499128
O 9.13348340 1.13624165 5.43600643
O 6.01240023 10.99153660 7.72405141
O 4.93178633 2.05437709 3.98281222
O 0.31840684 1.99304499 6.57908802
O 8.10215043 1.01365723 8.71027092
O 7.93324097 7.32976492 2.93536876
O 1.21360243 6.43304687 0.37557818
O 3.92507128 3.77205206 2.36607662
O 11.14998264 9.80069652 9.45562607
O 7.53320375 3.03353571 5.85034836
O 10.04562117 5.99582925 3.79833605
O 7.37885167 7.21437014 10.34870376
O 8.54376725 0.89549529 1.23567182