 running on   52 total cores
 distrk:  each k-point on   52 cores,    1 groups
 distr:  one band on   13 cores,    4 groups
 using from now: INCAR     
 vasp.5.4.4.18Apr17-6-g9f103f2a35 (build Oct 31 2019 15:01:46) complex          
  
 POSCAR found type information on POSCAR  Sc F  C 
 POSCAR found :  3 types and      80 ions
 scaLAPACK is switched off
 LDA part: xc-table for Pade appr. of Perdew
 generate k-points for:    3    3    1
 POSCAR, INCAR and KPOINTS ok, starting setup
 FFT: planning ...
 WAVECAR not read
 entering main loop
       N       E                     dE             d eps       ncg     rms          rms(c)
DAV:   1     0.136612285215E+05    0.13661E+05   -0.27889E+05  4264   0.156E+03
DAV:   2     0.247929075828E+04   -0.11182E+05   -0.10885E+05  4656   0.533E+02
DAV:   3    -0.382519970773E+03   -0.28618E+04   -0.27455E+04  6800   0.295E+02
DAV:   4    -0.738455575781E+03   -0.35594E+03   -0.35172E+03  6048   0.138E+02
DAV:   5    -0.752913488070E+03   -0.14458E+02   -0.14395E+02  6080   0.351E+01    0.770E+01
DAV:   6    -0.597614629258E+03    0.15530E+03   -0.84006E+02  5768   0.645E+01    0.252E+01
DAV:   7    -0.597652572800E+03   -0.37944E-01   -0.54001E+01  5920   0.214E+01    0.164E+01
DAV:   8    -0.596117212021E+03    0.15354E+01   -0.10017E+01  5568   0.816E+00    0.442E+00
DAV:   9    -0.595634377000E+03    0.48284E+00   -0.24664E+00  5512   0.501E+00    0.215E+00
DAV:  10    -0.595595887982E+03    0.38489E-01   -0.27379E-01  5976   0.158E+00    0.117E+00
DAV:  11    -0.595478287005E+03    0.11760E+00   -0.15409E-01  5560   0.105E+00    0.754E-01
DAV:  12    -0.595450732049E+03    0.27555E-01   -0.46171E-02  5968   0.557E-01    0.334E-01
DAV:  13    -0.595443698049E+03    0.70340E-02   -0.24637E-02  5664   0.376E-01    0.241E-01
DAV:  14    -0.595440666260E+03    0.30318E-02   -0.10959E-02  5472   0.241E-01    0.145E-01
DAV:  15    -0.595445648277E+03   -0.49820E-02   -0.78482E-03  5672   0.183E-01    0.101E-01
DAV:  16    -0.595449346441E+03   -0.36982E-02   -0.19679E-03  5616   0.121E-01    0.747E-02
DAV:  17    -0.595454786458E+03   -0.54400E-02   -0.16862E-03  5976   0.912E-02    0.745E-02
DAV:  18    -0.595458021193E+03   -0.32347E-02   -0.69578E-04  5376   0.682E-02    0.437E-02
DAV:  19    -0.595459569869E+03   -0.15487E-02   -0.30986E-04  5584   0.409E-02    0.204E-02
DAV:  20    -0.595462465734E+03   -0.28959E-02   -0.11580E-04  5336   0.205E-02    0.212E-02
DAV:  21    -0.595464827506E+03   -0.23618E-02   -0.12320E-04  4152   0.174E-02    0.115E-02
DAV:  22    -0.595465972040E+03   -0.11445E-02   -0.11964E-04  4816   0.156E-02    0.972E-03
DAV:  23    -0.595466277614E+03   -0.30557E-03   -0.10612E-05  4736   0.100E-02    0.491E-03
DAV:  24    -0.595466597359E+03   -0.31975E-03   -0.14375E-05  4376   0.596E-03    0.256E-03
DAV:  25    -0.595466784807E+03   -0.18745E-03   -0.49927E-06  3912   0.364E-03    0.171E-03
DAV:  26    -0.595466861561E+03   -0.76755E-04   -0.15452E-06  3104   0.226E-03    0.115E-03
DAV:  27    -0.595466883018E+03   -0.21457E-04   -0.36935E-07  2664   0.211E-03    0.755E-04
DAV:  28    -0.595466907756E+03   -0.24738E-04   -0.48683E-07  2720   0.144E-03    0.540E-04
DAV:  29    -0.595466916215E+03   -0.84587E-05   -0.30351E-07  2672   0.175E-03    0.603E-04
DAV:  30    -0.595466918755E+03   -0.25404E-05   -0.20709E-07  2528   0.109E-03    0.577E-04
DAV:  31    -0.595466920720E+03   -0.19648E-05   -0.13015E-07  2584   0.113E-03    0.514E-04
DAV:  32    -0.595466921235E+03   -0.51451E-06   -0.85779E-08  2520   0.722E-04
   1 F= -.59546692E+03 E0= -.59546692E+03  d E =-.716369E-15
