135
Time=99999.99999996 pbc="T T T" Lattice="12.93041299 0.00000000 0.00000000 0.00000000 12.93041299 0.00000000 0.00000000 0.00000000 12.93041299" energy=-921.86065342 virial="-54.60096539 6.90928795 0.90433511 6.90928795 -51.72175883 -3.11097886 0.90433511 -3.11097886 -52.39256964" stress="-0.00911266 0.00319592 0.00041830 0.00319592 -0.00778087 -0.00143900 0.00041830 -0.00143900 -0.00809115" Properties=species:S:1:pos:R:3
Ca 1.63130263 8.83211193 0.38708126
Ca 3.16065825 6.92445128 5.17366347
Ca 9.19569494 4.76027893 9.91649718
Ca 8.40436454 12.47261734 3.47303127
Ca 8.62148707 2.82247559 7.12279839
Ca 1.90660839 9.04138239 7.96061246
Ca 2.08691894 12.87694845 6.93414974
Ca 1.09371409 6.73461842 9.87154336
Ca 9.33640254 8.21518845 1.57342913
Ca 7.07232459 6.36670019 6.68581606
Ca 11.59354791 0.92749368 2.47305583
Ca 4.12148835 3.34155755 5.56494539
Ca 3.29224127 12.58182416 9.70698051
Ca 7.19264532 9.81791437 10.71071609
Ca 5.09665368 7.28234999 1.28001307
Ca 3.03815445 0.39824651 3.03620949
Ca 7.00480469 8.77933926 4.28796726
Ca 9.10259210 0.02377650 7.61506382
Ca 12.39741883 12.76194277 12.57768715
Ca 12.71226746 10.88450625 3.32259928
Ca 10.10060014 4.33370520 4.57835667
Ca 11.83979150 7.12291712 3.48198235
Ca 5.65827909 0.50976907 11.35532012
Ca 7.51929402 4.45239744 12.90824490
Ca 12.17593277 5.25152535 12.76825063
Ca 3.94449988 8.67176734 11.12732125
Ca 2.64313088 1.78164938 0.12705873
Si 5.03466495 2.57915246 2.85148693
Si 0.25155284 7.16205187 6.14974433
Si 3.34245010 3.23246807 10.18655871
Si 4.31490556 6.05901567 8.35046103
Si 11.30768881 12.71484323 5.36181563
Si 5.97206362 6.15278370 11.03381054
Si 10.17550432 2.37729004 0.12997829
Si 9.76847145 10.24248018 5.16013435
Si 3.51855194 10.48554500 4.25611966
Si 3.65708101 5.34194423 2.74955730
Si 7.37045480 10.55724789 0.69283690
Si 0.78788942 4.30855325 3.00608469
Si 5.22776761 9.71832252 6.07099880
Si 12.43317903 11.31975270 8.55781558
Si 6.40715803 11.77184257 8.50231249
Si 0.74572889 1.75574735 9.70713027
Si 12.85103346 1.96341963 4.82708548
Si 6.06815442 1.90990530 7.50106394
Si 10.65517181 8.56209011 8.00439725
Si 3.09467023 5.39688878 12.15629239
Si 8.33013954 6.03992457 2.79588195
Si 0.21348691 9.85937804 10.96003639
Si 8.04289515 2.77878067 2.85514115
Si 11.07018343 7.22125742 10.46845086
Si 4.17416324 11.32085751 0.39549268
Si 11.58266746 1.62495317 7.93211921
Si 9.65340891 12.14250905 12.89597110
O 9.99080018 1.76602049 8.38346535
O 10.40944060 9.43386148 3.94632661
O 8.05100234 6.60670902 4.10610189
O 6.70309334 2.22527650 6.05805041
O 0.40781020 1.24767494 11.34854132
O 9.76941790 9.22342778 6.75188840
O 0.02384351 0.15686069 4.94165527
O 1.49709216 2.40916712 4.38707563
O 8.19812691 9.15789415 0.14836138
O 3.27479750 5.44613823 1.35078024
O 1.44002592 0.66504057 8.60737588
O 6.71899400 1.97753085 2.94687224
O 10.11794161 3.66367408 11.80287396
O 0.64846912 7.77854795 4.62946844
O 6.47662816 8.70785230 6.45174502
O 10.16791371 8.17620728 9.43121976
O 8.99892439 2.54210996 4.26811428
O 3.51778185 12.37553802 12.07046916
O 10.93311664 11.12181229 5.91715953
O 4.45821475 1.63672015 4.21156091
O 8.23372381 10.54362748 4.84322142
O 12.49163774 5.68299717 5.72402402
O 1.55427480 9.05853881 10.28277583
O 7.38855742 10.28253214 2.27066797
O 8.16132410 12.34251084 0.95700546
O 0.66040502 12.85140753 1.66645223
O 6.06179539 11.22363141 12.56466859
O 10.73473580 12.37682952 3.89042546
O 10.87931669 10.45618875 8.37674119
O 10.78255153 11.69825588 0.91507685
O 11.82233148 12.83518423 8.05824650
O 4.52764980 12.34366827 1.75070055
O 4.02024513 9.54272511 0.41485950
O 10.48393315 0.86156071 6.03275756
O 12.01683720 6.21025509 9.43707138
O 2.26204644 9.81738464 3.20812988
O 4.76841293 4.18749148 2.98544406
O 12.68533258 1.77733955 6.63896375
O 4.19237506 1.95648311 7.74356259
O 10.46543106 6.48892574 11.69054236
O 9.05289756 11.19764965 11.59435814
O 1.05700611 5.72893679 11.90700637
O 4.41160474 2.33769388 10.97128434
O 12.49157524 5.16046608 2.29683330
O 7.14789948 5.23295657 10.86442292
O 5.68813274 10.88633744 7.07563642
O 12.25074443 10.98645716 10.46757534
O 1.56486875 3.35283570 2.00562187
O 3.46713496 7.68391669 9.21876599
O 10.12601105 6.08864400 2.85268046
O 4.55344223 5.89018598 6.53571748
O 3.33692761 4.96213109 9.03364811
O 6.76352165 2.87724504 8.58360863
O 2.63568197 3.96029194 11.70534563
O 12.26921561 8.51769138 11.25292948
O 3.28369855 7.02565373 12.13268502
O 12.27713759 2.58843734 9.20503507
O 1.59600412 6.97281428 6.92360052
O 10.16053779 0.84634609 12.37574053
O 0.76544880 10.69245401 12.39863811
O 5.59078601 11.61917125 9.94911636
O 5.56208678 6.45907073 9.54200648
O 5.99332890 7.64644970 11.85898368
O 11.78239310 2.98580030 4.28808991
O 1.92721606 3.02485431 9.38426473
O 12.21450034 8.17436559 7.25659668
O 4.26098227 2.23928255 1.32054502
O 7.43312037 10.74710597 8.71056582
O 2.99195924 12.00676138 4.94203937
O 1.16962401 11.10930363 7.95740308
O 3.38445721 9.50365657 5.89355508
O 5.22928648 10.30554376 4.12725503
O 8.65644589 2.52239198 1.31484667
O 4.35551372 6.59410798 3.41543097
O 4.94523041 5.08410279 11.96344221
O 7.54852549 6.55625507 1.44738870
O 11.48369941 2.47385278 0.89023584
O 7.83504112 4.44368476 3.15372614
O 2.12118319 5.21559725 3.34344502
O 6.73547936 0.38415904 8.08121194
O 8.41648407 5.21345337 7.96338975
135
Time=199999.99999918 pbc="T T T" Lattice="12.93041299 0.00000000 0.00000000 0.00000000 12.93041299 0.00000000 0.00000000 0.00000000 12.93041299" energy=-923.37170252 virial="-14.14047013 -5.51502005 -0.67142779 -5.51502005 -16.12647648 13.88118377 -0.67142779 13.88118377 -11.67523398" stress="0.00960252 -0.00255100 -0.00031057 -0.00255100 0.00868389 0.00642080 -0.00031057 0.00642080 0.01074283" Properties=species:S:1:pos:R:3
Ca 4.68802781 5.56656374 0.32099461
Ca 7.39262525 12.41303586 2.46819808
Ca 4.34983793 0.42961921 0.04915283
Ca 0.05059394 9.90828434 12.56715555
Ca 7.79541235 10.33185117 6.54501286
Ca 9.45989767 7.57000730 12.46075930
Ca 5.66105427 12.57684104 9.63805742
Ca 11.89094943 5.14242660 2.60891557
Ca 11.02591979 2.59726892 12.53059112
Ca 1.39276693 11.94733889 2.87002105
Ca 12.07995330 2.20772907 7.74337059
Ca 2.15287552 5.30719552 4.02408947
Ca 9.72772139 5.41802323 8.43641204
Ca 5.49829970 0.20398999 5.24519781
Ca 10.45368325 12.62684092 10.25514520
Ca 9.99780926 2.99550099 5.63021221
Ca 6.36403163 2.58253900 1.95064428
Ca 6.68223216 8.05464247 9.21822339
Ca 12.45632733 8.60738800 3.10045346
Ca 10.78117244 12.29418502 2.54833102
Ca 1.26272190 5.04372691 12.49077365
Ca 3.54201159 2.97399907 4.73015323
Ca 5.81875176 3.82225243 8.81756977
Ca 2.97695723 7.86728481 7.63477331
Ca 1.69027426 5.05895751 9.05523885
Ca 11.90987936 10.03875162 8.36361054
Ca 11.13805408 7.19618382 5.70496308
Si 1.94523090 7.76401999 11.11835143
Si 3.98723246 1.55139060 2.61826416
Si 9.85936449 2.26570760 2.31326645
Si 2.20798250 7.75218232 1.24746640
Si 0.88605990 0.16229740 9.77798678
Si 10.55219350 12.54952740 6.59745980
Si 0.43445167 5.00605712 6.14570258
Si 1.42338827 2.52061556 1.37344075
Si 9.74897891 8.58216327 8.66003873
Si 9.29023808 10.18863665 11.91819278
Si 7.87831435 5.49736324 5.56850860
Si 6.62423049 2.64456409 5.47775403
Si 2.92874177 9.69658930 4.68672007
Si 5.38323972 8.84510624 1.35705781
Si 9.72397252 9.66121938 1.80332327
Si 9.02448844 6.84676897 2.97945389
Si 7.24318848 5.73343892 11.12645936
Si 12.70448548 10.46557872 5.19257930
Si 2.99095201 2.25818399 11.12460337
Si 8.59565179 1.90546703 9.67769195
Si 8.07152931 0.22463517 7.48719413
Si 5.36609481 6.84673142 6.40516308
Si 2.32820491 11.06060881 9.28137026
Si 6.41694413 11.37698462 12.41398766
Si 8.24034277 4.53848180 0.95434232
Si 12.10881375 6.33540568 11.62578885
Si 5.79771822 9.84010060 4.33886726
O 5.61159714 7.40499241 1.11045621
O 5.20405564 7.40259142 7.88708359
O 7.63061694 4.02445035 5.04183786
O 9.09065338 9.22071905 0.43255748
O 6.13551437 8.31604329 5.60146455
O 2.26149842 0.90855652 1.37657020
O 6.72287144 5.73310302 6.64600620
O 8.16291042 4.80100956 12.07434381
O 7.49739956 7.32404240 11.45136628
O 7.96698569 5.33596126 9.70448032
O 11.83337390 5.78400673 0.30391098
O 9.42774107 9.72890137 7.69309180
O 0.92811030 8.52480325 1.57156024
O 11.32936045 7.76264328 8.60639876
O 4.52910768 5.47946630 5.41076524
O 0.36727943 7.69403775 11.88569730
O 10.00572750 9.76750758 10.34735712
O 2.28579827 3.03768739 12.50814206
O 0.10948161 3.21461870 0.51111484
O 0.27091709 11.91655336 10.74560317
O 8.58939904 12.84459845 9.10440088
O 4.10664910 2.94264935 1.63368362
O 6.75103044 11.16604043 4.54450879
O 11.45436411 9.71252492 1.43203808
O 0.88884244 5.99280813 7.34726757
O 10.96955236 6.72189413 10.33489581
O 1.56811086 3.72089497 5.88733190
O 5.29980341 2.47174743 6.70667417
O 9.23707411 11.01992816 2.79736792
O 9.41890958 3.58573510 1.42891303
O 5.30605249 12.05253688 11.63257741
O 11.30348088 1.53903575 1.77614281
O 11.66089844 4.53867067 6.24383351
O 9.27908844 5.68654276 6.25543186
O 5.70967220 9.15044824 2.89742684
O 12.60676802 1.37190778 9.85501716
O 5.75351753 5.12970387 11.24726575
O 10.59361218 6.76508200 3.10900757
O 3.20013862 3.38677683 9.94745592
O 2.11256297 9.50043445 10.83815990
O 2.05427407 3.54234743 2.54537812
O 11.04188281 12.38846828 8.15732039
O 11.34088115 11.18226863 5.86353872
O 8.46005997 7.78464962 8.48154540
O 3.35387492 1.26678492 4.01559649
O 3.65088002 8.99519920 1.79316037
O 6.76798846 12.62318156 0.43777121
O 8.65318713 1.15192298 2.37364829
O 2.04459975 9.83688347 3.37929528
O 6.67971908 12.27792970 7.37593557
O 9.38341790 2.84758438 8.70701943
O 12.55106524 11.32077782 3.83966577
O 2.65876403 7.07576367 12.56392753
O 4.53673968 10.74598109 4.75079916
O 8.59338179 6.61366263 1.32770959
O 5.85967724 2.45279432 4.02054072
O 2.44518613 6.89116808 10.00715595
O 0.11486966 5.31721688 10.61178043
O 1.39585000 10.22135973 5.84479468
O 12.53398286 8.93806009 5.02031673
O 6.93826218 2.18103119 9.60607953
O 5.41301892 10.13562233 0.27099792
O 4.52834769 1.50399070 11.28236962
O 8.97653912 12.18604354 6.54881438
O 8.33051267 6.42176524 4.27768470
O 0.44024948 6.02502469 4.93060740
O 2.41388423 6.56470045 2.26450554
O 10.46364274 11.04090494 12.22037295
O 2.30665342 0.91304185 10.67297396
O 9.24976670 8.59161830 2.98079307
O 7.78283942 10.86164015 11.60157460
O 11.23418801 1.33621662 6.07869585
O 1.63767983 12.43778238 8.34720775
O 9.30576412 1.93843163 11.20296505
O 5.07728131 0.41734325 2.57965812
O 4.05787080 11.21965147 8.97018578
O 6.77851057 4.70736815 1.76994265
O 1.76235296 9.65143650 8.40943797
O 3.74585644 8.49398640 5.42056891
O 10.28754831 3.35671311 3.67760159
O 7.78115663 1.45065483 6.29848146
135
Time=299999.99999840 pbc="T T T" Lattice="12.93041299 0.00000000 0.00000000 0.00000000 12.93041299 0.00000000 0.00000000 0.00000000 12.93041299" energy=-932.89630872 virial="6.04014535 -2.55167644 14.40784223 -2.55167644 -4.66211857 -15.02180133 14.40784223 -15.02180133 -18.55392234" stress="0.01893715 -0.00118029 0.00666441 -0.00118029 0.01398678 -0.00694840 0.00666441 -0.00694840 0.00756106" Properties=species:S:1:pos:R:3
Ca 4.20583175 9.00808637 5.81162561
Ca 6.31914826 7.27911169 3.65390115
Ca 10.58940066 1.34144531 5.61797267
Ca 4.70121222 1.38120859 8.12451526
Ca 6.24114911 12.54327604 10.64528612
Ca 1.68668178 10.13153379 7.72888147
Ca 3.76791137 6.06548221 8.79658268
Ca 0.50075432 5.20690321 3.15541294
Ca 10.47170150 9.56725315 11.72018243
Ca 4.19888694 4.36347421 5.38564350
Ca 3.88292630 8.72046955 11.65282240
Ca 4.74841255 1.80945964 2.43410029
Ca 7.66431802 11.89729424 1.50890803
Ca 11.03714191 11.95272192 2.89932544
Ca 9.96881548 6.95484916 4.58878878
Ca 12.68150400 4.25334321 7.44315852
Ca 10.60647639 8.30738419 7.52492396
Ca 9.72571015 1.42294322 11.41647242
Ca 9.13794907 4.98391273 10.86564280
Ca 0.79591745 6.43399141 12.39455117
Ca 7.63402657 11.49389170 7.19726131
Ca 2.95446825 12.00343129 1.55492719
Ca 4.05000076 4.99196473 0.00646248
Ca 9.85248713 2.89078029 1.84648664
Ca 7.49415434 5.13049428 7.75876614
Ca 0.61840069 0.79248839 7.78706313
Ca 10.45642665 12.40740291 9.02196222
Si 0.71229063 1.65133675 2.10465230
Si 5.01219419 10.63684339 8.90309671
Si 7.62629280 10.00553033 9.85405457
Si 7.00939148 3.94659934 0.81839066
Si 12.41153897 4.21104273 0.27231074
Si 5.50711698 12.12501826 4.07624824
Si 1.72176609 3.76811974 10.32238760
Si 9.11515220 9.43283024 2.14761315
Si 11.72972086 8.53983329 2.36550140
Si 2.82015235 11.97285561 10.43524821
Si 2.14719074 2.25413640 4.57944812
Si 0.86251343 9.86326593 4.07609811
Si 1.10387810 7.16707720 6.19527935
Si 6.30354617 6.31142714 11.66912795
Si 10.16749907 3.77775011 4.38345050
Si 1.57084766 8.93024241 1.48102446
Si 6.99612049 8.16905187 7.18579026
Si 3.76394186 6.81015913 2.72492609
Si 10.61422861 2.65396756 8.38756831
Si 12.71669622 8.54675016 9.86538458
Si 11.58439940 12.91981220 12.56447771
Si 7.97015592 2.09337893 8.96683540
Si 7.57044468 9.03969244 12.62497802
Si 7.34474732 1.28752992 4.53120912
Si 2.78845951 12.45609662 5.46172439
Si 11.24409112 11.12862680 6.43825904
Si 7.23961958 4.40932264 3.75002591
O 1.10682639 5.83301501 5.13479246
O 9.35546674 10.88529796 1.88933884
O 8.65106618 4.61558838 4.59965844
O 10.59072939 4.61882389 3.08550438
O 9.83064115 11.00503487 7.48750205
O 6.67773804 10.46527700 12.90873477
O 7.37145828 5.93030677 10.58644263
O 10.86240774 3.94900876 12.85940328
O 9.26746301 8.55582633 3.59871528
O 4.93269475 7.13667465 1.66520608
O 1.32045484 2.89666240 6.16448324
O 12.45405757 0.73902327 2.72276135
O 10.05727999 2.24243907 4.04498918
O 12.42665954 5.84946880 0.95024894
O 6.41630551 7.88157933 12.28776201
O 11.55185449 9.31912599 9.15553358
O 7.68972579 0.93379595 2.90812680
O 11.96314690 7.51372678 10.92638477
O 5.39194292 3.48868854 1.04610783
O 3.98325684 10.03968664 7.78863899
O 4.74803191 12.57919956 2.66031715
O 3.20113600 5.18193576 2.25583960
O 1.07830920 4.40598761 8.88494748
O 6.06263083 11.82217299 8.76665154
O 2.58426264 7.37812460 7.08532728
O 10.56103504 0.67382069 0.82070546
O 8.25886193 11.48572317 10.09134268
O 12.00687572 2.26117787 7.56841923
O 11.61209760 11.29770962 12.07643097
O 12.50833614 9.85581713 3.22930022
O 1.33100726 8.42123402 4.72169241
O 10.50196856 8.80370189 1.47556388
O 6.55521977 9.13185174 5.97362207
O 12.92129981 9.03220107 1.16549010
O 8.36302822 1.22091768 5.81233545
O 8.14027996 6.90401320 6.61294335
O 12.21309845 12.33163781 7.27917134
O 2.19086046 8.55497124 12.89937165
O 8.50275872 9.17076994 11.01777173
O 8.12626878 3.03950804 0.20999931
O 11.73213492 0.63845248 11.16728507
O 0.93956690 2.60615437 3.52004649
O 2.84344846 0.00543738 7.04656938
O 5.88167179 0.49383402 4.97877561
O 8.27998782 8.54705820 1.07680566
O 1.28141690 2.14455633 10.24280387
O 3.66731894 2.63577430 4.31423934
O 3.71497112 10.41745493 10.11094629
O 1.20344968 8.22565616 9.39347034
O 1.95622581 10.04802111 2.61659398
O 4.12985477 11.44482621 4.77475607
O 6.55792001 2.85758811 4.37118591
O 10.79068739 4.10731131 8.98477043
O 1.46436102 11.18197612 5.30182164
O 10.91797115 11.83637401 4.87848811
O 6.20783379 5.38328383 4.12796824
O 0.44141903 2.90892942 1.14577731
O 7.80692880 4.31562562 2.27807792
O 7.81614239 8.98847095 8.44908142
O 1.61699994 12.24777687 9.48231081
O 7.89622305 3.62763285 9.43833207
O 2.15559040 0.64574562 4.44055462
O 11.72994625 7.19286330 3.18821931
O 4.16337347 6.78386136 4.36897888
O 4.13111135 12.79407108 10.00385914
O 2.17140566 1.05656689 1.97138639
O 6.76346985 4.97840327 12.62024312
O 12.47528681 7.05899147 7.01911697
O 2.91330529 11.85772584 12.06614222
O 2.26468278 7.46104769 2.28673140
O 0.31844711 4.28852832 11.68626166
O 6.64042300 10.93414902 3.87293537
O 6.73425462 1.58664590 8.16004257
O 8.14217072 1.07268414 10.29903841
O 4.62416736 6.33352719 11.30842503
O 11.65599351 9.64088833 6.08399929
O 9.66857778 1.37441427 8.52724719
O 6.05339181 9.61904559 9.87973926
O 5.69609495 6.98663832 7.62996516
O 11.16346214 3.87591458 5.58808766
O 3.02973159 4.53367766 10.33617203
135
Time=400000.00000008 pbc="T T T" Lattice="12.93041299 0.00000000 0.00000000 0.00000000 12.93041299 0.00000000 0.00000000 0.00000000 12.93041299" energy=-926.06098685 virial="10.18590802 16.89212180 14.89778424 16.89212180 7.07520211 -7.13380232 14.89778424 -7.13380232 -24.68031483" stress="0.02085480 0.00781353 0.00689104 0.00781353 0.01941592 -0.00329977 0.00689104 -0.00329977 0.00472727" Properties=species:S:1:pos:R:3
Ca 7.05111022 12.76163826 5.14530222
Ca 4.23786188 3.07250897 3.95318089
Ca 2.49418447 1.76629709 10.15482815
Ca 5.71596511 9.42978282 9.93457629
Ca 0.23049646 8.05295452 5.74147919
Ca 11.05719986 8.08953241 1.15879640
Ca 9.17298098 4.03679030 5.67811024
Ca 9.13443403 10.95268357 11.58303156
Ca 11.19169355 0.70643245 3.85268118
Ca 8.94026518 2.79750134 1.62639341
Ca 5.36639368 2.95341893 7.20373648
Ca 7.95083209 6.58376073 1.81646242
Ca 5.04718200 5.97079785 2.06540337
Ca 3.40705103 12.87559474 7.50079591
Ca 1.33513900 9.03768498 1.94793231
Ca 2.17509323 0.32146253 1.88565783
Ca 12.75119066 3.73609213 10.03777867
Ca 11.04923537 10.56395567 5.66380639
Ca 4.95302864 10.01162890 2.52983469
Ca 1.89837281 8.12280929 11.13450099
Ca 10.63123458 6.36837591 9.85682408
Ca 3.86148620 6.67081924 8.85001285
Ca 5.65858995 0.18591283 1.80644535
Ca 11.72262085 0.06089137 10.06764219
Ca 11.93168426 4.36645068 2.46169563
Ca 7.81872987 5.02874759 9.02889172
Ca 4.72305497 6.11676725 5.28182864
Si 0.38901713 1.94506378 12.85645013
Si 0.82482046 12.49154133 4.94434451
Si 5.83713396 6.46803087 11.58034366
Si 0.06716350 6.43909732 9.26662449
Si 5.27620750 3.71037060 11.15477187
Si 3.45606889 2.84876589 0.76443962
Si 9.93328173 7.14476070 4.45763648
Si 0.54045045 11.28065123 7.75799417
Si 9.61861314 1.97671108 8.64509022
Si 8.36504917 1.03135042 11.41929717
Si 3.85624492 8.65877050 5.19196626
Si 4.36106214 8.77870231 12.81895496
Si 12.32243244 11.95445103 0.37608662
Si 6.43087570 12.86685688 9.59899893
Si 7.95019226 10.06554232 1.28776613
Si 9.53849914 11.62625818 2.21482220
Si 3.39942856 9.70632136 8.10943622
Si 8.76622512 12.09459720 7.67589194
Si 8.29644045 4.22970958 11.95686716
Si 7.44727744 6.36154787 6.47892209
Si 6.99870439 2.65995334 3.83116850
Si 3.40150731 11.54048381 4.24558860
Si 2.16325782 3.73546564 7.36736586
Si 4.55311482 11.88854099 11.81160354
Si 0.60384571 2.57600100 4.54089965
Si 2.20504069 4.79715054 2.61487097
Si 11.58836040 8.40542592 11.56238886
O 12.75915663 8.10951604 12.68065137
O 2.98217425 4.83807179 7.06495238
O 5.98209001 11.60542643 10.63558738
O 3.94339297 1.80596848 2.08730227
O 5.68162370 0.60237472 8.43861189
O 7.05775957 9.58785720 2.47358224
O 7.00099988 1.13632173 10.66298530
O 12.09274424 7.70002382 10.04940370
O 8.65022735 2.62745889 12.27689921
O 9.22742383 5.11405114 11.06003516
O 2.65539051 10.99032390 2.87302515
O 11.15681338 2.32834435 9.07847556
O 6.78126532 1.78152153 2.66604990
O 4.25482871 3.04740567 12.41735004
O 1.09907716 2.94088371 6.13436523
O 8.54166664 11.48545004 6.27324082
O 0.04724010 12.36444057 6.51870879
O 3.10407708 2.13469076 7.15448331
O 1.27313986 1.08855217 4.56865230
O 6.89451580 4.23576967 11.01040831
O 0.75317596 5.99683673 10.70443524
O 2.05362133 2.33522346 0.42857426
O 9.57551102 9.81536901 1.77675838
O 11.22943942 9.84249710 11.63087627
O 2.24035693 8.15719709 4.62154198
O 9.07428901 0.92687305 7.49692393
O 5.41691484 8.07078912 0.65234606
O 4.19031708 12.75713469 0.33676175
O 10.15696940 11.56361565 8.15755521
O 7.58534387 9.85126566 12.61295763
O 3.20823689 8.34182407 1.25005678
O 7.86522296 11.86575583 1.79248392
O 4.56967761 2.96905503 9.80079342
O 2.28376418 10.58647762 7.35809157
O 1.39703703 7.13624406 8.52661197
O 8.89919247 6.00597959 7.25260037
O 5.14413175 7.90506676 4.21965229
O 11.94853385 5.34189157 8.84843264
O 12.30610276 3.17704643 0.46893027
O 4.86771035 10.49340083 7.82490805
O 8.79174686 0.27106140 12.74885958
O 6.15662576 7.10038699 10.11665231
O 0.33919406 10.68454233 0.71214067
O 2.42806739 12.27639347 5.28954867
O 4.51482440 10.46681692 12.46889823
O 3.40220880 5.06514023 3.83736982
O 10.68933893 8.37147687 5.20049845
O 3.20430069 12.35146706 11.03719863
O 3.21855221 4.61536657 1.34769552
O 0.19060351 0.45057994 1.21047066
O 9.36580489 7.26229638 2.89887725
O 11.50597389 12.60912559 12.04279242
O 9.83777377 11.77869276 3.86740734
O 8.62484089 2.73113069 3.68432185
O 10.65947812 12.26395421 1.34175673
O 0.59300394 12.13913246 9.15783811
O 4.59558089 5.36102112 11.01965054
O 0.37781640 1.85383735 11.37356402
O 10.70472045 5.77588929 4.31807297
O 9.22429157 0.88172079 10.06121140
O 6.39064470 7.50151636 7.19500224
O 3.93869127 8.75826096 6.71576969
O 9.31923277 3.57276095 8.07263455
O 7.36876734 11.96543175 8.48036167
O 6.68400569 4.53462820 6.77619022
O 1.67755761 3.41064363 3.18082493
O 0.97120583 5.86430817 2.63389730
O 3.13623280 8.74070479 9.58113956
O 4.33735405 7.94477409 11.53935294
O 12.00820867 2.44775628 4.05253016
O 12.75390162 11.75709174 4.03517317
O 12.76497387 9.83848594 7.31938392
O 6.14089987 2.11902731 5.26324969
O 6.68939790 4.33986930 3.63634272
O 4.37533225 10.25709769 5.11746840
O 4.59470673 12.33897688 4.01597937
O 8.13298822 7.02247396 5.17255080
O 1.65087472 3.68693479 8.90729421
O 6.66109154 6.06231850 12.90855406
O 10.23816440 7.49556762 11.80391759
O 8.82916208 4.73163474 0.72219077
135
Time=500000.00000301 pbc="T T T" Lattice="12.93041299 0.00000000 0.00000000 0.00000000 12.93041299 0.00000000 0.00000000 0.00000000 12.93041299" energy=-919.91768182 virial="-17.53037026 -10.86252711 2.53341931 -10.86252711 23.91555371 14.06401029 2.53341931 14.06401029 21.29020531" stress="0.00803451 -0.00502451 0.00117184 -0.00502451 0.02720550 0.00650537 0.00117184 0.00650537 0.02599114" Properties=species:S:1:pos:R:3
Ca 11.73840727 0.95201180 1.69795182
Ca 8.56499464 1.61486074 12.78763432
Ca 3.64873231 6.46173890 0.65820977
Ca 6.18060993 5.46519968 6.89250814
Ca 6.05372609 1.07165584 5.51177921
Ca 3.64995124 11.75960590 6.72998149
Ca 5.16448251 9.04910239 7.51241823
Ca 8.42706155 11.52834242 5.04232110
Ca 3.01201723 10.18616507 3.51928254
Ca 9.33474658 4.06218659 10.41742879
Ca 6.58881378 10.21221467 0.53913110
Ca 5.78331849 1.39654109 1.30813715
Ca 0.52258144 1.84019589 8.05019410
Ca 2.95817834 5.79918923 7.43156491
Ca 1.88600835 6.76040573 10.54624856
Ca 11.12799440 6.69187275 11.27627292
Ca 0.51824158 10.66860540 0.95560832
Ca 6.22624255 7.84050040 3.24335111
Ca 1.77916367 0.81606196 11.65838069
Ca 10.89099574 11.63438356 9.10083804
Ca 12.82527169 6.36212019 5.27897270
Ca 6.94623957 7.05563016 11.08107336
Ca 8.81823504 5.35901508 3.75088389
Ca 0.29599028 4.41617020 1.11729544
Ca 10.58801715 7.48273384 2.19269858
Ca 10.28353943 8.11659155 7.82908001
Ca 4.69517308 11.48805988 10.51498016
Si 9.90090753 10.22720001 12.32720068
Si 9.57709221 11.29667380 1.72968649
Si 7.42034565 11.99544948 8.52976098
Si 3.47170235 6.96999341 5.20377091
Si 0.99609631 11.43909318 8.13704052
Si 8.93163604 0.90958322 3.67016221
Si 12.57760937 4.57704867 9.24170421
Si 1.16134438 3.14357225 3.49666761
Si 3.23218721 9.51745542 12.91589746
Si 7.08075460 1.24142152 10.68577460
Si 12.02355961 1.92375915 11.08332626
Si 5.43242334 11.75216680 3.51730952
Si 5.76612224 4.62196896 4.16440830
Si 3.72359864 2.53672181 9.53061459
Si 12.09643198 0.74022526 5.14233748
Si 8.24688534 5.40227004 0.58120373
Si 2.82235311 12.49713022 1.17392749
Si 4.73080430 5.59921355 10.05975574
Si 0.94706746 6.97933260 0.11058459
Si 8.12249403 9.48601992 10.35747674
Si 10.40870378 3.05752335 6.77210300
Si 8.39674217 8.50594059 5.33874863
Si 12.22664539 11.08233613 3.60411702
Si 10.48112402 3.84106729 0.27390114
Si 4.06838578 2.76222600 6.57028493
Si 0.79232327 9.07705274 8.52375066
Si 11.02257952 8.51236844 4.70145633
O 9.81401966 3.40131719 5.33615249
O 8.09758511 0.85330588 5.01243689
O 8.04591760 10.96780176 9.66536147
O 5.25161753 3.56152699 5.63830891
O 3.80914457 1.34844793 6.06589566
O 10.91987060 10.72777767 11.11729592
O 4.00273754 6.51928483 9.14705775
O 6.33935268 5.51665133 9.91008588
O 6.94888522 5.62409873 4.45250859
O 7.31844313 9.37168664 4.57974334
O 2.25442738 1.86919547 9.72415223
O 0.94995041 5.23277135 8.66826017
O 0.02390183 10.98932950 9.32221967
O 5.57443792 3.86168189 2.90313390
O 4.29764365 7.13315901 6.61471206
O 11.28346040 9.74094213 3.47585685
O 1.88322117 6.53953066 1.24910513
O 0.56771466 4.61585355 3.25148166
O 6.93418722 0.27029453 12.04389234
O 9.44864440 11.82439522 12.82110438
O 8.71391924 12.15537323 3.00605448
O 2.07716395 6.55620193 5.64284978
O 4.61249082 10.12557558 12.03613236
O 9.23436323 2.84257254 7.77409558
O 4.36415479 5.70303833 11.48312304
O 4.78105656 5.76980333 4.79852159
O 11.90171005 8.08443149 6.06730219
O 1.15554487 2.52135740 2.02422593
O 7.08704423 0.40018492 9.46750759
O 12.51172783 12.27861750 4.74178273
O 6.33197562 0.06041224 3.60039408
O 0.82950067 10.02419202 7.12204149
O 2.28922751 8.48760012 8.94284121
O 8.63319573 6.47998697 1.82862895
O 11.92529630 3.77498910 7.68324555
O 12.69989690 1.23488248 12.41402389
O 11.32145776 11.79931090 2.42560117
O 2.80219855 3.55082805 7.29872328
O 6.62602484 5.85462090 0.36706124
O 1.31637615 12.88115216 0.85587356
O 11.03965328 9.79828518 0.75558071
O 9.59423678 9.61138743 5.50526732
O 0.65502521 10.59980761 3.04305494
O 9.51975633 7.42122392 4.62216452
O 5.00627477 1.99361676 10.40535755
O 0.28929351 1.94916444 4.68747692
O 0.51999432 5.75714635 12.07865935
O 7.63466468 8.17949155 6.63155463
O 8.81379807 3.76897613 0.25912878
O 4.70146632 11.27656345 5.01186559
O 6.42710703 9.02132141 10.62233686
O 8.57259028 1.48708698 2.04572931
O 12.52933741 7.65798189 0.86330594
O 12.73179563 3.38999159 10.81369881
O 11.76229719 1.14343516 9.77101957
O 2.64305560 11.16606776 8.44088261
O 10.79960043 1.09712453 4.30010402
O 8.70240507 5.81396503 12.03270199
O 4.56711773 8.54516795 0.92255367
O 10.90336947 5.41874583 0.10123792
O 3.54589875 8.00860449 3.97729766
O 11.06384737 5.27457293 9.51432899
O 5.87260858 11.11594132 8.29734349
O 9.49507451 8.73764211 9.75425364
O 8.33537639 11.79833614 7.29755748
O 8.78395827 9.95501269 1.60994203
O 4.81281742 2.46668794 7.90395843
O 2.71877024 10.91527210 0.92949634
O 4.19711431 0.11937604 0.06696861
O 2.01537073 8.53304223 12.18201762
O 10.90507172 3.12854183 1.80830828
O 7.59401343 2.75110771 10.99147824
O 10.54369412 2.49918085 11.77516540
O 8.41755288 9.27793913 12.13141877
O 3.67854662 12.51739738 2.65548335
O 0.85473034 12.54165370 7.08534301
O 12.47163651 8.29453745 9.11540916
O 11.83077112 7.26181776 3.73605360
O 4.19685252 4.09454367 9.97728600
O 11.62447956 1.04986766 6.75945778
O 5.55108012 10.72272744 2.52519781
135
Time=600000.00000594 pbc="T T T" Lattice="12.93041299 0.00000000 0.00000000 0.00000000 12.93041299 0.00000000 0.00000000 0.00000000 12.93041299" energy=-921.65224523 virial="-24.08320733 -24.43257124 -1.38136228 -24.43257124 -0.29050362 -15.33565604 -1.38136228 -15.33565604 -44.36055263" stress="0.00500347 -0.01130139 -0.00063896 -0.01130139 0.01600889 -0.00709358 -0.00063896 -0.00709358 -0.00437591" Properties=species:S:1:pos:R:3
Ca 12.65584563 6.64133781 0.33984700
Ca 9.64162531 6.57778889 7.35938145
Ca 7.58888978 7.34638288 3.72801928
Ca 6.26297195 5.82567097 8.49359844
Ca 9.77192254 2.64043926 7.39416830
Ca 2.60182419 2.90807748 12.32432987
Ca 11.68726250 1.93602357 11.38628752
Ca 12.78932009 7.80700355 8.89071291
Ca 8.38034472 7.76055152 12.89430196
Ca 4.19195701 8.77515196 9.06338275
Ca 4.18603306 10.36750121 12.41026815
Ca 6.51380548 11.31890417 2.06700078
Ca 12.73723292 1.13568269 6.24912604
Ca 2.55710183 0.32253267 3.50944483
Ca 10.10666758 4.25727513 12.78247070
Ca 0.14436944 4.35256319 9.31211713
Ca 10.25471905 10.31176587 3.85843941
Ca 1.43108958 11.72620305 0.75841416
Ca 11.29851885 5.04847210 3.92753327
Ca 2.80180403 4.50363271 7.68347830
Ca 5.28284128 10.92197444 5.13571256
Ca 1.96797402 5.29309354 3.98979622
Ca 11.24787491 11.16280809 7.73122764
Ca 4.81966986 7.37118781 12.25348992
Ca 6.13857710 2.16773786 5.25845757
Ca 9.40584336 1.83174363 3.33662034
Ca 4.74997940 0.27273172 9.02579914
Si 0.13481088 3.15631872 1.99994881
Si 9.39019939 0.05395424 6.29696652
Si 7.41363312 8.74513955 9.73802591
Si 3.50877116 0.91658031 6.12006126
Si 8.60670100 4.73743973 5.29670979
Si 9.58871777 11.73290148 1.00461149
Si 12.62579366 0.98588351 1.51971914
Si 11.76204028 9.48664751 0.75874649
Si 4.29690445 0.57557754 0.24604219
Si 0.30766378 9.63626490 5.73695911
Si 3.99349827 9.19437002 3.22291208
Si 4.10533883 4.74881243 10.48375199
Si 2.58742489 7.64815446 0.84813713
Si 2.06799714 10.38973658 10.14131998
Si 6.25830063 4.67216762 12.72495258
Si 8.04958299 2.82391064 10.62180460
Si 6.44522390 12.84051367 11.72753254
Si 12.92138956 8.17866727 3.04703006
Si 4.50332158 7.34758117 5.95285029
Si 5.32006279 4.88401618 4.29361429
Si 10.45365068 5.84895663 10.52646493
Si 1.57650603 11.82999792 7.27379736
Si 12.57413914 5.09004169 6.63467136
Si 7.54227874 10.30141616 12.03788556
Si 8.12820654 10.30233142 6.91982516
Si 0.96106655 0.42495178 11.35951229
Si 7.85401585 4.27027168 2.13348256
O 10.72078526 12.75821000 1.45026103
O 7.32595665 9.88018477 8.41945994
O 7.44365595 4.28943022 3.87683008
O 10.50328203 4.78448813 9.05286684
O 2.34626877 0.24311708 12.29474018
O 2.54528884 4.28085885 9.74458919
O 4.67037539 4.67589424 11.96285698
O 5.07546098 4.02624053 9.34897545
O 9.52696860 3.45378313 5.48372844
O 12.36712423 12.70325223 11.56882024
O 8.28858748 11.71949436 12.76122429
O 0.48220036 2.04831131 0.55858525
O 12.82508904 4.23690617 1.00338824
O 8.45332822 11.98032660 2.45997653
O 5.89153485 6.33665109 4.72157599
O 4.92500249 8.61677816 6.68123388
O 11.58039875 8.08789260 1.77006827
O 11.98675067 5.52294112 11.27462060
O 4.33622412 0.08108823 4.74576106
O 4.30096774 2.10421288 0.60875312
O 12.89295331 9.42292335 4.03406436
O 11.65934692 8.70913222 12.22556723
O 7.15039000 9.38800017 0.39884158
O 9.62748465 12.52089422 4.77889174
O 9.49107523 9.36058949 6.89958267
O 3.69595193 7.91341534 2.06089785
O 9.99163645 10.03502634 1.08631250
O 3.69698784 10.75585309 10.00205304
O 0.27808770 8.59992895 6.81134960