 running on   52 total cores
 distrk:  each k-point on   52 cores,    1 groups
 distr:  one band on   13 cores,    4 groups
 using from now: INCAR     
 vasp.5.4.4.18Apr17-6-g9f103f2a35 (build Oct 31 2019 15:01:46) complex          
  
 POSCAR found type information on POSCAR  Ca Si O 
 POSCAR found :  3 types and     135 ions
 scaLAPACK is switched off
 LDA part: xc-table for Pade appr. of Perdew
 generate k-points for:    2    2    2
 POSCAR, INCAR and KPOINTS ok, starting setup
 FFT: planning ...
 WAVECAR not read
 entering main loop
       N       E                     dE             d eps       ncg     rms          rms(c)
DAV:   1     0.100228982382E+05    0.10023E+05   -0.49026E+05  8320   0.188E+03
DAV:   2     0.182999931570E+03   -0.98399E+04   -0.94859E+04  9520   0.517E+02
DAV:   3    -0.948094885933E+03   -0.11311E+04   -0.11202E+04 10264   0.175E+02
DAV:   4    -0.100495044283E+04   -0.56856E+02   -0.56644E+02 11824   0.347E+01
DAV:   5    -0.100972962336E+04   -0.47792E+01   -0.47763E+01 13728   0.828E+00    0.875E+01
DAV:   6    -0.863105722384E+03    0.14662E+03   -0.63213E+02  9704   0.401E+01    0.389E+01
DAV:   7    -0.866875330370E+03   -0.37696E+01   -0.84192E+01 10584   0.153E+01    0.206E+01
DAV:   8    -0.863397733575E+03    0.34776E+01   -0.18788E+01 11704   0.912E+00    0.136E+01
DAV:   9    -0.865699374077E+03   -0.23016E+01   -0.10996E+01 10824   0.621E+00    0.159E+01
DAV:  10    -0.863933556929E+03    0.17658E+01   -0.61720E+00 10856   0.398E+00    0.685E+00
DAV:  11    -0.863111130677E+03    0.82243E+00   -0.23866E+00 10360   0.294E+00    0.395E+00
DAV:  12    -0.863002665098E+03    0.10847E+00   -0.60769E-01  9848   0.144E+00    0.725E+00
DAV:  13    -0.862885313329E+03    0.11735E+00   -0.99111E-01 10584   0.141E+00    0.336E+00
DAV:  14    -0.862950756880E+03   -0.65444E-01   -0.23998E-01 10344   0.907E-01    0.266E+00
DAV:  15    -0.862844806216E+03    0.10595E+00   -0.63867E-02 10056   0.532E-01    0.185E+00
DAV:  16    -0.862903798708E+03   -0.58992E-01   -0.59411E-02 11152   0.561E-01    0.599E+00
DAV:  17    -0.862832738044E+03    0.71061E-01   -0.24191E-02 10816   0.410E-01    0.152E+00
DAV:  18    -0.862820661529E+03    0.12077E-01   -0.70990E-03 10240   0.184E-01    0.821E-01
DAV:  19    -0.862818785155E+03    0.18764E-02   -0.13629E-02 11352   0.118E-01    0.809E-01
DAV:  20    -0.862815799819E+03    0.29853E-02   -0.12373E-03 10248   0.770E-02    0.338E-01
DAV:  21    -0.862815384929E+03    0.41489E-03   -0.10039E-03 11488   0.433E-02    0.123E-01
DAV:  22    -0.862815402179E+03   -0.17251E-04   -0.11454E-04 10328   0.181E-02    0.105E-01
DAV:  23    -0.862815388576E+03    0.13603E-04   -0.69254E-05 10760   0.149E-02    0.880E-02
DAV:  24    -0.862815376581E+03    0.11996E-04   -0.14765E-05 10120   0.756E-03    0.670E-02
DAV:  25    -0.862815370625E+03    0.59557E-05   -0.24357E-04  9240   0.885E-03    0.486E-02
DAV:  26    -0.862815363768E+03    0.68573E-05   -0.45391E-05  8384   0.504E-03    0.478E-03
DAV:  27    -0.862815364259E+03   -0.49153E-06   -0.31126E-06  5032   0.186E-03
   1 F= -.86281536E+03 E0= -.86279784E+03  d E =-.350443E-01
