<?xml version="1.0" encoding="ISO-8859-1"?>
<modeling>
 <generator>
  <i name="program" type="string">vasp </i>
  <i name="version" type="string">5.4.4.18Apr17-6-g9f103f2a35  </i>
  <i name="subversion" type="string">(build Mar 16 2023 09:39:13) complex            parallel </i>
  <i name="platform" type="string">LinuxIFC </i>
  <i name="date" type="string">2024 04 29 </i>
  <i name="time" type="string">20:45:06 </i>
 </generator>
 <incar>
  <i type="int" name="ISTART">     0</i>
  <i type="string" name="PREC">a</i>
  <i type="logical" name="ADDGRID"> T  </i>
  <i type="int" name="IBRION">    -1</i>
  <i name="EDIFF">      0.00000100</i>
  <i name="EDIFFG">     -0.01000000</i>
  <i type="int" name="NSW">     1</i>
  <i type="int" name="ISIF">     2</i>
  <i type="int" name="ISYM">     0</i>
  <i name="ENCUT">    600.00000000</i>
  <i name="POTIM">      1.00000000</i>
  <i type="string" name="LREAL">  A</i>
  <i type="int" name="ISMEAR">     0</i>
  <i name="SIGMA">      0.05000000</i>
  <i name="KSPACING">      0.30000000</i>
  <i type="logical" name="KGAMMA"> T  </i>
  <i type="logical" name="LWAVE"> F  </i>
  <i type="logical" name="LCHARG"> F  </i>
  <i type="logical" name="LSCALAPACK"> F  </i>
  <v type="int" name="KPOINT_BSE">    -1     0     0     0</v>
 </incar>
 <structure name="primitive_cell" >
  <crystal>
   <varray name="basis" >
    <v>      11.12194768       0.00000000       0.00000000 </v>
    <v>       0.00000000      11.12194768       0.00000000 </v>
    <v>       0.00000000       0.00000000      11.12194768 </v>
   </varray>
   <i name="volume">   1375.75957216 </i>
   <varray name="rec_basis" >
    <v>       0.08991231       0.00000000       0.00000000 </v>
    <v>       0.00000000       0.08991231       0.00000000 </v>
    <v>       0.00000000       0.00000000       0.08991231 </v>
   </varray>
  </crystal>
  <varray name="positions" >
   <v>       0.36934307       0.35882571       0.47447097 </v>
   <v>      -0.48828416       0.40312689      -0.40356099 </v>
   <v>       0.28948738       0.49870792      -0.39971213 </v>
   <v>       0.24876055       0.26027970       0.34016837 </v>
   <v>       0.20215489       0.26639555      -0.44713020 </v>
   <v>      -0.47656161       0.48442753       0.38807144 </v>
   <v>       0.31685801      -0.44320154       0.37410630 </v>
   <v>      -0.42601655       0.26489896       0.42926905 </v>
   <v>       0.42995453       0.12888185      -0.43612747 </v>
   <v>      -0.37854096       0.42284451       0.48841163 </v>
   <v>       0.38936253       0.43885259      -0.27732676 </v>
   <v>       0.45000693       0.18800775       0.28402240 </v>
   <v>       0.35118620       0.40297312       0.20684593 </v>
   <v>       0.36511685       0.26826850      -0.26844964 </v>
   <v>       0.32960331       0.25815896       0.22166745 </v>
   <v>       0.41925952      -0.45468051       0.27712561 </v>
   <v>       0.33387103       0.14065390      -0.33399777 </v>
   <v>      -0.45316931       0.13562518       0.38729297 </v>
   <v>       0.29934130       0.07534030       0.39532258 </v>
   <v>       0.45967976      -0.34907018      -0.48601788 </v>
   <v>       0.17447057       0.47761707       0.26677942 </v>
   <v>       0.06992325       0.27634245       0.46071459 </v>
   <v>       0.06982728       0.46811662      -0.47749997 </v>
   <v>       0.13630933      -0.42840462      -0.44132291 </v>
   <v>      -0.41059880       0.19211049      -0.31700869 </v>
   <v>      -0.37129750      -0.41780299      -0.46325227 </v>
   <v>       0.10641565       0.31131570      -0.29486873 </v>
   <v>       0.46511224      -0.44070888      -0.24871743 </v>
   <v>      -0.38043373       0.37563535       0.20190831 </v>
   <v>       0.08417428       0.12228034       0.43218005 </v>
   <v>      -0.27949362       0.38002821      -0.39991804 </v>
   <v>       0.29114465       0.46802544      -0.16869802 </v>
   <v>       0.15405501      -0.32742272       0.44744968 </v>
   <v>      -0.46738635      -0.46609057       0.17722328 </v>
   <v>      -0.25893776       0.42803691       0.37891429 </v>
   <v>       0.25573178       0.00877510      -0.39491234 </v>
   <v>       0.48324017      -0.00528048       0.38020642 </v>
   <v>      -0.00883130       0.33371722       0.35685599 </v>
   <v>       0.44121715      -0.28897254       0.29131282 </v>
   <v>      -0.32967422       0.15618522       0.28615222 </v>
   <v>      -0.47053796       0.36957792      -0.14647339 </v>
   <v>       0.12200260      -0.41757798      -0.28088119 </v>
   <v>      -0.02496940       0.23819810      -0.44588309 </v>
   <v>       0.29244680       0.17064875       0.10511959 </v>
   <v>      -0.34731645       0.47703378      -0.23123501 </v>
   <v>       0.34866245      -0.26871840      -0.31523358 </v>
   <v>       0.38198774       0.06901199      -0.20071683 </v>
   <v>      -0.32549843       0.04738335      -0.49505446 </v>
   <v>       0.17200269       0.05063200       0.21462699 </v>
   <v>       0.16516516       0.11039280      -0.21077835 </v>
   <v>      -0.46873267       0.27109552       0.06049861 </v>
   <v>       0.27266621      -0.36326366       0.12309064 </v>
   <v>      -0.18743855       0.23923434       0.43119501 </v>
   <v>       0.24167241      -0.24006816       0.28319831 </v>
   <v>       0.03460840       0.38919219       0.15187167 </v>
   <v>       0.46813352      -0.27474278      -0.24901688 </v>
   <v>       0.19288902      -0.42040847      -0.14684114 </v>
   <v>       0.45311990      -0.08867480      -0.39588929 </v>
   <v>      -0.40959193      -0.22193669       0.44240268 </v>
   <v>      -0.04984434      -0.46610044       0.33325947 </v>
   <v>      -0.29347914      -0.36331983       0.28521128 </v>
   <v>      -0.43925755       0.07422726       0.14305655 </v>
   <v>       0.05125199       0.04114182       0.30830186 </v>
   <v>      -0.00907963      -0.37100950      -0.40743239 </v>
   <v>       0.37856682       0.22919021      -0.06167170 </v>
   <v>       0.02920013       0.06416979      -0.35359717 </v>
   <v>       0.37837676      -0.15495676       0.44089626 </v>
   <v>       0.37422772      -0.06922765       0.23158718 </v>
   <v>      -0.29422075      -0.26916015      -0.45904881 </v>
   <v>       0.43867241       0.49764829      -0.00832453 </v>
   <v>      -0.14601052       0.49732435      -0.46802788 </v>
   <v>      -0.08941796       0.41473927       0.26025878 </v>
   <v>      -0.26260226       0.29316654      -0.17642662 </v>
   <v>      -0.42260071      -0.21940554      -0.31451501 </v>
   <v>      -0.37276292      -0.00546825      -0.26392680 </v>
   <v>      -0.42533963       0.14369223      -0.09968592 </v>
   <v>       0.14766587       0.27097318      -0.06305549 </v>
   <v>       0.27734232      -0.01744754       0.11817155 </v>
   <v>       0.47643530      -0.14521792       0.33283777 </v>
   <v>       0.07051981      -0.31569706       0.18646382 </v>
   <v>      -0.09910900       0.42445104      -0.29129563 </v>
   <v>      -0.00847281      -0.29152069       0.35346272 </v>
   <v>      -0.26873722       0.00580615      -0.36400944 </v>
   <v>       0.15005197      -0.15813818      -0.43285841 </v>
   <v>      -0.34726836       0.43277485       0.01678748 </v>
   <v>       0.08927330      -0.09958622       0.37049484 </v>
   <v>      -0.36969230       0.29568840      -0.04830382 </v>
   <v>      -0.45744598      -0.32685717      -0.10888759 </v>
   <v>       0.04465712       0.33557157       0.03063122 </v>
   <v>      -0.04349566       0.19562959      -0.19897840 </v>
   <v>      -0.19799983       0.48486028       0.15461489 </v>
   <v>      -0.14323096       0.28663320       0.21952951 </v>
   <v>       0.09533624       0.13173788      -0.09049961 </v>
   <v>      -0.19945448      -0.32917837      -0.34183417 </v>
   <v>       0.48026029       0.01090741      -0.09625938 </v>
   <v>      -0.06585440       0.07731092       0.24850517 </v>
   <v>       0.25857647      -0.30446692      -0.08394431 </v>
   <v>      -0.18028970      -0.28925450       0.44566327 </v>
   <v>       0.48986282      -0.25077139       0.07029297 </v>
   <v>       0.16765531      -0.30766649       0.04975537 </v>
   <v>       0.11271467      -0.45946898      -0.01064835 </v>
   <v>       0.40573418       0.00018001       0.01873828 </v>
   <v>      -0.11278021       0.32014494      -0.18947138 </v>
   <v>      -0.15893584       0.07060201      -0.30393416 </v>
   <v>      -0.05274438      -0.38556521      -0.18709428 </v>
   <v>      -0.23703497       0.26235128       0.02652069 </v>
   <v>      -0.24128374      -0.09529896       0.37273221 </v>
   <v>       0.11442360      -0.16676108      -0.24491313 </v>
   <v>      -0.39589836      -0.12400693       0.18964992 </v>
   <v>       0.20911219       0.04105502      -0.01820522 </v>
   <v>       0.25956176      -0.09883869      -0.14072493 </v>
   <v>      -0.00454325       0.18541950       0.02394418 </v>
   <v>      -0.25320346      -0.46300487       0.02752613 </v>
   <v>      -0.16145494       0.17948083       0.12246792 </v>
   <v>      -0.28920363      -0.32538111       0.07218843 </v>
   <v>       0.44913174      -0.13214153      -0.16289691 </v>
   <v>      -0.02413681      -0.12417044      -0.44935800 </v>
   <v>      -0.23303586       0.03762790       0.10913937 </v>
   <v>       0.20119873      -0.16556492       0.09177140 </v>
   <v>      -0.24848139      -0.13693085      -0.41551031 </v>
   <v>      -0.09131553      -0.22532910      -0.38803791 </v>
   <v>      -0.06406839       0.37247660      -0.05720544 </v>
   <v>      -0.19931540      -0.42176830      -0.10444131 </v>
   <v>      -0.27087556      -0.24184970      -0.15963102 </v>
   <v>       0.00305325      -0.05047067       0.10358907 </v>
   <v>      -0.21397496       0.05516335      -0.10529126 </v>
   <v>       0.00833801      -0.00024491      -0.08604584 </v>
   <v>      -0.20762529      -0.18524477       0.21428533 </v>
   <v>      -0.10231540      -0.30846255       0.12471497 </v>
   <v>      -0.38442519      -0.05725635      -0.01968421 </v>
   <v>      -0.27764372      -0.10404813       0.08888022 </v>
   <v>      -0.08357558      -0.17200396      -0.24535146 </v>
   <v>       0.04321082      -0.23702858      -0.03551227 </v>
   <v>       0.01897085      -0.13393762      -0.14353956 </v>
   <v>      -0.16503931      -0.13955674      -0.00338443 </v>
  </varray>
 </structure>
 <varray name="primitive_index" >
  <v type="int" >        1 </v>
  <v type="int" >      132 </v>
  <v type="int" >       87 </v>
  <v type="int" >      102 </v>
  <v type="int" >       82 </v>
  <v type="int" >       98 </v>
  <v type="int" >      111 </v>
  <v type="int" >       55 </v>
  <v type="int" >      117 </v>
  <v type="int" >       49 </v>
  <v type="int" >       46 </v>
  <v type="int" >      105 </v>
  <v type="int" >       89 </v>
  <v type="int" >      112 </v>
  <v type="int" >       40 </v>
  <v type="int" >       43 </v>
  <v type="int" >       29 </v>
  <v type="int" >       50 </v>
  <v type="int" >        6 </v>
  <v type="int" >       27 </v>
  <v type="int" >       18 </v>
  <v type="int" >       30 </v>
  <v type="int" >      108 </v>
  <v type="int" >       32 </v>
  <v type="int" >        2 </v>
  <v type="int" >      124 </v>
  <v type="int" >       20 </v>
  <v type="int" >       59 </v>
  <v type="int" >       21 </v>
  <v type="int" >       61 </v>
  <v type="int" >       81 </v>
  <v type="int" >      125 </v>
  <v type="int" >       69 </v>
  <v type="int" >      135 </v>
  <v type="int" >       70 </v>
  <v type="int" >      114 </v>
  <v type="int" >      118 </v>
  <v type="int" >      123 </v>
  <v type="int" >       73 </v>
  <v type="int" >      127 </v>
  <v type="int" >       93 </v>
  <v type="int" >       60 </v>
  <v type="int" >      103 </v>
  <v type="int" >       77 </v>
  <v type="int" >       15 </v>
  <v type="int" >       65 </v>
  <v type="int" >      122 </v>
  <v type="int" >       97 </v>
  <v type="int" >       80 </v>
  <v type="int" >      107 </v>
  <v type="int" >      110 </v>
  <v type="int" >       72 </v>
  <v type="int" >       23 </v>
  <v type="int" >       11 </v>
  <v type="int" >       79 </v>
  <v type="int" >       35 </v>
  <v type="int" >       44 </v>
  <v type="int" >       22 </v>
  <v type="int" >       91 </v>
  <v type="int" >       71 </v>
  <v type="int" >        9 </v>
  <v type="int" >       13 </v>
  <v type="int" >       53 </v>
  <v type="int" >       57 </v>
  <v type="int" >        5 </v>
  <v type="int" >       25 </v>
  <v type="int" >       96 </v>
  <v type="int" >      101 </v>
  <v type="int" >       45 </v>
  <v type="int" >        4 </v>
  <v type="int" >       14 </v>
  <v type="int" >       52 </v>
  <v type="int" >      128 </v>
  <v type="int" >      116 </v>
  <v type="int" >       94 </v>
  <v type="int" >      120 </v>
  <v type="int" >      113 </v>
  <v type="int" >       31 </v>
  <v type="int" >       36 </v>
  <v type="int" >      115 </v>
  <v type="int" >      100 </v>
  <v type="int" >        8 </v>
  <v type="int" >       41 </v>
  <v type="int" >       17 </v>
  <v type="int" >       63 </v>
  <v type="int" >       66 </v>
  <v type="int" >       51 </v>
  <v type="int" >      133 </v>
  <v type="int" >       39 </v>
  <v type="int" >       83 </v>
  <v type="int" >      126 </v>
  <v type="int" >       92 </v>
  <v type="int" >       28 </v>
  <v type="int" >       75 </v>
  <v type="int" >       47 </v>
  <v type="int" >       99 </v>
  <v type="int" >       90 </v>
  <v type="int" >      134 </v>
  <v type="int" >       26 </v>
  <v type="int" >       54 </v>
  <v type="int" >       85 </v>
  <v type="int" >       64 </v>
  <v type="int" >       33 </v>
  <v type="int" >       84 </v>
  <v type="int" >       12 </v>
  <v type="int" >      109 </v>
  <v type="int" >       24 </v>
  <v type="int" >       67 </v>
  <v type="int" >       74 </v>
  <v type="int" >      131 </v>
  <v type="int" >        3 </v>
  <v type="int" >      106 </v>
  <v type="int" >       42 </v>
  <v type="int" >       38 </v>
  <v type="int" >       62 </v>
  <v type="int" >       58 </v>
  <v type="int" >      130 </v>
  <v type="int" >       68 </v>
  <v type="int" >      129 </v>
  <v type="int" >       86 </v>
  <v type="int" >       37 </v>
  <v type="int" >      104 </v>
  <v type="int" >       95 </v>
  <v type="int" >       10 </v>
  <v type="int" >        7 </v>
  <v type="int" >       16 </v>
  <v type="int" >       78 </v>
  <v type="int" >       76 </v>
  <v type="int" >       19 </v>
  <v type="int" >      121 </v>
  <v type="int" >       34 </v>
  <v type="int" >       88 </v>
  <v type="int" >      119 </v>
  <v type="int" >       48 </v>
  <v type="int" >       56 </v>
 </varray>
 <kpoints>
  <generation param="Gamma">
   <v type="int" name="divisions">       2        2        2 </v>
   <v name="usershift">      0.00000000       0.00000000       0.00000000 </v>
   <v name="genvec1">      0.50000000       0.00000000       0.00000000 </v>
   <v name="genvec2">      0.00000000       0.50000000       0.00000000 </v>
   <v name="genvec3">      0.00000000       0.00000000       0.50000000 </v>
   <v name="shift">      0.00000000       0.00000000       0.00000000 </v>
  </generation>
  <varray name="kpointlist" >
   <v>       0.00000000       0.00000000       0.00000000 </v>
   <v>       0.50000000       0.00000000       0.00000000 </v>
   <v>       0.00000000       0.50000000       0.00000000 </v>
   <v>       0.50000000       0.50000000       0.00000000 </v>
   <v>       0.00000000       0.00000000       0.50000000 </v>
   <v>       0.50000000       0.00000000       0.50000000 </v>
   <v>       0.00000000       0.50000000       0.50000000 </v>
   <v>       0.50000000       0.50000000       0.50000000 </v>
  </varray>
  <varray name="weights" >
   <v>       0.12500000 </v>
   <v>       0.12500000 </v>
   <v>       0.12500000 </v>
   <v>       0.12500000 </v>
   <v>       0.12500000 </v>
   <v>       0.12500000 </v>
   <v>       0.12500000 </v>
   <v>       0.12500000 </v>
  </varray>
 </kpoints>
 <parameters>
  <separator name="general" >
   <i type="string" name="SYSTEM">unknown system</i>
   <i type="logical" name="LCOMPAT"> F  </i>
  </separator>
  <separator name="electronic" >
   <i type="string" name="PREC">a</i>
   <i name="ENMAX">    600.00000000</i>
   <i name="ENAUG">    605.39200000</i>
   <i name="EDIFF">      0.00000100</i>
   <i type="int" name="IALGO">    38</i>
   <i type="int" name="IWAVPR">    10</i>
   <i type="int" name="NBANDS">   520</i>
   <i name="NELECT">    864.00000000</i>
   <i type="int" name="TURBO">     0</i>
   <i type="int" name="IRESTART">     0</i>
   <i type="int" name="NREBOOT">     0</i>
   <i type="int" name="NMIN">     0</i>
   <i name="EREF">      0.00000000</i>
   <separator name="electronic smearing" >
    <i type="int" name="ISMEAR">     0</i>
    <i name="SIGMA">      0.05000000</i>
    <i name="KSPACING">      0.30000000</i>
    <i type="logical" name="KGAMMA"> T  </i>
   </separator>
   <separator name="electronic projectors" >
    <i type="logical" name="LREAL"> T  </i>
    <v name="ROPT">     -0.00025000     -0.00025000     -0.00025000</v>
    <i type="int" name="LMAXPAW">  -100</i>
    <i type="int" name="LMAXMIX">     2</i>
    <i type="logical" name="NLSPLINE"> F  </i>
   </separator>
   <separator name="electronic startup" >
    <i type="int" name="ISTART">     0</i>
    <i type="int" name="ICHARG">     2</i>
    <i type="int" name="INIWAV">     1</i>
   </separator>
   <separator name="electronic spin" >
    <i type="int" name="ISPIN">     1</i>
    <i type="logical" name="LNONCOLLINEAR"> F  </i>
    <v name="MAGMOM">      1.00000000      1.00000000      1.00000000      1.00000000      1.00000000      1.00000000      1.00000000      1.00000000      1.00000000      1.00000000      1.00000000      1.00000000      1.00000000      1.00000000      1.00000000      1.00000000      1.00000000      1.00000000      1.00000000      1.00000000
      1.00000000      1.00000000      1.00000000      1.00000000      1.00000000      1.00000000      1.00000000      1.00000000      1.00000000      1.00000000      1.00000000      1.00000000      1.00000000      1.00000000      1.00000000      1.00000000      1.00000000      1.00000000      1.00000000      1.00000000
      1.00000000      1.00000000      1.00000000      1.00000000      1.00000000      1.00000000      1.00000000      1.00000000      1.00000000      1.00000000      1.00000000      1.00000000      1.00000000      1.00000000      1.00000000      1.00000000      1.00000000      1.00000000      1.00000000      1.00000000
      1.00000000      1.00000000      1.00000000      1.00000000      1.00000000      1.00000000      1.00000000      1.00000000      1.00000000      1.00000000      1.00000000      1.00000000      1.00000000      1.00000000      1.00000000      1.00000000      1.00000000      1.00000000      1.00000000      1.00000000
      1.00000000      1.00000000      1.00000000      1.00000000      1.00000000      1.00000000      1.00000000      1.00000000      1.00000000      1.00000000      1.00000000      1.00000000      1.00000000      1.00000000      1.00000000      1.00000000      1.00000000      1.00000000      1.00000000      1.00000000
      1.00000000      1.00000000      1.00000000      1.00000000      1.00000000      1.00000000      1.00000000      1.00000000      1.00000000      1.00000000      1.00000000      1.00000000      1.00000000      1.00000000      1.00000000      1.00000000      1.00000000      1.00000000      1.00000000      1.00000000
      1.00000000      1.00000000      1.00000000      1.00000000      1.00000000      1.00000000      1.00000000      1.00000000      1.00000000      1.00000000      1.00000000      1.00000000      1.00000000      1.00000000      1.00000000</v>
    <i name="NUPDOWN">     -1.00000000</i>
    <i type="logical" name="LSORBIT"> F  </i>
    <v name="SAXIS">      0.00000000      0.00000000      1.00000000</v>
    <i type="logical" name="LSPIRAL"> F  </i>
    <v name="QSPIRAL">      0.00000000      0.00000000      0.00000000</v>
    <i type="logical" name="LZEROZ"> F  </i>
   </separator>
   <separator name="electronic exchange-correlation" >
    <i type="logical" name="LASPH"> F  </i>
    <i type="logical" name="LMETAGGA"> F  </i>
   </separator>
   <separator name="electronic convergence" >
    <i type="int" name="NELM">    60</i>
    <i type="int" name="NELMDL">    -5</i>
    <i type="int" name="NELMIN">     2</i>
    <i name="ENINI">    600.00000000</i>
    <separator name="electronic convergence detail" >
     <i type="logical" name="LDIAG"> T  </i>
     <i type="logical" name="LSUBROT"> F  </i>
     <i name="WEIMIN">      0.00000000</i>
     <i name="EBREAK">      0.00000000</i>
     <i name="DEPER">      0.30000000</i>
     <i type="int" name="NRMM">     4</i>
     <i name="TIME">      0.40000000</i>
    </separator>
   </separator>
   <separator name="electronic mixer" >
    <i name="AMIX">      0.40000000</i>
    <i name="BMIX">      1.00000000</i>
    <i name="AMIN">      0.10000000</i>
    <i name="AMIX_MAG">      1.60000000</i>
    <i name="BMIX_MAG">      1.00000000</i>
    <separator name="electronic mixer details" >
     <i type="int" name="IMIX">     4</i>
     <i type="logical" name="MIXFIRST"> F  </i>
     <i type="int" name="MAXMIX">   -45</i>
     <i name="WC">    100.00000000</i>
     <i type="int" name="INIMIX">     1</i>
     <i type="int" name="MIXPRE">     1</i>
     <i type="int" name="MREMOVE">     5</i>
    </separator>
   </separator>
   <separator name="electronic dipolcorrection" >
    <i type="logical" name="LDIPOL"> F  </i>
    <i type="logical" name="LMONO"> F  </i>
    <i type="int" name="IDIPOL">     0</i>
    <i name="EPSILON">      1.00000000</i>
    <v name="DIPOL">   -100.00000000   -100.00000000   -100.00000000</v>
    <i name="EFIELD">      0.00000000</i>
   </separator>
  </separator>
  <separator name="grids" >
   <i type="int" name="NGX">    90</i>
   <i type="int" name="NGY">    90</i>
   <i type="int" name="NGZ">    90</i>
   <i type="int" name="NGXF">   180</i>
   <i type="int" name="NGYF">   180</i>
   <i type="int" name="NGZF">   180</i>
   <i type="logical" name="ADDGRID"> T  </i>
  </separator>
  <separator name="ionic" >
   <i type="int" name="NSW">     1</i>
   <i type="int" name="IBRION">    -1</i>
   <i type="int" name="MDALGO">     0</i>
   <i type="int" name="ISIF">     2</i>
   <i name="PSTRESS">      0.00000000</i>
   <i name="EDIFFG">     -0.01000000</i>
   <i type="int" name="NFREE">     0</i>
   <i name="POTIM">      1.00000000</i>
   <i name="SMASS">     -3.00000000</i>
   <i name="SCALEE">      1.00000000</i>
  </separator>
  <separator name="ionic md" >
   <i name="TEBEG">      0.00010000</i>
   <i name="TEEND">      0.00010000</i>
   <i type="int" name="NBLOCK">     1</i>
   <i type="int" name="KBLOCK">     1</i>
   <i type="int" name="NPACO">   256</i>
   <i name="APACO">     16.00000000</i>
  </separator>
  <separator name="symmetry" >
   <i type="int" name="ISYM">     0</i>
   <i name="SYMPREC">      0.00001000</i>
  </separator>
  <separator name="dos" >
   <i type="int" name="LORBIT">     0</i>
   <v name="RWIGS">     -1.00000000     -1.00000000     -1.00000000</v>
   <i type="int" name="NEDOS">   301</i>
   <i name="EMIN">     10.00000000</i>
   <i name="EMAX">    -10.00000000</i>
   <i name="EFERMI">      0.00000000</i>
  </separator>
  <separator name="writing" >
   <i type="int" name="NWRITE">     2</i>
   <i type="logical" name="LWAVE"> F  </i>
   <i type="logical" name="LDOWNSAMPLE"> F  </i>
   <i type="logical" name="LCHARG"> F  </i>
   <i type="logical" name="LPARD"> F  </i>
   <i type="logical" name="LVTOT"> F  </i>
   <i type="logical" name="LVHAR"> F  </i>
   <i type="logical" name="LELF"> F  </i>
   <i type="logical" name="LOPTICS"> F  </i>
   <v name="STM">      0.00000000      0.00000000      0.00000000      0.00000000      0.00000000      0.00000000      0.00000000</v>
  </separator>
  <separator name="performance" >
   <i type="int" name="NPAR">     4</i>
   <i type="int" name="NSIM">     4</i>
   <i type="int" name="NBLK">    -1</i>
   <i type="logical" name="LPLANE"> T  </i>
   <i type="logical" name="LSCALAPACK"> F  </i>
   <i type="logical" name="LSCAAWARE"> F  </i>
   <i type="logical" name="LSCALU"> F  </i>
   <i type="logical" name="LASYNC"> F  </i>
   <i type="logical" name="LORBITALREAL"> F  </i>
  </separator>
  <separator name="miscellaneous" >
   <i type="int" name="IDIOT">     3</i>
   <i type="int" name="ISPECIAL">     0</i>
   <i type="logical" name="LMUSIC"> F  </i>
   <v name="POMASS">     40.07800000     28.08500000     16.00000000</v>
   <v name="DARWINR">      0.00000000      0.00000000      0.00000000</v>
   <v name="DARWINV">      1.00000000      1.00000000      1.00000000</v>
   <i type="logical" name="LCORR"> T  </i>
  </separator>
  <i type="logical" name="GGA_COMPAT"> T  </i>
  <i type="logical" name="LBERRY"> F  </i>
  <i type="int" name="ICORELEVEL">     0</i>
  <i type="logical" name="LDAU"> F  </i>
  <i type="int" name="I_CONSTRAINED_M">     0</i>
  <separator name="electronic exchange-correlation" >
   <i type="string" name="GGA">--</i>
   <i type="int" name="VOSKOWN">     0</i>
   <i type="logical" name="LHFCALC"> F  </i>
   <i type="string" name="PRECFOCK"></i>
   <i type="logical" name="LSYMGRAD"> F  </i>
   <i type="logical" name="LHFONE"> F  </i>
   <i type="logical" name="LRHFCALC"> F  </i>
   <i type="logical" name="LTHOMAS"> F  </i>
   <i type="logical" name="LMODELHF"> F  </i>
   <i name="ENCUT4O">     -1.00000000</i>
   <i type="int" name="EXXOEP">     0</i>
   <i type="int" name="FOURORBIT">     0</i>
   <i name="AEXX">      0.00000000</i>
   <i name="HFALPHA">      0.00000000</i>
   <i name="MCALPHA">      0.00000000</i>
   <i name="ALDAX">      1.00000000</i>
   <i name="AGGAX">      1.00000000</i>
   <i name="ALDAC">      1.00000000</i>
   <i name="AGGAC">      1.00000000</i>
   <i type="int" name="NKREDX">     1</i>
   <i type="int" name="NKREDY">     1</i>
   <i type="int" name="NKREDZ">     1</i>
   <i type="logical" name="SHIFTRED"> F  </i>
   <i type="logical" name="ODDONLY"> F  </i>
   <i type="logical" name="EVENONLY"> F  </i>
   <i type="int" name="LMAXFOCK">     0</i>
   <i type="int" name="NMAXFOCKAE">     0</i>
   <i type="logical" name="LFOCKAEDFT"> F  </i>
   <i name="HFSCREEN">      0.00000000</i>
   <i name="HFSCREENC">      0.00000000</i>
   <i type="int" name="NBANDSGWLOW">     0</i>
  </separator>
  <separator name="vdW DFT" >
   <i type="logical" name="LUSE_VDW"> F  </i>
   <i name="Zab_VDW">     -0.84910000</i>
   <i name="PARAM1">      0.12340000</i>
   <i name="PARAM2">      1.00000000</i>
   <i name="PARAM3">      0.00000000</i>
  </separator>
  <separator name="model GW" >
   <i type="int" name="MODEL_GW">     0</i>
   <i name="MODEL_EPS0">      6.11448699</i>
   <i name="MODEL_ALPHA">      1.00000000</i>
  </separator>
  <separator name="linear response parameters" >
   <i type="logical" name="LEPSILON"> F  </i>
   <i type="logical" name="LRPA"> F  </i>
   <i type="logical" name="LNABLA"> F  </i>
   <i type="logical" name="LVEL"> F  </i>
   <i type="int" name="KINTER">     0</i>
   <i name="CSHIFT">      0.10000000</i>
   <i name="OMEGAMAX">     -1.00000000</i>
   <i name="DEG_THRESHOLD">      0.00200000</i>
   <i name="RTIME">     -0.10000000</i>
   <i name="WPLASMAI">      0.00000000</i>
   <v name="DFIELD">      0.00000000      0.00000000      0.00000000</v>
   <v name="WPLASMA">      0.00000000      0.00000000      0.00000000      0.00000000      0.00000000      0.00000000      0.00000000      0.00000000      0.00000000</v>
  </separator>
  <separator name="orbital magnetization" >
   <i type="logical" name="NUCIND"> F  </i>
   <v name="MAGPOS">      0.00000000      0.00000000      0.00000000</v>
   <i type="logical" name="LNICSALL"> T  </i>
   <i type="logical" name="ORBITALMAG"> F  </i>
   <i type="logical" name="LMAGBLOCH"> F  </i>
   <i type="logical" name="LCHIMAG"> F  </i>
   <i type="logical" name="LGAUGE"> T  </i>
   <i type="int" name="MAGATOM">     0</i>
   <v name="MAGDIPOL">      0.00000000      0.00000000      0.00000000</v>
   <v name="AVECCONST">      0.00000000      0.00000000      0.00000000</v>
  </separator>
  <separator name="response functions" >
   <i type="logical" name="LADDER"> F  </i>
   <i type="logical" name="LRPAFORCE"> F  </i>
   <i type="logical" name="LFXC"> F  </i>
   <i type="logical" name="LHARTREE"> T  </i>
   <i type="int" name="IBSE">     0</i>
   <v type="int" name="KPOINT">    -1     0     0     0</v>
   <i type="logical" name="LTCTE"> F  </i>
   <i type="logical" name="LTETE"> F  </i>
   <i type="logical" name="LTRIPLET"> F  </i>
   <i type="logical" name="LFXCEPS"> F  </i>
   <i type="logical" name="LFXHEG"> F  </i>
   <i type="int" name="NATURALO">     2</i>
   <i type="logical" name="L2ORDER"> F  </i>
   <i type="logical" name="LMP2LT"> F  </i>
   <i type="logical" name="LUSEW"> F  </i>
   <i name="ENCUTGW">     -2.00000000</i>
   <i name="ENCUTGWSOFT">     -2.00000000</i>
   <i name="ENCUTLF">     -1.00000000</i>
   <i type="int" name="LMAXMP2">    -1</i>
   <i name="SCISSOR">      0.00000000</i>
   <i type="int" name="NOMEGA">     0</i>
   <i type="int" name="NOMEGAR">     0</i>
   <i type="int" name="NBANDSGW">    -1</i>
   <i type="int" name="NBANDSO">    -1</i>
   <i type="int" name="NBANDSV">    -1</i>
   <i type="int" name="NELM">     1</i>
   <i type="int" name="NELMHF">     1</i>
   <i type="int" name="DIM">     3</i>
   <i type="int" name="ANTIRES">     0</i>
   <i name="OMEGAMAX">    -30.00000000</i>
   <i name="OMEGAMIN">    -30.00000000</i>
   <i name="OMEGATL">   -200.00000000</i>
   <i type="int" name="OMEGAGRID">   140</i>
   <i name="CSHIFT">     -0.10000000</i>
   <i type="logical" name="SELFENERGY"> F  </i>
   <i type="logical" name="LSPECTRAL"> F  </i>
   <i type="logical" name="LSPECTRALGW"> F  </i>
   <i type="logical" name="LSINGLES"> F  </i>
   <i type="logical" name="LFERMIGW"> F  </i>
   <i type="logical" name="ODDONLYGW"> F  </i>
   <i type="logical" name="EVENONLYGW"> F  </i>
   <i type="int" name="NKREDLFX">     1</i>
   <i type="int" name="NKREDLFY">     1</i>
   <i type="int" name="NKREDLFZ">     1</i>
   <i type="int" name="MAXMEM">  2800</i>
   <i type="int" name="TELESCOPE">     0</i>
   <i type="int" name="TAUPAR">     1</i>
   <i type="int" name="OMEGAPAR">    -1</i>
   <i name="LAMBDA">      1.00000000</i>
  </separator>
  <separator name="External order field" >
   <i name="OFIELD_KAPPA">      0.00000000</i>
   <v name="OFIELD_K">      0.00000000      0.00000000      0.00000000</v>
   <i name="OFIELD_Q6_NEAR">      0.00000000</i>
   <i name="OFIELD_Q6_FAR">      0.00000000</i>
   <i name="OFIELD_A">      0.00000000</i>
  </separator>
 </parameters>
 <atominfo>
  <atoms>     135 </atoms>
  <types>       3 </types>
  <array name="atoms" >
   <dimension dim="1">ion</dimension>
   <field type="string">element</field>
   <field type="int">atomtype</field>
   <set>
    <rc><c>Ca</c><c>   1</c></rc>
    <rc><c>Ca</c><c>   1</c></rc>
    <rc><c>Ca</c><c>   1</c></rc>
    <rc><c>Ca</c><c>   1</c></rc>
    <rc><c>Ca</c><c>   1</c></rc>
    <rc><c>Ca</c><c>   1</c></rc>
    <rc><c>Ca</c><c>   1</c></rc>
    <rc><c>Ca</c><c>   1</c></rc>
    <rc><c>Ca</c><c>   1</c></rc>
    <rc><c>Ca</c><c>   1</c></rc>
    <rc><c>Ca</c><c>   1</c></rc>
    <rc><c>Ca</c><c>   1</c></rc>
    <rc><c>Ca</c><c>   1</c></rc>
    <rc><c>Ca</c><c>   1</c></rc>
    <rc><c>Ca</c><c>   1</c></rc>
    <rc><c>Ca</c><c>   1</c></rc>
    <rc><c>Ca</c><c>   1</c></rc>
    <rc><c>Ca</c><c>   1</c></rc>
    <rc><c>Ca</c><c>   1</c></rc>
    <rc><c>Ca</c><c>   1</c></rc>
    <rc><c>Ca</c><c>   1</c></rc>
    <rc><c>Ca</c><c>   1</c></rc>
    <rc><c>Ca</c><c>   1</c></rc>
    <rc><c>Ca</c><c>   1</c></rc>
    <rc><c>Ca</c><c>   1</c></rc>
    <rc><c>Ca</c><c>   1</c></rc>
    <rc><c>Ca</c><c>   1</c></rc>
    <rc><c>Si</c><c>   2</c></rc>
    <rc><c>Si</c><c>   2</c></rc>
    <rc><c>Si</c><c>   2</c></rc>
    <rc><c>Si</c><c>   2</c></rc>
    <rc><c>Si</c><c>   2</c></rc>
    <rc><c>Si</c><c>   2</c></rc>
    <rc><c>Si</c><c>   2</c></rc>
    <rc><c>Si</c><c>   2</c></rc>
    <rc><c>Si</c><c>   2</c></rc>
    <rc><c>Si</c><c>   2</c></rc>
    <rc><c>Si</c><c>   2</c></rc>
    <rc><c>Si</c><c>   2</c></rc>
    <rc><c>Si</c><c>   2</c></rc>
    <rc><c>Si</c><c>   2</c></rc>
    <rc><c>Si</c><c>   2</c></rc>
    <rc><c>Si</c><c>   2</c></rc>
    <rc><c>Si</c><c>   2</c></rc>
    <rc><c>Si</c><c>   2</c></rc>
    <rc><c>Si</c><c>   2</c></rc>
    <rc><c>Si</c><c>   2</c></rc>
    <rc><c>Si</c><c>   2</c></rc>
    <rc><c>Si</c><c>   2</c></rc>
    <rc><c>Si</c><c>   2</c></rc>
    <rc><c>Si</c><c>   2</c></rc>
    <rc><c>Si</c><c>   2</c></rc>
    <rc><c>Si</c><c>   2</c></rc>
    <rc><c>Si</c><c>   2</c></rc>
    <rc><c>O </c><c>   3</c></rc>
    <rc><c>O </c><c>   3</c></rc>
    <rc><c>O </c><c>   3</c></rc>
    <rc><c>O </c><c>   3</c></rc>
    <rc><c>O </c><c>   3</c></rc>
    <rc><c>O </c><c>   3</c></rc>
    <rc><c>O </c><c>   3</c></rc>
    <rc><c>O </c><c>   3</c></rc>
    <rc><c>O </c><c>   3</c></rc>
    <rc><c>O </c><c>   3</c></rc>
    <rc><c>O </c><c>   3</c></rc>
    <rc><c>O </c><c>   3</c></rc>
    <rc><c>O </c><c>   3</c></rc>
    <rc><c>O </c><c>   3</c></rc>
    <rc><c>O </c><c>   3</c></rc>
    <rc><c>O </c><c>   3</c></rc>
    <rc><c>O </c><c>   3</c></rc>
    <rc><c>O </c><c>   3</c></rc>
    <rc><c>O </c><c>   3</c></rc>
    <rc><c>O </c><c>   3</c></rc>
    <rc><c>O </c><c>   3</c></rc>
    <rc><c>O </c><c>   3</c></rc>
    <rc><c>O </c><c>   3</c></rc>
    <rc><c>O </c><c>   3</c></rc>
    <rc><c>O </c><c>   3</c></rc>
    <rc><c>O </c><c>   3</c></rc>
    <rc><c>O </c><c>   3</c></rc>
    <rc><c>O </c><c>   3</c></rc>
    <rc><c>O </c><c>   3</c></rc>
    <rc><c>O </c><c>   3</c></rc>
    <rc><c>O </c><c>   3</c></rc>
    <rc><c>O </c><c>   3</c></rc>
    <rc><c>O </c><c>   3</c></rc>
    <rc><c>O </c><c>   3</c></rc>
    <rc><c>O </c><c>   3</c></rc>
    <rc><c>O </c><c>   3</c></rc>
    <rc><c>O </c><c>   3</c></rc>
    <rc><c>O </c><c>   3</c></rc>
    <rc><c>O </c><c>   3</c></rc>
    <rc><c>O </c><c>   3</c></rc>
    <rc><c>O </c><c>   3</c></rc>
    <rc><c>O </c><c>   3</c></rc>
    <rc><c>O </c><c>   3</c></rc>
    <rc><c>O </c><c>   3</c></rc>
    <rc><c>O </c><c>   3</c></rc>
    <rc><c>O </c><c>   3</c></rc>
    <rc><c>O </c><c>   3</c></rc>
    <rc><c>O </c><c>   3</c></rc>
    <rc><c>O </c><c>   3</c></rc>
    <rc><c>O </c><c>   3</c></rc>
    <rc><c>O </c><c>   3</c></rc>
    <rc><c>O </c><c>   3</c></rc>
    <rc><c>O </c><c>   3</c></rc>
    <rc><c>O </c><c>   3</c></rc>
    <rc><c>O </c><c>   3</c></rc>
    <rc><c>O </c><c>   3</c></rc>
    <rc><c>O </c><c>   3</c></rc>
    <rc><c>O </c><c>   3</c></rc>
    <rc><c>O </c><c>   3</c></rc>
    <rc><c>O </c><c>   3</c></rc>
    <rc><c>O </c><c>   3</c></rc>
    <rc><c>O </c><c>   3</c></rc>
    <rc><c>O </c><c>   3</c></rc>
    <rc><c>O </c><c>   3</c></rc>
    <rc><c>O </c><c>   3</c></rc>
    <rc><c>O </c><c>   3</c></rc>
    <rc><c>O </c><c>   3</c></rc>
    <rc><c>O </c><c>   3</c></rc>
    <rc><c>O </c><c>   3</c></rc>
    <rc><c>O </c><c>   3</c></rc>
    <rc><c>O </c><c>   3</c></rc>
    <rc><c>O </c><c>   3</c></rc>
    <rc><c>O </c><c>   3</c></rc>
    <rc><c>O </c><c>   3</c></rc>
    <rc><c>O </c><c>   3</c></rc>
    <rc><c>O </c><c>   3</c></rc>
    <rc><c>O </c><c>   3</c></rc>
    <rc><c>O </c><c>   3</c></rc>
    <rc><c>O </c><c>   3</c></rc>
    <rc><c>O </c><c>   3</c></rc>
    <rc><c>O </c><c>   3</c></rc>
   </set>
  </array>
  <array name="atomtypes" >
   <dimension dim="1">type</dimension>
   <field type="int">atomspertype</field>
   <field type="string">element</field>
   <field>mass</field>
   <field>valence</field>
   <field type="string">pseudopotential</field>
   <set>
    <rc><c>  27</c><c>Ca</c><c>     40.07800000</c><c>     10.00000000</c><c>  PAW_PBE Ca_sv 06Sep2000               </c></rc>
    <rc><c>  27</c><c>Si</c><c>     28.08500000</c><c>      4.00000000</c><c>  PAW_PBE Si 05Jan2001                  </c></rc>
    <rc><c>  81</c><c>O </c><c>     16.00000000</c><c>      6.00000000</c><c>  PAW_PBE O 08Apr2002                   </c></rc>
   </set>
  </array>
 </atominfo>
 <structure name="initialpos" >
  <crystal>
   <varray name="basis" >
    <v>      11.12194768       0.00000000       0.00000000 </v>
    <v>       0.00000000      11.12194768       0.00000000 </v>
    <v>       0.00000000       0.00000000      11.12194768 </v>
   </varray>
   <i name="volume">   1375.75957216 </i>
   <varray name="rec_basis" >
    <v>       0.08991231       0.00000000       0.00000000 </v>
    <v>       0.00000000       0.08991231       0.00000000 </v>
    <v>       0.00000000       0.00000000       0.08991231 </v>
   </varray>
  </crystal>
  <varray name="positions" >
   <v>       0.36934307       0.35882571       0.47447097 </v>
   <v>       0.58940120       0.19211049       0.68299131 </v>
   <v>       0.25956176       0.90116131       0.85927507 </v>
   <v>       0.43867241       0.49764829       0.99167547 </v>
   <v>       0.37856682       0.22919021       0.93832830 </v>
   <v>       0.29934130       0.07534030       0.39532258 </v>
   <v>       0.00305325       0.94952933       0.10358907 </v>
   <v>       0.99152719       0.70847931       0.35346272 </v>
   <v>       0.70652086       0.63668017       0.28521128 </v>
   <v>       0.72912444       0.75815030       0.84036898 </v>
   <v>       0.24167241       0.75993184       0.28319831 </v>
   <v>       0.94725562       0.61443479       0.81290572 </v>
   <v>       0.56074245       0.07422726       0.14305655 </v>
   <v>       0.85398948       0.49732435       0.53197212 </v>
   <v>       0.65268355       0.47703378       0.76876499 </v>
   <v>       0.78602504       0.05516335       0.89470874 </v>
   <v>       0.15005197       0.84186182       0.56714159 </v>
   <v>       0.17447057       0.47761707       0.26677942 </v>
   <v>       0.89768460       0.69153745       0.12471497 </v>
   <v>       0.10641565       0.31131570       0.70513127 </v>
   <v>       0.61956627       0.37563535       0.20190831 </v>
   <v>       0.45311990       0.91132520       0.60411071 </v>
   <v>       0.81256145       0.23923434       0.43119501 </v>
   <v>       0.75871626       0.90470104       0.37273221 </v>
   <v>       0.02920013       0.06416979       0.64640283 </v>
   <v>       0.48986282       0.74922861       0.07029297 </v>
   <v>       0.45967976       0.65092982       0.51398212 </v>
   <v>       0.09533624       0.13173788       0.90950039 </v>
   <v>       0.33387103       0.14065390       0.66600223 </v>
   <v>       0.06992325       0.27634245       0.46071459 </v>
   <v>       0.27734232       0.98255246       0.11817155 </v>
   <v>       0.13630933       0.57159538       0.55867709 </v>
   <v>       0.88721979       0.32014494       0.81052862 </v>
   <v>       0.72235628       0.89595187       0.08888022 </v>
   <v>       0.46813352       0.72525722       0.75098312 </v>
   <v>       0.47643530       0.85478208       0.33283777 </v>
   <v>       0.90868447       0.77467090       0.61196209 </v>
   <v>       0.83854506       0.17948083       0.12246792 </v>
   <v>       0.04465712       0.33557157       0.03063122 </v>
   <v>       0.32960331       0.25815896       0.22166745 </v>
   <v>       0.73126278       0.00580615       0.63599056 </v>
   <v>       0.74679654       0.53699513       0.02752613 </v>
   <v>       0.41925952       0.54531949       0.27712561 </v>
   <v>       0.19288902       0.57959153       0.85315886 </v>
   <v>       0.70577925       0.73083985       0.54095119 </v>
   <v>       0.38936253       0.43885259       0.72267324 </v>
   <v>       0.48026029       0.01090741       0.90374062 </v>
   <v>       0.01897085       0.86606238       0.85646044 </v>
   <v>       0.62145904       0.42284451       0.48841163 </v>
   <v>       0.54683069       0.13562518       0.38729297 </v>
   <v>       0.63030770       0.29568840       0.95169618 </v>
   <v>       0.91058204       0.41473927       0.26025878 </v>
   <v>       0.05125199       0.04114182       0.30830186 </v>
   <v>       0.16765531       0.69233351       0.04975537 </v>
   <v>       0.57398345       0.26489896       0.42926905 </v>
   <v>       0.83496069       0.86044326       0.99661557 </v>
   <v>       0.99092037       0.62899050       0.59256761 </v>
   <v>       0.44913174       0.86785847       0.83710309 </v>
   <v>       0.46511224       0.55929112       0.75128257 </v>
   <v>       0.12200260       0.58242202       0.71911881 </v>
   <v>       0.08417428       0.12228034       0.43218005 </v>
   <v>       0.71079637       0.67461889       0.07218843 </v>
   <v>       0.65273164       0.43277485       0.01678748 </v>
   <v>       0.40573418       0.00018001       0.01873828 </v>
   <v>       0.34866245       0.73128160       0.68476642 </v>
   <v>       0.08927330       0.90041378       0.37049484 </v>
   <v>       0.11442360       0.83323892       0.75508687 </v>
   <v>       0.76696414       0.03762790       0.10913937 </v>
   <v>       0.15405501       0.67257728       0.44744968 </v>
   <v>       0.74106224       0.42803691       0.37891429 </v>
   <v>       0.95015566       0.53389956       0.33325947 </v>
   <v>       0.27266621       0.63673634       0.12309064 </v>
   <v>       0.44121715       0.71102746       0.29131282 </v>
   <v>       0.60410164       0.87599307       0.18964992 </v>
   <v>       0.80054552       0.67082163       0.65816583 </v>
   <v>       0.79237471       0.81475523       0.21428533 </v>
   <v>       0.29244680       0.17064875       0.10511959 </v>
   <v>       0.00833801       0.99975509       0.91395416 </v>
   <v>       0.03460840       0.38919219       0.15187167 </v>
   <v>       0.17200269       0.05063200       0.21462699 </v>
   <v>       0.72050638       0.38002821       0.60008196 </v>
   <v>       0.20215489       0.26639555       0.55286980 </v>
   <v>       0.95650434       0.19562959       0.80102160 </v>
   <v>       0.84106416       0.07060201       0.69606584 </v>
   <v>       0.11271467       0.54053102       0.98935165 </v>
   <v>       0.75151861       0.86306915       0.58448969 </v>
   <v>       0.28948738       0.49870792       0.60028787 </v>
   <v>       0.91642442       0.82799604       0.75464854 </v>
   <v>       0.35118620       0.40297312       0.20684593 </v>
   <v>       0.25857647       0.69553308       0.91605569 </v>
   <v>       0.59040807       0.77806331       0.44240268 </v>
   <v>       0.85676904       0.28663320       0.21952951 </v>
   <v>       0.52946204       0.36957792       0.85352661 </v>
   <v>       0.62723708       0.99453175       0.73607320 </v>
   <v>       0.80068460       0.57823170       0.89555869 </v>
   <v>       0.37837676       0.84504324       0.44089626 </v>
   <v>       0.67450157       0.04738335       0.50494554 </v>
   <v>       0.52343839       0.48442753       0.38807144 </v>
   <v>       0.93414560       0.07731092       0.24850517 </v>
   <v>       0.90089100       0.42445104       0.70870437 </v>
   <v>       0.37422772       0.93077235       0.23158718 </v>
   <v>       0.24876055       0.26027970       0.34016837 </v>
   <v>       0.97503060       0.23819810       0.55411691 </v>
   <v>       0.93593161       0.37247660       0.94279456 </v>
   <v>       0.45000693       0.18800775       0.28402240 </v>
   <v>       0.99545675       0.18541950       0.02394418 </v>
   <v>       0.16516516       0.11039280       0.78922165 </v>
   <v>       0.06982728       0.46811662       0.52250003 </v>
   <v>       0.76296503       0.26235128       0.02652069 </v>
   <v>       0.53126733       0.27109552       0.06049861 </v>
   <v>       0.31685801       0.55679846       0.37410630 </v>
   <v>       0.36511685       0.26826850       0.73155036 </v>
   <v>       0.14766587       0.27097318       0.93694451 </v>
   <v>       0.25573178       0.00877510       0.60508766 </v>
   <v>       0.07051981       0.68430294       0.18646382 </v>
   <v>       0.57739929       0.78059446       0.68548499 </v>
   <v>       0.42995453       0.12888185       0.56387253 </v>
   <v>       0.48324017       0.99471952       0.38020642 </v>
   <v>       0.04321082       0.76297142       0.96448773 </v>
   <v>       0.57466037       0.14369223       0.90031408 </v>
   <v>       0.61557481       0.94274365       0.98031579 </v>
   <v>       0.38198774       0.06901199       0.79928317 </v>
   <v>       0.99116870       0.33371722       0.35685599 </v>
   <v>       0.62870250       0.58219701       0.53674773 </v>
   <v>       0.29114465       0.46802544       0.83130198 </v>
   <v>       0.80200017       0.48486028       0.15461489 </v>
   <v>       0.67032578       0.15618522       0.28615222 </v>
   <v>       0.73739774       0.29316654       0.82357338 </v>
   <v>       0.20119873       0.83443508       0.09177140 </v>
   <v>       0.97586319       0.87582956       0.55064200 </v>
   <v>       0.20911219       0.04105502       0.98179478 </v>
   <v>       0.51171584       0.40312689       0.59643901 </v>
   <v>       0.54255402       0.67314283       0.89111241 </v>
   <v>       0.81971030       0.71074550       0.44566327 </v>
   <v>       0.53261365       0.53390943       0.17722328 </v>
  </varray>
  <varray name="velocities" >
   <v>       0.00000000       0.00000000       0.00000000 </v>
   <v>       0.00000000       0.00000000       0.00000000 </v>
   <v>       0.00000000       0.00000000       0.00000000 </v>
   <v>       0.00000000       0.00000000       0.00000000 </v>
   <v>       0.00000000       0.00000000       0.00000000 </v>
   <v>       0.00000000       0.00000000       0.00000000 </v>
   <v>       0.00000000       0.00000000       0.00000000 </v>
   <v>       0.00000000       0.00000000       0.00000000 </v>
   <v>       0.00000000       0.00000000       0.00000000 </v>
   <v>       0.00000000       0.00000000       0.00000000 </v>
   <v>       0.00000000       0.00000000       0.00000000 </v>
   <v>       0.00000000       0.00000000       0.00000000 </v>
   <v>       0.00000000       0.00000000       0.00000000 </v>
   <v>       0.00000000       0.00000000       0.00000000 </v>
   <v>       0.00000000       0.00000000       0.00000000 </v>
   <v>       0.00000000       0.00000000       0.00000000 </v>
   <v>       0.00000000       0.00000000       0.00000000 </v>
   <v>       0.00000000       0.00000000       0.00000000 </v>
   <v>       0.00000000       0.00000000       0.00000000 </v>
   <v>       0.00000000       0.00000000       0.00000000 </v>
   <v>       0.00000000       0.00000000       0.00000000 </v>
   <v>       0.00000000       0.00000000       0.00000000 </v>
   <v>       0.00000000       0.00000000       0.00000000 </v>
   <v>       0.00000000       0.00000000       0.00000000 </v>
   <v>       0.00000000       0.00000000       0.00000000 </v>
   <v>       0.00000000       0.00000000       0.00000000 </v>
   <v>       0.00000000       0.00000000       0.00000000 </v>
   <v>       0.00000000       0.00000000       0.00000000 </v>
   <v>       0.00000000       0.00000000       0.00000000 </v>
   <v>       0.00000000       0.00000000       0.00000000 </v>
   <v>       0.00000000       0.00000000       0.00000000 </v>
   <v>       0.00000000       0.00000000       0.00000000 </v>
   <v>       0.00000000       0.00000000       0.00000000 </v>
   <v>       0.00000000       0.00000000       0.00000000 </v>
   <v>       0.00000000       0.00000000       0.00000000 </v>
   <v>       0.00000000       0.00000000       0.00000000 </v>
   <v>       0.00000000       0.00000000       0.00000000 </v>
   <v>       0.00000000       0.00000000       0.00000000 </v>
   <v>       0.00000000       0.00000000       0.00000000 </v>
   <v>       0.00000000       0.00000000       0.00000000 </v>
   <v>       0.00000000       0.00000000       0.00000000 </v>
   <v>       0.00000000       0.00000000       0.00000000 </v>
   <v>       0.00000000       0.00000000       0.00000000 </v>
   <v>       0.00000000       0.00000000       0.00000000 </v>
   <v>       0.00000000       0.00000000       0.00000000 </v>
   <v>       0.00000000       0.00000000       0.00000000 </v>
   <v>       0.00000000       0.00000000       0.00000000 </v>
   <v>       0.00000000       0.00000000       0.00000000 </v>
   <v>       0.00000000       0.00000000       0.00000000 </v>
   <v>       0.00000000       0.00000000       0.00000000 </v>
   <v>       0.00000000       0.00000000       0.00000000 </v>
   <v>       0.00000000       0.00000000       0.00000000 </v>
   <v>       0.00000000       0.00000000       0.00000000 </v>
   <v>       0.00000000       0.00000000       0.00000000 </v>
   <v>       0.00000000       0.00000000       0.00000000 </v>
   <v>       0.00000000       0.00000000       0.00000000 </v>
   <v>       0.00000000       0.00000000       0.00000000 </v>
   <v>       0.00000000       0.00000000       0.00000000 </v>
   <v>       0.00000000       0.00000000       0.00000000 </v>
   <v>       0.00000000       0.00000000       0.00000000 </v>
   <v>       0.00000000       0.00000000       0.00000000 </v>
   <v>       0.00000000       0.00000000       0.00000000 </v>
   <v>       0.00000000       0.00000000       0.00000000 </v>
   <v>       0.00000000       0.00000000       0.00000000 </v>
   <v>       0.00000000       0.00000000       0.00000000 </v>
   <v>       0.00000000       0.00000000       0.00000000 </v>
   <v>       0.00000000       0.00000000       0.00000000 </v>
   <v>       0.00000000       0.00000000       0.00000000 </v>
   <v>       0.00000000       0.00000000       0.00000000 </v>
   <v>       0.00000000       0.00000000       0.00000000 </v>
   <v>       0.00000000       0.00000000       0.00000000 </v>
   <v>       0.00000000       0.00000000       0.00000000 </v>
   <v>       0.00000000       0.00000000       0.00000000 </v>
   <v>       0.00000000       0.00000000       0.00000000 </v>
   <v>       0.00000000       0.00000000       0.00000000 </v>
   <v>       0.00000000       0.00000000       0.00000000 </v>
   <v>       0.00000000       0.00000000       0.00000000 </v>
   <v>       0.00000000       0.00000000       0.00000000 </v>
   <v>       0.00000000       0.00000000       0.00000000 </v>
   <v>       0.00000000       0.00000000       0.00000000 </v>
   <v>       0.00000000       0.00000000       0.00000000 </v>
   <v>       0.00000000       0.00000000       0.00000000 </v>
   <v>       0.00000000       0.00000000       0.00000000 </v>
   <v>       0.00000000       0.00000000       0.00000000 </v>
   <v>       0.00000000       0.00000000       0.00000000 </v>
   <v>       0.00000000       0.00000000       0.00000000 </v>
   <v>       0.00000000       0.00000000       0.00000000 </v>
   <v>       0.00000000       0.00000000       0.00000000 </v>
   <v>       0.00000000       0.00000000       0.00000000 </v>
   <v>       0.00000000       0.00000000       0.00000000 </v>
   <v>       0.00000000       0.00000000       0.00000000 </v>
   <v>       0.00000000       0.00000000       0.00000000 </v>
   <v>       0.00000000       0.00000000       0.00000000 </v>
   <v>       0.00000000       0.00000000       0.00000000 </v>
   <v>       0.00000000       0.00000000       0.00000000 </v>
   <v>       0.00000000       0.00000000       0.00000000 </v>
   <v>       0.00000000       0.00000000       0.00000000 </v>
   <v>       0.00000000       0.00000000       0.00000000 </v>
   <v>       0.00000000       0.00000000       0.00000000 </v>
   <v>       0.00000000       0.00000000       0.00000000 </v>
   <v>       0.00000000       0.00000000       0.00000000 </v>
   <v>       0.00000000       0.00000000       0.00000000 </v>
   <v>       0.00000000       0.00000000       0.00000000 </v>
   <v>       0.00000000       0.00000000       0.00000000 </v>
   <v>       0.00000000       0.00000000       0.00000000 </v>
   <v>       0.00000000       0.00000000       0.00000000 </v>
   <v>       0.00000000       0.00000000       0.00000000 </v>
   <v>       0.00000000       0.00000000       0.00000000 </v>
   <v>       0.00000000       0.00000000       0.00000000 </v>
   <v>       0.00000000       0.00000000       0.00000000 </v>
   <v>       0.00000000       0.00000000       0.00000000 </v>
   <v>       0.00000000       0.00000000       0.00000000 </v>
   <v>       0.00000000       0.00000000       0.00000000 </v>
   <v>       0.00000000       0.00000000       0.00000000 </v>
   <v>       0.00000000       0.00000000       0.00000000 </v>
   <v>       0.00000000       0.00000000       0.00000000 </v>
   <v>       0.00000000       0.00000000       0.00000000 </v>
   <v>       0.00000000       0.00000000       0.00000000 </v>
   <v>       0.00000000       0.00000000       0.00000000 </v>
   <v>       0.00000000       0.00000000       0.00000000 </v>
   <v>       0.00000000       0.00000000       0.00000000 </v>
   <v>       0.00000000       0.00000000       0.00000000 </v>
   <v>       0.00000000       0.00000000       0.00000000 </v>
   <v>       0.00000000       0.00000000       0.00000000 </v>
   <v>       0.00000000       0.00000000       0.00000000 </v>
   <v>       0.00000000       0.00000000       0.00000000 </v>
   <v>       0.00000000       0.00000000       0.00000000 </v>
   <v>       0.00000000       0.00000000       0.00000000 </v>
   <v>       0.00000000       0.00000000       0.00000000 </v>
   <v>       0.00000000       0.00000000       0.00000000 </v>
   <v>       0.00000000       0.00000000       0.00000000 </v>
   <v>       0.00000000       0.00000000       0.00000000 </v>
   <v>       0.00000000       0.00000000       0.00000000 </v>
   <v>       0.00000000       0.00000000       0.00000000 </v>
   <v>       0.00000000       0.00000000       0.00000000 </v>
  </varray>
 </structure>
 <calculation>
  <scstep>
   <time name="dav">   29.84   29.96</time>
   <time name="total">   30.22   30.34</time>
   <energy>
    <i name="alphaZ">   3473.39795963 </i>
    <i name="ewald"> -52468.04759814 </i>
    <i name="hartreedc"> -13934.28009475 </i>
    <i name="XCdc">   3224.11228853 </i>
    <i name="pawpsdc">  50594.51003143 </i>
    <i name="pawaedc"> -49994.65612350 </i>
    <i name="eentropy">     -0.02845795 </i>
    <i name="bandstr">   4072.59462110 </i>
    <i name="atom">  64968.54023382 </i>
    <i name="e_fr_energy">   9936.14286018 </i>
    <i name="e_wo_entrp">   9936.17131813 </i>
    <i name="e_0_energy">   9936.15708916 </i>
   </energy>
  </scstep>
  <scstep>
   <time name="dav">   33.35   33.50</time>
   <time name="total">   33.35   33.50</time>
   <energy>
    <i name="e_fr_energy">     81.28269279 </i>
    <i name="e_wo_entrp">     81.28269279 </i>
    <i name="e_0_energy">     81.28269279 </i>
   </energy>
  </scstep>
  <scstep>
   <time name="dav">   34.70   34.87</time>
   <time name="total">   34.70   34.87</time>
   <energy>
    <i name="e_fr_energy">   -998.22595824 </i>
    <i name="e_wo_entrp">   -998.22595824 </i>
    <i name="e_0_energy">   -998.22595824 </i>
   </energy>
  </scstep>
  <scstep>
   <time name="dav">   38.42   38.55</time>
   <time name="total">   38.42   38.55</time>
   <energy>
    <i name="e_fr_energy">  -1050.61050217 </i>
    <i name="e_wo_entrp">  -1050.61050217 </i>
    <i name="e_0_energy">  -1050.61050217 </i>
   </energy>
  </scstep>
  <scstep>
   <time name="dav">   46.44   46.58</time>
   <time name="total">   47.53   47.67</time>
   <energy>
    <i name="e_fr_energy">  -1055.16583630 </i>
    <i name="e_wo_entrp">  -1055.16583630 </i>
    <i name="e_0_energy">  -1055.16583630 </i>
   </energy>
  </scstep>
  <scstep>
   <time name="dav">   33.87   33.96</time>
   <time name="total">   35.33   35.43</time>
   <energy>
    <i name="e_fr_energy">   -924.72659901 </i>
    <i name="e_wo_entrp">   -924.72659901 </i>
    <i name="e_0_energy">   -924.72659901 </i>
   </energy>
  </scstep>
  <scstep>
   <time name="dav">   37.84   37.94</time>
   <time name="total">   39.27   39.39</time>
   <energy>
    <i name="e_fr_energy">   -926.73545307 </i>
    <i name="e_wo_entrp">   -926.73545307 </i>
    <i name="e_0_energy">   -926.73545307 </i>
   </energy>
  </scstep>
  <scstep>
   <time name="dav">   36.29   36.43</time>
   <time name="total">   37.72   37.87</time>
   <energy>
    <i name="e_fr_energy">   -925.81254682 </i>
    <i name="e_wo_entrp">   -925.81254682 </i>
    <i name="e_0_energy">   -925.81254682 </i>
   </energy>
  </scstep>
  <scstep>
   <time name="dav">   34.50   34.60</time>
   <time name="total">   35.95   36.06</time>
   <energy>
    <i name="e_fr_energy">   -925.48593472 </i>
    <i name="e_wo_entrp">   -925.48593472 </i>
    <i name="e_0_energy">   -925.48593472 </i>
   </energy>
  </scstep>
  <scstep>
   <time name="dav">   38.28   38.44</time>
   <time name="total">   39.74   39.91</time>
   <energy>
    <i name="e_fr_energy">   -925.55329921 </i>
    <i name="e_wo_entrp">   -925.55329921 </i>
    <i name="e_0_energy">   -925.55329921 </i>
   </energy>
  </scstep>
  <scstep>
   <time name="dav">   37.86   38.01</time>
   <time name="total">   39.31   39.47</time>
   <energy>
    <i name="e_fr_energy">   -925.54585271 </i>
    <i name="e_wo_entrp">   -925.54585271 </i>
    <i name="e_0_energy">   -925.54585271 </i>
   </energy>
  </scstep>
  <scstep>
   <time name="dav">   34.63   34.71</time>
   <time name="total">   36.07   36.16</time>
   <energy>
    <i name="e_fr_energy">   -925.54607599 </i>
    <i name="e_wo_entrp">   -925.54607599 </i>
    <i name="e_0_energy">   -925.54607599 </i>
   </energy>
  </scstep>
  <scstep>
   <time name="dav">   40.16   40.27</time>
   <time name="total">   41.60   41.72</time>
   <energy>
    <i name="e_fr_energy">   -925.54673360 </i>
    <i name="e_wo_entrp">   -925.54673360 </i>
    <i name="e_0_energy">   -925.54673360 </i>
   </energy>
  </scstep>
  <scstep>
   <time name="dav">   36.14   36.26</time>
   <time name="total">   37.58   37.71</time>
   <energy>
    <i name="e_fr_energy">   -925.54689323 </i>
    <i name="e_wo_entrp">   -925.54689323 </i>
    <i name="e_0_energy">   -925.54689323 </i>
   </energy>
  </scstep>
  <scstep>
   <time name="dav">   35.15   35.23</time>
   <time name="total">   36.59   36.69</time>
   <energy>
    <i name="e_fr_energy">   -925.54688661 </i>
    <i name="e_wo_entrp">   -925.54688661 </i>
    <i name="e_0_energy">   -925.54688661 </i>
   </energy>
  </scstep>
  <scstep>
   <time name="dav">   34.29   34.39</time>
   <time name="total">   35.74   35.85</time>
   <energy>
    <i name="e_fr_energy">   -925.54686193 </i>
    <i name="e_wo_entrp">   -925.54686193 </i>
    <i name="e_0_energy">   -925.54686193 </i>
   </energy>
  </scstep>
  <scstep>
   <time name="dav">   40.30   40.45</time>
   <time name="total">   41.75   41.91</time>
   <energy>
    <i name="e_fr_energy">   -925.54686783 </i>
    <i name="e_wo_entrp">   -925.54686783 </i>
    <i name="e_0_energy">   -925.54686783 </i>
   </energy>
  </scstep>
  <scstep>
   <time name="dav">   33.13   33.22</time>
   <time name="total">   34.62   34.72</time>
   <energy>
    <i name="e_fr_energy">   -925.54686795 </i>
    <i name="e_wo_entrp">   -925.54686795 </i>
    <i name="e_0_energy">   -925.54686795 </i>
   </energy>
  </scstep>
  <scstep>
   <time name="dav">   24.66   24.74</time>
   <time name="total">   26.11   26.20</time>
   <energy>
    <i name="e_fr_energy">   -925.54686667 </i>
    <i name="e_wo_entrp">   -925.54686667 </i>
    <i name="e_0_energy">   -925.54686667 </i>
   </energy>
  </scstep>
  <scstep>
   <time name="dav">   24.07   24.13</time>
   <time name="total">   24.44   24.51</time>
   <energy>
    <i name="alphaZ">   3473.39795963 </i>
    <i name="ewald"> -52468.04759814 </i>
    <i name="hartreedc"> -15236.10371220 </i>
    <i name="XCdc">   3314.91795588 </i>
    <i name="pawpsdc">  94682.61686924 </i>
    <i name="pawaedc"> -94343.56211779 </i>
    <i name="eentropy">     -0.00000000 </i>
    <i name="bandstr">  -5317.30645689 </i>
    <i name="atom">  64968.54023382 </i>
    <i name="e_fr_energy">   -925.54686645 </i>
    <i name="e_wo_entrp">   -925.54686645 </i>
    <i name="e_0_energy">   -925.54686645 </i>
   </energy>
  </scstep>
  <structure>
   <crystal>
    <varray name="basis" >
     <v>      11.12194768       0.00000000       0.00000000 </v>
     <v>       0.00000000      11.12194768       0.00000000 </v>
     <v>       0.00000000       0.00000000      11.12194768 </v>
    </varray>
    <i name="volume">   1375.75957216 </i>
    <varray name="rec_basis" >
     <v>       0.08991231       0.00000000       0.00000000 </v>
     <v>       0.00000000       0.08991231       0.00000000 </v>
     <v>       0.00000000       0.00000000       0.08991231 </v>
    </varray>
   </crystal>
   <varray name="positions" >
    <v>       0.36934307       0.35882571       0.47447097 </v>
    <v>       0.58940120       0.19211049       0.68299131 </v>
    <v>       0.25956176       0.90116131       0.85927507 </v>
    <v>       0.43867241       0.49764829       0.99167547 </v>
    <v>       0.37856682       0.22919021       0.93832830 </v>
    <v>       0.29934130       0.07534030       0.39532258 </v>
    <v>       0.00305325       0.94952933       0.10358907 </v>
    <v>       0.99152719       0.70847931       0.35346272 </v>
    <v>       0.70652086       0.63668017       0.28521128 </v>
    <v>       0.72912444       0.75815030       0.84036898 </v>
    <v>       0.24167241       0.75993184       0.28319831 </v>
    <v>       0.94725562       0.61443479       0.81290572 </v>
    <v>       0.56074245       0.07422726       0.14305655 </v>
    <v>       0.85398948       0.49732435       0.53197212 </v>
    <v>       0.65268355       0.47703378       0.76876499 </v>
    <v>       0.78602504       0.05516335       0.89470874 </v>
    <v>       0.15005197       0.84186182       0.56714159 </v>
    <v>       0.17447057       0.47761707       0.26677942 </v>
    <v>       0.89768460       0.69153745       0.12471497 </v>
    <v>       0.10641565       0.31131570       0.70513127 </v>
    <v>       0.61956627       0.37563535       0.20190831 </v>
    <v>       0.45311990       0.91132520       0.60411071 </v>
    <v>       0.81256145       0.23923434       0.43119501 </v>
    <v>       0.75871626       0.90470104       0.37273221 </v>
    <v>       0.02920013       0.06416979       0.64640283 </v>
    <v>       0.48986282       0.74922861       0.07029297 </v>
    <v>       0.45967976       0.65092982       0.51398212 </v>
    <v>       0.09533624       0.13173788       0.90950039 </v>
    <v>       0.33387103       0.14065390       0.66600223 </v>
    <v>       0.06992325       0.27634245       0.46071459 </v>
    <v>       0.27734232       0.98255246       0.11817155 </v>
    <v>       0.13630933       0.57159538       0.55867709 </v>
    <v>       0.88721979       0.32014494       0.81052862 </v>
    <v>       0.72235628       0.89595187       0.08888022 </v>
    <v>       0.46813352       0.72525722       0.75098312 </v>
    <v>       0.47643530       0.85478208       0.33283777 </v>
    <v>       0.90868447       0.77467090       0.61196209 </v>
    <v>       0.83854506       0.17948083       0.12246792 </v>
    <v>       0.04465712       0.33557157       0.03063122 </v>
    <v>       0.32960331       0.25815896       0.22166745 </v>
    <v>       0.73126278       0.00580615       0.63599056 </v>
    <v>       0.74679654       0.53699513       0.02752613 </v>
    <v>       0.41925952       0.54531949       0.27712561 </v>
    <v>       0.19288902       0.57959153       0.85315886 </v>
    <v>       0.70577925       0.73083985       0.54095119 </v>
    <v>       0.38936253       0.43885259       0.72267324 </v>
    <v>       0.48026029       0.01090741       0.90374062 </v>
    <v>       0.01897085       0.86606238       0.85646044 </v>
    <v>       0.62145904       0.42284451       0.48841163 </v>
    <v>       0.54683069       0.13562518       0.38729297 </v>
    <v>       0.63030770       0.29568840       0.95169618 </v>
    <v>       0.91058204       0.41473927       0.26025878 </v>
    <v>       0.05125199       0.04114182       0.30830186 </v>
    <v>       0.16765531       0.69233351       0.04975537 </v>
    <v>       0.57398345       0.26489896       0.42926905 </v>
    <v>       0.83496069       0.86044326       0.99661557 </v>
    <v>       0.99092037       0.62899050       0.59256761 </v>
    <v>       0.44913174       0.86785847       0.83710309 </v>
    <v>       0.46511224       0.55929112       0.75128257 </v>
    <v>       0.12200260       0.58242202       0.71911881 </v>
    <v>       0.08417428       0.12228034       0.43218005 </v>
    <v>       0.71079637       0.67461889       0.07218843 </v>
    <v>       0.65273164       0.43277485       0.01678748 </v>
    <v>       0.40573418       0.00018001       0.01873828 </v>
    <v>       0.34866245       0.73128160       0.68476642 </v>
    <v>       0.08927330       0.90041378       0.37049484 </v>
    <v>       0.11442360       0.83323892       0.75508687 </v>
    <v>       0.76696414       0.03762790       0.10913937 </v>
    <v>       0.15405501       0.67257728       0.44744968 </v>
    <v>       0.74106224       0.42803691       0.37891429 </v>
    <v>       0.95015566       0.53389956       0.33325947 </v>
    <v>       0.27266621       0.63673634       0.12309064 </v>
    <v>       0.44121715       0.71102746       0.29131282 </v>
    <v>       0.60410164       0.87599307       0.18964992 </v>
    <v>       0.80054552       0.67082163       0.65816583 </v>
    <v>       0.79237471       0.81475523       0.21428533 </v>
    <v>       0.29244680       0.17064875       0.10511959 </v>
    <v>       0.00833801       0.99975509       0.91395416 </v>
    <v>       0.03460840       0.38919219       0.15187167 </v>
    <v>       0.17200269       0.05063200       0.21462699 </v>
    <v>       0.72050638       0.38002821       0.60008196 </v>
    <v>       0.20215489       0.26639555       0.55286980 </v>
    <v>       0.95650434       0.19562959       0.80102160 </v>
    <v>       0.84106416       0.07060201       0.69606584 </v>
    <v>       0.11271467       0.54053102       0.98935165 </v>
    <v>       0.75151861       0.86306915       0.58448969 </v>
    <v>       0.28948738       0.49870792       0.60028787 </v>
    <v>       0.91642442       0.82799604       0.75464854 </v>
    <v>       0.35118620       0.40297312       0.20684593 </v>
    <v>       0.25857647       0.69553308       0.91605569 </v>
    <v>       0.59040807       0.77806331       0.44240268 </v>
    <v>       0.85676904       0.28663320       0.21952951 </v>
    <v>       0.52946204       0.36957792       0.85352661 </v>
    <v>       0.62723708       0.99453175       0.73607320 </v>
    <v>       0.80068460       0.57823170       0.89555869 </v>
    <v>       0.37837676       0.84504324       0.44089626 </v>
    <v>       0.67450157       0.04738335       0.50494554 </v>
    <v>       0.52343839       0.48442753       0.38807144 </v>
    <v>       0.93414560       0.07731092       0.24850517 </v>
    <v>       0.90089100       0.42445104       0.70870437 </v>
    <v>       0.37422772       0.93077235       0.23158718 </v>
    <v>       0.24876055       0.26027970       0.34016837 </v>
    <v>       0.97503060       0.23819810       0.55411691 </v>
    <v>       0.93593161       0.37247660       0.94279456 </v>
    <v>       0.45000693       0.18800775       0.28402240 </v>
    <v>       0.99545675       0.18541950       0.02394418 </v>
    <v>       0.16516516       0.11039280       0.78922165 </v>
    <v>       0.06982728       0.46811662       0.52250003 </v>
    <v>       0.76296503       0.26235128       0.02652069 </v>
    <v>       0.53126733       0.27109552       0.06049861 </v>
    <v>       0.31685801       0.55679846       0.37410630 </v>
    <v>       0.36511685       0.26826850       0.73155036 </v>
    <v>       0.14766587       0.27097318       0.93694451 </v>
    <v>       0.25573178       0.00877510       0.60508766 </v>
    <v>       0.07051981       0.68430294       0.18646382 </v>
    <v>       0.57739929       0.78059446       0.68548499 </v>
    <v>       0.42995453       0.12888185       0.56387253 </v>
    <v>       0.48324017       0.99471952       0.38020642 </v>
    <v>       0.04321082       0.76297142       0.96448773 </v>
    <v>       0.57466037       0.14369223       0.90031408 </v>
    <v>       0.61557481       0.94274365       0.98031579 </v>
    <v>       0.38198774       0.06901199       0.79928317 </v>
    <v>       0.99116870       0.33371722       0.35685599 </v>
    <v>       0.62870250       0.58219701       0.53674773 </v>
    <v>       0.29114465       0.46802544       0.83130198 </v>
    <v>       0.80200017       0.48486028       0.15461489 </v>
    <v>       0.67032578       0.15618522       0.28615222 </v>
    <v>       0.73739774       0.29316654       0.82357338 </v>
    <v>       0.20119873       0.83443508       0.09177140 </v>
    <v>       0.97586319       0.87582956       0.55064200 </v>
    <v>       0.20911219       0.04105502       0.98179478 </v>
    <v>       0.51171584       0.40312689       0.59643901 </v>
    <v>       0.54255402       0.67314283       0.89111241 </v>
    <v>       0.81971030       0.71074550       0.44566327 </v>
    <v>       0.53261365       0.53390943       0.17722328 </v>
   </varray>
  </structure>
  <varray name="forces" >
   <v>      -0.78067692       0.12938685      -0.14082618 </v>
   <v>      -0.24036595       2.66969666       0.20972581 </v>
   <v>       1.22709775      -0.24939471      -1.23510432 </v>
   <v>       0.37845675       0.57555580      -0.38123926 </v>
   <v>      -1.51773484       0.17340813      -0.83425882 </v>
   <v>      -1.68623995      -1.86671799       1.48375809 </v>
   <v>       0.54809840      -1.24063866      -0.71949011 </v>
   <v>       0.39631424       2.57882958       2.64104361 </v>
   <v>      -1.91311486      -0.88026371       0.75785676 </v>
   <v>      -2.46604797       1.14677591       0.28994447 </v>
   <v>       0.30906029       0.63946644       1.56402061 </v>
   <v>       3.20877812      -0.97483574      -2.95294781 </v>
   <v>      -0.92780350       0.90806690      -0.12616945 </v>
   <v>       2.00861941       0.90524072       0.03151989 </v>
   <v>       1.25037567       1.93864069      -2.45723478 </v>
   <v>      -0.69909572       0.70771886      -1.25450276 </v>
   <v>       5.00493251      -0.86873144      -1.14948216 </v>
   <v>      -1.66063178       0.94363300       0.57960787 </v>
   <v>       1.06399526      -0.58476810      -2.89470402 </v>
   <v>       0.49477223       2.19055847       0.87809064 </v>
   <v>       1.16194220      -3.20512845       2.78821253 </v>
   <v>      -0.30173492       2.00517056       0.16136804 </v>
   <v>      -1.44427974      -0.94071403       0.22545858 </v>
   <v>      -0.30576554       2.14824782       0.49988241 </v>
   <v>       0.46691299      -0.11999464      -1.02851932 </v>
   <v>      -0.01782295       0.47147280      -0.52877691 </v>
   <v>      -4.04050516      -1.04159853      -0.00644361 </v>
   <v>       0.12043251      -0.74575675       2.12543126 </v>
   <v>      -4.64709628      -3.57129299       1.71536294 </v>
   <v>       4.92574337      -0.53168088       0.87419979 </v>
   <v>      -0.69684493       1.59285568      -1.44742413 </v>
   <v>       5.15159298       6.74596389       3.80376944 </v>
   <v>      -2.83084299       1.66902814       0.29118351 </v>
   <v>      -0.71523187      -2.07277341       1.19320100 </v>
   <v>       1.31085818      -3.27375415       8.98964373 </v>
   <v>      -0.41637511      -1.22827340      -0.13825420 </v>
   <v>      -1.09277363      -5.25607708       1.54659044 </v>
   <v>      -0.06412454      -0.54517737       0.96616498 </v>
   <v>       0.27147821      -3.10207179      -7.23909115 </v>
   <v>       1.03993002      -1.74518120      -1.27727815 </v>
   <v>      -1.34617744      -2.62505014      -1.20721637 </v>
   <v>      -0.59349929       1.91522310      -0.88551454 </v>
   <v>       4.11435361      -0.04219409      -0.08631667 </v>
   <v>       1.07859827      -1.55831707      -1.16659119 </v>
   <v>      -4.40106927      -4.73906445       1.68029480 </v>
   <v>       0.13510968       0.10171707      -4.37415582 </v>
   <v>       5.37024746      -2.84541751      -6.00067464 </v>
   <v>      -0.73163117      -2.31783133      -1.38709460 </v>
   <v>       0.19663736      -0.11034466       1.37062580 </v>
   <v>       3.46022318      -2.03516786      -1.69826036 </v>
   <v>      -0.12121172      -1.58424737      -1.65506520 </v>
   <v>       0.30274707       1.10563612      -0.88429562 </v>
   <v>       7.11279089      -2.06224220       6.30007254 </v>
   <v>      -2.91316016       0.46400783      -0.39361416 </v>
   <v>       0.90809115       4.55154562       4.12328567 </v>
   <v>      -0.04549563       0.05574716      -0.83002287 </v>
   <v>      -1.75131207       6.26386786      -0.24924243 </v>
   <v>       0.19938789       0.86141222       0.81133910 </v>
   <v>       0.77041123       0.60297026      -1.34853788 </v>
   <v>       2.61640527      -0.36427644       4.85199561 </v>
   <v>      -0.00059258      -1.43567310      -3.11538357 </v>
   <v>      -1.79521948      -1.38609645      -0.09605999 </v>
   <v>      -1.05592641       1.58116328      -2.45019738 </v>
   <v>      -1.92378215      -0.77324986       4.18124473 </v>
   <v>      -3.34548486       1.68306085      -2.71267180 </v>
   <v>      -1.04275042       2.12149275      -3.22668401 </v>
   <v>       1.47258826       1.10231197       0.88265874 </v>
   <v>       2.04937325       3.12290864      -0.03945942 </v>
   <v>       0.92022379      -0.29807766       1.86923154 </v>
   <v>      -0.03703008      -0.09987344      -0.86871867 </v>
   <v>      -1.45568971      -0.43235249      -2.16322183 </v>
   <v>       5.18843833      -3.62848138       2.74308522 </v>
   <v>       1.62147735      -0.82206285      -2.36691759 </v>
   <v>      -1.76642205       0.31015707       1.16057431 </v>
   <v>      -1.69692771       0.70509600       0.32379606 </v>
   <v>       2.69761796       1.18039943      -0.02369131 </v>
   <v>       2.14379091       3.23915863       3.21100705 </v>
   <v>      -1.65208258      -0.78943739      -1.24443936 </v>
   <v>       0.04380983       2.61494267       4.61441878 </v>
   <v>      -1.91057901      -1.46921789       0.45787704 </v>
   <v>      -1.07894544      -2.20298175      -1.94179192 </v>
   <v>      -0.09157568      -0.70007050      -0.84071374 </v>
   <v>       1.86979746      -0.02884202       0.86606777 </v>
   <v>      -1.03663814      -0.92423799      -1.14377819 </v>
   <v>       0.65894062       1.10675434      -3.27361743 </v>
   <v>       2.19738572       1.92839736       0.61973916 </v>
   <v>       0.47920645      -0.49189123       0.38082732 </v>
   <v>      -2.92401820       0.04081437       3.11442879 </v>
   <v>       0.84844672       0.70738877      -1.54539005 </v>
   <v>      -0.58437673      -0.47460142      -0.53275343 </v>
   <v>       2.33843363       1.92652102      -1.48182440 </v>
   <v>      -2.04260383      -2.59178356      -0.59849220 </v>
   <v>      -2.06632405      -1.60282017       0.71054749 </v>
   <v>       0.50403570       0.74714691      -0.39808739 </v>
   <v>      -2.69702642      -1.82817529       2.91469024 </v>
   <v>      -3.25282839      -1.80347897       1.35863297 </v>
   <v>       0.26643363       2.05767417       0.28982328 </v>
   <v>      -1.63313690      -0.09241867      -2.25597745 </v>
   <v>      -3.44312001       0.52937239      -1.82633313 </v>
   <v>       1.69953514      -0.95376167       3.09423986 </v>
   <v>      -2.28799292      -0.15737511      -3.02430195 </v>
   <v>      -1.98770163       0.92162599      -0.58991374 </v>
   <v>      -3.51622286       0.37616144       3.67627641 </v>
   <v>      -0.51976188       2.44877454      -1.15765692 </v>
   <v>      -2.35183740       0.13043043      -1.31874839 </v>
   <v>      -2.75706154      -1.90500391       4.23293620 </v>
   <v>       0.59102486       0.60012548      -3.77512915 </v>
   <v>      -3.43686772     -12.05481675      -4.03212793 </v>
   <v>       0.02090902      -3.74921646       1.29081270 </v>
   <v>      -1.34734615      -0.07091137       1.43141279 </v>
   <v>      -1.17247930      -0.75533280      -0.24640624 </v>
   <v>      -0.62217352       3.53748888      -0.20318039 </v>
   <v>       1.48365229       3.34924451       0.69611433 </v>
   <v>       0.36488348       1.87847849       0.75612293 </v>
   <v>       1.95498302      -0.07256559      -1.93496142 </v>
   <v>       3.53921584      -1.39739526      -3.32127449 </v>
   <v>       2.83106762       0.58518669      -2.41829915 </v>
   <v>       5.16633528       4.53049470       1.19791694 </v>
   <v>      -1.47426463       0.25686564      -0.49971818 </v>
   <v>      -0.24008697      -0.86449137      -0.27097422 </v>
   <v>       1.30241071      -1.40236717      -0.11441534 </v>
   <v>       1.14171552       0.20771447      -0.40532162 </v>
   <v>       1.15033805      -0.99690464       0.29826406 </v>
   <v>       4.02630602       1.40181909       0.59020741 </v>
   <v>      -1.28906589      -1.04710548       2.48936002 </v>
   <v>       2.48522276       1.35906261       0.83157297 </v>
   <v>       0.08870294      -2.19486072       0.37812628 </v>
   <v>      -0.08957517      -0.14712892       0.17906613 </v>
   <v>       1.51434358       4.75232681       0.28000033 </v>
   <v>      -1.11506181       3.39053306      -2.09414453 </v>
   <v>      -2.58475451      -0.44030198       1.66066526 </v>
   <v>      -2.19384426      -0.72361217       2.64297642 </v>
   <v>       0.14384025       0.70007978       0.91274395 </v>
   <v>      -1.08839460       0.77188529      -0.47623293 </v>
   <v>      -2.43264068       3.17305095      -1.08375511 </v>
  </varray>
  <varray name="stress" >
   <v>     239.52413314      45.07185360     -11.18197879 </v>
   <v>      45.07185355     160.11428701      61.64174454 </v>
   <v>     -11.18197875      61.64174464     190.13217136 </v>
  </varray>
  <energy>
   <i name="e_fr_energy">   -925.54686645 </i>
   <i name="e_wo_entrp">   -925.54686645 </i>
   <i name="e_0_energy">     -0.00000000 </i>
  </energy>
  <time name="totalsc">  762.39  765.07</time>
  <eigenvalues>
   <array>
    <dimension dim="1">band</dimension>
    <dimension dim="2">kpoint</dimension>
    <dimension dim="3">spin</dimension>
    <field>eigene</field>
    <field>occ</field>
    <set>
     <set comment="spin 1">
      <set comment="kpoint 1">
       <r>  -34.5566    1.0000 </r>
       <r>  -34.0027    1.0000 </r>
       <r>  -33.9576    1.0000 </r>
       <r>  -33.9124    1.0000 </r>
       <r>  -33.8371    1.0000 </r>
       <r>  -33.6466    1.0000 </r>
       <r>  -33.5188    1.0000 </r>
       <r>  -33.4740    1.0000 </r>
       <r>  -33.2967    1.0000 </r>
       <r>  -33.2713    1.0000 </r>
       <r>  -33.2258    1.0000 </r>
       <r>  -33.0175    1.0000 </r>
       <r>  -32.9339    1.0000 </r>
       <r>  -32.9238    1.0000 </r>
       <r>  -32.9171    1.0000 </r>
       <r>  -32.7933    1.0000 </r>
       <r>  -32.7060    1.0000 </r>
       <r>  -32.4734    1.0000 </r>
       <r>  -32.4219    1.0000 </r>
       <r>  -32.2562    1.0000 </r>
       <r>  -32.2310    1.0000 </r>
       <r>  -32.1460    1.0000 </r>
       <r>  -32.0968    1.0000 </r>
       <r>  -32.0949    1.0000 </r>
       <r>  -32.0060    1.0000 </r>
       <r>  -31.9077    1.0000 </r>
       <r>  -31.4212    1.0000 </r>
[...]
       <r>     7.4209     0.0000   864.0000 </r>
       <r>     7.5941     0.0000   864.0000 </r>
       <r>     7.7673     0.0000   864.0000 </r>
       <r>     7.9405     0.0000   864.0000 </r>
       <r>     8.1137     0.0000   864.0000 </r>
       <r>     8.2869     0.0000   864.0000 </r>
       <r>     8.4601     0.0791   864.0137 </r>
       <r>     8.6333     1.7304   864.3134 </r>
       <r>     8.8065     7.7799   865.6609 </r>
       <r>     8.9797     1.9583   866.0001 </r>
       <r>     9.1529     2.5951   866.4495 </r>
       <r>     9.3261    12.7314   868.6546 </r>
       <r>     9.4993    11.6278   870.6686 </r>
       <r>     9.6725    22.0680   874.4908 </r>
       <r>     9.8457    30.8344   879.8313 </r>
       <r>    10.0189    28.1569   884.7081 </r>
       <r>    10.1921    23.8120   888.8323 </r>
       <r>    10.3653    31.8784   894.3537 </r>
       <r>    10.5385    32.3599   899.9584 </r>
       <r>    10.7117    37.1545   906.3936 </r>
       <r>    10.8849    42.6279   913.7768 </r>
       <r>    11.0581    54.3217   923.1853 </r>
       <r>    11.2313    59.4095   933.4751 </r>
       <r>    11.4045    62.9874   944.3845 </r>
       <r>    11.5777    60.4816   954.8600 </r>
       <r>    11.7509    75.1638   967.8784 </r>
       <r>    11.9241    78.4472   981.4655 </r>
       <r>    12.0973    76.6508   994.7414 </r>
       <r>    12.2705    78.0007  1008.2512 </r>
       <r>    12.4437    84.8967  1022.9553 </r>
       <r>    12.6169    75.8992  1036.1011 </r>
       <r>    12.7901    22.5045  1039.9989 </r>
       <r>    12.9633     0.0064  1040.0000 </r>
       <r>    13.1365     0.0000  1040.0000 </r>
       <r>    13.3097     0.0000  1040.0000 </r>
       <r>    13.4829     0.0000  1040.0000 </r>
       <r>    13.6561     0.0000  1040.0000 </r>
       <r>    13.8293     0.0000  1040.0000 </r>
       <r>    14.0025     0.0000  1040.0000 </r>
       <r>    14.1757     0.0000  1040.0000 </r>
       <r>    14.3489     0.0000  1040.0000 </r>
       <r>    14.5222     0.0000  1040.0000 </r>
       <r>    14.6954     0.0000  1040.0000 </r>
       <r>    14.8686     0.0000  1040.0000 </r>
       <r>    15.0418     0.0000  1040.0000 </r>
      </set>
     </set>
    </array>
   </total>
  </dos>
 </calculation>
 <structure name="finalpos" >
  <crystal>
   <varray name="basis" >
    <v>      11.12194768       0.00000000       0.00000000 </v>
    <v>       0.00000000      11.12194768       0.00000000 </v>
    <v>       0.00000000       0.00000000      11.12194768 </v>
   </varray>
   <i name="volume">   1375.75957216 </i>
   <varray name="rec_basis" >
    <v>       0.08991231       0.00000000       0.00000000 </v>
    <v>       0.00000000       0.08991231       0.00000000 </v>
    <v>       0.00000000       0.00000000       0.08991231 </v>
   </varray>
  </crystal>
  <varray name="positions" >
   <v>       0.36934307       0.35882571       0.47447097 </v>
   <v>       0.58940120       0.19211049       0.68299131 </v>
   <v>       0.25956176       0.90116131       0.85927507 </v>
   <v>       0.43867241       0.49764829       0.99167547 </v>
   <v>       0.37856682       0.22919021       0.93832830 </v>
   <v>       0.29934130       0.07534030       0.39532258 </v>
   <v>       0.00305325       0.94952933       0.10358907 </v>
   <v>       0.99152719       0.70847931       0.35346272 </v>
   <v>       0.70652086       0.63668017       0.28521128 </v>
   <v>       0.72912444       0.75815030       0.84036898 </v>
   <v>       0.24167241       0.75993184       0.28319831 </v>
   <v>       0.94725562       0.61443479       0.81290572 </v>
   <v>       0.56074245       0.07422726       0.14305655 </v>
   <v>       0.85398948       0.49732435       0.53197212 </v>
   <v>       0.65268355       0.47703378       0.76876499 </v>
   <v>       0.78602504       0.05516335       0.89470874 </v>
   <v>       0.15005197       0.84186182       0.56714159 </v>
   <v>       0.17447057       0.47761707       0.26677942 </v>
   <v>       0.89768460       0.69153745       0.12471497 </v>
   <v>       0.10641565       0.31131570       0.70513127 </v>
   <v>       0.61956627       0.37563535       0.20190831 </v>
   <v>       0.45311990       0.91132520       0.60411071 </v>
   <v>       0.81256145       0.23923434       0.43119501 </v>
   <v>       0.75871626       0.90470104       0.37273221 </v>
   <v>       0.02920013       0.06416979       0.64640283 </v>
   <v>       0.48986282       0.74922861       0.07029297 </v>
   <v>       0.45967976       0.65092982       0.51398212 </v>
   <v>       0.09533624       0.13173788       0.90950039 </v>
   <v>       0.33387103       0.14065390       0.66600223 </v>
   <v>       0.06992325       0.27634245       0.46071459 </v>
   <v>       0.27734232       0.98255246       0.11817155 </v>
   <v>       0.13630933       0.57159538       0.55867709 </v>
   <v>       0.88721979       0.32014494       0.81052862 </v>
   <v>       0.72235628       0.89595187       0.08888022 </v>
   <v>       0.46813352       0.72525722       0.75098312 </v>
   <v>       0.47643530       0.85478208       0.33283777 </v>
   <v>       0.90868447       0.77467090       0.61196209 </v>
   <v>       0.83854506       0.17948083       0.12246792 </v>
   <v>       0.04465712       0.33557157       0.03063122 </v>
   <v>       0.32960331       0.25815896       0.22166745 </v>
   <v>       0.73126278       0.00580615       0.63599056 </v>
   <v>       0.74679654       0.53699513       0.02752613 </v>
   <v>       0.41925952       0.54531949       0.27712561 </v>
   <v>       0.19288902       0.57959153       0.85315886 </v>
   <v>       0.70577925       0.73083985       0.54095119 </v>
   <v>       0.38936253       0.43885259       0.72267324 </v>
   <v>       0.48026029       0.01090741       0.90374062 </v>
   <v>       0.01897085       0.86606238       0.85646044 </v>
   <v>       0.62145904       0.42284451       0.48841163 </v>
   <v>       0.54683069       0.13562518       0.38729297 </v>
   <v>       0.63030770       0.29568840       0.95169618 </v>
   <v>       0.91058204       0.41473927       0.26025878 </v>
   <v>       0.05125199       0.04114182       0.30830186 </v>
   <v>       0.16765531       0.69233351       0.04975537 </v>
   <v>       0.57398345       0.26489896       0.42926905 </v>
   <v>       0.83496069       0.86044326       0.99661557 </v>
   <v>       0.99092037       0.62899050       0.59256761 </v>
   <v>       0.44913174       0.86785847       0.83710309 </v>
   <v>       0.46511224       0.55929112       0.75128257 </v>
   <v>       0.12200260       0.58242202       0.71911881 </v>
   <v>       0.08417428       0.12228034       0.43218005 </v>
   <v>       0.71079637       0.67461889       0.07218843 </v>
   <v>       0.65273164       0.43277485       0.01678748 </v>
   <v>       0.40573418       0.00018001       0.01873828 </v>
   <v>       0.34866245       0.73128160       0.68476642 </v>
   <v>       0.08927330       0.90041378       0.37049484 </v>
   <v>       0.11442360       0.83323892       0.75508687 </v>
   <v>       0.76696414       0.03762790       0.10913937 </v>
   <v>       0.15405501       0.67257728       0.44744968 </v>
   <v>       0.74106224       0.42803691       0.37891429 </v>
   <v>       0.95015566       0.53389956       0.33325947 </v>
   <v>       0.27266621       0.63673634       0.12309064 </v>
   <v>       0.44121715       0.71102746       0.29131282 </v>
   <v>       0.60410164       0.87599307       0.18964992 </v>
   <v>       0.80054552       0.67082163       0.65816583 </v>
   <v>       0.79237471       0.81475523       0.21428533 </v>
   <v>       0.29244680       0.17064875       0.10511959 </v>
   <v>       0.00833801       0.99975509       0.91395416 </v>
   <v>       0.03460840       0.38919219       0.15187167 </v>
   <v>       0.17200269       0.05063200       0.21462699 </v>
   <v>       0.72050638       0.38002821       0.60008196 </v>
   <v>       0.20215489       0.26639555       0.55286980 </v>
   <v>       0.95650434       0.19562959       0.80102160 </v>
   <v>       0.84106416       0.07060201       0.69606584 </v>
   <v>       0.11271467       0.54053102       0.98935165 </v>
   <v>       0.75151861       0.86306915       0.58448969 </v>
   <v>       0.28948738       0.49870792       0.60028787 </v>
   <v>       0.91642442       0.82799604       0.75464854 </v>
   <v>       0.35118620       0.40297312       0.20684593 </v>
   <v>       0.25857647       0.69553308       0.91605569 </v>
   <v>       0.59040807       0.77806331       0.44240268 </v>
   <v>       0.85676904       0.28663320       0.21952951 </v>
   <v>       0.52946204       0.36957792       0.85352661 </v>
   <v>       0.62723708       0.99453175       0.73607320 </v>
   <v>       0.80068460       0.57823170       0.89555869 </v>
   <v>       0.37837676       0.84504324       0.44089626 </v>
   <v>       0.67450157       0.04738335       0.50494554 </v>
   <v>       0.52343839       0.48442753       0.38807144 </v>
   <v>       0.93414560       0.07731092       0.24850517 </v>
   <v>       0.90089100       0.42445104       0.70870437 </v>
   <v>       0.37422772       0.93077235       0.23158718 </v>
   <v>       0.24876055       0.26027970       0.34016837 </v>
   <v>       0.97503060       0.23819810       0.55411691 </v>
   <v>       0.93593161       0.37247660       0.94279456 </v>
   <v>       0.45000693       0.18800775       0.28402240 </v>
   <v>       0.99545675       0.18541950       0.02394418 </v>
   <v>       0.16516516       0.11039280       0.78922165 </v>
   <v>       0.06982728       0.46811662       0.52250003 </v>
   <v>       0.76296503       0.26235128       0.02652069 </v>
   <v>       0.53126733       0.27109552       0.06049861 </v>
   <v>       0.31685801       0.55679846       0.37410630 </v>
   <v>       0.36511685       0.26826850       0.73155036 </v>
   <v>       0.14766587       0.27097318       0.93694451 </v>
   <v>       0.25573178       0.00877510       0.60508766 </v>
   <v>       0.07051981       0.68430294       0.18646382 </v>
   <v>       0.57739929       0.78059446       0.68548499 </v>
   <v>       0.42995453       0.12888185       0.56387253 </v>
   <v>       0.48324017       0.99471952       0.38020642 </v>
   <v>       0.04321082       0.76297142       0.96448773 </v>
   <v>       0.57466037       0.14369223       0.90031408 </v>
   <v>       0.61557481       0.94274365       0.98031579 </v>
   <v>       0.38198774       0.06901199       0.79928317 </v>
   <v>       0.99116870       0.33371722       0.35685599 </v>
   <v>       0.62870250       0.58219701       0.53674773 </v>
   <v>       0.29114465       0.46802544       0.83130198 </v>
   <v>       0.80200017       0.48486028       0.15461489 </v>
   <v>       0.67032578       0.15618522       0.28615222 </v>
   <v>       0.73739774       0.29316654       0.82357338 </v>
   <v>       0.20119873       0.83443508       0.09177140 </v>
   <v>       0.97586319       0.87582956       0.55064200 </v>
   <v>       0.20911219       0.04105502       0.98179478 </v>
   <v>       0.51171584       0.40312689       0.59643901 </v>
   <v>       0.54255402       0.67314283       0.89111241 </v>
   <v>       0.81971030       0.71074550       0.44566327 </v>
   <v>       0.53261365       0.53390943       0.17722328 </v>
  </varray>
  <varray name="velocities" >
   <v>       0.00000000       0.00000000       0.00000000 </v>
   <v>       0.00000000       0.00000000       0.00000000 </v>
   <v>       0.00000000       0.00000000       0.00000000 </v>
   <v>       0.00000000       0.00000000       0.00000000 </v>
   <v>       0.00000000       0.00000000       0.00000000 </v>
   <v>       0.00000000       0.00000000       0.00000000 </v>
   <v>       0.00000000       0.00000000       0.00000000 </v>
   <v>       0.00000000       0.00000000       0.00000000 </v>
   <v>       0.00000000       0.00000000       0.00000000 </v>
   <v>       0.00000000       0.00000000       0.00000000 </v>
   <v>       0.00000000       0.00000000       0.00000000 </v>
   <v>       0.00000000       0.00000000       0.00000000 </v>
   <v>       0.00000000       0.00000000       0.00000000 </v>
   <v>       0.00000000       0.00000000       0.00000000 </v>
   <v>       0.00000000       0.00000000       0.00000000 </v>
   <v>       0.00000000       0.00000000       0.00000000 </v>
   <v>       0.00000000       0.00000000       0.00000000 </v>
   <v>       0.00000000       0.00000000       0.00000000 </v>
   <v>       0.00000000       0.00000000       0.00000000 </v>
   <v>       0.00000000       0.00000000       0.00000000 </v>
   <v>       0.00000000       0.00000000       0.00000000 </v>
   <v>       0.00000000       0.00000000       0.00000000 </v>
   <v>       0.00000000       0.00000000       0.00000000 </v>
   <v>       0.00000000       0.00000000       0.00000000 </v>
   <v>       0.00000000       0.00000000       0.00000000 </v>
   <v>       0.00000000       0.00000000       0.00000000 </v>
   <v>       0.00000000       0.00000000       0.00000000 </v>
   <v>       0.00000000       0.00000000       0.00000000 </v>
   <v>       0.00000000       0.00000000       0.00000000 </v>
   <v>       0.00000000       0.00000000       0.00000000 </v>
   <v>       0.00000000       0.00000000       0.00000000 </v>
   <v>       0.00000000       0.00000000       0.00000000 </v>
   <v>       0.00000000       0.00000000       0.00000000 </v>
   <v>       0.00000000       0.00000000       0.00000000 </v>
   <v>       0.00000000       0.00000000       0.00000000 </v>
   <v>       0.00000000       0.00000000       0.00000000 </v>
   <v>       0.00000000       0.00000000       0.00000000 </v>
   <v>       0.00000000       0.00000000       0.00000000 </v>
   <v>       0.00000000       0.00000000       0.00000000 </v>
   <v>       0.00000000       0.00000000       0.00000000 </v>
   <v>       0.00000000       0.00000000       0.00000000 </v>
   <v>       0.00000000       0.00000000       0.00000000 </v>
   <v>       0.00000000       0.00000000       0.00000000 </v>
   <v>       0.00000000       0.00000000       0.00000000 </v>
   <v>       0.00000000       0.00000000       0.00000000 </v>
   <v>       0.00000000       0.00000000       0.00000000 </v>
   <v>       0.00000000       0.00000000       0.00000000 </v>
   <v>       0.00000000       0.00000000       0.00000000 </v>
   <v>       0.00000000       0.00000000       0.00000000 </v>
   <v>       0.00000000       0.00000000       0.00000000 </v>
   <v>       0.00000000       0.00000000       0.00000000 </v>
   <v>       0.00000000       0.00000000       0.00000000 </v>
   <v>       0.00000000       0.00000000       0.00000000 </v>
   <v>       0.00000000       0.00000000       0.00000000 </v>
   <v>       0.00000000       0.00000000       0.00000000 </v>
   <v>       0.00000000       0.00000000       0.00000000 </v>
   <v>       0.00000000       0.00000000       0.00000000 </v>
   <v>       0.00000000       0.00000000       0.00000000 </v>
   <v>       0.00000000       0.00000000       0.00000000 </v>
   <v>       0.00000000       0.00000000       0.00000000 </v>
   <v>       0.00000000       0.00000000       0.00000000 </v>
   <v>       0.00000000       0.00000000       0.00000000 </v>
   <v>       0.00000000       0.00000000       0.00000000 </v>
   <v>       0.00000000       0.00000000       0.00000000 </v>
   <v>       0.00000000       0.00000000       0.00000000 </v>
   <v>       0.00000000       0.00000000       0.00000000 </v>
   <v>       0.00000000       0.00000000       0.00000000 </v>
   <v>       0.00000000       0.00000000       0.00000000 </v>
   <v>       0.00000000       0.00000000       0.00000000 </v>
   <v>       0.00000000       0.00000000       0.00000000 </v>
   <v>       0.00000000       0.00000000       0.00000000 </v>
   <v>       0.00000000       0.00000000       0.00000000 </v>
   <v>       0.00000000       0.00000000       0.00000000 </v>
   <v>       0.00000000       0.00000000       0.00000000 </v>
   <v>       0.00000000       0.00000000       0.00000000 </v>
   <v>       0.00000000       0.00000000       0.00000000 </v>
   <v>       0.00000000       0.00000000       0.00000000 </v>
   <v>       0.00000000       0.00000000       0.00000000 </v>
   <v>       0.00000000       0.00000000       0.00000000 </v>
   <v>       0.00000000       0.00000000       0.00000000 </v>
   <v>       0.00000000       0.00000000       0.00000000 </v>
   <v>       0.00000000       0.00000000       0.00000000 </v>
   <v>       0.00000000       0.00000000       0.00000000 </v>
   <v>       0.00000000       0.00000000       0.00000000 </v>
   <v>       0.00000000       0.00000000       0.00000000 </v>
   <v>       0.00000000       0.00000000       0.00000000 </v>
   <v>       0.00000000       0.00000000       0.00000000 </v>
   <v>       0.00000000       0.00000000       0.00000000 </v>
   <v>       0.00000000       0.00000000       0.00000000 </v>
   <v>       0.00000000       0.00000000       0.00000000 </v>
   <v>       0.00000000       0.00000000       0.00000000 </v>
   <v>       0.00000000       0.00000000       0.00000000 </v>
   <v>       0.00000000       0.00000000       0.00000000 </v>
   <v>       0.00000000       0.00000000       0.00000000 </v>
   <v>       0.00000000       0.00000000       0.00000000 </v>
   <v>       0.00000000       0.00000000       0.00000000 </v>
   <v>       0.00000000       0.00000000       0.00000000 </v>
   <v>       0.00000000       0.00000000       0.00000000 </v>
   <v>       0.00000000       0.00000000       0.00000000 </v>
   <v>       0.00000000       0.00000000       0.00000000 </v>
   <v>       0.00000000       0.00000000       0.00000000 </v>
   <v>       0.00000000       0.00000000       0.00000000 </v>
   <v>       0.00000000       0.00000000       0.00000000 </v>
   <v>       0.00000000       0.00000000       0.00000000 </v>
   <v>       0.00000000       0.00000000       0.00000000 </v>
   <v>       0.00000000       0.00000000       0.00000000 </v>
   <v>       0.00000000       0.00000000       0.00000000 </v>
   <v>       0.00000000       0.00000000       0.00000000 </v>
   <v>       0.00000000       0.00000000       0.00000000 </v>
   <v>       0.00000000       0.00000000       0.00000000 </v>
   <v>       0.00000000       0.00000000       0.00000000 </v>
   <v>       0.00000000       0.00000000       0.00000000 </v>
   <v>       0.00000000       0.00000000       0.00000000 </v>
   <v>       0.00000000       0.00000000       0.00000000 </v>
   <v>       0.00000000       0.00000000       0.00000000 </v>
   <v>       0.00000000       0.00000000       0.00000000 </v>
   <v>       0.00000000       0.00000000       0.00000000 </v>
   <v>       0.00000000       0.00000000       0.00000000 </v>
   <v>       0.00000000       0.00000000       0.00000000 </v>
   <v>       0.00000000       0.00000000       0.00000000 </v>
   <v>       0.00000000       0.00000000       0.00000000 </v>
   <v>       0.00000000       0.00000000       0.00000000 </v>
   <v>       0.00000000       0.00000000       0.00000000 </v>
   <v>       0.00000000       0.00000000       0.00000000 </v>
   <v>       0.00000000       0.00000000       0.00000000 </v>
   <v>       0.00000000       0.00000000       0.00000000 </v>
   <v>       0.00000000       0.00000000       0.00000000 </v>
   <v>       0.00000000       0.00000000       0.00000000 </v>
   <v>       0.00000000       0.00000000       0.00000000 </v>
   <v>       0.00000000       0.00000000       0.00000000 </v>
   <v>       0.00000000       0.00000000       0.00000000 </v>
   <v>       0.00000000       0.00000000       0.00000000 </v>
   <v>       0.00000000       0.00000000       0.00000000 </v>
   <v>       0.00000000       0.00000000       0.00000000 </v>
   <v>       0.00000000       0.00000000       0.00000000 </v>
  </varray>
 </structure>
</modeling>
