135
Time=99999.99999996 pbc="T T T" Lattice="12.52607000 0.00000000 0.00000000 0.00000000 12.52607000 0.00000000 0.00000000 0.00000000 12.52607000" energy=-935.76915734 virial="-1.01565935 2.51733615 11.22714208 2.51733615 -5.36080702 -7.52950554 11.22714208 -7.52950554 27.72779544" stress="0.01428121 0.00128085 0.00571248 0.00128085 0.01207036 -0.00383109 0.00571248 -0.00383109 0.02890616" Properties=species:S:1:pos:R:3
Ca 2.79003967 3.18630168 1.24897123
Ca 12.00601652 8.74311938 2.05401155
Ca 1.47191070 10.53528266 4.02292916
Ca 6.83933854 6.23509466 4.90529868
Ca 10.21918633 11.20285608 5.86762859
Ca 7.91125936 12.38550564 12.40415893
Ca 7.43628774 10.26224359 6.74512414
Ca 5.54735716 11.48879096 3.30990581
Ca 4.20374042 8.59891812 8.08481367
Ca 4.94901568 9.95810613 12.01085398
Ca 3.32599416 12.38309348 7.02013075
Ca 0.40558050 11.21664663 10.08062867
Ca 3.25302569 7.42899289 2.19177520
Ca 0.36428135 2.12510616 12.10783554
Ca 12.49492218 6.01939846 12.29561185
Ca 10.31821997 0.79378356 9.07876645
Ca 11.46606995 2.87073412 2.18973916
Ca 8.63802373 9.36449436 1.89553333
Ca 3.35203211 4.70377570 4.46124280
Ca 6.01212949 3.81339230 7.91189418
Ca 8.11751183 5.78868194 1.42943152
Ca 3.89292299 1.59415938 10.12174675
Ca 4.91956237 6.45540439 10.78710888
Ca 6.73635781 2.54107628 2.22701087
Ca 7.21522653 7.09154860 9.21951878
Ca 0.18816666 7.06548956 8.81983923
Ca 1.11032552 4.19423364 6.64172991
Si 9.51880326 2.84893841 12.23686982
Si 9.06789668 1.18872980 4.46008032
Si 9.33849476 5.04739814 10.04900152
Si 6.94621149 3.80616663 11.48384751
Si 1.67555025 7.47273618 5.23436132
Si 6.92567726 0.95104468 8.40360999
Si 5.23348943 4.92125353 1.25383445
Si 1.73177602 11.58536953 1.14380303
Si 7.39541776 8.54527609 11.94460898
Si 4.85948743 8.42060358 4.56303898
Si 1.57744200 10.09511057 7.19836233
Si 9.98229878 8.09957801 6.33254880
Si 9.72941284 11.44760118 2.75766605
Si 2.01116871 4.34866278 10.21271556
Si 9.93689586 5.08022397 7.44290411
Si 3.72392074 5.56703447 8.00596696
Si 0.14595784 1.27050333 5.46609599
Si 9.64672251 10.43219029 10.44482544
Si 0.43839981 5.26948231 2.53115872
Si 6.18428515 1.30408633 5.50090114
Si 4.44546854 0.83664115 1.34500468
Si 6.81168471 11.01596455 9.45552495
Si 0.44383490 2.21470717 9.03617057
Si 10.17768293 6.80869725 3.73414505
Si 9.01204079 4.01232171 4.74475437
Si 9.95069524 7.96757651 11.34077601
Si 2.43850598 8.98068761 11.05920987
O 1.22442281 8.36188297 4.01288652
O 12.25388714 2.67783775 4.65090496
O 7.46863225 4.30285806 5.37403263
O 2.99808392 6.87404965 8.29622754
O 2.00649833 3.41205194 11.56154922
O 1.03871622 10.18197597 1.74192670
O 3.38926159 6.99791411 4.89520586
O 0.85447814 6.52787797 1.52929165
O 1.81858492 11.32256497 6.09049701
O 9.13006312 3.81090328 1.15726951
O 10.50983342 6.77175910 7.08673833
O 5.28771855 6.00159836 8.24037348
O 9.96096015 0.69574667 3.14843988
O 2.48771306 10.80121082 12.18766195
O 8.09491437 4.85502130 11.06646354
O 3.92877590 1.63415101 0.08664331
O 10.92262762 7.87510593 0.09339668
O 7.33961013 1.37904002 4.32200525
O 8.41695913 10.75484460 9.37002211
O 6.47182530 3.73616033 0.54235477
O 10.74077102 11.34350587 10.87833473
O 7.86278653 2.32271704 11.70927303
O 0.93677050 8.51264151 10.98568801
O 9.17141436 0.82204341 5.87907521
O 4.99009267 2.57469328 5.07856850
O 0.51179182 4.07456656 1.25552914
O 2.57610058 8.86511106 6.50087833
O 6.38320858 9.64476850 8.65898389
O 4.37858742 1.80910635 2.64522036
O 6.75741764 9.32543903 0.73811388
O 6.96789417 1.81869095 6.77882277
O 8.47407850 7.80871626 5.82313064
O 0.95160345 0.56116391 1.17971271
O 9.80648964 4.17400826 6.17683732
O 3.08438691 10.49276422 8.02311866
O 3.23049136 7.97021179 12.31063969
O 10.77017962 10.26378174 3.19872803
O 6.24260563 8.32151616 10.83785353
O 10.81508871 1.84061565 0.00772636
O 11.52124041 6.02264649 2.93952615
O 1.21605802 5.04763795 3.73243718
O 1.90680273 1.48076565 5.67577210
O 6.10766213 4.95115342 2.82633850
O 5.38137590 1.43828562 8.78558823
O 0.98092004 3.66830908 9.44455619
O 9.90381318 3.70522653 10.96201275
O 11.77004951 2.26542300 8.05146853
O 9.39376062 2.77261911 3.76217350
O 3.74728721 9.16295692 10.14572184
O 5.61357952 3.80329603 10.52127867
O 4.33959129 9.79098889 4.12129279
O 5.96952956 0.44554172 1.27207244
O 10.14003649 8.89118909 10.08295080
O 8.28232735 11.07042339 3.57879749
O 3.25522551 4.65191542 6.88784468
O 3.35537674 4.43505893 9.53971664
O 3.49142330 11.89234237 1.74711579
O 8.49280376 5.14440522 8.52160683
O 5.71709231 6.31042904 0.32595980
O 6.62569199 11.63589784 10.81605119
O 9.04052116 5.54043214 3.94027620
O 5.35212256 7.58819273 3.13017711
O 9.65484018 11.45061120 1.26275944
O 10.54187924 8.26663471 4.46754274
O 5.61280734 12.28396008 5.64716953
O 0.30532964 10.05765717 8.36175645
O 10.13576011 9.42405950 7.16241187
O 8.32903572 1.36177952 9.35857105
O 6.79928314 11.82876549 7.93214184
O 12.24955287 1.38893156 10.26749370
O 3.60185462 5.20138585 1.38433995
O 11.91191494 12.30641206 5.65430528
O 1.23795799 5.82666834 10.34528933
O 9.12679768 7.37672311 2.58597368
O 1.69207369 1.27645080 8.78346263
O 8.56849157 9.74733901 11.84221170
O 8.58099461 7.40434136 12.32158432
O 6.03406648 8.57096010 5.63148398
O 0.82098334 6.48218158 6.09632843
O 10.13577380 6.53923774 10.36799776
O 10.93734255 4.69620594 8.63823140
135
Time=199999.99999918 pbc="T T T" Lattice="12.52607000 0.00000000 0.00000000 0.00000000 12.52607000 0.00000000 0.00000000 0.00000000 12.52607000" energy=-937.62772941 virial="19.50528553 -2.85636398 -6.01752554 -2.85636398 -2.05727636 -9.67179097 -6.01752554 -9.67179097 31.75733374" stress="0.02472247 -0.00145335 -0.00306178 -0.00145335 0.01375122 -0.00492110 -0.00306178 -0.00492110 0.03095643" Properties=species:S:1:pos:R:3
Ca 2.81461397 12.09894174 9.88432511
Ca 4.76146384 9.42236978 8.40757956
Ca 4.02722575 10.17914185 3.74282697
Ca 5.35394887 8.37686269 0.76967799
Ca 7.81018705 8.23432209 11.23296139
Ca 11.39922409 3.96346966 5.52913485
Ca 1.08537095 6.26340932 8.07983258
Ca 9.03114336 7.76805045 5.21292300
Ca 6.95369191 5.54915234 1.89787768
Ca 10.44959554 9.82863524 8.17896880
Ca 2.13304718 0.69234105 4.99867485
Ca 2.57256853 7.73014232 11.50335232
Ca 11.78835550 9.51200630 2.62824150
Ca 0.81933683 7.24175892 4.90665941
Ca 6.00690362 1.43137601 4.68103102
Ca 4.12875580 4.48938834 0.07319559
Ca 10.52918163 12.13537069 0.01943258
Ca 8.94954856 11.15455260 4.17333198
Ca 4.26351337 0.79800920 1.72708412
Ca 11.20462547 7.99296999 11.83690605
Ca 0.54109217 4.09546121 2.05232462
Ca 10.25745522 3.39531602 0.77242044
Ca 0.57529318 1.56187899 8.05613032
Ca 3.23927484 3.77037152 8.47302650
Ca 10.08877945 2.34744424 9.89567412
Ca 4.79595574 6.93915678 5.56975474
Ca 1.20827001 10.71906302 0.77581783
Si 7.22072297 1.09019398 11.60318740
Si 12.46899615 4.72046723 10.61285108
Si 6.71947063 4.03946915 11.21359784
Si 8.94876667 8.58588358 1.65979442
Si 2.37925273 4.68525985 5.54852453
Si 3.14926496 6.29179538 2.28984115
Si 9.66336900 5.25659361 10.75173355
Si 6.48083153 11.65671491 1.53041667
Si 7.17199516 2.53597035 8.23385881
Si 6.98773283 9.64242741 6.40106933
Si 1.34654026 9.36549347 8.09874912
Si 11.36040282 0.59561772 2.73222929
Si 11.36569814 0.78518933 5.74458650
Si 4.60197697 5.92869263 10.04435482
Si 1.15040405 10.75172584 5.51563404
Si 4.19863288 10.68258923 12.27015426
Si 9.45491431 0.42088454 7.65328934
Si 10.20723085 5.78452291 7.71574915
Si 11.24191748 6.59906613 2.73718216
Si 7.88833877 11.20208155 9.39471501
Si 0.25460305 2.17735328 11.28082933
Si 7.95498462 4.37072582 5.93543530
Si 1.59588202 1.37240347 1.57827206
Si 7.77317252 3.18710632 3.22475885
Si 4.76745166 3.86436213 3.63463827
Si 12.17997171 10.12196821 10.48014269
Si 4.50948619 0.55321383 7.50988303
O 2.64956580 6.06683336 5.97347842
O 8.35109417 4.42060058 11.27426454
O 4.16914708 3.58498188 5.13765747
O 6.78547842 0.46475653 0.56839220
O 3.49847574 6.60903726 0.75639567
O 2.04514785 2.90887799 0.94655215
O 4.35689240 0.78257850 5.86795513
O 8.13850757 2.98709818 5.00519199
O 0.29403416 8.49776168 7.44560529
O 11.60983340 11.51871606 11.05897564
O 1.02192615 1.32872838 10.15916887
O 10.75555598 0.86418975 4.22936049
O 7.18314665 12.06120713 10.73291180
O 6.38339357 8.11309363 7.33593810
O 2.15404536 11.08737287 4.35265981
O 4.23956225 10.18148521 10.80508784
O 3.30639218 9.88322885 0.74208396
O 1.58987238 6.09521519 2.33959516
O 10.09281904 12.27745775 6.18261646
O 6.88441529 3.59445013 7.16483462
O 4.12648495 7.46177427 3.00841460
O 9.51565607 9.41286325 0.49942025
O 12.07406703 2.33504971 6.19502392
O 12.15261228 3.75385729 9.43866218
O 8.83132123 9.89049149 10.01159300
O 9.27836401 6.90024901 2.33827696
O 1.15398435 4.73079702 4.49766657
O 9.36237076 4.75682845 6.53463304
O 9.85129637 9.24368355 3.05693951
O 2.78185986 1.29378356 7.97384122
O 3.11256283 5.27568424 10.66889836
O 2.28582485 8.49375265 8.99658038
O 9.76492389 4.99025059 9.14466972
O 9.97198176 1.25906664 1.90949032
O 11.34669128 2.11895375 11.72813360
O 0.74086324 10.73929733 9.26948530
O 4.03375396 4.94171013 2.42185957
O 0.33197151 12.15294480 5.53100346
O 11.88876800 7.46485079 1.57784034
O 0.91837060 0.75974197 0.33836632
O 11.41928821 7.08532563 4.26005998
O 8.74805563 1.19301147 11.62520124
O 0.77471562 3.63162992 11.62022206
O 7.39885295 10.93873960 7.87654944
O 5.70578916 10.39929610 0.47325159
O 10.82512862 1.08312287 8.25176822
O 4.32902433 5.90657209 8.41023024
O 11.02547000 4.95431350 11.46436281
O 4.30669915 11.61111133 8.11365578
O 5.95972401 4.82609658 9.99387724
O 5.21111474 11.62559519 2.40744661
O 6.37449540 4.37709577 0.19056909
O 5.82729857 1.37621458 8.50452213
O 8.38009735 1.61979328 7.30047928
O 7.21770951 5.67776196 5.11222374
O 2.42617150 0.43574768 2.46737647
O 0.51645192 6.17526903 9.95964136
O 3.63357030 12.28948500 12.00258984
O 7.51628257 7.88159913 0.88041140
O 12.34464138 9.60179466 4.80149773
O 1.84358630 3.83863952 6.76029004
O 4.52289575 2.58475746 2.68516661
O 5.33811672 7.25601693 10.79926397
O 9.18117623 6.81089367 10.76178815
O 11.28579861 4.96128430 2.73286027
O 11.30813475 8.87006290 10.09870978
O 11.98001439 11.72043232 2.71277935
O 8.55640441 9.68703073 5.87382927
O 8.87728302 4.08893758 2.62691064
O 6.06594347 2.28934649 11.33819668
O 7.45817763 3.24833880 9.60653166
O 0.09984968 1.53975501 2.72459106
O 0.73800060 9.60031772 11.72407174
O 5.66889406 10.10560654 5.43652910
O 9.33294393 11.88640804 8.80121223
O 9.69522468 7.45437621 7.47564798
O 6.35615503 4.40024623 3.58638529
O 7.12807190 1.77814820 2.81407206
O 11.77947715 5.48324115 7.07553175
O 7.72607200 11.15089013 2.30896709
O 1.87207197 10.98427448 7.02186765
135
Time=299999.99999840 pbc="T T T" Lattice="12.52607000 0.00000000 0.00000000 0.00000000 12.52607000 0.00000000 0.00000000 0.00000000 12.52607000" energy=-941.67970535 virial="19.52107095 -11.09644157 -1.21391600 -11.09644157 25.29577286 -3.96883841 -1.21391600 -3.96883841 -51.84645792" stress="0.02473050 -0.00564598 -0.00061765 -0.00564598 0.02766873 -0.00201938 -0.00061765 -0.00201938 -0.01158200" Properties=species:S:1:pos:R:3
Ca 8.17845795 3.21338702 1.34866451
Ca 3.16192068 11.75921906 11.64678234
Ca 10.29123870 4.80073553 11.08555564
Ca 12.18687648 5.96011020 3.05460813
Ca 4.76678158 4.15500678 1.36262060
Ca 9.95962060 1.25323787 11.65189552
Ca 5.02004194 3.06177909 6.32857882
Ca 0.43774186 9.12983137 9.61445154
Ca 7.39163380 7.92441001 6.05718942
Ca 0.79545707 3.00729085 9.86314968
Ca 3.73087183 7.69451872 3.13836388
Ca 11.79166456 0.27175978 4.78820476
Ca 3.62969976 11.70928632 2.17474474
Ca 6.99761435 4.80988726 4.28746709
Ca 11.55697520 9.35079436 6.46022820
Ca 5.52978849 10.21823811 10.20530399
Ca 1.63049355 9.25075193 0.31652866
Ca 10.70961479 5.92123882 7.14035115
Ca 7.15920491 0.58291017 4.50170183
Ca 10.74399277 8.44000748 0.76253027
Ca 6.98172883 7.04772451 10.23598947
Ca 10.18680281 12.00343544 8.38593184
Ca 7.03376589 0.71416916 9.65050401
Ca 2.01317484 5.76343210 7.90258113
Ca 1.93112098 5.82319536 0.11837407
Ca 10.24060560 11.18980828 2.03558442
Ca 6.77428768 10.05560213 1.85621324
Si 8.63374195 10.12006501 11.47535168
Si 3.54900785 3.46836003 10.36364528
Si 7.00614515 4.02675880 10.54202796
Si 4.17286885 2.04651385 3.67671924
Si 9.73694264 8.13200117 9.20877504
Si 4.39370840 8.15016967 0.10539417
Si 1.94109986 10.63126973 5.70690101
Si 4.78888006 10.37960584 5.02521934
Si 10.47841787 2.67141783 8.76705217
Si 4.35279038 0.82813061 8.75434181
Si 4.03413445 5.78190122 5.96301992
Si 9.23514747 8.41299926 3.53433767
Si 10.61372361 3.74599521 3.97648873
Si 6.45175402 11.96941245 7.23377788
Si 7.14263063 7.16676685 1.64363774
Si 4.63987919 8.64715751 7.64205906
Si 0.04202081 12.03168120 11.12224996
Si 12.06504794 6.64566573 9.89440982
Si 7.01575552 0.10852427 0.39383273
Si 1.13530447 9.25259425 3.15029305
Si 2.79734164 4.86563592 3.10838381
Si 12.22640874 3.29967639 6.10806299
Si 2.42355718 1.08307390 6.21175750
Si 8.00618638 4.04344856 7.50298587
Si 11.67992498 3.65771361 1.04122600
Si 0.33017026 0.46368401 1.15737409
Si 8.87516499 10.74893155 5.53885865
O 8.49659580 9.01194452 10.10893103
O 1.39107494 11.08104873 11.22025435
O 11.72060593 11.98877289 0.24998184
O 10.43392399 6.83675917 10.01333331
O 12.17012643 0.49817540 2.65696989
O 4.47190974 12.01922158 9.47429628
O 3.64640004 1.50937060 5.28160157
O 12.09605793 4.97926742 9.73864427
O 10.19303139 3.12471634 0.48658562
O 7.21750978 10.52076500 12.32295107
O 1.13157303 9.61413293 6.76600514
O 4.33686092 1.38108801 2.17176593
O 12.40357853 5.22210941 0.68912851
O 10.31180450 11.14738773 6.30060975
O 9.45506453 9.69003249 0.28934865
O 4.92711980 7.34801711 11.41719428
O 5.54113055 1.02386580 7.31156182
O 9.34162836 11.50711946 10.65744376
O 11.19277036 2.58688394 5.07506346
O 11.79336177 2.64130375 7.68339303
O 10.83331072 9.17069973 9.27117673
O 4.23701802 9.65915017 12.06333376
O 8.84958343 9.75785200 2.74648237
O 1.26075308 5.10219313 2.87604121
O 2.51206865 9.62101162 2.37786575
O 2.54867039 4.18641636 9.31518060
O 0.48653080 7.59028005 10.99966408
O 4.01293766 2.07193004 9.71947677
O 3.02777577 7.57072507 0.67692672
O 9.23094962 3.44130025 3.47588036
O 3.25185502 3.40299265 2.99398084
O 5.44438638 6.04385157 5.17180947
O 11.55390983 3.80124263 2.68799797
O 10.71122774 5.04391479 4.99509942
O 2.80342025 0.92564049 7.87463565
O 3.82110725 4.60303305 6.96996022
O 7.32592504 2.87870219 11.78506794
O 6.90659404 0.02491032 2.15279949
O 3.64259849 5.59505674 2.05429537
O 6.71113733 11.09816225 8.60979125
O 5.56691706 7.96660987 1.37047899
O 8.60304892 0.32948029 0.37315253
O 3.18653328 5.84503374 4.43457824
O 7.84646618 0.25402798 6.67315251
O 3.79791921 7.04025381 7.29052224
O 0.48197385 1.11266525 11.18806533
O 9.17389352 7.76454934 7.81366650
O 9.32754622 1.47635458 9.07460587
O 7.34487334 3.19606713 6.25193600
O 3.58028626 9.68780781 8.53246574
O 5.27038095 11.60839036 5.94633750
O 8.31305491 5.15526067 10.68113131
O 0.30085307 2.39095602 1.33123666
O 12.04910695 11.52433680 9.60136402
O 7.18367968 3.37317131 8.97346562
O 9.23193223 11.76497501 4.36018353
O 3.49151710 3.17139784 12.02188275
O 5.04795647 8.93389528 5.70277786
O 3.19798948 9.93910666 4.67496168
O 6.79195185 5.42821256 1.87441125
O 11.12258928 2.87069610 10.24813614
O 8.12973385 7.30222680 0.24772329
O 7.27924884 10.47294693 6.11318329
O 1.12385221 2.15460942 6.19019927
O 10.41975731 7.61379016 2.84937171
O 1.82072220 12.17469819 0.94580541
O 5.87477617 0.36921509 11.98083645
O 0.87801505 10.49289988 4.28266752
O 9.23346781 8.87290935 5.15030679
O 5.30278233 4.05794802 10.19172635
O 8.17088696 5.44204416 6.82538848
O 7.68322922 7.61531144 3.22457751
O 6.00525800 8.27311645 8.35561545
O 1.85569430 12.22922995 5.42083016
O 0.07652176 9.68872384 1.54952843
O 1.22666021 7.76272482 3.54700492
O 5.49793213 3.01609775 3.94164019
O 12.47819000 7.30359188 8.35700896
O 0.04905586 4.88611944 6.59187707
O 5.63024697 10.46339859 3.67075558
O 9.52421601 3.75321925 8.36177104
135
Time=400000.00000008 pbc="T T T" Lattice="12.52607000 0.00000000 0.00000000 0.00000000 12.52607000 0.00000000 0.00000000 0.00000000 12.52607000" energy=-936.84730198 virial="4.38912144 18.31877053 -4.67015428 18.31877053 2.82491810 -19.28834824 -4.67015428 -19.28834824 30.23847754" stress="0.01703122 0.00932077 -0.00237622 0.00932077 0.01623533 -0.00981410 -0.00237622 -0.00981410 0.03018362" Properties=species:S:1:pos:R:3
Ca 12.33236183 4.51497082 7.36997282
Ca 3.80146873 11.43782428 7.62251770
Ca 10.04705844 9.87497263 3.23930370
Ca 0.42202248 7.21497681 10.87352311
Ca 7.97652560 1.95017227 11.95719327
Ca 3.84547545 6.40147283 0.77695387
Ca 2.82894809 8.39285383 5.45674777
Ca 10.50574758 0.93368633 5.78161393
Ca 4.48154938 11.27394130 4.61477752
Ca 5.39304404 10.98905152 10.99783340
Ca 5.68223247 7.33335117 7.04878569
Ca 2.57126144 2.67330300 8.15294301
Ca 11.91352997 7.00601464 1.62257797
Ca 7.18310244 3.89280428 7.11394509
Ca 11.90961635 11.37969464 0.37574268
Ca 4.39395202 9.70601615 1.62195582
Ca 9.92281793 4.62702831 0.78119348
Ca 12.12795780 6.55710675 4.94184387
Ca 6.70034574 5.83825741 10.47447198
Ca 1.04981702 2.05115530 2.20672356
Ca 4.86259755 4.62859131 4.09844777
Ca 6.27075142 1.71554718 2.67849969
Ca 9.38527171 11.11011306 9.70985019
Ca 0.58851831 10.96728654 8.68567381
Ca 7.92844867 8.13334940 0.21200721
Ca 9.46067388 10.08612303 7.09213686
Ca 3.58289576 2.81859751 0.06447911
Si 12.22812027 1.30648182 8.81510779
Si 0.82434787 2.83558713 5.04539534
Si 9.20036893 5.95437257 7.97057931
Si 4.36488100 4.15355825 10.49905026
Si 8.36633253 8.07539131 9.55991681
Si 2.19638717 10.72494246 11.24723614
Si 9.01789251 3.54088706 3.49370501
Si 5.29152009 1.15408654 9.54677787
Si 6.23731579 7.99143091 3.42601319
Si 9.94764487 2.85508809 8.61777310
Si 1.97811302 4.81587291 2.97349562
Si 9.20971504 6.69526666 2.84721508
Si 5.36912226 1.71968001 6.08932359
Si 7.66600036 11.48161972 0.53487758
Si 10.57526507 8.58200986 11.81672152
Si 2.95405007 8.06978440 8.09613984
Si 12.09904239 3.76011508 10.70630818
Si 12.36298802 8.40782998 7.20897530
Si 3.24470376 8.04025775 11.16567733
Si 6.80480000 3.99886434 1.06129125
Si 4.27460996 4.85339269 7.45570291
Si 3.14024947 12.49183427 1.15508472
Si 7.39452974 10.82835360 3.70535204
Si 1.46101370 10.19488757 2.29345631
Si 10.94931121 1.15189855 3.13584074
Si 0.92432665 10.61448291 5.52608418
Si 7.91947729 1.04774552 8.26850420
O 8.23208294 9.09593926 8.44097367
O 0.02005358 11.62799615 6.31975058
O 4.21037244 9.06057832 8.00540836
O 5.53890619 7.34952149 2.16860899
O 10.20879008 12.39827625 3.63490217
O 5.66558227 2.32078957 4.60987594
O 10.48719365 2.91606830 2.94392579
O 11.33645797 9.42603168 7.64565358
O 2.34775844 8.73939850 2.29482816
O 12.32551272 5.20426251 10.13091555
O 2.40898806 10.45795227 6.31441987
O 5.80161894 2.71469700 10.19663533
O 0.64690929 2.68529674 9.83459485
O 9.51621810 6.53977583 6.54291311
O 11.78890272 3.52253554 12.27617884
O 4.69474464 2.95807613 6.95840286
O 7.98837623 4.34846184 12.32892343
O 8.50369784 11.83632225 7.87014314
O 4.61782378 8.45235754 11.96718766
O 11.04492795 0.16801942 9.07088333
O 9.46381519 6.52011506 9.41237646
O 8.19550066 10.87018505 2.05170399
O 8.80105730 12.25593247 11.86735316
O 9.75364496 4.24202039 7.79563088
O 5.86069012 2.66007657 0.55302645
O 5.09462796 4.77520699 9.11728665
O 1.31564113 8.59087422 8.27107381
O 2.01154128 9.10871931 11.38250454
O 0.96759188 11.50267168 11.46990890
O 2.20289295 1.25234762 0.76627378
O 11.05551856 7.00874167 12.15958892
O 2.64965169 4.65327502 7.70911088
O 8.83138062 1.75180752 9.61791237
O 3.78322575 0.95070496 9.19622960
O 5.56017815 5.06134087 6.29422681
O 2.67294832 4.14755506 1.63979715
O 3.35689478 7.52597962 9.67811952
O 2.73525295 6.44496246 11.73371462
O 10.49604576 3.21825308 10.27070174
O 3.94131159 11.46197298 12.42503819
O 2.06336883 10.55185890 3.87499956
O 4.50188463 0.14823080 6.34340639
O 2.90351936 5.90062546 3.65888923
O 6.95348086 10.07851590 12.46042302
O 1.91992263 3.15005272 4.03370961
O 5.13741772 4.62630807 11.84402791
O 7.32724958 7.66706972 10.83159306
O 0.72549227 5.71007023 2.94217927
O 5.28951827 7.78026418 4.79411853
O 11.82332383 9.32247599 11.16085646
O 8.23736550 3.39653801 1.98869232
O 1.32913547 2.25304328 6.39664279
O 3.19014518 6.85219845 6.72709408
O 11.39781425 2.33823151 7.73210632
O 9.08298903 6.49048189 1.35006313
O 1.00071049 0.49525344 8.47103928
O 12.11287343 1.49940005 4.31434297
O 10.67429329 7.52425098 3.29230987
O 8.42551908 10.05877866 4.82390418
O 6.12518334 4.44857572 2.39692889
O 8.94061573 2.07288902 7.32620275
O 9.32504184 5.20921580 3.52552328
O 8.10330732 7.88748099 3.26451525
O 3.99552213 11.65496978 2.25984769
O 7.44223561 5.75671210 8.22786171
O 11.49471449 0.78984182 1.63206940
O 6.79155673 1.49784602 6.99517114
O 6.34072706 12.52484674 9.13958267
O 9.30831287 9.01474341 10.79193851
O 12.33703285 4.19313472 5.31945100
O 12.51705681 9.68274619 2.22568682
O 6.41475399 0.02609261 0.98359284
O 12.30259737 6.87083309 7.21259972
O 6.60572417 12.07068948 3.98788311
O 1.41889072 11.41583403 1.25244415
O 10.20985749 9.05647927 0.78060838
O 6.38485761 9.67936157 3.27095483
O 8.32308174 3.11726035 4.84452899
O 3.09320765 10.92399436 10.05228286
O 3.00486740 3.55898108 10.30594555
O 0.28917995 8.97856900 5.38320006
135
Time=500000.00000301 pbc="T T T" Lattice="12.52607000 0.00000000 0.00000000 0.00000000 12.52607000 0.00000000 0.00000000 0.00000000 12.52607000" energy=-945.34612974 virial="11.22858271 -16.44877839 23.96519020 -16.44877839 -10.02072050 -6.71441601 23.96519020 -6.71441601 27.29603782" stress="0.02051120 -0.00836930 0.01219372 -0.00836930 0.00969935 -0.00341636 0.01219372 -0.00341636 0.02868648" Properties=species:S:1:pos:R:3
Ca 0.55865016 8.79825294 6.65642186
Ca 4.33766334 0.09803435 2.35270203
Ca 4.65156831 6.48510375 7.28912531
Ca 3.05128292 9.98831780 0.68725524
Ca 4.63009203 4.40878436 2.58700997
Ca 0.27426383 4.18256077 3.74148564
Ca 4.03003322 0.10342314 8.41100115
Ca 12.06257909 5.02672097 7.84270064
Ca 7.82498972 9.28834743 12.15668466
Ca 10.73273449 7.44552708 3.20406592
Ca 4.67619587 5.21418419 10.55254797
Ca 10.53369548 10.57127412 5.29764748
Ca 8.43090652 0.22905975 0.39544482
Ca 10.60117350 1.10732674 7.68069644
Ca 3.99917838 9.93561686 4.61595610
Ca 7.71109928 5.68449776 1.71161557
Ca 1.86851652 6.35932038 0.79863448
Ca 0.16813876 1.38603561 1.97232218
Ca 10.85689669 8.26990475 9.52852004
Ca 7.68987397 5.03416536 9.57920050
Ca 9.87158222 1.06861218 3.83010810
Ca 2.06148024 2.99440327 10.07931306
Ca 0.99462294 12.34080044 10.56574891
Ca 7.40849147 1.23502154 9.63945745
Ca 2.30073905 3.93790564 6.56040851
Ca 8.24344187 4.22524021 5.71784000
Ca 3.68929221 8.75204651 10.21032952
Si 9.38818207 6.76801606 11.81829405
Si 9.68624853 11.45772551 9.14511091
Si 1.15258316 1.21091659 8.23945245
Si 6.09990569 9.32085718 2.25260857
Si 7.66506020 0.80790491 6.25037332
Si 1.17501364 11.58458138 6.17877503
Si 9.17884027 10.67420056 2.31591293
Si 1.94867736 3.59209505 0.33027176
Si 1.43753453 6.24080881 9.32581030
Si 5.24214736 12.31035399 11.61701569
Si 9.04655520 3.59592236 12.15206775
Si 0.36603851 1.87252599 5.42868093
Si 11.01399356 4.90939239 10.34509421
Si 5.15445775 7.24899666 0.08312193
Si 9.88350119 3.85396646 2.66889795
Si 4.96688154 1.72399556 5.00900353
Si 0.64705390 9.24881079 10.73426907
Si 10.53529993 7.26899334 6.40121906
Si 1.01230496 8.24872485 3.01220912
Si 5.42369832 2.67012646 0.30179267
Si 6.17151407 7.13785665 4.47112631
Si 10.88427354 10.82856881 11.79497645
Si 6.80509662 11.01349853 8.44187170
Si 5.04461982 3.20858366 7.31126377
Si 0.82328196 11.13772870 3.02317941
Si 2.96188543 6.81069574 5.00533502
Si 7.49179026 7.86641859 7.34756934
O 5.85518932 8.78021726 3.82078477
O 4.49150055 2.36932385 3.72122300
O 1.79418353 10.27015673 11.14127371
O 3.77739696 4.08013163 8.30295748
O 10.28603636 9.83406015 2.91233987
O 1.33524649 5.96649019 7.72155447
O 11.33837097 3.02843300 2.46253491
O 11.77859840 9.29324747 11.76262557
O 5.48158672 5.88653187 1.00419259
O 11.02857367 6.27251984 11.35835278
O 0.14309709 8.57628164 4.32727226
O 5.49710835 3.32640082 11.35214159
O 4.06363286 2.23292336 6.56574155
O 12.18180432 3.17861589 6.02496875
O 6.96970968 6.06759283 3.67007512
O 9.05283234 12.18714394 2.46477422
O 8.60993478 2.24394404 6.88363371
O 5.82221733 7.28007817 11.01795716
O 0.46721726 6.98489412 2.21473396
O 6.71196774 6.63537558 8.06158935
O 7.59996285 10.02066545 2.20359118
O 5.27277616 10.59782616 8.81791082
O 8.47663903 7.51892590 10.72236053
O 8.53653631 5.04458019 11.58718324
O 7.21002863 7.35113133 5.81501957
O 4.62196249 6.32424695 4.92649852
O 4.19494762 11.38051988 12.16141816
O 0.03955491 4.86610258 10.24774943
O 9.93114912 11.69557538 7.50319565
O 11.93952754 0.73164251 4.96297091
O 0.03486099 9.71523036 9.42445214
O 11.67342901 7.24309506 7.58436094
O 6.45307905 1.77558015 5.71959385
O 1.12111514 2.18314684 12.16945902
O 10.00149838 8.30304262 5.30523911
O 6.99013333 11.82438774 11.88437132
O 0.24864240 12.48055403 8.71392615
O 9.90104757 5.56839249 9.32654450
O 9.32568942 7.49450019 0.79560450
O 2.25195727 11.89237735 2.67598180
O 6.83321364 9.44247989 7.47599490
O 9.48442726 3.66976345 1.19278823
O 5.46423508 0.91134635 0.40608302
O 6.06740428 3.08114538 8.59815862
O 3.99915570 2.84662168 1.06732345
O 6.98117582 12.19814901 7.16472741
O 3.10557090 7.88865092 6.24122955
O 8.52825923 2.16714205 11.45685944
O 8.84836199 3.07337259 3.82949261
O 10.04130305 0.28221209 9.70839824
O 6.60464174 3.16502307 1.31386634
O 10.24568582 10.44389699 10.15572996
O 3.06860809 6.35616365 9.58906965
O 5.15875093 0.53185465 10.30365515
O 4.65864818 0.08621593 5.04008867
O 0.73953585 2.75201394 8.32529877
O 2.56988708 4.62850386 11.69523233
O 9.06792585 7.31695007 7.30619335
O 5.97700025 4.31900838 6.29273116
O 1.61908590 4.25383840 1.65416368
O 1.34819338 2.61287073 4.27533278
O 8.70298913 0.00454400 5.38358742
O 1.54024027 0.78161279 6.46825141
O 1.29526126 11.07199824 4.59166173
O 7.90224315 11.29166868 9.52768433
O 9.90433289 5.49744989 2.94052555
O 12.40105505 10.72896479 6.55191298
O 12.21923977 12.06371991 2.70382171
O 2.03636730 5.43747372 4.66813253
O 6.04687495 8.29431261 0.91732723
O 2.30499764 1.12382215 9.30788634
O 2.50228733 8.15912919 3.71045157
O 10.71597939 5.68716017 5.78880843
O 11.69634792 12.17878047 12.11268771
O 0.93331715 9.73526520 2.10378932
O 2.61901057 10.84970034 6.78613078
O 3.62707708 7.96447525 0.03003530
O 4.86448360 10.41780429 2.31205672
O 9.63992370 10.74515558 0.35256206
O 10.58171769 3.45390437 11.11187781
O 1.24032236 7.82850685 10.18486895
135
Time=600000.00000594 pbc="T T T" Lattice="12.52607000 0.00000000 0.00000000 0.00000000 12.52607000 0.00000000 0.00000000 0.00000000 12.52607000" energy=-944.56649893 virial="7.09480712 1.00287285 10.22785166 1.00287285 -15.67939208 -7.66456019 10.22785166 -7.66456019 -3.66933495" stress="0.01840790 0.00051027 0.00520403 0.00051027 0.00682016 -0.00389980 0.00520403 -0.00389980 0.01293099" Properties=species:S:1:pos:R:3
Ca 6.59239366 11.02897895 4.35212300
Ca 2.04873275 5.70641849 9.72781689
Ca 6.53125063 2.99589921 11.93752295
Ca 9.82168142 4.55166728 1.86653343
Ca 8.80499830 8.13557267 2.70118691
Ca 6.86955330 1.25711874 8.02093831
Ca 6.47592970 5.38155944 6.12657561
Ca 7.16569718 2.21521155 3.76455206
Ca 5.17458747 7.97039581 9.76086021
Ca 1.42414470 8.59485707 3.50638541
Ca 10.89533737 2.13654826 12.16995332
Ca 11.34087114 10.25384533 10.13741963
Ca 3.29010911 1.75877867 0.21012231
Ca 4.37890365 7.44496257 5.20135561
Ca 4.39051268 3.77110611 2.91025784
Ca 11.34607378 1.23711147 9.09332105
Ca 2.11443583 11.97973564 8.55663880
Ca 8.51086641 11.72971696 1.60430652
Ca 4.81041232 12.32774057 10.62553415
Ca 1.58338035 5.44619076 5.68742603
Ca 12.47646446 11.59491749 5.92966367
Ca 11.18466760 7.39343541 7.86387650
Ca 9.37748715 4.51872506 7.56989129
Ca 1.71334726 9.05081856 11.98506069
Ca 0.81103919 5.45439718 0.61324634
Ca 0.73441851 11.97171315 2.49214293
Ca 3.04367507 12.42915000 4.93358687
Si 10.09467993 5.24717357 5.18436145
Si 0.41713540 2.98422047 2.32235457
Si 7.07894472 8.80322224 7.33280635
Si 9.86726514 9.23708473 5.43850520
Si 8.68615865 9.04646902 10.19280240
Si 3.54956625 6.85695675 1.72590385
Si 2.45958842 9.43794469 6.31827497
Si 10.92523984 4.96487014 10.31741062
Si 11.58655620 7.10258252 3.12816032
Si 1.31059621 2.66842477 4.92432358
Si 8.70257836 12.14421929 10.92659493
Si 1.69612400 2.16748640 7.66377945
Si 3.36359226 11.11879851 1.69504957
Si 6.76365968 5.29304704 1.85860712
Si 8.36754282 6.16814309 11.47530744
Si 9.63031020 2.21733181 6.01696475
Si 4.40185776 5.23945021 12.11218879
Si 4.29320390 3.36156532 8.46486715
Si 11.41992498 8.69488751 1.01170937
Si 10.54107877 0.88027380 3.04114508
Si 5.42143556 9.15675536 1.80426077
Si 5.06363811 10.83731180 7.13303468
Si 6.93244520 4.68198638 9.22352169
Si 1.70092305 8.16830148 8.69017062
Si 1.32809861 12.07418313 11.60251645
Si 4.05448745 3.45440859 5.83838816
Si 5.64137752 0.38813286 1.87141351
O 10.04584574 3.69103370 5.30722884
O 2.05856956 11.51359517 0.55262115
O 5.48206024 0.44012415 0.35641431
O 10.81038844 2.39169642 7.06426472
O 5.02710303 7.74032259 1.03362399
O 9.89980044 9.70757848 1.02563127
O 0.73716365 10.78163434 10.65269624
O 2.86653632 5.72025572 0.72069830
O 0.46034864 6.33685535 3.38954970
O 8.08877133 2.06563954 6.50267660
O 3.69695552 5.93941159 3.05432762
O 4.19467405 12.25108966 2.33131297
O 1.62644782 6.80569186 7.81735176
O 0.63043862 3.56900330 3.82325383
O 10.24538464 12.30908182 10.82440760
O 2.26090062 8.25002612 1.36207781
O 9.79959563 1.43902022 4.49717922
O 4.50069510 6.24808855 10.92830821
O 7.39776306 8.82471544 9.14411901
O 11.28472256 5.97921025 6.21857528
O 8.62415357 5.49695586 5.62223875
O 2.40470501 0.81565181 6.87273155
O 2.81233860 12.40704667 11.06130052
O 6.90401098 12.48292959 2.79616300
O 10.92137261 7.05881858 1.49595435
O 10.42987022 5.67672944 3.59253349
O 1.94716484 7.91394124 5.74186290
O 10.64703912 8.21490785 4.00796099
O 7.74360399 3.27594265 9.10444643
O 8.75827814 7.72368922 11.23761366
O 10.99826675 9.82356604 6.40506948