 running on   52 total cores
 distrk:  each k-point on   52 cores,    1 groups
 distr:  one band on   13 cores,    4 groups
 using from now: INCAR     
 vasp.5.4.4.18Apr17-6-g9f103f2a35 (build Oct 31 2019 15:01:46) complex          
  
 POSCAR found type information on POSCAR  Ca Si O 
 POSCAR found :  3 types and     135 ions
 scaLAPACK is switched off
 LDA part: xc-table for Pade appr. of Perdew
 generate k-points for:    2    2    2
 POSCAR, INCAR and KPOINTS ok, starting setup
 FFT: planning ...
 WAVECAR not read
 entering main loop
       N       E                     dE             d eps       ncg     rms          rms(c)
DAV:   1     0.928285791514E+04    0.92829E+04   -0.46228E+05  8320   0.174E+03
DAV:   2     0.419390502011E+02   -0.92409E+04   -0.89600E+04 10256   0.452E+02
DAV:   3    -0.100207183248E+04   -0.10440E+04   -0.10364E+04 10296   0.154E+02
DAV:   4    -0.104989966339E+04   -0.47828E+02   -0.47641E+02 10928   0.320E+01
DAV:   5    -0.105655747255E+04   -0.66578E+01   -0.66543E+01 15160   0.714E+00    0.856E+01
DAV:   6    -0.892700839282E+03    0.16386E+03   -0.81633E+02 10352   0.423E+01    0.424E+01
DAV:   7    -0.900631768879E+03   -0.79309E+01   -0.99685E+01 11312   0.169E+01    0.263E+01
DAV:   8    -0.888301840224E+03    0.12330E+02   -0.26549E+01 11464   0.784E+00    0.153E+01
DAV:   9    -0.899576459156E+03   -0.11275E+02   -0.39165E+01 10800   0.126E+01    0.309E+01
DAV:  10    -0.885778400273E+03    0.13798E+02   -0.55456E+00  9784   0.413E+00    0.964E+00
DAV:  11    -0.885599462340E+03    0.17894E+00   -0.38020E+00 10608   0.270E+00    0.493E+00
DAV:  12    -0.885979389762E+03   -0.37993E+00   -0.25229E+00 10224   0.194E+00    0.567E+00
DAV:  13    -0.885683149716E+03    0.29624E+00   -0.13980E+00 10792   0.119E+00    0.544E+00
DAV:  14    -0.885474861633E+03    0.20829E+00   -0.10570E+00 11440   0.954E-01    0.408E+00
DAV:  15    -0.885335546544E+03    0.13932E+00   -0.67146E-01 11240   0.824E-01    0.330E+00
DAV:  16    -0.885316105791E+03    0.19441E-01   -0.12373E-01 10664   0.422E-01    0.229E+00
DAV:  17    -0.885409277388E+03   -0.93172E-01   -0.56793E-01 11328   0.540E-01    0.689E+00
DAV:  18    -0.885362558611E+03    0.46719E-01   -0.34616E-02  9280   0.184E-01    0.618E+00
DAV:  19    -0.885364683340E+03   -0.21247E-02   -0.63595E-02  9576   0.271E-01    0.684E+00
DAV:  20    -0.885318069712E+03    0.46614E-01   -0.48278E-02 10824   0.215E-01    0.558E+00
DAV:  21    -0.885265242571E+03    0.52827E-01   -0.78896E-02  9984   0.180E-01    0.256E+00
DAV:  22    -0.885262421523E+03    0.28210E-02   -0.10054E-02 10008   0.132E-01    0.192E+00
DAV:  23    -0.885277714666E+03   -0.15293E-01   -0.19792E-02 11144   0.124E-01    0.354E+00
DAV:  24    -0.885258145267E+03    0.19569E-01   -0.13510E-02  9552   0.120E-01    0.203E+00
DAV:  25    -0.885254369545E+03    0.37757E-02   -0.84460E-03 10472   0.116E-01    0.144E+00
DAV:  26    -0.885254347995E+03    0.21551E-04   -0.24340E-03  9632   0.653E-02    0.131E+00
DAV:  27    -0.885250737622E+03    0.36104E-02   -0.70915E-03 11576   0.529E-02    0.258E-01
DAV:  28    -0.885250976390E+03   -0.23877E-03   -0.59912E-04  9040   0.311E-02    0.133E-01
DAV:  29    -0.885251136382E+03   -0.15999E-03   -0.24532E-04 11040   0.202E-02    0.298E-01
DAV:  30    -0.885250938262E+03    0.19812E-03   -0.22649E-04  9120   0.213E-02    0.112E-01
DAV:  31    -0.885250941742E+03   -0.34797E-05   -0.16643E-04 10720   0.151E-02    0.931E-02
DAV:  32    -0.885250938594E+03    0.31477E-05   -0.10255E-04  9744   0.112E-02    0.625E-02
DAV:  33    -0.885250934896E+03    0.36980E-05   -0.53122E-05  9400   0.555E-03    0.453E-02
DAV:  34    -0.885250931452E+03    0.34437E-05   -0.39883E-06  6584   0.279E-03    0.213E-02
DAV:  35    -0.885250930975E+03    0.47724E-06   -0.55372E-06  6352   0.208E-03
   1 F= -.88525093E+03 E0= -.88522293E+03  d E =-.559932E-01
