 vasp.5.4.4.18Apr17-6-g9f103f2a35 (build Oct 31 2019 15:01:46) complex          
  
 executed on             LinuxIFC date 2024.04.20  18:35:16
 running on   52 total cores
 distrk:  each k-point on   52 cores,    1 groups
 distr:  one band on NCORES_PER_BAND=  13 cores,    4 groups


--------------------------------------------------------------------------------------------------------


 INCAR:
 POTCAR:    PAW_PBE Sc_sv 07Sep2000               
 POTCAR:    PAW_PBE F 08Apr2002                   
 POTCAR:    PAW_PBE C 08Apr2002                   
 POTCAR:    PAW_PBE Sc_sv 07Sep2000               
   VRHFIN =Sc: 3p4s3d                                                           
   LEXCH  = PE                                                                  
   EATOM  =  1273.2868 eV,   93.5839 Ry                                         
                                                                                
   TITEL  = PAW_PBE Sc_sv 07Sep2000                                             
   LULTRA =        F    use ultrasoft PP ?                                      
   IUNSCR =        1    unscreen: 0-lin 1-nonlin 2-no                           
   RPACOR =    2.200    partial core radius                                     
   POMASS =   44.956; ZVAL   =   11.000    mass and valenz                      
   RCORE  =    2.500    outmost cutoff radius                                   
   RWIGS  =    2.700; RWIGS  =    1.429    wigner-seitz radius (au A)           
   ENMAX  =  222.660; ENMIN  =  166.995 eV                                      
   RCLOC  =    1.805    cutoff for local pot                                    
   LCOR   =        T    correct aug charges                                     
   LPAW   =        T    paw PP                                                  
   EAUG   =  443.063                                                            
   RMAX   =    2.551    core radius for proj-oper                               
   RAUG   =    1.300    factor for augmentation sphere                          
   RDEP   =    2.650    radius for radial grids                                 
   RDEPT  =    2.038    core radius for aug-charge                              
                                                                                
   Atomic configuration                                                         
    8 entries                                                                   
     n  l   j            E        occ.                                          
     1  0  0.50     -4394.2533   2.0000                                         
     2  0  0.50      -471.0040   2.0000                                         
     2  1  1.50      -384.9788   6.0000                                         
     3  0  0.50       -52.1410   2.0000                                         
     4  0  0.50        -3.5584   1.0000                                         
     3  1  1.50       -30.8841   6.0000                                         
     3  2  2.50        -1.3655   2.0000                                         
     4  3  2.50        -1.3606   0.0000                                         
   Description                                                                  
     l       E           TYP  RCUT    TYP  RCUT                                 
     0    -52.1409870     23  1.800                                             
     0     -3.5583698     23  2.500                                             
     1    -30.8840697     23  2.300                                             
     1      4.0817478     23  2.300                                             
     2     -1.3655397     23  2.500                                             
     2      0.3564476     23  2.500                                             
  local pseudopotential read in
  partial core-charges read in
  partial kinetic energy density read in
  atomic valenz-charges read in
  non local Contribution for L=           0  read in
    real space projection operators read in
  non local Contribution for L=           0  read in
    real space projection operators read in
  non local Contribution for L=           1  read in
    real space projection operators read in
  non local Contribution for L=           1  read in
    real space projection operators read in
  non local Contribution for L=           2  read in
    real space projection operators read in
  non local Contribution for L=           2  read in
    real space projection operators read in
    PAW grid and wavefunctions read in
 
   number of l-projection  operators is LMAX  =           6
   number of lm-projection operators is LMMAX =          18
 
 POTCAR:    PAW_PBE F 08Apr2002                   
   VRHFIN =F: s2p5                                                              
   LEXCH  = PE                                                                  
   EATOM  =   659.6475 eV,   48.4827 Ry                                         
                                                                                
   TITEL  = PAW_PBE F 08Apr2002                                                 
   LULTRA =        F    use ultrasoft PP ?                                      
   IUNSCR =        1    unscreen: 0-lin 1-nonlin 2-no                           
   RPACOR =    1.200    partial core radius                                     
   POMASS =   18.998; ZVAL   =    7.000    mass and valenz                      
   RCORE  =    1.520    outmost cutoff radius                                   
   RWIGS  =    1.500; RWIGS  =    0.794    wigner-seitz radius (au A)           
   ENMAX  =  400.000; ENMIN  =  300.000 eV                                      
   ICORE  =        2    local potential                                         
   LCOR   =        T    correct aug charges                                     
   LPAW   =        T    paw PP                                                  
   EAUG   =  613.614                                                            
   RMAX   =    1.555    core radius for proj-oper                               
   RAUG   =    1.300    factor for augmentation sphere                          
   RDEP   =    1.539    radius for radial grids                                 
   RDEPT  =    1.299    core radius for aug-charge                              
                                                                                
   Atomic configuration                                                         
    4 entries                                                                   
     n  l   j            E        occ.                                          
     1  0  0.50      -663.3661   2.0000                                         
     2  0  0.50       -29.8995   2.0000                                         
     2  1  0.50       -11.1114   5.0000                                         
     3  2  1.50       -10.8847   0.0000                                         
   Description                                                                  
     l       E           TYP  RCUT    TYP  RCUT                                 
     0    -29.8995018     23  1.200                                             
     0     -9.5240782     23  1.200                                             
     1    -11.1113914     23  1.520                                             
     1      1.3605826     23  1.520                                             
     2    -10.8846608      7  1.500                                             
  local pseudopotential read in
  partial core-charges read in
  partial kinetic energy density read in
  atomic valenz-charges read in
  non local Contribution for L=           0  read in
    real space projection operators read in
  non local Contribution for L=           0  read in
    real space projection operators read in
  non local Contribution for L=           1  read in
    real space projection operators read in
  non local Contribution for L=           1  read in
    real space projection operators read in
    PAW grid and wavefunctions read in
 
   number of l-projection  operators is LMAX  =           4
   number of lm-projection operators is LMMAX =           8
 
 POTCAR:    PAW_PBE C 08Apr2002                   
   VRHFIN =C: s2p2                                                              
   LEXCH  = PE                                                                  
   EATOM  =   147.1560 eV,   10.8157 Ry                                         
                                                                                
   TITEL  = PAW_PBE C 08Apr2002                                                 
   LULTRA =        F    use ultrasoft PP ?                                      
   IUNSCR =        1    unscreen: 0-lin 1-nonlin 2-no                           
   RPACOR =    1.200    partial core radius                                     
   POMASS =   12.011; ZVAL   =    4.000    mass and valenz                      
   RCORE  =    1.500    outmost cutoff radius                                   
   RWIGS  =    1.630; RWIGS  =    0.863    wigner-seitz radius (au A)           
   ENMAX  =  400.000; ENMIN  =  300.000 eV                                      
   ICORE  =        2    local potential                                         
   LCOR   =        T    correct aug charges                                     
   LPAW   =        T    paw PP                                                  
   EAUG   =  644.873                                                            
   DEXC   =    0.000                                                            
   RMAX   =    1.529    core radius for proj-oper                               
   RAUG   =    1.300    factor for augmentation sphere                          
   RDEP   =    1.501    radius for radial grids                                 
   RDEPT  =    1.300    core radius for aug-charge                              
                                                                                
   Atomic configuration                                                         
    4 entries                                                                   
     n  l   j            E        occ.                                          
     1  0  0.50      -273.3789   2.0000                                         
     2  0  0.50       -13.7508   2.0000                                         
     2  1  0.50        -5.2854   2.0000                                         
     3  2  1.50        -5.4423   0.0000                                         
   Description                                                                  
     l       E           TYP  RCUT    TYP  RCUT                                 
     0    -13.7508458     23  1.200                                             
     0     -8.2022199     23  1.200                                             
     1     -5.2854383     23  1.500                                             
     1     34.0145650     23  1.500                                             
     2     -5.4423304      7  1.500                                             
  local pseudopotential read in
  partial core-charges read in
  partial kinetic energy density read in
  atomic valenz-charges read in
  non local Contribution for L=           0  read in
    real space projection operators read in
  non local Contribution for L=           0  read in
    real space projection operators read in
  non local Contribution for L=           1  read in
    real space projection operators read in
  non local Contribution for L=           1  read in
    real space projection operators read in
    PAW grid and wavefunctions read in
 
   number of l-projection  operators is LMAX  =           4
   number of lm-projection operators is LMMAX =           8
 
 Optimization of the real space projectors (new method)

 maximal supplied QI-value         = 15.12
 optimisation between [QCUT,QGAM] = [ 12.55, 25.10] = [ 44.09,176.36] Ry 
 Optimized for a Real-space Cutoff    1.56 Angstroem

   l    n(q)    QCUT    max X(q) W(low)/X(q) W(high)/X(q)  e(spline) 
   0     12    12.548     2.962    0.12E-05    0.11E-06    0.46E-07
   0     12    12.548    26.414    0.30E-04    0.15E-05    0.76E-07
   1     11    12.548     3.969    0.45E-05    0.12E-05    0.60E-07
   1     11    12.548     5.137    0.15E-04    0.18E-04    0.36E-06
   2     11    12.548   143.970    0.20E-03    0.19E-03    0.76E-06
   2     11    12.548   121.201    0.20E-03    0.19E-03    0.76E-06
 Optimization of the real space projectors (new method)

 maximal supplied QI-value         = 24.76
 optimisation between [QCUT,QGAM] = [ 12.38, 25.00] = [ 42.90,175.06] Ry 
 Optimized for a Real-space Cutoff    1.16 Angstroem

   l    n(q)    QCUT    max X(q) W(low)/X(q) W(high)/X(q)  e(spline) 
   0      9    12.378    14.049    0.11E-03    0.38E-05    0.23E-06
   0      9    12.378     8.945    0.15E-03    0.56E-05    0.30E-06
   1      8    12.378     7.086    0.18E-03    0.14E-03    0.29E-06
   1      8    12.378     6.747    0.16E-03    0.13E-03    0.26E-06
 Optimization of the real space projectors (new method)

 maximal supplied QI-value         = 25.13
 optimisation between [QCUT,QGAM] = [ 12.32, 24.88] = [ 42.47,173.37] Ry 
 Optimized for a Real-space Cutoff    1.16 Angstroem

   l    n(q)    QCUT    max X(q) W(low)/X(q) W(high)/X(q)  e(spline) 
   0      9    12.315   115.676    0.19E-03    0.80E-05    0.34E-06
   0      9    12.315    87.132    0.19E-03    0.82E-05    0.34E-06
   1      8    12.315     4.429    0.18E-03    0.13E-03    0.22E-06
   1      8    12.315     2.733    0.14E-03    0.10E-03    0.18E-06
  PAW_PBE Sc_sv 07Sep2000               :
 energy of atom  1       EATOM=-1273.2868
 kinetic energy error for atom=    0.0014 (will be added to EATOM!!)
  PAW_PBE F 08Apr2002                   :
 energy of atom  2       EATOM= -659.6475
 kinetic energy error for atom=    0.0256 (will be added to EATOM!!)
  PAW_PBE C 08Apr2002                   :
 energy of atom  3       EATOM= -147.1560
 kinetic energy error for atom=    0.0057 (will be added to EATOM!!)
 
 
 POSCAR: Sc  F  C                                
  positions in cartesian coordinates
  No initial velocities read in
 exchange correlation table for  LEXCH =        8
   RHO(1)=    0.500       N(1)  =     2000
   RHO(2)=  100.500       N(2)  =     4000
 


--------------------------------------------------------------------------------------------------------


 ion  position               nearest neighbor table
   1  0.087  0.160  0.454-  65 2.12  70 2.14  49 2.28  66 2.30  61 2.40   4 3.11  17 3.13  18 3.18
                             5 3.23  16 3.25  29 3.26   6 3.36  13 3.37   2 3.41
   2  0.083  0.417  0.457-  66 2.15  51 2.17  62 2.18  71 2.20  67 2.31  50 2.35  30 3.02  18 3.10
                            19 3.18   6 3.19   7 3.23  13 3.24   3 3.25  14 3.27   1 3.41
   3  0.086  0.667  0.456-  72 2.06  67 2.18  51 2.19  52 2.31  63 2.31  68 2.32  20 3.13  31 3.14
                             7 3.16  14 3.21   8 3.21  19 3.23   2 3.25  15 3.30   4 3.37
   4  0.077  0.919  0.449-  49 2.08  65 2.17  64 2.24  52 2.24  68 2.32  69 2.41   1 3.11  32 3.22
                            20 3.22  15 3.23  17 3.24  16 3.28   5 3.28   8 3.30   3 3.37
   5  0.333  0.162  0.445-  54 2.08  53 2.11  49 2.20  74 2.36  69 2.40  70 2.52  22 3.17   9 3.18
                             8 3.20   1 3.23  17 3.26   4 3.28  21 3.28  10 3.39
   6  0.329  0.427  0.447-  55 2.08  50 2.11  54 2.26  75 2.38  71 2.38  70 2.43  23 3.13  22 3.15
                             7 3.16   2 3.19  18 3.23  11 3.28   1 3.36
   7  0.326  0.665  0.456-  51 2.11  72 2.16  71 2.20  56 2.26  55 2.33  76 2.34  23 3.09  19 3.11
                             3 3.16   6 3.16  24 3.18   2 3.23   8 3.28  12 3.34
   8  0.327  0.916  0.454-  69 2.15  53 2.23  73 2.24  72 2.29  52 2.35  56 2.37  21 3.10  20 3.17
                             5 3.20   3 3.21   9 3.22  24 3.22   7 3.28   4 3.30  12 3.40
   9  0.574  0.159  0.452-  74 2.17  53 2.18  73 2.22  58 2.29  57 2.43  78 2.55   5 3.18   8 3.22
                            25 3.22  21 3.23  26 3.26  10 3.29  12 3.30  13 3.37
  10  0.592  0.419  0.454-  59 2.16  58 2.19  79 2.23  75 2.30  74 2.40  54 2.51  22 2.84  27 3.17
                            26 3.17  14 3.20  15 3.24  11 3.25   9 3.29   5 3.39
  11  0.588  0.664  0.456-  75 2.17  80 2.17  60 2.23  59 2.30  55 2.31  76 2.34  27 3.00  28 3.07
                            23 3.11  15 3.22  10 3.25   6 3.28  16 3.29  12 3.31
  12  0.585  0.914  0.450-  57 2.06  60 2.17  56 2.18  77 2.36  76 2.37  73 2.45  16 3.17  24 3.21
                            28 3.26   9 3.30  11 3.31  13 3.33   7 3.34  25 3.34   8 3.40
  13  0.836  0.171  0.454-  57 2.08  78 2.24  62 2.28  61 2.28  66 2.34  77 2.56  25 3.15  29 3.16
                            30 3.19  16 3.22   2 3.24  14 3.33  12 3.33   1 3.37   9 3.37
  14  0.839  0.426  0.450-  63 1.98  62 2.12  79 2.18  78 2.32  58 2.41  67 2.45  10 3.20  15 3.20
                             3 3.21  31 3.25   2 3.27  26 3.29  30 3.29  13 3.33
  15  0.836  0.668  0.453-  64 2.10  80 2.21  68 2.29  79 2.36  59 2.51  31 3.19  14 3.20  27 3.22
                            11 3.22   4 3.23  10 3.24  32 3.26   3 3.30  16 3.38
  16  0.830  0.923  0.457-  77 2.13  60 2.22  80 2.25  61 2.26  64 2.29  65 2.45  29 3.01  28 3.12
                            12 3.17  32 3.22  13 3.22   1 3.25   4 3.28  11 3.29  15 3.38
  17  0.178  0.085  0.547-  37 1.94  65 2.19  69 2.24  70 2.31  36 2.32  33 2.47  21 3.01   1 3.13
                            20 3.13   4 3.24   5 3.26  32 3.26  18 3.31  22 3.36
  18  0.172  0.334  0.547-  34 2.10  70 2.16  66 2.22  33 2.25  38 2.26  71 2.29   2 3.10   1 3.18
                            23 3.19   6 3.23  30 3.25  19 3.28  17 3.31  22 3.34  29 3.43
  19  0.172  0.583  0.552-  34 2.11  71 2.17  67 2.23  39 2.32  72 2.33  35 2.40   7 3.11   2 3.18
                            30 3.21  23 3.21   3 3.23  18 3.28  31 3.33  24 3.35  20 3.42
  20  0.156  0.836  0.548-  40 2.12  68 2.14  36 2.15  69 2.24  35 2.24  72 2.42  32 3.07   3 3.13
                            17 3.13  31 3.15   8 3.17  21 3.19   4 3.22  19 3.42
  21  0.403  0.076  0.548-  40 2.09  69 2.14  37 2.23  74 2.25  73 2.27  41 2.42  17 3.01   8 3.10
                            20 3.19   9 3.23  24 3.27   5 3.28  22 3.36  26 3.41
  22  0.429  0.343  0.534-  75 2.06  42 2.20  74 2.20  38 2.27  37 2.31  70 2.34  10 2.84  27 3.14
                             6 3.15   5 3.17  23 3.21  26 3.24  18 3.34  21 3.36  17 3.36
  23  0.413  0.578  0.544-  76 2.23  71 2.23  75 2.24  38 2.32  39 2.40  43 2.58   7 3.09  11 3.11
                             6 3.13  18 3.19  27 3.19  22 3.21  19 3.21  28 3.23  24 3.36
  24  0.426  0.840  0.549-  44 2.15  39 2.17  76 2.24  73 2.26  72 2.53  40 2.60   7 3.18  12 3.21
                            28 3.21   8 3.22  21 3.27  25 3.30  19 3.35  23 3.36
  25  0.674  0.094  0.549-  45 2.01  41 2.21  78 2.30  44 2.33  77 2.37  73 2.45  26 3.14  13 3.15
                            29 3.17   9 3.22  30 3.28  24 3.30  12 3.34
  26  0.668  0.329  0.549-  41 1.98  42 2.11  46 2.18  79 2.27  78 2.28  74 2.37  25 3.14  10 3.17
                            22 3.24   9 3.26  14 3.29  30 3.34  31 3.38  21 3.41  27 3.42
  27  0.660  0.587  0.548-  43 2.00  47 2.15  75 2.26  80 2.30  42 2.37  79 2.48  11 3.00  28 3.09
                            22 3.14  10 3.17  23 3.19  15 3.22  32 3.41  31 3.42  26 3.42
  28  0.661  0.822  0.548-  43 2.08  77 2.15  76 2.20  48 2.30  80 2.31  44 2.44  11 3.07  27 3.09
                            16 3.12  24 3.21  23 3.23  12 3.26  29 3.29  32 3.35
  29  0.906  0.077  0.548-  33 2.13  45 2.15  77 2.17  48 2.31  66 2.44  65 2.46  16 3.01  13 3.16
                            25 3.17  32 3.23   1 3.26  28 3.29  30 3.33  18 3.43
  30  0.927  0.340  0.548-  46 2.16  34 2.22  78 2.24  67 2.30  66 2.33  45 2.36   2 3.02  13 3.19
                            19 3.21  18 3.25  25 3.28  14 3.29  31 3.31  29 3.33  26 3.34
  31  0.922  0.590  0.550-  35 2.20  67 2.22  47 2.24  68 2.29  79 2.34  46 2.52   3 3.14  20 3.15
                            15 3.19  14 3.25  32 3.27  30 3.31  19 3.33  26 3.38  27 3.42
  32  0.925  0.841  0.550-  36 2.15  68 2.26  47 2.26  48 2.27  65 2.35  80 2.44  20 3.07   4 3.22
                            16 3.22  29 3.23  15 3.26  17 3.26  31 3.27  28 3.35  27 3.41
  33  0.067  0.165  0.589-  29 2.13  18 2.25  17 2.47
  34  0.099  0.418  0.588-  18 2.10  19 2.11  30 2.22
  35  0.081  0.676  0.597-  31 2.20  20 2.24  19 2.40
  36  0.082  0.915  0.595-  32 2.15  20 2.15  17 2.32
  37  0.325  0.176  0.583-  17 1.94  21 2.23  22 2.31
  38  0.342  0.405  0.590-  18 2.26  22 2.27  23 2.32
  39  0.348  0.685  0.596-  24 2.17  19 2.32  23 2.40
  40  0.309  0.927  0.592-  21 2.09  20 2.12  24 2.60
  41  0.592  0.182  0.589-  26 1.98  25 2.21  21 2.42
  42  0.577  0.401  0.587-  26 2.11  22 2.20  27 2.37
  43  0.609  0.674  0.593-  27 2.00  28 2.08  23 2.58
  44  0.578  0.922  0.596-  24 2.15  25 2.33  28 2.44
  45  0.823  0.156  0.589-  25 2.01  29 2.15  30 2.36
  46  0.827  0.394  0.594-  30 2.16  26 2.18  31 2.52
  47  0.823  0.664  0.589-  27 2.15  31 2.24  32 2.26
  48  0.827  0.909  0.597-  32 2.27  28 2.30  29 2.31
  49  0.162  0.070  0.406-   4 2.08   5 2.20   1 2.28
  50  0.180  0.358  0.400-   6 2.11   2 2.35
  51  0.168  0.581  0.415-   7 2.11   2 2.17   3 2.19
  52  0.156  0.831  0.405-   4 2.24   3 2.31   8 2.35
  53  0.412  0.077  0.407-   5 2.11   9 2.18   8 2.23
  54  0.399  0.322  0.408-   5 2.08   6 2.26  10 2.51
  55  0.418  0.586  0.409-   6 2.08  11 2.31   7 2.33
  56  0.420  0.830  0.409-  12 2.18   7 2.26   8 2.37
  57  0.681  0.073  0.414-  12 2.06  13 2.08   9 2.43
  58  0.656  0.329  0.405-  10 2.19   9 2.29  14 2.41
  59  0.649  0.566  0.403-  10 2.16  11 2.30  15 2.51
  60  0.668  0.830  0.411-  12 2.17  16 2.22  11 2.23
  61  0.910  0.080  0.405-  16 2.26  13 2.28   1 2.40
  62  0.922  0.346  0.413-  14 2.12   2 2.18  13 2.28
  63  0.930  0.556  0.403-  14 1.98   3 2.31
  64  0.901  0.824  0.412-  15 2.10   4 2.24  16 2.29
  65  0.020  0.009  0.500-   1 2.12   4 2.17  17 2.19  32 2.35  16 2.45  29 2.46
  66  0.012  0.257  0.499-   2 2.15  18 2.22   1 2.30  30 2.33  13 2.34  29 2.44
  67  0.011  0.515  0.505-   3 2.18  31 2.22  19 2.23  30 2.30   2 2.31  14 2.45
  68  0.002  0.756  0.501-  20 2.14  32 2.26  31 2.29  15 2.29   3 2.32   4 2.32
  69  0.252  0.996  0.500-  21 2.14   8 2.15  20 2.24  17 2.24   5 2.40   4 2.41
  70  0.241  0.251  0.499-   1 2.14  18 2.16  17 2.31  22 2.34   6 2.43   5 2.52
  71  0.244  0.505  0.502-  19 2.17   7 2.20   2 2.20  23 2.23  18 2.29   6 2.38
  72  0.239  0.742  0.497-   3 2.06   7 2.16   8 2.29  19 2.33  20 2.42  24 2.53
  73  0.492  0.001  0.500-   9 2.22   8 2.24  24 2.26  21 2.27  25 2.45  12 2.45
  74  0.496  0.236  0.499-   9 2.17  22 2.20  21 2.25   5 2.36  26 2.37  10 2.40
  75  0.500  0.502  0.498-  22 2.06  11 2.17  23 2.24  27 2.26  10 2.30   6 2.38
  76  0.500  0.748  0.503-  28 2.20  23 2.23  24 2.24   7 2.34  11 2.34  12 2.37
  77  0.744  0.983  0.506-  16 2.13  28 2.15  29 2.17  12 2.36  25 2.37  13 2.56
  78  0.765  0.262  0.501-  30 2.24  13 2.24  26 2.28  25 2.30  14 2.32   9 2.55
  79  0.754  0.493  0.500-  14 2.18  10 2.23  26 2.27  31 2.34  15 2.36  27 2.48
  80  0.752  0.749  0.497-  11 2.17  15 2.21  16 2.25  27 2.30  28 2.31  32 2.44
 
  LATTYP: Found a hexagonal cell.
 ALAT       =    13.1286233990
 C/A-ratio  =     2.0434811347
  
  Lattice vectors:
  
 A1 = (  13.1286234000,   0.0000000000,   0.0000000000)
 A2 = (  -6.5643117000,  11.3697213800,   0.0000000000)
 A3 = (   0.0000000000,   0.0000000000,  26.8280942400)


Analysis of symmetry for initial positions (statically):
=====================================================================
 Subroutine PRICEL returns:
 Original cell was already a primitive cell.
 

 Routine SETGRP: Setting up the symmetry group for a 
 hexagonal supercell.


 Subroutine GETGRP returns: Found  1 space group operations
 (whereof  1 operations were pure point group operations)
 out of a pool of 24 trial point group operations.


The static configuration has the point symmetry C_1 .


Analysis of symmetry for dynamics (positions and initial velocities):
=====================================================================
 Subroutine PRICEL returns:
 Original cell was already a primitive cell.
 

 Routine SETGRP: Setting up the symmetry group for a 
 hexagonal supercell.


 Subroutine GETGRP returns: Found  1 space group operations
 (whereof  1 operations were pure point group operations)
 out of a pool of 24 trial point group operations.


The dynamic configuration has the point symmetry C_1 .


 Subroutine INISYM returns: Found  1 space group operations
 (whereof  1 operations are pure point group operations),
 and found     1 'primitive' translations

 
 

Automatic generation of k-mesh.
 generate k-points for:    3    3    1
Space group operators:
 irot       det(A)        alpha          n_x          n_y          n_z        tau_x        tau_y        tau_z
    1     1.000000     0.000000     1.000000     0.000000     0.000000     0.000000     0.000000     0.000000
 
 Subroutine IBZKPT returns following result:
 ===========================================
 
 Found      5 irreducible k-points:
 
 Following reciprocal coordinates:
            Coordinates               Weight
  0.000000  0.000000  0.000000      1.000000
  0.333333 -0.000000  0.000000      2.000000
  0.000000  0.333333  0.000000      2.000000
  0.333333  0.333333  0.000000      2.000000
 -0.333333  0.333333  0.000000      2.000000
 
 Following cartesian coordinates:
            Coordinates               Weight
  0.000000  0.000000  0.000000      1.000000
  0.025390  0.014659  0.000000      2.000000
  0.000000  0.029318  0.000000      2.000000
  0.025390  0.043976  0.000000      2.000000
 -0.025390  0.014659  0.000000      2.000000
 


--------------------------------------------------------------------------------------------------------




 Dimension of arrays:
   k-points           NKPTS =      5   k-points in BZ     NKDIM =      5   number of bands    NBANDS=    384
   number of dos      NEDOS =    301   number of ions     NIONS =     80
   non local maximal  LDIM  =      6   non local SUM 2l+1 LMDIM =     18
   total plane-waves  NPLWV = ******
   max r-space proj   IRMAX =  10060   max aug-charges    IRDMAX= 222480
   dimension x,y,z NGX =   108 NGY =  108 NGZ =  216
   dimension x,y,z NGXF=   216 NGYF=  216 NGZF=  432
   support grid    NGXF=   432 NGYF=  432 NGZF=  864
   ions per type =              32  32  16
   NGX,Y,Z   is equivalent  to a cutoff of  13.68, 13.68, 13.38 a.u.
   NGXF,Y,Z  is equivalent  to a cutoff of  27.35, 27.35, 26.77 a.u.

 SYSTEM =  unknown system                          
 POSCAR =  Sc  F  C                                

 Startparameter for this run:
   NWRITE =      2    write-flag & timer
   PREC   = anorma    normal or accurate (medium, high low for compatibility)
   ISTART =      0    job   : 0-new  1-cont  2-samecut
   ICHARG =      2    charge: 1-file 2-atom 10-const
   ISPIN  =      1    spin polarized calculation?
   LNONCOLLINEAR =      F non collinear calculations
   LSORBIT =      F    spin-orbit coupling
   INIWAV =      1    electr: 0-lowe 1-rand  2-diag
   LASPH  =      F    aspherical Exc in radial PAW
   METAGGA=      F    non-selfconsistent MetaGGA calc.

 Electronic Relaxation 1
   ENCUT  =  600.0 eV  44.10 Ry    6.64 a.u.  26.22 26.22 53.58*2*pi/ulx,y,z
   ENINI  =  600.0     initial cutoff
   ENAUG  =  644.9 eV  augmentation charge cutoff
   NELM   =     60;   NELMIN=  2; NELMDL= -5     # of ELM steps 
   EDIFF  = 0.1E-05   stopping-criterion for ELM
   LREAL  =      T    real-space projection
   NLSPLINE    = F    spline interpolate recip. space projectors
   LCOMPAT=      F    compatible to vasp.4.4
   GGA_COMPAT  = T    GGA compatible to vasp.4.4-vasp.4.6
   LMAXPAW     = -100 max onsite density
   LMAXMIX     =    2 max onsite mixed and CHGCAR
   VOSKOWN=      0    Vosko Wilk Nusair interpolation
   ROPT   =   -0.00025  -0.00025  -0.00025
 Ionic relaxation
   EDIFFG = -.1E-01   stopping-criterion for IOM
   NSW    =      1    number of steps for IOM
   NBLOCK =      1;   KBLOCK =      1    inner block; outer block 
   IBRION =     -1    ionic relax: 0-MD 1-quasi-New 2-CG
   NFREE  =      0    steps in history (QN), initial steepest desc. (CG)
   ISIF   =      2    stress and relaxation
   IWAVPR =     10    prediction:  0-non 1-charg 2-wave 3-comb
   ISYM   =      2    0-nonsym 1-usesym 2-fastsym
   LCORR  =      T    Harris-Foulkes like correction to forces

   POTIM  = 1.0000    time-step for ionic-motion
   TEIN   =    0.0    initial temperature
   TEBEG  =    0.0;   TEEND  =   0.0 temperature during run
   SMASS  =  -3.00    Nose mass-parameter (am)
   estimated Nose-frequenzy (Omega)   =  0.10E-29 period in steps =****** mass=  -0.394E-26a.u.
   SCALEE = 1.0000    scale energy and forces
   NPACO  =    256;   APACO  = 16.0  distance and # of slots for P.C.
   PSTRESS=    0.0 pullay stress

  Mass of Ions in am
   POMASS =  44.96 19.00 12.01
  Ionic Valenz
   ZVAL   =  11.00  7.00  4.00
  Atomic Wigner-Seitz radii
   RWIGS  =  -1.00 -1.00 -1.00
  virtual crystal weights 
   VCA    =   1.00  1.00  1.00
   NELECT =     640.0000    total number of electrons
   NUPDOWN=      -1.0000    fix difference up-down

 DOS related values:
   EMIN   =  10.00;   EMAX   =-10.00  energy-range for DOS
   EFERMI =   0.00
   ISMEAR =     0;   SIGMA  =   0.05  broadening in eV -4-tet -1-fermi 0-gaus

 Electronic relaxation 2 (details)
   IALGO  =     38    algorithm
   LDIAG  =      T    sub-space diagonalisation (order eigenvalues)
   LSUBROT=      F    optimize rotation matrix (better conditioning)
   TURBO    =      0    0=normal 1=particle mesh
   IRESTART =      0    0=no restart 2=restart with 2 vectors
   NREBOOT  =      0    no. of reboots
   NMIN     =      0    reboot dimension
   EREF     =   0.00    reference energy to select bands
   IMIX   =      4    mixing-type and parameters
     AMIX     =   0.40;   BMIX     =  1.00
     AMIX_MAG =   1.60;   BMIX_MAG =  1.00
     AMIN     =   0.10
     WC   =   100.;   INIMIX=   1;  MIXPRE=   1;  MAXMIX= -45

 Intra band minimization:
   WEIMIN = 0.0000     energy-eigenvalue tresh-hold
   EBREAK =  0.65E-09  absolut break condition
   DEPER  =   0.30     relativ break condition  

   TIME   =   0.40     timestep for ELM

  volume/ion in A,a.u.               =      50.06       337.80
  Fermi-wavevector in a.u.,A,eV,Ry     =   0.888414  1.678858 10.738790  0.789279
  Thomas-Fermi vector in A             =   2.009840
 
 Write flags
   LWAVE        =      F    write WAVECAR
   LDOWNSAMPLE  =      F    k-point downsampling of WAVECAR
   LCHARG       =      F    write CHGCAR
   LVTOT        =      F    write LOCPOT, total local potential
   LVHAR        =      F    write LOCPOT, Hartree potential only
   LELF         =      F    write electronic localiz. function (ELF)
   LORBIT       =      0    0 simple, 1 ext, 2 COOP (PROOUT), +10 PAW based schemes


 Dipole corrections
   LMONO  =      F    monopole corrections only (constant potential shift)
   LDIPOL =      F    correct potential (dipole corrections)
   IDIPOL =      0    1-x, 2-y, 3-z, 4-all directions 
   EPSILON=  1.0000000 bulk dielectric constant

 Exchange correlation treatment:
   GGA     =    --    GGA type
   LEXCH   =     8    internal setting for exchange type
   VOSKOWN=      0    Vosko Wilk Nusair interpolation
   LHFCALC =     F    Hartree Fock is set to
   LHFONE  =     F    Hartree Fock one center treatment
   AEXX    =    0.0000 exact exchange contribution

 Linear response parameters
   LEPSILON=     F    determine dielectric tensor
   LRPA    =     F    only Hartree local field effects (RPA)
   LNABLA  =     F    use nabla operator in PAW spheres
   LVEL    =     F    velocity operator in full k-point grid
   LINTERFAST=   F  fast interpolation
   KINTER  =     0    interpolate to denser k-point grid
   CSHIFT  =0.1000    complex shift for real part using Kramers Kronig
   OMEGAMAX=  -1.0    maximum frequency
   DEG_THRESHOLD= 0.2000000E-02 threshold for treating states as degnerate
   RTIME   =   -0.100 relaxation time in fs
  (WPLASMAI=    0.000 imaginary part of plasma frequency in eV, 0.658/RTIME)
   DFIELD  = 0.0000000 0.0000000 0.0000000 field for delta impulse in time
 
 Orbital magnetization related:
   ORBITALMAG=     F  switch on orbital magnetization
   LCHIMAG   =     F  perturbation theory with respect to B field
   DQ        =  0.001000  dq finite difference perturbation B field
   LLRAUG    =     F  two centre corrections for induced B field



--------------------------------------------------------------------------------------------------------


 Static calculation
 charge density and potential will be updated during run
 non-spin polarized calculation
 Variant of blocked Davidson
 Davidson routine will perform the subspace rotation
 perform sub-space diagonalisation
    after iterative eigenvector-optimisation
 modified Broyden-mixing scheme, WC =      100.0
 initial mixing is a Kerker type mixing with AMIX =  0.4000 and BMIX =      1.0000
 Hartree-type preconditioning will be used
 using additional bands           64
 real space projection scheme for non local part
 use partial core corrections
 calculate Harris-corrections to forces 
   (improved forces if not selfconsistent)
 use gradient corrections 
 use of overlap-Matrix (Vanderbilt PP)
 Gauss-broadening in eV      SIGMA  =   0.05


--------------------------------------------------------------------------------------------------------


  energy-cutoff  :      600.00
  volume of cell :     4004.60
      direct lattice vectors                 reciprocal lattice vectors
    13.128623400  0.000000000  0.000000000     0.076169448  0.043976451  0.000000000
    -6.564311700 11.369721380  0.000000000     0.000000000  0.087952903  0.000000000
     0.000000000  0.000000000 26.828094240     0.000000000  0.000000000  0.037274358

  length of vectors
    13.128623400 13.128623399 26.828094240     0.087952903  0.087952903  0.037274358


 
 k-points in units of 2pi/SCALE and weight: read from INCAR                         
   0.00000000  0.00000000  0.00000000       0.111
   0.02538982  0.01465882  0.00000000       0.222
   0.00000000  0.02931763  0.00000000       0.222
   0.02538982  0.04397645  0.00000000       0.222
  -0.02538982  0.01465882  0.00000000       0.222
 
 k-points in reciprocal lattice and weights: read from INCAR                         
   0.00000000  0.00000000  0.00000000       0.111
   0.33333333 -0.00000000  0.00000000       0.222
   0.00000000  0.33333333  0.00000000       0.222
   0.33333333  0.33333333  0.00000000       0.222
  -0.33333333  0.33333333  0.00000000       0.222
 
 position of ions in fractional coordinates (direct lattice) 
   0.08678585  0.15979277  0.45389779
   0.08261288  0.41728558  0.45716106
   0.08637883  0.66703717  0.45572150
   0.07697521  0.91869264  0.44921236
   0.33311709  0.16162321  0.44453746
   0.32909069  0.42665960  0.44679227
   0.32599865  0.66530497  0.45641443
   0.32691895  0.91592562  0.45432068
   0.57366980  0.15947784  0.45151453
   0.59161466  0.41857224  0.45388060
   0.58817162  0.66407483  0.45556960
   0.58513734  0.91419808  0.45000509
   0.83588064  0.17095505  0.45370948
   0.83877378  0.42621340  0.45046418
   0.83552670  0.66832169  0.45346767
   0.83002348  0.92288525  0.45695139
   0.17791527  0.08465115  0.54684638
   0.17170724  0.33391937  0.54684520
   0.17216890  0.58344327  0.55223454
   0.15624206  0.83576884  0.54762375
   0.40251296  0.07608109  0.54769780
   0.42935916  0.34275075  0.53447414
   0.41320852  0.57764478  0.54445135
   0.42553767  0.83958547  0.54868869
   0.67358527  0.09372871  0.54866371
   0.66750043  0.32947526  0.54910654
   0.66041307  0.58661672  0.54767526
   0.66110001  0.82211151  0.54821010
   0.90645019  0.07702087  0.54836143
   0.92699301  0.34019490  0.54836823
   0.92224002  0.58991471  0.54979218
   0.92505901  0.84059326  0.55039244
   0.06667933  0.16517264  0.58928090
   0.09866206  0.41785168  0.58765242
   0.08140862  0.67594922  0.59662765
   0.08228874  0.91494633  0.59461040
   0.32451574  0.17600073  0.58257209
   0.34201502  0.40477443  0.59000705
   0.34844453  0.68466135  0.59566087
   0.30925031  0.92668191  0.59205853
   0.59189488  0.18229455  0.58869309
   0.57662008  0.40050161  0.58714859
   0.60925294  0.67421989  0.59250896
   0.57837313  0.92172660  0.59569990
   0.82260465  0.15631911  0.58883963
   0.82650175  0.39445061  0.59386224
   0.82295285  0.66442970  0.58892045
   0.82730007  0.90892978  0.59691091
   0.16227451  0.07038099  0.40582967
   0.17959872  0.35762272  0.40049994
   0.16801815  0.58087623  0.41533120
   0.15582984  0.83050137  0.40492151
   0.41236915  0.07718796  0.40739212
   0.39891662  0.32168628  0.40794950
   0.41778111  0.58572937  0.40882425
   0.41964689  0.82955251  0.40929866
   0.68065357  0.07269925  0.41366999
   0.65601687  0.32853032  0.40522304
   0.64875956  0.56562357  0.40348087
   0.66797027  0.82963590  0.41109770
   0.91006097  0.08019751  0.40528738
   0.92249370  0.34600989  0.41263005
   0.92995642  0.55591493  0.40307797
   0.90113810  0.82401254  0.41195804
   0.02010123  0.00873759  0.49996807
   0.01211627  0.25679635  0.49903198
   0.01123002  0.51451430  0.50496609
   0.00236480  0.75615861  0.50146857
   0.25173218  0.99599788  0.49982284
   0.24144460  0.25122711  0.49873647
   0.24433764  0.50536904  0.50233029
   0.23882819  0.74165906  0.49717171
   0.49171935  0.00103911  0.50003464
   0.49604978  0.23628472  0.49908118
   0.50020927  0.50161258  0.49756019
   0.49961999  0.74795148  0.50347894
   0.74441285  0.98322283  0.50618349
   0.76492120  0.26169940  0.50115989
   0.75389380  0.49271947  0.50024244
   0.75165315  0.74929325  0.49707039
 
 position of ions in cartesian coordinates  (Angst):
   0.09044924  1.81679923 12.17721273
  -1.65459921  4.74442079 12.26476011
  -3.24460475  7.58402682 12.22613934
  -5.02000625 10.44527932 12.05151148
   3.31242368  1.83761084 11.92609278
   1.51978111  4.85100077 11.98658504
  -0.08735573  7.56433214 12.24472926
  -1.72042545 10.41381914 12.18855804
   6.48463245  1.81321864 12.11327429
   5.01944746  4.75904969 12.17675139
   3.36268957  7.55034576 12.22206419
   1.68096664 10.39417740 12.07277891
   9.85175996  1.94371126 12.17216072
   8.21414748  4.84592759 12.08509554
   6.58224341  7.59863146 12.16567328
   4.83895918 10.49294821 12.25913505
   1.78010595  0.96246004 14.67084629
   0.06232891  3.79657021 14.67081450
  -1.56956280  6.63358745 14.81540031
  -3.43500398  9.50245887 14.69170151
   4.78502110  0.86502077 14.69368820
   3.38697197  3.89698054 14.33892265
   1.63301863  6.56766023 14.60659213
   0.07542304  9.54585291 14.72027178
   8.22798287  1.06566932 14.71960160
   6.60058340  3.74604194 14.73148201
   4.81957948  6.66966867 14.69308338
   3.28273683  9.34717885 14.70743214
  11.39485425  0.87570580 14.71149205
   9.93699682  3.86792119 14.71167446
   8.23535784  6.70716587 14.74987642
   6.62683517  9.55731116 14.76598024
  -0.20883683  1.87796690 15.80928360
  -1.44761172  4.75085722 15.76559439
  -3.36835824  7.68535433 16.00638270
  -4.92565508 10.40268484 15.95226389
   3.10512122  2.00107930 15.62929901
   1.83312085  4.60217248 15.82876477
   0.08026656  7.78440874 15.98044583
  -2.02299805 10.53611512 15.88380193
   6.57412674  2.07263823 15.79351381
   4.94121048  4.55359176 15.75207770
   3.57286295  7.66569225 15.89588624
   1.54274225 10.47977463 15.98149295
   9.77353925  1.77730475 15.79744497
   8.26153340  4.48479359 15.93219227
   6.44271446  7.55438053 15.79961329
   4.89481265 10.33427832 16.01398225
   1.66843812  0.80021229 10.88763654
   0.01033690  4.06607070 10.74465015
  -1.60720556  6.60440084 11.14254447
  -3.40583862  9.44256916 10.86327230
   4.90715348  0.87760562 10.92955423
   3.12557703  3.65748342 10.94450761
   1.63998072  6.65957978 10.96797560
   0.06394471  9.43178093 10.98070310
   8.45882383  0.82657018 11.09797757
   6.45602303  3.73529823 10.87136198
   4.80439056  6.43098237 10.82462292
   3.32354148  9.43272906 11.02896795
  11.42140626  0.91182340 10.87308801
   9.83975562  3.93403600 11.07007800
   8.55984871  6.32059783 10.81381364
   6.42162754  9.36879298 11.05204904
   0.20654517  0.09934400 13.41319061
  -1.52662135  2.91970299 13.38807692
  -3.22999759  5.84988427 13.54727793
  -4.93261428  8.59731273 13.45344603
  -3.23314354 11.32421838 13.40929424
   1.52070215  2.85638230 13.38014915
  -0.10958297  5.74590515 13.47656445
  -1.73299591  8.43245686 13.33816957
   6.44877719  0.01181437 13.41497633
   4.96140415  2.68649141 13.38939697
   3.27431780  5.70319522 13.34859155
   1.64953600  8.50399991 13.50738032
   3.31893484 11.17896966 13.57993837
   8.32448595  2.97544922 13.44516470
   6.66322357  5.60208307 13.42055141
   4.94957667  8.51925552 13.33545132
 


--------------------------------------------------------------------------------------------------------


 k-point  1 :   0.0000 0.0000 0.0000  plane waves:  133769
 k-point  2 :   0.3333-0.0000 0.0000  plane waves:  133588
 k-point  3 :   0.0000 0.3333 0.0000  plane waves:  133588
 k-point  4 :   0.3333 0.3333 0.0000  plane waves:  133608
 k-point  5 :  -0.3333 0.3333 0.0000  plane waves:  133588

 maximum and minimum number of plane-waves per node :     10323    10242

 maximum number of plane-waves:    133769
 maximum index in each direction: 
   IXMAX=   26   IYMAX=   26   IZMAX=   53
   IXMIN=  -26   IYMIN=  -26   IZMIN=  -53


 real space projection operators:
  total allocation   :      55709.08 KBytes
  max/ min on nodes  :       4726.16       4031.41


 parallel 3D FFT for wavefunctions:
    minimum data exchange during FFTs selected (reduces bandwidth)
 parallel 3D FFT for charge:
    minimum data exchange during FFTs selected (reduces bandwidth)


 total amount of memory used by VASP MPI-rank0   234705. kBytes
=======================================================================

   base      :      30000. kBytes
   nonlr-proj:      19437. kBytes
   fftplans  :      66973. kBytes
   grid      :      38377. kBytes
   one-center:        108. kBytes
   wavefun   :      79810. kBytes
 
     INWAV:  cpu time    0.0000: real time    0.0000
 Broyden mixing: mesh for mixing (old mesh)
   NGX = 53   NGY = 53   NGZ =107
  (NGX  =216   NGY  =216   NGZ  =432)
  gives a total of 300563 points

 initial charge density was supplied:
 charge density of overlapping atoms calculated
 number of electron     640.0000000 magnetization 
 keeping initial charge density in first step


--------------------------------------------------------------------------------------------------------


 Maximum index for non-local projection operator         1124
 Maximum index for augmentation-charges         5853 (set IRDMAX)


--------------------------------------------------------------------------------------------------------


 First call to EWALD:  gamma=   0.112
 Maximum number of real-space cells 4x 4x 2
 Maximum number of reciprocal cells 2x 2x 4

    FEWALD:  cpu time    0.0035: real time    0.0035


--------------------------------------- Iteration      1(   1)  ---------------------------------------


    POTLOK:  cpu time    0.4222: real time    0.4268
    SETDIJ:  cpu time    0.4184: real time    0.4213
     EDDAV:  cpu time   46.7188: real time   46.7230
       DOS:  cpu time    0.0016: real time    0.0016
    --------------------------------------------
      LOOP:  cpu time   47.5610: real time   47.5727

 eigenvalue-minimisations  :  4240
 total energy-change (2. order) : 0.1364563E+05  (-0.2788920E+05)
 number of electron     640.0000000 magnetization 
 augmentation part      640.0000000 magnetization 

 Free energy of the ion-electron system (eV)
  ---------------------------------------------------
  alpha Z        PSCENC =       871.83850952
  Ewald energy   TEWEN  =    285644.23666524
  -Hartree energ DENC   =   -339995.30374977
  -exchange      EXHF   =         0.00000000
  -V(xc)+E(xc)   XCENC  =      3043.09703182
  PAW double counting   =     50525.51240023   -50422.77561733
  entropy T*S    EENTRO =        -0.07442190
  eigenvalues    EBANDS =      -228.33326528
  atomic energy  EATOM  =     64207.43592568
  Solvation  Ediel_sol  =         0.00000000
  ---------------------------------------------------
  free energy    TOTEN  =     13645.63347821 eV

  energy without entropy =    13645.70790010  energy(sigma->0) =    13645.67068915


--------------------------------------------------------------------------------------------------------




--------------------------------------- Iteration      1(   2)  ---------------------------------------


     EDDAV:  cpu time   49.8063: real time   49.8185
       DOS:  cpu time    0.0012: real time    0.0012
    --------------------------------------------
      LOOP:  cpu time   49.8075: real time   49.8197

 eigenvalue-minimisations  :  4632
 total energy-change (2. order) :-0.1115335E+05  (-0.1085068E+05)
 number of electron     640.0000000 magnetization 
 augmentation part      640.0000000 magnetization 

 Free energy of the ion-electron system (eV)
  ---------------------------------------------------
  alpha Z        PSCENC =       871.83850952
  Ewald energy   TEWEN  =    285644.23666524
  -Hartree energ DENC   =   -339995.30374977
  -exchange      EXHF   =         0.00000000
  -V(xc)+E(xc)   XCENC  =      3043.09703182
  PAW double counting   =     50525.51240023   -50422.77561733
  entropy T*S    EENTRO =        -0.04080116
  eigenvalues    EBANDS =    -11381.72132324
  atomic energy  EATOM  =     64207.43592568
  Solvation  Ediel_sol  =         0.00000000
  ---------------------------------------------------
  free energy    TOTEN  =      2492.27904099 eV

  energy without entropy =     2492.31984215  energy(sigma->0) =     2492.29944157


--------------------------------------------------------------------------------------------------------




--------------------------------------- Iteration      1(   3)  ---------------------------------------


     EDDAV:  cpu time   68.0856: real time   68.0905
       DOS:  cpu time    0.0005: real time    0.0005
    --------------------------------------------
      LOOP:  cpu time   68.0861: real time   68.0910

 eigenvalue-minimisations  :  6792
 total energy-change (2. order) :-0.2868426E+04  (-0.2753351E+04)
 number of electron     640.0000000 magnetization 
 augmentation part      640.0000000 magnetization 

 Free energy of the ion-electron system (eV)
  ---------------------------------------------------
  alpha Z        PSCENC =       871.83850952
  Ewald energy   TEWEN  =    285644.23666524
  -Hartree energ DENC   =   -339995.30374977
  -exchange      EXHF   =         0.00000000
  -V(xc)+E(xc)   XCENC  =      3043.09703182
  PAW double counting   =     50525.51240023   -50422.77561733
  entropy T*S    EENTRO =        -0.00000000
  eigenvalues    EBANDS =    -14250.18772481
  atomic energy  EATOM  =     64207.43592568
  Solvation  Ediel_sol  =         0.00000000
  ---------------------------------------------------
  free energy    TOTEN  =      -376.14655943 eV

  energy without entropy =     -376.14655943  energy(sigma->0) =     -376.14655943


--------------------------------------------------------------------------------------------------------




--------------------------------------- Iteration      1(   4)  ---------------------------------------


     EDDAV:  cpu time   61.9192: real time   61.9285
       DOS:  cpu time    0.0005: real time    0.0005
    --------------------------------------------
      LOOP:  cpu time   61.9197: real time   61.9289

 eigenvalue-minimisations  :  6064
 total energy-change (2. order) :-0.3603919E+03  (-0.3559470E+03)
 number of electron     640.0000000 magnetization 
 augmentation part      640.0000000 magnetization 

 Free energy of the ion-electron system (eV)
  ---------------------------------------------------
  alpha Z        PSCENC =       871.83850952
  Ewald energy   TEWEN  =    285644.23666524
  -Hartree energ DENC   =   -339995.30374977
  -exchange      EXHF   =         0.00000000
  -V(xc)+E(xc)   XCENC  =      3043.09703182
  PAW double counting   =     50525.51240023   -50422.77561733
  entropy T*S    EENTRO =        -0.00000000
  eigenvalues    EBANDS =    -14610.57965373
  atomic energy  EATOM  =     64207.43592568
  Solvation  Ediel_sol  =         0.00000000
  ---------------------------------------------------
  free energy    TOTEN  =      -736.53848834 eV

  energy without entropy =     -736.53848834  energy(sigma->0) =     -736.53848834


--------------------------------------------------------------------------------------------------------




--------------------------------------- Iteration      1(   5)  ---------------------------------------


     EDDAV:  cpu time   62.1334: real time   62.1428
       DOS:  cpu time    0.0006: real time    0.0006
    CHARGE:  cpu time    3.6276: real time    3.6276
    MIXING:  cpu time    0.0235: real time    0.0237
    --------------------------------------------
      LOOP:  cpu time   65.7851: real time   65.7947

 eigenvalue-minimisations  :  6080
 total energy-change (2. order) :-0.1454438E+02  (-0.1448179E+02)
 number of electron     640.0000007 magnetization 
 augmentation part      134.5909478 magnetization 

 Broyden mixing:
  rms(total) = 0.77534E+01    rms(broyden)= 0.77531E+01
  rms(prec ) = 0.81548E+01
  weight for this iteration     100.00

 Free energy of the ion-electron system (eV)
  ---------------------------------------------------
  alpha Z        PSCENC =       871.83850952
  Ewald energy   TEWEN  =    285644.23666524
  -Hartree energ DENC   =   -339995.30374977
  -exchange      EXHF   =         0.00000000
  -V(xc)+E(xc)   XCENC  =      3043.09703182
  PAW double counting   =     50525.51240023   -50422.77561733
  entropy T*S    EENTRO =        -0.00000000
  eigenvalues    EBANDS =    -14625.12403358
  atomic energy  EATOM  =     64207.43592568
  Solvation  Ediel_sol  =         0.00000000
  ---------------------------------------------------
  free energy    TOTEN  =      -751.08286819 eV

  energy without entropy =     -751.08286819  energy(sigma->0) =     -751.08286819


--------------------------------------------------------------------------------------------------------




--------------------------------------- Iteration      1(   6)  ---------------------------------------


    POTLOK:  cpu time    0.3693: real time    0.3785
    SETDIJ:  cpu time    0.4178: real time    0.4178
     EDDAV:  cpu time   59.3654: real time   59.3665
       DOS:  cpu time    0.0008: real time    0.0007
    CHARGE:  cpu time    3.6608: real time    3.6608
    MIXING:  cpu time    0.0253: real time    0.0254
    --------------------------------------------
      LOOP:  cpu time   63.8394: real time   63.8498

 eigenvalue-minimisations  :  5752
 total energy-change (2. order) : 0.1559489E+03  (-0.8416721E+02)
 number of electron     640.0000007 magnetization 
 augmentation part      140.4368672 magnetization 

 Broyden mixing:
  rms(total) = 0.25324E+01    rms(broyden)= 0.25316E+01
  rms(prec ) = 0.25836E+01
  weight for this iteration     100.00

 eigenvalues of (default mixing * dielectric matrix)
  average eigenvalue GAMMA=   0.9826
  0.9826

 Free energy of the ion-electron system (eV)
  ---------------------------------------------------
  alpha Z        PSCENC =       871.83850952
  Ewald energy   TEWEN  =    285644.23666524
  -Hartree energ DENC   =   -340161.87382309
  -exchange      EXHF   =         0.00000000
  -V(xc)+E(xc)   XCENC  =      3055.84163761
  PAW double counting   =     56549.20194802   -56515.88740116
  entropy T*S    EENTRO =        -0.00000000
  eigenvalues    EBANDS =    -14245.92738936
  atomic energy  EATOM  =     64207.43592568
  Solvation  Ediel_sol  =         0.00000000
  ---------------------------------------------------
  free energy    TOTEN  =      -595.13392754 eV

  energy without entropy =     -595.13392754  energy(sigma->0) =     -595.13392754


--------------------------------------------------------------------------------------------------------




--------------------------------------- Iteration      1(   7)  ---------------------------------------


    POTLOK:  cpu time    0.3786: real time    0.3891
    SETDIJ:  cpu time    0.4166: real time    0.4166
     EDDAV:  cpu time   61.0532: real time   61.0546
       DOS:  cpu time    0.0007: real time    0.0007
    CHARGE:  cpu time    3.6544: real time    3.6544
    MIXING:  cpu time    0.0248: real time    0.0248
    --------------------------------------------
      LOOP:  cpu time   65.5283: real time   65.5402

 eigenvalue-minimisations  :  5952
 total energy-change (2. order) :-0.2460629E+00  (-0.5624438E+01)
 number of electron     640.0000007 magnetization 
 augmentation part      141.0262127 magnetization 

 Broyden mixing:
  rms(total) = 0.16528E+01    rms(broyden)= 0.16528E+01
  rms(prec ) = 0.16808E+01
  weight for this iteration     100.00

 eigenvalues of (default mixing * dielectric matrix)
  average eigenvalue GAMMA=   1.6330
  0.9587  2.3073

 Free energy of the ion-electron system (eV)
  ---------------------------------------------------
  alpha Z        PSCENC =       871.83850952
  Ewald energy   TEWEN  =    285644.23666524
  -Hartree energ DENC   =   -340294.95931175
  -exchange      EXHF   =         0.00000000
  -V(xc)+E(xc)   XCENC  =      3052.66138342
  PAW double counting   =     60333.33310449   -60306.72175374
  entropy T*S    EENTRO =        -0.00000000
  eigenvalues    EBANDS =    -14103.20451327
  atomic energy  EATOM  =     64207.43592568
  Solvation  Ediel_sol  =         0.00000000
  ---------------------------------------------------
  free energy    TOTEN  =      -595.37999042 eV

  energy without entropy =     -595.37999042  energy(sigma->0) =     -595.37999042


--------------------------------------------------------------------------------------------------------




--------------------------------------- Iteration      1(   8)  ---------------------------------------


    POTLOK:  cpu time    0.3868: real time    0.3971
    SETDIJ:  cpu time    0.4177: real time    0.4176
     EDDAV:  cpu time   57.6923: real time   57.6936
       DOS:  cpu time    0.0007: real time    0.0007
    CHARGE:  cpu time    3.6238: real time    3.6238
    MIXING:  cpu time    0.0187: real time    0.0187
    --------------------------------------------
      LOOP:  cpu time   62.1399: real time   62.1515

 eigenvalue-minimisations  :  5552
 total energy-change (2. order) : 0.1422126E+01  (-0.1043005E+01)
 number of electron     640.0000007 magnetization 
 augmentation part      141.0701687 magnetization 

 Broyden mixing:
  rms(total) = 0.46790E+00    rms(broyden)= 0.46781E+00
  rms(prec ) = 0.50055E+00
  weight for this iteration     100.00

 eigenvalues of (default mixing * dielectric matrix)
  average eigenvalue GAMMA=   1.4112
  2.4756  0.8789  0.8789

 Free energy of the ion-electron system (eV)
  ---------------------------------------------------
  alpha Z        PSCENC =       871.83850952
  Ewald energy   TEWEN  =    285644.23666524
  -Hartree energ DENC   =   -340535.69744569
  -exchange      EXHF   =         0.00000000
  -V(xc)+E(xc)   XCENC  =      3049.14615986
  PAW double counting   =     66739.42437003   -66730.12560861
  entropy T*S    EENTRO =        -0.00000000
  eigenvalues    EBANDS =    -13840.21644030
  atomic energy  EATOM  =     64207.43592568
  Solvation  Ediel_sol  =         0.00000000
  ---------------------------------------------------
  free energy    TOTEN  =      -593.95786427 eV

  energy without entropy =     -593.95786427  energy(sigma->0) =     -593.95786427


--------------------------------------------------------------------------------------------------------




--------------------------------------- Iteration      1(   9)  ---------------------------------------


    POTLOK:  cpu time    0.3778: real time    0.3914
    SETDIJ:  cpu time    0.4167: real time    0.4167
     EDDAV:  cpu time   57.9546: real time   57.9589
       DOS:  cpu time    0.0005: real time    0.0005
    CHARGE:  cpu time    3.6249: real time    3.6249
    MIXING:  cpu time    0.0241: real time    0.0241
    --------------------------------------------
      LOOP:  cpu time   62.3987: real time   62.4166

 eigenvalue-minimisations  :  5584
 total energy-change (2. order) : 0.5033324E+00  (-0.2580607E+00)
 number of electron     640.0000007 magnetization 
 augmentation part      141.4582493 magnetization 

 Broyden mixing:
  rms(total) = 0.21876E+00    rms(broyden)= 0.21875E+00
  rms(prec ) = 0.23576E+00
  weight for this iteration     100.00

 eigenvalues of (default mixing * dielectric matrix)
  average eigenvalue GAMMA=   1.2519
  2.1260  1.1078  0.8870  0.8870

 Free energy of the ion-electron system (eV)
  ---------------------------------------------------
  alpha Z        PSCENC =       871.83850952
  Ewald energy   TEWEN  =    285644.23666524
  -Hartree energ DENC   =   -340638.04246791
  -exchange      EXHF   =         0.00000000
  -V(xc)+E(xc)   XCENC  =      3050.92039058
  PAW double counting   =     67273.67953404   -67267.78772712
  entropy T*S    EENTRO =        -0.00000000
  eigenvalues    EBANDS =    -13735.73536190
  atomic energy  EATOM  =     64207.43592568
  Solvation  Ediel_sol  =         0.00000000
  ---------------------------------------------------
  free energy    TOTEN  =      -593.45453187 eV

  energy without entropy =     -593.45453187  energy(sigma->0) =     -593.45453187


--------------------------------------------------------------------------------------------------------




--------------------------------------- Iteration      1(  10)  ---------------------------------------


    POTLOK:  cpu time    0.3627: real time    0.3712
    SETDIJ:  cpu time    0.4157: real time    0.4195
     EDDAV:  cpu time   60.3713: real time   60.3733
       DOS:  cpu time    0.0007: real time    0.0007
    CHARGE:  cpu time    3.6073: real time    3.6073
    MIXING:  cpu time    0.0252: real time    0.0252
    --------------------------------------------
      LOOP:  cpu time   64.7830: real time   64.7972

 eigenvalue-minimisations  :  5872
 total energy-change (2. order) : 0.3746047E-01  (-0.3113900E-01)
 number of electron     640.0000007 magnetization 
 augmentation part      141.3156200 magnetization 

 Broyden mixing:
  rms(total) = 0.12192E+00    rms(broyden)= 0.12191E+00
  rms(prec ) = 0.14348E+00
  weight for this iteration     100.00

 eigenvalues of (default mixing * dielectric matrix)
  average eigenvalue GAMMA=   1.3772
  2.2087  2.2087  0.9082  0.9082  0.6522

 Free energy of the ion-electron system (eV)
  ---------------------------------------------------
  alpha Z        PSCENC =       871.83850952
  Ewald energy   TEWEN  =    285644.23666524
  -Hartree energ DENC   =   -340699.47362148
  -exchange      EXHF   =         0.00000000
  -V(xc)+E(xc)   XCENC  =      3052.28441479
  PAW double counting   =     66662.49323096   -66655.51915540
  entropy T*S    EENTRO =        -0.00000000
  eigenvalues    EBANDS =    -13676.71304071
  atomic energy  EATOM  =     64207.43592568
  Solvation  Ediel_sol  =         0.00000000
  ---------------------------------------------------
  free energy    TOTEN  =      -593.41707140 eV

  energy without entropy =     -593.41707140  energy(sigma->0) =     -593.41707140


--------------------------------------------------------------------------------------------------------




--------------------------------------- Iteration      1(  11)  ---------------------------------------


    POTLOK:  cpu time    0.3657: real time    0.3778
    SETDIJ:  cpu time    0.4166: real time    0.4185
     EDDAV:  cpu time   57.4794: real time   57.4854
       DOS:  cpu time    0.0008: real time    0.0007
    CHARGE:  cpu time    3.6534: real time    3.6533
    MIXING:  cpu time    0.0279: real time    0.0279
    --------------------------------------------
      LOOP:  cpu time   61.9437: real time   61.9636

 eigenvalue-minimisations  :  5520
 total energy-change (2. order) : 0.9645039E-01  (-0.1215897E-01)
 number of electron     640.0000007 magnetization 
 augmentation part      141.2305283 magnetization 

 Broyden mixing:
  rms(total) = 0.73650E-01    rms(broyden)= 0.73648E-01
  rms(prec ) = 0.89425E-01
  weight for this iteration     100.00

 eigenvalues of (default mixing * dielectric matrix)
  average eigenvalue GAMMA=   1.3582
  2.5505  2.1507  0.8927  0.8927  0.9570  0.7054

 Free energy of the ion-electron system (eV)
  ---------------------------------------------------
  alpha Z        PSCENC =       871.83850952
  Ewald energy   TEWEN  =    285644.23666524
  -Hartree energ DENC   =   -340834.52703052
  -exchange      EXHF   =         0.00000000
  -V(xc)+E(xc)   XCENC  =      3053.59440873
  PAW double counting   =     66615.45758242   -66608.59740819
  entropy T*S    EENTRO =        -0.00000000
  eigenvalues    EBANDS =    -13542.75927390
  atomic energy  EATOM  =     64207.43592568
  Solvation  Ediel_sol  =         0.00000000
  ---------------------------------------------------
  free energy    TOTEN  =      -593.32062101 eV

  energy without entropy =     -593.32062101  energy(sigma->0) =     -593.32062101


--------------------------------------------------------------------------------------------------------




--------------------------------------- Iteration      1(  12)  ---------------------------------------


    POTLOK:  cpu time    0.3821: real time    0.3909
    SETDIJ:  cpu time    0.4177: real time    0.4195
     EDDAV:  cpu time   58.8127: real time   58.8151
       DOS:  cpu time    0.0007: real time    0.0007
    CHARGE:  cpu time    3.6489: real time    3.6488
    MIXING:  cpu time    0.0277: real time    0.0277
    --------------------------------------------
      LOOP:  cpu time   63.2898: real time   63.3028

 eigenvalue-minimisations  :  5680
 total energy-change (2. order) : 0.3485273E-01  (-0.4600455E-02)
 number of electron     640.0000007 magnetization 
 augmentation part      141.2783483 magnetization 

 Broyden mixing:
  rms(total) = 0.32230E-01    rms(broyden)= 0.32228E-01
  rms(prec ) = 0.49136E-01
  weight for this iteration     100.00

 eigenvalues of (default mixing * dielectric matrix)
  average eigenvalue GAMMA=   1.3735
  2.4522  2.4522  1.1255  1.1255  0.9005  0.9005  0.6580

 Free energy of the ion-electron system (eV)
  ---------------------------------------------------
  alpha Z        PSCENC =       871.83850952
  Ewald energy   TEWEN  =    285644.23666524
  -Hartree energ DENC   =   -340901.86832814
  -exchange      EXHF   =         0.00000000
  -V(xc)+E(xc)   XCENC  =      3053.86772561
  PAW double counting   =     66778.65115152   -66772.23038800
  entropy T*S    EENTRO =        -0.00000000
  eigenvalues    EBANDS =    -13475.21702972
  atomic energy  EATOM  =     64207.43592568
  Solvation  Ediel_sol  =         0.00000000
  ---------------------------------------------------
  free energy    TOTEN  =      -593.28576828 eV

  energy without entropy =     -593.28576828  energy(sigma->0) =     -593.28576828


--------------------------------------------------------------------------------------------------------




--------------------------------------- Iteration      1(  13)  ---------------------------------------


    POTLOK:  cpu time    0.3635: real time    0.3761
    SETDIJ:  cpu time    0.4168: real time    0.4168
     EDDAV:  cpu time   59.7856: real time   59.7867
       DOS:  cpu time    0.0007: real time    0.0007
    CHARGE:  cpu time    3.6501: real time    3.6501
    MIXING:  cpu time    0.0259: real time    0.0259
    --------------------------------------------
      LOOP:  cpu time   64.2427: real time   64.2562

 eigenvalue-minimisations  :  5792
 total energy-change (2. order) : 0.8685271E-02  (-0.2447289E-02)
 number of electron     640.0000007 magnetization 
 augmentation part      141.2447745 magnetization 

 Broyden mixing:
  rms(total) = 0.24378E-01    rms(broyden)= 0.24375E-01
  rms(prec ) = 0.37110E-01
  weight for this iteration     100.00

 eigenvalues of (default mixing * dielectric matrix)
  average eigenvalue GAMMA=   1.3430
  2.7534  2.4217  1.2098  1.2098  0.8855  0.8855  0.7298  0.6486

 Free energy of the ion-electron system (eV)
  ---------------------------------------------------
  alpha Z        PSCENC =       871.83850952
  Ewald energy   TEWEN  =    285644.23666524
  -Hartree energ DENC   =   -340958.80780589
  -exchange      EXHF   =         0.00000000
  -V(xc)+E(xc)   XCENC  =      3054.04970514
  PAW double counting   =     66739.11939146   -66732.44273666
  entropy T*S    EENTRO =        -0.00000000
  eigenvalues    EBANDS =    -13418.70673749
  atomic energy  EATOM  =     64207.43592568
  Solvation  Ediel_sol  =         0.00000000
  ---------------------------------------------------
  free energy    TOTEN  =      -593.27708301 eV

  energy without entropy =     -593.27708301  energy(sigma->0) =     -593.27708301


--------------------------------------------------------------------------------------------------------




--------------------------------------- Iteration      1(  14)  ---------------------------------------


    POTLOK:  cpu time    0.4056: real time    0.4172
    SETDIJ:  cpu time    0.4166: real time    0.4166
     EDDAV:  cpu time   57.8037: real time   57.8063
       DOS:  cpu time    0.0008: real time    0.0008
    CHARGE:  cpu time    3.6511: real time    3.6511
    MIXING:  cpu time    0.0270: real time    0.0270
    --------------------------------------------
      LOOP:  cpu time   62.3047: real time   62.3188

 eigenvalue-minimisations  :  5552
 total energy-change (2. order) : 0.3312459E-02  (-0.7569265E-03)
 number of electron     640.0000007 magnetization 
 augmentation part      141.2617979 magnetization 

 Broyden mixing:
  rms(total) = 0.14894E-01    rms(broyden)= 0.14893E-01
  rms(prec ) = 0.25255E-01
  weight for this iteration     100.00

 eigenvalues of (default mixing * dielectric matrix)
  average eigenvalue GAMMA=   1.4560
  3.0239  2.6883  1.5728  1.5728  0.9841  0.9213  0.9213  0.7794  0.6402

 Free energy of the ion-electron system (eV)
  ---------------------------------------------------
  alpha Z        PSCENC =       871.83850952
  Ewald energy   TEWEN  =    285644.23666524
  -Hartree energ DENC   =   -341004.06285704
  -exchange      EXHF   =         0.00000000
  -V(xc)+E(xc)   XCENC  =      3054.18181778
  PAW double counting   =     66750.44296652   -66743.81479784
  entropy T*S    EENTRO =        -0.00000000
  eigenvalues    EBANDS =    -13373.53200042
  atomic energy  EATOM  =     64207.43592568
  Solvation  Ediel_sol  =         0.00000000
  ---------------------------------------------------
  free energy    TOTEN  =      -593.27377055 eV

  energy without entropy =     -593.27377055  energy(sigma->0) =     -593.27377055


--------------------------------------------------------------------------------------------------------




--------------------------------------- Iteration      1(  15)  ---------------------------------------


    POTLOK:  cpu time    0.4302: real time    0.4418
    SETDIJ:  cpu time    0.4339: real time    0.4339
     EDDAV:  cpu time   58.2596: real time   58.2612
       DOS:  cpu time    0.0008: real time    0.0008
    CHARGE:  cpu time    3.6327: real time    3.6327
    MIXING:  cpu time    0.0266: real time    0.0266
    --------------------------------------------
      LOOP:  cpu time   62.7838: real time   62.7970

 eigenvalue-minimisations  :  5616
 total energy-change (2. order) :-0.5435757E-02  (-0.1278729E-02)
 number of electron     640.0000007 magnetization 
 augmentation part      141.2704333 magnetization 

 Broyden mixing:
  rms(total) = 0.13706E-01    rms(broyden)= 0.13703E-01
  rms(prec ) = 0.17674E-01
  weight for this iteration     100.00

 eigenvalues of (default mixing * dielectric matrix)
  average eigenvalue GAMMA=   1.4685
  3.8608  2.7460  1.9122  1.0241  1.0241  1.0664  0.8394  0.8394  0.6266  0.7461

 Free energy of the ion-electron system (eV)
  ---------------------------------------------------
  alpha Z        PSCENC =       871.83850952
  Ewald energy   TEWEN  =    285644.23666524
  -Hartree energ DENC   =   -341068.49160665
  -exchange      EXHF   =         0.00000000
  -V(xc)+E(xc)   XCENC  =      3054.33011918
  PAW double counting   =     66726.09645857   -66719.45968612
  entropy T*S    EENTRO =        -0.00000000
  eigenvalues    EBANDS =    -13309.26559173
  atomic energy  EATOM  =     64207.43592568
  Solvation  Ediel_sol  =         0.00000000
  ---------------------------------------------------
  free energy    TOTEN  =      -593.27920631 eV

  energy without entropy =     -593.27920631  energy(sigma->0) =     -593.27920631


--------------------------------------------------------------------------------------------------------




--------------------------------------- Iteration      1(  16)  ---------------------------------------


    POTLOK:  cpu time    0.3675: real time    0.3765
    SETDIJ:  cpu time    0.4149: real time    0.4170
     EDDAV:  cpu time   59.8450: real time   59.8491
       DOS:  cpu time    0.0008: real time    0.0007
    CHARGE:  cpu time    3.6263: real time    3.6263
    MIXING:  cpu time    0.0277: real time    0.0277
    --------------------------------------------
      LOOP:  cpu time   64.2821: real time   64.2973

 eigenvalue-minimisations  :  5808
 total energy-change (2. order) :-0.2901333E-02  (-0.2207225E-03)
 number of electron     640.0000007 magnetization 
 augmentation part      141.2639502 magnetization 

 Broyden mixing:
  rms(total) = 0.92722E-02    rms(broyden)= 0.92719E-02
  rms(prec ) = 0.12109E-01
  weight for this iteration     100.00

 eigenvalues of (default mixing * dielectric matrix)
  average eigenvalue GAMMA=   1.4987
  4.1625  2.7212  2.0903  1.1680  1.1680  1.0198  1.0198  0.9015  0.9015  0.7072
  0.6266

 Free energy of the ion-electron system (eV)
  ---------------------------------------------------
  alpha Z        PSCENC =       871.83850952
  Ewald energy   TEWEN  =    285644.23666524
  -Hartree energ DENC   =   -341092.19953010
  -exchange      EXHF   =         0.00000000
  -V(xc)+E(xc)   XCENC  =      3054.38161635
  PAW double counting   =     66717.91279372   -66711.24267514
  entropy T*S    EENTRO =        -0.00000000
  eigenvalues    EBANDS =    -13285.64541291
  atomic energy  EATOM  =     64207.43592568
  Solvation  Ediel_sol  =         0.00000000
  ---------------------------------------------------
  free energy    TOTEN  =      -593.28210764 eV

  energy without entropy =     -593.28210764  energy(sigma->0) =     -593.28210764


--------------------------------------------------------------------------------------------------------




--------------------------------------- Iteration      1(  17)  ---------------------------------------


    POTLOK:  cpu time    0.3877: real time    0.3968
    SETDIJ:  cpu time    0.4140: real time    0.4140
     EDDAV:  cpu time   61.9601: real time   61.9618
       DOS:  cpu time    0.0006: real time    0.0006
    CHARGE:  cpu time    3.6483: real time    3.6483
    MIXING:  cpu time    0.0304: real time    0.0304
    --------------------------------------------
      LOOP:  cpu time   66.4411: real time   66.4520

 eigenvalue-minimisations  :  6056
 total energy-change (2. order) :-0.5062651E-02  (-0.3607196E-03)
 number of electron     640.0000007 magnetization 
 augmentation part      141.2649159 magnetization 

 Broyden mixing:
  rms(total) = 0.10089E-01    rms(broyden)= 0.10086E-01
  rms(prec ) = 0.11548E-01
  weight for this iteration     100.00

 eigenvalues of (default mixing * dielectric matrix)
  average eigenvalue GAMMA=   1.6118
  5.4854  2.8979  2.0253  2.0253  0.9471  0.9471  0.9985  0.9985  0.8556  0.8556
  0.6942  0.6116

 Free energy of the ion-electron system (eV)
  ---------------------------------------------------
  alpha Z        PSCENC =       871.83850952
  Ewald energy   TEWEN  =    285644.23666524
  -Hartree energ DENC   =   -341110.62771988
  -exchange      EXHF   =         0.00000000
  -V(xc)+E(xc)   XCENC  =      3054.42028686
  PAW double counting   =     66722.34312912   -66715.74646718
  entropy T*S    EENTRO =        -0.00000000
  eigenvalues    EBANDS =    -13267.18749966
  atomic energy  EATOM  =     64207.43592568
  Solvation  Ediel_sol  =         0.00000000
  ---------------------------------------------------
  free energy    TOTEN  =      -593.28717029 eV

  energy without entropy =     -593.28717029  energy(sigma->0) =     -593.28717029


--------------------------------------------------------------------------------------------------------




--------------------------------------- Iteration      1(  18)  ---------------------------------------


    POTLOK:  cpu time    0.3692: real time    0.3812
    SETDIJ:  cpu time    0.4149: real time    0.4182
     EDDAV:  cpu time   56.4075: real time   56.4089
       DOS:  cpu time    0.0006: real time    0.0006
    CHARGE:  cpu time    3.5811: real time    3.5811
    MIXING:  cpu time    0.0287: real time    0.0287
    --------------------------------------------
      LOOP:  cpu time   60.8020: real time   60.8187

 eigenvalue-minimisations  :  5400
 total energy-change (2. order) :-0.3407629E-02  (-0.8572390E-04)
 number of electron     640.0000007 magnetization 
 augmentation part      141.2557403 magnetization 

 Broyden mixing:
  rms(total) = 0.67985E-02    rms(broyden)= 0.67983E-02
  rms(prec ) = 0.76296E-02
  weight for this iteration     100.00

 eigenvalues of (default mixing * dielectric matrix)
  average eigenvalue GAMMA=   1.6003
  6.0405  2.7822  2.4691  1.7893  0.9253  0.9253  0.9917  0.9917  0.9000  0.9000
  0.7846  0.6760  0.6279

 Free energy of the ion-electron system (eV)
  ---------------------------------------------------
  alpha Z        PSCENC =       871.83850952
  Ewald energy   TEWEN  =    285644.23666524
  -Hartree energ DENC   =   -341127.31049220
  -exchange      EXHF   =         0.00000000
  -V(xc)+E(xc)   XCENC  =      3054.46705530
  PAW double counting   =     66708.99360334   -66702.40086242
  entropy T*S    EENTRO =        -0.00000000
  eigenvalues    EBANDS =    -13250.55098238
  atomic energy  EATOM  =     64207.43592568
  Solvation  Ediel_sol  =         0.00000000
  ---------------------------------------------------
  free energy    TOTEN  =      -593.29057792 eV

  energy without entropy =     -593.29057792  energy(sigma->0) =     -593.29057792


--------------------------------------------------------------------------------------------------------




--------------------------------------- Iteration      1(  19)  ---------------------------------------


    POTLOK:  cpu time    0.4355: real time    0.4476
    SETDIJ:  cpu time    0.4536: real time    0.4557
     EDDAV:  cpu time   59.0343: real time   59.0372
       DOS:  cpu time    0.0006: real time    0.0006
    CHARGE:  cpu time    3.5911: real time    3.5911
    MIXING:  cpu time    0.0281: real time    0.0281
    --------------------------------------------
      LOOP:  cpu time   63.5432: real time   63.5602

 eigenvalue-minimisations  :  5672
 total energy-change (2. order) :-0.1252684E-02  (-0.5909807E-04)
 number of electron     640.0000007 magnetization 
 augmentation part      141.2572480 magnetization 

 Broyden mixing:
  rms(total) = 0.20439E-02    rms(broyden)= 0.20405E-02
  rms(prec ) = 0.32103E-02
  weight for this iteration     100.00

 eigenvalues of (default mixing * dielectric matrix)
  average eigenvalue GAMMA=   1.6120
  6.4669  2.9821  2.4270  1.9117  0.9767  0.9767  1.0278  1.0278  0.9589  0.9589
  0.7652  0.7652  0.6225  0.7011

 Free energy of the ion-electron system (eV)
  ---------------------------------------------------
  alpha Z        PSCENC =       871.83850952
  Ewald energy   TEWEN  =    285644.23666524
  -Hartree energ DENC   =   -341131.24795911
  -exchange      EXHF   =         0.00000000
  -V(xc)+E(xc)   XCENC  =      3054.47017633
  PAW double counting   =     66713.86886318   -66707.29606157
  entropy T*S    EENTRO =        -0.00000000
  eigenvalues    EBANDS =    -13246.59794988
  atomic energy  EATOM  =     64207.43592568
  Solvation  Ediel_sol  =         0.00000000
  ---------------------------------------------------
  free energy    TOTEN  =      -593.29183060 eV

  energy without entropy =     -593.29183060  energy(sigma->0) =     -593.29183060


--------------------------------------------------------------------------------------------------------




--------------------------------------- Iteration      1(  20)  ---------------------------------------


    POTLOK:  cpu time    0.4259: real time    0.4362
    SETDIJ:  cpu time    0.4476: real time    0.4476
     EDDAV:  cpu time   56.5722: real time   56.5765
       DOS:  cpu time    0.0006: real time    0.0006
    CHARGE:  cpu time    3.5961: real time    3.5961
    MIXING:  cpu time    0.0298: real time    0.0298
    --------------------------------------------
      LOOP:  cpu time   61.0722: real time   61.0868

 eigenvalue-minimisations  :  5416
 total energy-change (2. order) :-0.2647482E-02  (-0.1825212E-04)
 number of electron     640.0000007 magnetization 
 augmentation part      141.2583695 magnetization 

 Broyden mixing:
  rms(total) = 0.23738E-02    rms(broyden)= 0.23732E-02
  rms(prec ) = 0.29508E-02
  weight for this iteration     100.00

 eigenvalues of (default mixing * dielectric matrix)
  average eigenvalue GAMMA=   1.6680
  6.9140  3.3207  2.4065  2.2336  1.6049  0.9386  0.9386  1.1009  0.9359  0.9359
  0.8525  0.8525  0.7188  0.6152  0.6519

 Free energy of the ion-electron system (eV)
  ---------------------------------------------------
  alpha Z        PSCENC =       871.83850952
  Ewald energy   TEWEN  =    285644.23666524
  -Hartree energ DENC   =   -341135.16483657
  -exchange      EXHF   =         0.00000000
  -V(xc)+E(xc)   XCENC  =      3054.46560717
  PAW double counting   =     66711.50225638   -66704.92633063
  entropy T*S    EENTRO =        -0.00000000
  eigenvalues    EBANDS =    -13242.68227487
  atomic energy  EATOM  =     64207.43592568
  Solvation  Ediel_sol  =         0.00000000
  ---------------------------------------------------
  free energy    TOTEN  =      -593.29447808 eV

  energy without entropy =     -593.29447808  energy(sigma->0) =     -593.29447808


--------------------------------------------------------------------------------------------------------




--------------------------------------- Iteration      1(  21)  ---------------------------------------


    POTLOK:  cpu time    0.3665: real time    0.3777
    SETDIJ:  cpu time    0.4160: real time    0.4178
     EDDAV:  cpu time   51.9702: real time   51.9714
       DOS:  cpu time    0.0006: real time    0.0006
    CHARGE:  cpu time    3.6456: real time    3.6456
    MIXING:  cpu time    0.0298: real time    0.0298
    --------------------------------------------
      LOOP:  cpu time   56.4288: real time   56.4430

 eigenvalue-minimisations  :  4872
 total energy-change (2. order) :-0.2466071E-02  (-0.9336375E-05)
 number of electron     640.0000007 magnetization 
 augmentation part      141.2584055 magnetization 

 Broyden mixing:
  rms(total) = 0.17159E-02    rms(broyden)= 0.17153E-02
  rms(prec ) = 0.19970E-02
[...]
    -6.564311700 11.369721380  0.000000000     0.000000000  0.087952903  0.000000000
     0.000000000  0.000000000 26.828094240     0.000000000  0.000000000  0.037274358

  length of vectors
    13.128623400 13.128623399 26.828094240     0.087952903  0.087952903  0.037274358


 FORCES acting on ions
    electron-ion (+dipol)            ewald-force                    non-local-force                 convergence-correction
 -----------------------------------------------------------------------------------------------
   0.634E+02 -.548E+02 0.129E+04   -.641E+02 0.562E+02 -.128E+04   -.323E+00 -.211E+00 -.754E+01   0.746E-05 -.592E-04 0.748E-05
   -.892E+01 0.719E+02 0.115E+04   0.898E+01 -.718E+02 -.115E+04   -.921E-01 0.152E+00 -.513E+01   0.119E-04 0.455E-05 0.355E-04
   0.751E+02 -.429E+02 0.120E+04   -.744E+02 0.427E+02 -.119E+04   -.108E+01 0.108E+00 -.560E+01   -.138E-03 -.591E-05 -.563E-05
   0.105E+02 0.555E+02 0.134E+04   -.926E+01 -.560E+02 -.133E+04   -.350E+00 -.433E+00 -.516E+01   -.734E-05 0.709E-05 0.930E-04
   0.153E+02 -.185E+02 0.142E+04   -.154E+02 0.199E+02 -.141E+04   -.211E+00 -.938E+00 -.489E+01   0.456E-04 -.334E-04 0.246E-04
   -.308E+02 0.478E+02 0.135E+04   0.302E+02 -.494E+02 -.135E+04   0.832E+00 0.251E+00 -.352E+01   -.189E-04 0.218E-04 0.504E-05
   -.573E+02 -.723E+02 0.116E+04   0.564E+02 0.729E+02 -.115E+04   0.122E+01 0.714E-01 -.543E+01   0.887E-04 -.366E-04 -.646E-05
   -.474E+02 0.479E+02 0.124E+04   0.478E+02 -.491E+02 -.123E+04   0.186E+00 0.143E+00 -.653E+01   0.195E-05 0.102E-03 0.240E-04
   -.102E+03 -.122E+02 0.130E+04   0.101E+03 0.132E+02 -.129E+04   0.195E+01 -.314E+00 -.681E+01   -.175E-04 -.742E-05 0.798E-04
   -.124E+02 0.174E+02 0.123E+04   0.140E+02 -.170E+02 -.122E+04   -.116E+01 -.696E+00 -.441E+01   0.367E-04 -.113E-04 0.559E-04
   0.646E+01 -.909E+01 0.122E+04   -.692E+01 0.930E+01 -.122E+04   -.378E+00 0.306E+00 -.549E+01   0.668E-04 0.487E-04 0.481E-04
   0.520E+02 -.107E+01 0.128E+04   -.526E+02 -.665E-01 -.127E+04   0.626E-01 0.349E+00 -.466E+01   0.432E-04 0.518E-04 0.409E-04
   -.149E+02 -.148E+02 0.122E+04   0.155E+02 0.168E+02 -.121E+04   0.127E+00 -.991E+00 -.494E+01   -.517E-04 -.417E-04 0.664E-04
   0.862E+02 0.606E+02 0.125E+04   -.851E+02 -.611E+02 -.124E+04   -.789E+00 -.814E+00 -.418E+01   -.275E-04 -.732E-05 0.770E-04
   -.411E+02 0.796E+02 0.128E+04   0.398E+02 -.778E+02 -.127E+04   0.904E+00 -.172E+01 -.705E+01   -.176E-04 0.242E-04 0.102E-03
   -.392E+02 -.314E+02 0.115E+04   0.396E+02 0.300E+02 -.115E+04   0.581E+00 0.617E+00 -.496E+01   -.431E-04 -.169E-04 0.125E-03
   0.953E+02 -.650E+01 -.125E+04   -.970E+02 0.785E+01 0.124E+04   -.559E+00 -.107E+01 0.601E+01   -.364E-04 -.918E-04 -.791E-04
   -.470E+02 0.256E+02 -.126E+04   0.471E+02 -.271E+02 0.126E+04   0.404E+00 0.570E+00 0.555E+01   0.965E-05 0.275E-04 0.311E-04
   0.121E+02 -.760E+02 -.145E+04   -.131E+02 0.765E+02 0.144E+04   0.178E+00 0.657E+00 0.679E+01   0.244E-04 -.460E-04 0.321E-04
   -.584E+02 0.598E+02 -.121E+04   0.602E+02 -.601E+02 0.121E+04   -.202E+00 -.860E-01 0.469E+01   -.922E-04 0.449E-04 -.347E-04
   -.105E+03 -.428E+02 -.130E+04   0.106E+03 0.427E+02 0.129E+04   0.291E+00 0.986E+00 0.638E+01   0.234E-04 -.245E-04 -.112E-03
   0.208E+02 0.241E+02 -.922E+03   -.228E+02 -.266E+02 0.921E+03   0.401E+00 0.287E-01 0.425E+01   0.529E-04 0.398E-05 -.340E-04
   0.545E+01 -.109E+02 -.127E+04   -.692E+01 0.111E+02 0.126E+04   0.102E+01 0.386E-01 0.713E+01   -.145E-04 -.226E-04 -.942E-05
   0.631E+02 -.329E+02 -.127E+04   -.615E+02 0.320E+02 0.126E+04   -.195E+01 0.438E+00 0.525E+01   0.311E-04 0.572E-04 0.195E-04
   0.653E+02 0.650E+02 -.122E+04   -.654E+02 -.655E+02 0.121E+04   -.926E+00 -.434E+00 0.459E+01   0.348E-04 0.834E-06 -.838E-04
   -.108E+02 -.593E+02 -.122E+04   0.116E+02 0.596E+02 0.122E+04   -.437E+00 0.603E+00 0.396E+01   0.373E-04 -.227E-04 -.816E-04
   -.604E+02 0.875E+02 -.124E+04   0.626E+02 -.867E+02 0.123E+04   -.435E-01 -.152E+01 0.462E+01   0.290E-04 0.500E-04 -.640E-04
   0.583E+02 -.552E+02 -.128E+04   -.582E+02 0.564E+02 0.127E+04   -.944E-01 0.530E-01 0.544E+01   0.698E-04 0.635E-04 -.935E-04
   -.289E+02 0.185E+00 -.124E+04   0.304E+02 0.973E+00 0.124E+04   -.260E+00 -.432E+00 0.443E+01   -.432E-04 -.754E-04 -.503E-04
   0.487E-01 0.109E+02 -.129E+04   -.182E+01 -.101E+02 0.128E+04   0.112E+01 -.929E+00 0.633E+01   -.713E-04 -.183E-04 -.171E-04
   0.320E+02 0.719E+02 -.133E+04   -.311E+02 -.719E+02 0.132E+04   -.965E+00 -.538E+00 0.644E+01   -.374E-04 0.239E-04 -.431E-04
   0.435E+02 -.325E+01 -.129E+04   -.437E+02 0.293E+01 0.129E+04   -.574E+00 -.551E-01 0.533E+01   -.707E-05 -.600E-05 -.744E-04
   -.310E+02 -.198E+01 -.156E+04   0.336E+02 0.200E+01 0.157E+04   -.214E+01 0.773E-01 -.139E+02   -.118E-05 0.346E-05 -.165E-04
   0.105E+02 0.896E+01 -.159E+04   -.105E+02 -.106E+02 0.160E+04   -.722E+00 0.160E+01 -.151E+02   0.157E-04 0.135E-04 -.246E-04
   -.320E+02 0.291E+02 -.164E+04   0.345E+02 -.286E+02 0.165E+04   -.246E+01 -.639E+00 -.170E+02   -.607E-05 -.102E-04 -.228E-04
   0.243E+02 -.364E+02 -.165E+04   -.234E+02 0.391E+02 0.167E+04   -.110E+01 -.244E+01 -.199E+02   -.648E-05 -.943E-05 -.446E-04
   -.349E+02 -.728E+02 -.152E+04   0.381E+02 0.820E+02 0.154E+04   -.169E+01 -.878E+01 -.156E+02   0.484E-05 0.975E-05 -.149E-04
   -.662E+01 -.104E+02 -.159E+04   0.908E+01 0.798E+01 0.160E+04   -.277E+01 0.310E+01 -.169E+02   -.183E-04 0.766E-05 -.179E-04
   -.101E+02 0.202E+02 -.162E+04   0.120E+02 -.210E+02 0.164E+04   -.213E+01 0.302E+00 -.168E+02   -.712E-05 -.912E-05 -.256E-04
   -.822E+02 0.260E+02 -.161E+04   0.842E+02 -.292E+02 0.162E+04   -.114E+01 0.298E+01 -.170E+02   0.264E-05 -.666E-05 -.255E-04
   0.398E+02 0.773E+02 -.157E+04   -.430E+02 -.821E+02 0.158E+04   0.334E+01 0.332E+01 -.163E+02   0.119E-04 -.835E-06 -.307E-04
   0.193E+02 -.222E+02 -.156E+04   -.219E+02 0.223E+02 0.158E+04   0.221E+01 0.616E+00 -.173E+02   -.120E-04 0.109E-04 -.193E-04
   0.728E+02 0.346E+02 -.164E+04   -.765E+02 -.344E+02 0.166E+04   0.278E+01 -.604E+00 -.202E+02   0.130E-04 -.866E-05 -.289E-04
   -.383E+01 -.146E+02 -.161E+04   0.745E+01 0.157E+02 0.163E+04   -.363E+01 -.109E+01 -.173E+02   -.101E-04 -.321E-05 -.427E-04
   -.268E+02 -.329E+02 -.157E+04   0.290E+02 0.363E+02 0.159E+04   -.138E+01 -.287E+01 -.175E+02   0.283E-05 -.339E-05 -.453E-04
   -.111E+01 -.525E+02 -.161E+04   0.590E+00 0.536E+02 0.162E+04   0.527E+00 -.496E+00 -.160E+02   0.149E-04 -.238E-05 -.286E-04
   -.236E+02 0.308E+02 -.155E+04   0.232E+02 -.305E+02 0.156E+04   0.829E+00 -.152E+00 -.154E+02   0.443E-05 0.740E-05 -.500E-04
   0.206E+01 -.197E+02 -.163E+04   -.363E+01 0.192E+02 0.165E+04   0.195E+01 0.707E+00 -.180E+02   0.328E-05 0.474E-05 -.534E-04
   0.327E+02 -.255E+02 0.163E+04   -.340E+02 0.272E+02 -.165E+04   0.125E+01 -.119E+01 0.183E+02   -.353E-05 -.288E-05 0.380E-04
   0.468E+02 0.713E+02 0.166E+04   -.513E+02 -.749E+02 -.167E+04   0.438E+01 0.346E+01 0.184E+02   -.256E-05 0.988E-05 0.238E-04
   0.540E+01 -.141E+02 0.155E+04   -.675E+01 0.128E+02 -.156E+04   0.118E+01 0.135E+01 0.171E+02   0.749E-05 -.865E-05 0.181E-04
   -.130E+02 0.239E+02 0.162E+04   0.141E+02 -.252E+02 -.164E+04   -.976E+00 0.143E+01 0.169E+02   -.101E-04 -.866E-05 0.240E-04
   -.490E+02 0.244E+02 0.162E+04   0.511E+02 -.270E+02 -.164E+04   -.193E+01 0.256E+01 0.177E+02   -.153E-04 -.374E-05 0.433E-04
   -.206E+02 -.407E+02 0.157E+04   0.218E+02 0.458E+02 -.159E+04   -.110E+01 -.463E+01 0.149E+02   -.849E-06 -.126E-04 0.261E-04
   -.118E+02 -.649E+02 0.159E+04   0.123E+02 0.707E+02 -.161E+04   -.449E+00 -.559E+01 0.176E+02   -.242E-04 0.242E-05 0.228E-04
   0.175E+02 -.959E+01 0.157E+04   -.202E+02 0.848E+01 -.159E+04   0.273E+01 0.124E+01 0.161E+02   0.127E-04 -.450E-05 0.141E-04
   0.426E+02 -.404E+02 0.153E+04   -.440E+02 0.430E+02 -.155E+04   0.724E+00 -.228E+01 0.161E+02   0.158E-04 -.153E-04 0.480E-04
   -.343E+02 0.180E+02 0.160E+04   0.358E+02 -.183E+02 -.162E+04   -.128E+01 0.320E+00 0.171E+02   -.609E-07 0.687E-05 0.336E-04
   -.272E+02 -.296E+02 0.164E+04   0.269E+02 0.314E+02 -.166E+04   0.635E+00 -.135E+01 0.190E+02   0.299E-05 0.115E-04 0.303E-04
   -.726E+01 0.139E+02 0.158E+04   0.952E+01 -.160E+02 -.159E+04   -.246E+01 0.237E+01 0.175E+02   -.252E-05 0.751E-05 0.285E-04
   -.176E+02 -.231E+02 0.161E+04   0.185E+02 0.240E+02 -.163E+04   -.884E+00 -.985E+00 0.179E+02   0.896E-06 -.605E-06 0.280E-04
   -.978E+01 0.630E+02 0.155E+04   0.111E+02 -.629E+02 -.157E+04   -.963E+00 -.843E+00 0.170E+02   0.647E-05 -.271E-05 0.235E-04
   0.421E+02 -.820E+02 0.166E+04   -.396E+02 0.871E+02 -.168E+04   -.294E+01 -.375E+01 0.197E+02   0.102E-04 0.211E-04 0.298E-04
   0.128E+02 0.186E+01 0.156E+04   -.163E+02 0.129E+00 -.158E+04   0.406E+01 -.155E+01 0.160E+02   0.176E-05 -.371E-05 0.410E-04
   0.344E+02 0.792E+01 -.149E+02   -.339E+02 -.762E+01 0.152E+02   -.271E+01 -.191E+01 0.478E-01   -.292E-07 -.120E-04 0.354E-05
   0.403E+01 0.371E+02 0.167E+02   -.376E+01 -.369E+02 -.169E+02   -.163E+01 -.146E+01 0.405E+00   -.551E-05 -.218E-05 0.284E-06
   0.241E+02 0.137E+02 -.583E+02   -.240E+02 -.134E+02 0.584E+02   -.621E+00 -.180E+01 0.278E+00   -.114E-04 -.225E-05 -.106E-05
   0.138E+02 0.177E+02 0.143E+02   -.137E+02 -.175E+02 -.145E+02   -.115E+01 -.982E+00 -.505E-01   -.122E-04 -.392E-08 -.327E-06
   0.141E+02 -.797E+00 0.275E+02   -.139E+02 0.595E+00 -.276E+02   -.138E+01 0.554E+00 -.530E+00   -.623E-05 0.640E-07 -.511E-05
   -.173E+02 -.772E+01 0.241E+02   0.169E+02 0.779E+01 -.236E+02   0.209E+01 0.242E-01 -.151E+01   -.297E-05 -.499E-05 -.137E-06
   -.210E+02 0.995E+01 -.310E+02   0.207E+02 -.995E+01 0.310E+02   0.229E+01 -.297E+00 -.887E-02   0.351E-05 -.213E-06 0.272E-05
   -.177E+02 -.349E+02 -.145E+02   0.176E+02 0.348E+02 0.144E+02   0.119E+01 0.177E+01 0.183E+01   -.245E-05 -.145E-05 -.136E-05
   -.327E+02 0.394E+01 -.724E+01   0.324E+02 -.388E+01 0.731E+01   0.153E+01 -.337E+00 -.426E-01   0.229E-05 0.409E-05 0.257E-05
   -.117E+02 -.272E+01 0.118E+02   0.118E+02 0.234E+01 -.113E+02   -.391E+00 0.161E+01 -.182E+01   0.399E-05 -.362E-05 -.387E-05
   0.659E+01 -.129E+01 0.377E+02   -.673E+01 0.148E+01 -.380E+02   0.334E+00 0.487E+00 0.114E+00   0.499E-05 0.433E-05 0.610E-05
   0.151E+02 -.122E+02 -.198E+02   -.152E+02 0.121E+02 0.198E+02   0.893E-01 0.896E-01 -.304E+00   0.171E-05 0.499E-05 -.278E-05
   0.368E+02 -.222E+02 -.531E+02   -.368E+02 0.218E+02 0.536E+02   -.491E+00 0.221E+01 -.166E+01   0.233E-05 0.145E-05 -.378E-05
   0.211E+02 0.535E+01 0.173E+02   -.209E+02 -.487E+01 -.172E+02   -.576E+00 -.228E+01 -.528E+00   0.179E-06 -.392E-05 0.141E-05
   -.139E+01 -.155E+02 -.163E+02   0.163E+01 0.153E+02 0.165E+02   -.128E+01 0.141E+01 -.595E+00   0.242E-05 0.948E-05 0.130E-05
   -.254E+02 -.907E+01 0.255E+02   0.254E+02 0.932E+01 -.258E+02   -.101E-01 -.629E+00 0.154E+01   0.832E-05 0.563E-05 0.675E-05
 -----------------------------------------------------------------------------------------------
   0.941E+01 0.211E+02 -.531E+01   0.242E-12 0.147E-12 -.690E-11   -.941E+01 -.211E+02 0.531E+01   -.865E-05 0.444E-05 0.662E-04
 
 
 POSITION                                       TOTAL-FORCE (eV/Angst)
 -----------------------------------------------------------------------------------
      0.09045      1.81680     12.17721        -0.992542      1.189686     -0.698019
     -1.65460      4.74442     12.26476        -0.024797      0.291383     -1.455761
     -3.24460      7.58403     12.22614        -0.411336     -0.130976     -1.236712
     -5.02001     10.44528     12.05151         0.853311     -0.999492      0.442996
      3.31242      1.83761     11.92609        -0.336303      0.481725      1.275549
      1.51978      4.85100     11.98659         0.222092     -1.333487     -0.067943
     -0.08736      7.56433     12.24473         0.301871      0.741199     -0.936637
     -1.72043     10.41382     12.18856         0.524128     -1.093880     -0.663730
      6.48463      1.81322     12.11327         0.645955      0.682339      0.360044
      5.01945      4.75905     12.17675         0.447225     -0.288579     -1.578683
      3.36269      7.55035     12.22206        -0.837808      0.518552     -2.028949
      1.68097     10.39418     12.07278        -0.585031     -0.788575      1.096426
      9.85176      1.94371     12.17216         0.758879      0.974372      0.049060
      8.21415      4.84593     12.08510         0.275676     -1.409001      1.044139
      6.58224      7.59863     12.16567        -0.343651      0.069728      0.250813
      4.83896     10.49295     12.25914         0.942692     -0.807670     -1.310908
      1.78011      0.96246     14.67085        -2.189727      0.280367     -0.675872
      0.06233      3.79657     14.67081         0.479255     -0.904487      0.221873
     -1.56956      6.63359     14.81540        -0.807303      1.109178     -0.203951
     -3.43500      9.50246     14.69170         1.606323     -0.422869      0.226279
      4.78502      0.86502     14.69369         1.071630      0.959287     -0.220441
      3.38697      3.89698     14.33892        -1.644843     -2.465785      2.980639
      1.63302      6.56766     14.60659        -0.448583      0.279938      1.085719
      0.07542      9.54585     14.72027        -0.325124     -0.443623      0.076899
      8.22798      1.06567     14.71960        -1.016780     -0.951870     -0.455852
      6.60058      3.74604     14.73148         0.330865      0.909813     -0.819898
      4.81958      6.66967     14.69308         2.091298     -0.751037     -0.205353
      3.28274      9.34718     14.70743        -0.038801      1.290057      0.717365
     11.39485      0.87571     14.71149         1.235888      0.726511      0.711071
      9.93700      3.86792     14.71167        -0.644574     -0.200919     -0.122816
      8.23536      6.70717     14.74988        -0.086035     -0.534631     -0.082529
      6.62684      9.55731     14.76598        -0.746442     -0.379954     -0.319205
     -0.20884      1.87797     15.80928         0.504546      0.089154      0.168434
     -1.44761      4.75086     15.76559        -0.715132     -0.030045      1.076234
     -3.36836      7.68535     16.00638         0.024519     -0.143657     -0.569161
     -4.92566     10.40268     15.95226        -0.229485      0.212322     -0.453238
      3.10512      2.00108     15.62930         1.558957      0.458841      1.235180
      1.83312      4.60217     15.82876        -0.305049      0.661850     -0.652052
      0.08027      7.78441     15.98045        -0.222087     -0.573664     -0.585791
     -2.02300     10.53612     15.88380         0.844489     -0.235974      0.362084
      6.57413      2.07264     15.79351         0.097468     -1.501917      0.707345
      4.94121      4.55359     15.75208        -0.366841      0.718295     -0.066818
      3.57286      7.66569     15.89589        -0.921720     -0.410547      0.527299
      1.54274     10.47977     15.98149        -0.019727      0.009256     -0.748719
      9.77354      1.77730     15.79744         0.759040      0.586575      0.572203
      8.26153      4.48479     15.93219         0.006471      0.687136     -0.145236
      6.44271      7.55438     15.79961         0.413599      0.148742      0.065276
      4.89481     10.33428     16.01398         0.378068      0.212684     -0.967446
      1.66844      0.80021     10.88764        -0.025438      0.586117     -0.028508
      0.01034      4.06607     10.74465        -0.071371     -0.087132      1.079873
     -1.60721      6.60440     11.14254        -0.164051      0.050204     -0.537331
     -3.40584      9.44257     10.86327         0.142790      0.125886      0.761688
      4.90715      0.87761     10.92955         0.134932     -0.020134     -0.130302
      3.12558      3.65748     10.94451         0.170422      0.427850      0.021942
      1.63998      6.65958     10.96798        -0.035337      0.241218      0.331155
      0.06394      9.43178     10.98070         0.027787      0.130024      0.385617
      8.45882      0.82657     11.09798        -0.708229      0.311146     -0.600706
      6.45602      3.73530     10.87136         0.227013      0.024803      0.743022
      4.80439      6.43098     10.82462         0.294395      0.366787      1.073481
      3.32354      9.43273     11.02897        -0.195060      0.274589      0.149103
     11.42141      0.91182     10.87309         0.044058     -0.094813      1.050760
      9.83976      3.93404     11.07008         0.341051     -0.777453     -0.126809
      8.55985      6.32060     10.81381        -0.447413      1.369112      0.069270
      6.42163      9.36879     11.05205         0.511445      0.443881     -0.262048
      0.20655      0.09934     13.41319        -2.281548     -1.608294      0.316559
     -1.52662      2.91970     13.38808        -1.370764     -1.261940      0.189916
     -3.23000      5.84988     13.54728        -0.511155     -1.435142      0.359245
     -4.93261      8.59731     13.45345        -1.065012     -0.808116     -0.281321
     -3.23314     11.32422     13.40929        -1.142714      0.352118     -0.619932
      1.52070      2.85638     13.38015         1.725189      0.099769     -1.096409
     -0.10958      5.74591     13.47656         1.975872     -0.289851      0.021882
     -1.73300      8.43246     13.33817         1.136668      1.675164      1.753630
      6.44878      0.01181     13.41498         1.227755     -0.274505      0.026360
      4.96140      2.68649     13.38940        -0.309118      1.237554     -1.310396
      3.27432      5.70320     13.34859         0.200359      0.680007     -0.166448
      1.64954      8.50400     13.50738        -0.035431     -0.035322     -0.347599
      3.31893     11.17897     13.57994        -0.576092      1.794801     -1.152891
      8.32449      2.97545     13.44516        -0.360275     -1.799635     -0.447915
      6.66322      5.60208     13.42055        -1.050387      1.184819     -0.360011
      4.94958      8.51926     13.33545         0.075135     -0.369861      1.153918
 -----------------------------------------------------------------------------------
    total drift:                                0.006255     -0.001738      0.007373


--------------------------------------------------------------------------------------------------------



  FREE ENERGIE OF THE ION-ELECTRON SYSTEM (eV)
  ---------------------------------------------------
  free  energy   TOTEN  =      -593.29952868 eV

  energy  without entropy=     -593.29952868  energy(sigma->0) =     -593.29952868
 


--------------------------------------------------------------------------------------------------------


    POTLOK:  cpu time    0.7844: real time    0.7844


--------------------------------------------------------------------------------------------------------


     LOOP+:  cpu time 1870.7150: real time 1871.1578
    4ORBIT:  cpu time    0.0000: real time    0.0000

 total amount of memory used by VASP MPI-rank0   234705. kBytes
=======================================================================

   base      :      30000. kBytes
   nonlr-proj:      19437. kBytes
   fftplans  :      66973. kBytes
   grid      :      38377. kBytes
   one-center:        108. kBytes
   wavefun   :      79810. kBytes
 
  
  
 General timing and accounting informations for this job:
 ========================================================
  
                  Total CPU time used (sec):     1903.890
                            User time (sec):     1897.159
                          System time (sec):        6.731
                         Elapsed time (sec):     1904.537
  
                   Maximum memory used (kb):      439604.
                   Average memory used (kb):           0.
  
                          Minor page faults:       331486
                          Major page faults:            0
                 Voluntary context switches:         2415
