 vasp.5.4.4.18Apr17-6-g9f103f2a35 (build Oct 31 2019 15:01:46) complex          
  
 executed on             LinuxIFC date 2024.04.29  04:06:58
 running on   52 total cores
 distrk:  each k-point on   52 cores,    1 groups
 distr:  one band on NCORES_PER_BAND=  13 cores,    4 groups


--------------------------------------------------------------------------------------------------------


 INCAR:
 POTCAR:    PAW_PBE Ca_sv 06Sep2000               
 POTCAR:    PAW_PBE Si 05Jan2001                  
 POTCAR:    PAW_PBE O 08Apr2002                   
 POTCAR:    PAW_PBE Ca_sv 06Sep2000               
   SHA256 =  a47365830e737f14e0e6c5cf1ed81b94e081eecf0a33df105380881bc9da05d5 Ca
   COPYR  = (c) Copyright 06Sep2000 Georg Kresse                                
   COPYR  = This file is part of the software VASP. Any use, copying, and all ot
   COPYR  = If you do not have a valid VASP license, you may not use, copy or di
   VRHFIN =Ca: 3s3p4s                                                           
   LEXCH  = PE                                                                  
   EATOM  =  1006.0909 eV,   73.9456 Ry                                         
                                                                                
   TITEL  = PAW_PBE Ca_sv 06Sep2000                                             
   LULTRA =        F    use ultrasoft PP ?                                      
   IUNSCR =        1    unscreen: 0-lin 1-nonlin 2-no                           
   RPACOR =    2.000    partial core radius                                     
   POMASS =   40.078; ZVAL   =   10.000    mass and valenz                      
   RCORE  =    2.300    outmost cutoff radius                                   
   RWIGS  =    2.500; RWIGS  =    1.323    wigner-seitz radius (au A)           
   ENMAX  =  266.622; ENMIN  =  199.967 eV                                      
   RCLOC  =    1.808    cutoff for local pot                                    
   LCOR   =        T    correct aug charges                                     
   LPAW   =        T    paw PP                                                  
   EAUG   =  420.852                                                            
   RMAX   =    2.359    core radius for proj-oper                               
   RAUG   =    1.300    factor for augmentation sphere                          
   RDEP   =    2.392    radius for radial grids                                 
   RDEPT  =    1.987    core radius for aug-charge                              
                                                                                
   Atomic configuration                                                         
    7 entries                                                                   
     n  l   j            E        occ.                                          
     1  0  0.50     -3949.1705   2.0000                                         
     2  0  0.50      -414.3434   2.0000                                         
     2  1  1.50      -334.7047   6.0000                                         
     3  0  0.50       -47.0896   2.0000                                         
     4  0  0.50        -3.7663   2.0000                                         
     3  1  1.50       -28.0061   6.0000                                         
     3  2  1.50        -4.0817   0.0000                                         
   Description                                                                  
     l       E           TYP  RCUT    TYP  RCUT                                 
     0    -47.0896403     23  2.300                                             
     0     -3.7663320     23  2.300                                             
     1    -28.0060855     23  2.300                                             
     1      6.8029130     23  2.300                                             
     2     -4.0817478     23  2.300                                             
     2      0.4464412     23  2.300                                             
  local pseudopotential read in
  partial core-charges read in
  partial kinetic energy density read in
  atomic valenz-charges read in
  non local Contribution for L=           0  read in
    real space projection operators read in
  non local Contribution for L=           0  read in
    real space projection operators read in
  non local Contribution for L=           1  read in
    real space projection operators read in
  non local Contribution for L=           1  read in
    real space projection operators read in
  non local Contribution for L=           2  read in
    real space projection operators read in
  non local Contribution for L=           2  read in
    real space projection operators read in
    PAW grid and wavefunctions read in
 
   number of l-projection  operators is LMAX  =           6
   number of lm-projection operators is LMMAX =          18
 
 POTCAR:    PAW_PBE Si 05Jan2001                  
   SHA256 =  79d9987ad8750f624c4d6acb2a16d13abf6a777132adc04dc6c8399be72b42bb Si
   COPYR  = (c) Copyright 05Jan2001 Georg Kresse                                
   COPYR  = This file is part of the software VASP. Any use, copying, and all ot
   COPYR  = If you do not have a valid VASP license, you may not use, copy or di
   VRHFIN =Si: s2p2                                                             
   LEXCH  = PE                                                                  
   EATOM  =   103.0669 eV,    7.5752 Ry                                         
                                                                                
   TITEL  = PAW_PBE Si 05Jan2001                                                
   LULTRA =        F    use ultrasoft PP ?                                      
   IUNSCR =        1    unscreen: 0-lin 1-nonlin 2-no                           
   RPACOR =    1.500    partial core radius                                     
   POMASS =   28.085; ZVAL   =    4.000    mass and valenz                      
   RCORE  =    1.900    outmost cutoff radius                                   
   RWIGS  =    2.480; RWIGS  =    1.312    wigner-seitz radius (au A)           
   ENMAX  =  245.345; ENMIN  =  184.009 eV                                      
   ICORE  =        2    local potential                                         
   LCOR   =        T    correct aug charges                                     
   LPAW   =        T    paw PP                                                  
   EAUG   =  322.069                                                            
   DEXC   =    0.000                                                            
   RMAX   =    1.950    core radius for proj-oper                               
   RAUG   =    1.300    factor for augmentation sphere                          
   RDEP   =    1.993    radius for radial grids                                 
   RDEPT  =    1.837    core radius for aug-charge                              
                                                                                
   Atomic configuration                                                         
    6 entries                                                                   
     n  l   j            E        occ.                                          
     1  0  0.50     -1785.8828   2.0000                                         
     2  0  0.50      -139.4969   2.0000                                         
     2  1  1.50       -95.5546   6.0000                                         
     3  0  0.50       -10.8127   2.0000                                         
     3  1  0.50        -4.0811   2.0000                                         
     3  2  1.50        -4.0817   0.0000                                         
   Description                                                                  
     l       E           TYP  RCUT    TYP  RCUT                                 
     0    -10.8127223     23  1.900                                             
     0     -7.6451159     23  1.900                                             
     1     -4.0811372     23  1.900                                             
     1      2.4879257     23  1.900                                             
     2     -4.0817478      7  1.900                                             
  local pseudopotential read in
  partial core-charges read in
  partial kinetic energy density read in
  atomic valenz-charges read in
  non local Contribution for L=           0  read in
    real space projection operators read in
  non local Contribution for L=           0  read in
    real space projection operators read in
  non local Contribution for L=           1  read in
    real space projection operators read in
  non local Contribution for L=           1  read in
    real space projection operators read in
    PAW grid and wavefunctions read in
 
   number of l-projection  operators is LMAX  =           4
   number of lm-projection operators is LMMAX =           8
 
 POTCAR:    PAW_PBE O 08Apr2002                   
   SHA256 =  818f92134a0a090dccd8ba1447fa70422a3b330e708bb4f08108d8ae51209ddf O/
   COPYR  = (c) Copyright 08Apr2002 Georg Kresse                                
   COPYR  = This file is part of the software VASP. Any use, copying, and all ot
   COPYR  = If you do not have a valid VASP license, you may not use, copy or di
   VRHFIN =O: s2p4                                                              
   LEXCH  = PE                                                                  
   EATOM  =   432.3788 eV,   31.7789 Ry                                         
                                                                                
   TITEL  = PAW_PBE O 08Apr2002                                                 
   LULTRA =        F    use ultrasoft PP ?                                      
   IUNSCR =        1    unscreen: 0-lin 1-nonlin 2-no                           
   RPACOR =    1.200    partial core radius                                     
   POMASS =   16.000; ZVAL   =    6.000    mass and valenz                      
   RCORE  =    1.520    outmost cutoff radius                                   
   RWIGS  =    1.550; RWIGS  =    0.820    wigner-seitz radius (au A)           
   ENMAX  =  400.000; ENMIN  =  300.000 eV                                      
   ICORE  =        2    local potential                                         
   LCOR   =        T    correct aug charges                                     
   LPAW   =        T    paw PP                                                  
   EAUG   =  605.392                                                            
   DEXC   =    0.000                                                            
   RMAX   =    1.553    core radius for proj-oper                               
   RAUG   =    1.300    factor for augmentation sphere                          
   RDEP   =    1.550    radius for radial grids                                 
   RDEPT  =    1.329    core radius for aug-charge                              
                                                                                
   Atomic configuration                                                         
    4 entries                                                                   
     n  l   j            E        occ.                                          
     1  0  0.50      -514.6923   2.0000                                         
     2  0  0.50       -23.9615   2.0000                                         
     2  1  0.50        -9.0305   4.0000                                         
     3  2  1.50        -9.5241   0.0000                                         
   Description                                                                  
     l       E           TYP  RCUT    TYP  RCUT                                 
     0    -23.9615318     23  1.200                                             
     0     -9.5240782     23  1.200                                             
     1     -9.0304911     23  1.520                                             
     1      8.1634956     23  1.520                                             
     2     -9.5240782      7  1.500                                             
  local pseudopotential read in
  partial core-charges read in
  partial kinetic energy density read in
  kinetic energy density of atom read in
  atomic valenz-charges read in
  non local Contribution for L=           0  read in
    real space projection operators read in
  non local Contribution for L=           0  read in
    real space projection operators read in
  non local Contribution for L=           1  read in
    real space projection operators read in
  non local Contribution for L=           1  read in
    real space projection operators read in
    PAW grid and wavefunctions read in
 
   number of l-projection  operators is LMAX  =           4
   number of lm-projection operators is LMMAX =           8
 
 Optimization of the real space projectors (new method)

 maximal supplied QI-value         = 16.25
 optimisation between [QCUT,QGAM] = [ 12.51, 25.03] = [ 43.85,175.40] Ry 
 Optimized for a Real-space Cutoff    1.47 Angstroem

   l    n(q)    QCUT    max X(q) W(low)/X(q) W(high)/X(q)  e(spline) 
   0     11    12.514    11.817    0.25E-04    0.32E-05    0.87E-07
   0     11    12.514     8.461    0.39E-04    0.59E-05    0.18E-06
   1     11    12.514     3.957    0.97E-05    0.57E-05    0.28E-07
   1     11    12.514     4.314    0.42E-04    0.14E-04    0.23E-06
   2     10    12.514    14.565    0.79E-04    0.50E-03    0.16E-05
   2     10    12.514    14.552    0.75E-04    0.48E-03    0.15E-05
 Optimization of the real space projectors (new method)

 maximal supplied QI-value         = 19.84
 optimisation between [QCUT,QGAM] = [ 12.50, 25.00] = [ 43.76,175.03] Ry 
 Optimized for a Real-space Cutoff    1.16 Angstroem

   l    n(q)    QCUT    max X(q) W(low)/X(q) W(high)/X(q)  e(spline) 
   0      9    12.501   159.560    0.10E-03    0.83E-04    0.71E-07
   0      9    12.501   115.863    0.99E-04    0.81E-04    0.70E-07
   1      8    12.501    88.339    0.20E-03    0.25E-03    0.76E-07
   1      8    12.501    48.592    0.20E-03    0.24E-03    0.75E-07
 Optimization of the real space projectors (new method)

 maximal supplied QI-value         = 24.76
 optimisation between [QCUT,QGAM] = [ 12.38, 25.00] = [ 42.90,175.06] Ry 
 Optimized for a Real-space Cutoff    1.16 Angstroem

   l    n(q)    QCUT    max X(q) W(low)/X(q) W(high)/X(q)  e(spline) 
   0      9    12.378    20.381    0.16E-03    0.67E-05    0.31E-06
   0      9    12.378    15.268    0.17E-03    0.81E-05    0.33E-06
   1      8    12.378     5.964    0.20E-03    0.16E-03    0.30E-06
   1      8    12.378     5.382    0.18E-03    0.14E-03    0.26E-06
  PAW_PBE Ca_sv 06Sep2000               :
 energy of atom  1       EATOM=-1006.0909
 kinetic energy error for atom=    0.0012 (will be added to EATOM!!)
  PAW_PBE Si 05Jan2001                  :
 energy of atom  2       EATOM= -103.0669
 kinetic energy error for atom=    0.0003 (will be added to EATOM!!)
  PAW_PBE O 08Apr2002                   :
 energy of atom  3       EATOM= -432.3788
 kinetic energy error for atom=    0.0168 (will be added to EATOM!!)
 
 
 POSCAR: Ca Si  O                                
  positions in direct lattice
  No initial velocities read in
 exchange correlation table for  LEXCH =        8
   RHO(1)=    0.500       N(1)  =     2000
   RHO(2)=  100.500       N(2)  =     4000
 


--------------------------------------------------------------------------------------------------------


 ion  position               nearest neighbor table
   1  0.544  0.533  0.557- 118 2.09 124 2.25 122 2.30  61 2.52
   2  0.828  0.542  0.661- 103 1.93  73 2.13  44 2.84
   3  0.666  0.260  0.610- 116 2.25 112 2.37  86 2.38  90 2.49
   4  0.200  0.135  0.948- 115 2.04 120 2.16 134 2.49  40 2.98
   5  0.757  0.749  0.845- 133 2.02  84 2.24  99 2.28  49 2.42  37 2.85
   6  0.394  0.350  0.660-  90 2.23 121 2.45
   7  0.522  0.226  0.977-
   8  0.928  0.554  0.012-  83 2.20  84 2.24  89 2.55
   9  0.399  0.593  0.872-  62 1.96  55 2.57
  10  0.022  0.776  0.584- 106 2.09  88 2.11  77 2.47 135 2.54  46 2.99
  11  0.751  0.643  0.399- 124 2.25  94 2.36  77 2.55  43 3.12
  12  0.681  0.980  0.437-  74 2.20  75 2.22 104 2.22 119 2.56  52 2.85
  13  0.083  0.672  0.240-  91 2.32  68 2.48 128 2.55  50 2.79  48 2.83
  14  0.469  0.945  0.835-  58 2.00  87 2.12
  15  0.443  0.278  0.304- 113 2.34  56 2.35  76 2.36  98 2.40  34 2.93  52 3.07
  16  0.704  0.888  0.166- 127 1.98 110 2.11 109 2.29
  17  0.897  0.279  0.017- 131 2.31  80 2.34  60 2.36  35 3.05
  18  0.994  0.886  0.007- 100 1.91 128 2.24  78 2.28  72 2.32  40 2.90  50 2.95
  19  0.100  0.547  0.719- 103 2.35  64 2.51 106 2.51  89 2.52
  20  0.526  0.789  0.362- 104 2.22 110 2.39  96 2.56
  21  0.273  0.962  0.707- 135 2.28 120 2.35  70 2.48  28 2.73
  22  0.681  0.490  0.047-  69 2.20  63 2.28  47 3.12
  23  0.823  0.213  0.281-  80 2.27  52 3.01  31 3.06
  24  0.037  0.977  0.788- 120 2.25  78 2.49 135 2.50
  25  0.211  0.166  0.301-  76 2.10  97 2.34  79 2.51  53 2.85  54 2.96
  26  0.310  0.549  0.147- 111 2.13  91 2.30 125 2.53
  27  0.906  0.052  0.532-  67 1.86  88 2.16 116 2.34  42 2.68
  28  0.225  0.768  0.707-  70 1.60 135 1.66  64 1.72  21 2.73
  29  0.309  0.379  0.975-  55 1.47 114 1.60 134 1.63  54 3.02
  30  0.439  0.118  0.637-  87 1.51  90 1.60 129 1.70
  31  0.842  0.431  0.233-  94 1.65  83 1.68  80 1.72  43 3.03  23 3.06
  32  0.624  0.482  0.793-  73 1.55 118 1.65  57 1.80  63 1.99
  33  0.149  0.312  0.777- 108 1.41 115 1.55 121 1.80
  34  0.493  0.486  0.316-  98 1.63 122 1.73 125 1.79  82 1.79  38 2.75  15 2.93
  35  0.758  0.110  0.063- 131 1.39  59 1.61 109 1.70  37 3.04  17 3.05
  36  0.179  0.626  0.946- 111 1.67  62 1.69  89 1.71
  37  0.718  0.935  0.932- 133 1.45  81 1.64  58 1.80 109 2.05   5 2.85  35 3.04  39 3.06
  38  0.341  0.512  0.444- 101 1.62 125 1.81 122 2.22 132 2.46  34 2.75  53 3.05
  39  0.758  0.129  0.829- 123 1.64 112 1.65  59 1.81  81 1.89  42 2.74  37 3.06
  40  0.198  0.918  0.959- 102 1.63 100 1.74  72 1.83 120 2.05  18 2.90   4 2.98
  41  0.445  0.020  0.409-  95 1.50 104 1.52 113 1.82 129 1.98  52 3.14
  42  0.886  0.176  0.683- 123 1.54 116 1.56  67 1.74  93 1.77  27 2.68  39 2.74
  43  0.730  0.417  0.424-  86 1.53 107 1.59 124 1.61  94 1.94  31 3.03  11 3.12
  44  0.903  0.392  0.782-  93 1.56 103 1.62  60 1.63 108 2.27   2 2.84
  45  0.939  0.973  0.293-  85 1.51  66 1.64 119 1.67  50 2.84
  46  0.804  0.786  0.593-  71 1.56  99 1.60  77 1.76  88 2.40  51 2.89  10 2.99
  47  0.588  0.651  0.180- 130 1.55  69 1.56 110 1.75  82 2.00  22 3.12
  48  0.135  0.490  0.326-  92 1.66  91 1.76 105 1.83 132 1.83  79 2.55  53 2.79  13 2.83
  49  0.923  0.718  0.794- 106 1.53  84 1.74  78 1.76  99 2.24   5 2.42
  50  0.927  0.793  0.190- 127 1.54  68 1.69 128 1.86  66 1.92  13 2.79  45 2.84  18 2.95
  51  0.598  0.756  0.629-  96 1.69  61 1.71 117 1.75  71 2.06  46 2.89
  52  0.619  0.138  0.317-  56 1.49 113 1.75  75 1.80  74 1.84  12 2.85  23 3.01  15 3.07  41 3.14

  53  0.211  0.332  0.429-  65 1.61  76 1.70  79 1.73 132 1.84  48 2.79  25 2.85  38 3.05
  54  0.188  0.320  0.150- 126 1.57  97 1.60 105 1.67 114 1.89  25 2.96  29 3.02
  55  0.394  0.444  0.985-  29 1.47   9 2.57
  56  0.576  0.195  0.234-  52 1.49  15 2.35
  57  0.637  0.586  0.871-  32 1.80
  58  0.600  0.978  0.890-  37 1.80  14 2.00
  59  0.750  0.161  0.958-  35 1.61  39 1.81
  60  0.894  0.405  0.900-  44 1.63  17 2.36
  61  0.656  0.647  0.651-  51 1.71   1 2.52
  62  0.258  0.613  0.853-  36 1.69   9 1.96
  63  0.603  0.416  0.921-  32 1.99  22 2.28
  64  0.202  0.671  0.631-  28 1.72  19 2.51
  65  0.186  0.263  0.522-  53 1.61
  66  0.006  0.876  0.271-  45 1.64  50 1.92
  67  0.973  0.092  0.643-  42 1.74  27 1.86
  68  0.904  0.692  0.258-  50 1.69  13 2.48
  69  0.669  0.642  0.100-  47 1.56  22 2.20
  70  0.334  0.794  0.740-  28 1.60  21 2.48
  71  0.706  0.814  0.542-  46 1.56  51 2.06
  72  0.144  0.807  0.010-  40 1.83  18 2.32
  73  0.715  0.460  0.728-  32 1.55   2 2.13
  74  0.654  0.138  0.446-  52 1.84  12 2.20
  75  0.693  0.034  0.285-  52 1.80  12 2.22
  76  0.299  0.251  0.394-  53 1.70  25 2.10  15 2.36
  77  0.870  0.693  0.534-  46 1.76  10 2.47  11 2.55
  78  0.966  0.823  0.855-  49 1.76  18 2.28  24 2.49
  79  0.109  0.308  0.358-  53 1.73  25 2.51  48 2.55
  80  0.821  0.328  0.162-  31 1.72  23 2.27  17 2.34
  81  0.772  0.993  0.843-  37 1.64  39 1.89
  82  0.545  0.606  0.312-  34 1.79  47 2.00
  83  0.844  0.516  0.144-  31 1.68   8 2.20
  84  0.875  0.643  0.885-  49 1.74   5 2.24   8 2.24
  85  0.010  0.048  0.330-  45 1.51
  86  0.743  0.396  0.533-  43 1.53   3 2.38
  87  0.446  0.053  0.727-  30 1.51  14 2.12
  88  0.933  0.898  0.551-  10 2.11  27 2.16  46 2.40
  89  0.077  0.570  0.900-  36 1.71  19 2.52   8 2.55
  90  0.492  0.221  0.645-  30 1.60   6 2.23   3 2.49
  91  0.218  0.579  0.285-  48 1.76  26 2.30  13 2.32
  92  0.015  0.507  0.326-  48 1.66
  93  0.875  0.287  0.749-  44 1.56  42 1.77
  94  0.790  0.495  0.321-  31 1.65  43 1.94  11 2.36
  95  0.359  0.012  0.342-  41 1.50
  96  0.511  0.792  0.548-  51 1.69  20 2.56
  97  0.119  0.227  0.170-  54 1.60  25 2.34
  98  0.543  0.407  0.240-  34 1.63  15 2.40
  99  0.823  0.813  0.706-  46 1.60  49 2.24   5 2.28
 100  0.094  0.982  0.993-  40 1.74  18 1.91
 101  0.316  0.516  0.560-  38 1.62
 102  0.316  0.931  0.948-  40 1.63
 103  0.937  0.496  0.737-  44 1.62   2 1.93  19 2.35
 104  0.525  0.943  0.411-  41 1.52  20 2.22  12 2.22
 105  0.163  0.420  0.215-  54 1.67  48 1.83
 106  0.987  0.691  0.706-  49 1.53  10 2.09  19 2.51
 107  0.679  0.349  0.344-  43 1.59
 108  0.061  0.356  0.746-  33 1.41  44 2.27
 109  0.682  0.012  0.056-  35 1.70  37 2.05  16 2.29
 110  0.628  0.765  0.221-  47 1.75  16 2.11  20 2.39
 111  0.216  0.640  0.062-  36 1.67  26 2.13
 112  0.677  0.198  0.771-  39 1.65   3 2.37
 113  0.505  0.134  0.375-  52 1.75  41 1.82  15 2.34
 114  0.217  0.403  0.043-  29 1.60  54 1.89
 115  0.139  0.217  0.839-  33 1.55   4 2.04
 116  0.805  0.172  0.602-  42 1.56   3 2.25  27 2.34
 117  0.530  0.802  0.727-  51 1.75
 118  0.548  0.526  0.710-  32 1.65   1 2.09
 119  0.823  0.945  0.321-  45 1.67  12 2.56
 120  0.186  0.016  0.846-  40 2.05   4 2.16  24 2.25  21 2.35
 121  0.260  0.384  0.774-  33 1.80   6 2.45
 122  0.485  0.438  0.432-  34 1.73  38 2.22   1 2.30
 123  0.858  0.108  0.768-  42 1.54  39 1.64
 124  0.663  0.512  0.446-  43 1.61   1 2.25  11 2.25
 125  0.363  0.493  0.315-  34 1.79  38 1.81  26 2.53
 126  0.289  0.267  0.146-  54 1.57
 127  0.845  0.858  0.150-  50 1.54  16 1.98
 128  0.003  0.744  0.088-  50 1.86  18 2.24  13 2.55
 129  0.393  0.060  0.538-  30 1.70  41 1.98
 130  0.478  0.647  0.149-  47 1.55
 131  0.849  0.139  0.100-  35 1.39  17 2.31
 132  0.170  0.458  0.451-  48 1.83  53 1.84  38 2.46
 133  0.715  0.832  0.960-  37 1.45   5 2.02
 134  0.330  0.263  0.956-  29 1.63   4 2.49
 135  0.143  0.858  0.699-  28 1.66  21 2.28  24 2.50  10 2.54
 

IMPORTANT INFORMATION: All symmetrisations will be switched off!
NOSYMM: (Re-)initialisation of all symmetry stuff for point group C_1.

 
 

Automatic generation of k-mesh.
 generate k-points for:    2    2    2
Space group operators:
 irot       det(A)        alpha          n_x          n_y          n_z        tau_x        tau_y        tau_z
    1     1.000000     0.000000     1.000000     0.000000     0.000000     0.000000     0.000000     0.000000
 
 Subroutine IBZKPT returns following result:
 ===========================================
 
 Found      8 irreducible k-points:
 
 Following reciprocal coordinates:
            Coordinates               Weight
  0.000000  0.000000  0.000000      1.000000
  0.500000  0.000000  0.000000      1.000000
  0.000000  0.500000  0.000000      1.000000
  0.500000  0.500000  0.000000      1.000000
  0.000000  0.000000  0.500000      1.000000
  0.500000  0.000000  0.500000      1.000000
  0.000000  0.500000  0.500000      1.000000
  0.500000  0.500000  0.500000      1.000000
 
 Following cartesian coordinates:
            Coordinates               Weight
  0.000000  0.000000  0.000000      1.000000
  0.036574  0.000000  0.000000      1.000000
  0.000000  0.036574  0.000000      1.000000
  0.036574  0.036574  0.000000      1.000000
  0.000000  0.000000  0.036574      1.000000
  0.036574  0.000000  0.036574      1.000000
  0.000000  0.036574  0.036574      1.000000
  0.036574  0.036574  0.036574      1.000000
 


--------------------------------------------------------------------------------------------------------




 Dimension of arrays:
   k-points           NKPTS =      8   k-points in BZ     NKDIM =      8   number of bands    NBANDS=    520
   number of dos      NEDOS =    301   number of ions     NIONS =    135
   non local maximal  LDIM  =      6   non local SUM 2l+1 LMDIM =     18
   total plane-waves  NPLWV = ******
   max r-space proj   IRMAX =   7377   max aug-charges    IRDMAX= 210060
   dimension x,y,z NGX =   112 NGY =  112 NGZ =  112
   dimension x,y,z NGXF=   224 NGYF=  224 NGZF=  224
   support grid    NGXF=   448 NGYF=  448 NGZF=  448
   ions per type =              27  27  81
   NGX,Y,Z   is equivalent  to a cutoff of  13.62, 13.62, 13.62 a.u.
   NGXF,Y,Z  is equivalent  to a cutoff of  27.24, 27.24, 27.24 a.u.

 SYSTEM =  unknown system                          
 POSCAR =  Ca Si  O                                

 Startparameter for this run:
   NWRITE =      2    write-flag & timer
   PREC   = a         normal or accurate (medium, high low for compatibility)
   ISTART =      0    job   : 0-new  1-cont  2-samecut
   ICHARG =      2    charge: 1-file 2-atom 10-const
   ISPIN  =      1    spin polarized calculation?
   LNONCOLLINEAR =      F non collinear calculations
   LSORBIT =      F    spin-orbit coupling
   INIWAV =      1    electr: 0-lowe 1-rand  2-diag
   LASPH  =      F    aspherical Exc in radial PAW
   METAGGA=      F    non-selfconsistent MetaGGA calc.

 Electronic Relaxation 1
   ENCUT  =  600.0 eV  44.10 Ry    6.64 a.u.  27.30 27.30 27.30*2*pi/ulx,y,z
   ENINI  =  600.0     initial cutoff
   ENAUG  =  605.4 eV  augmentation charge cutoff
   NELM   =     60;   NELMIN=  2; NELMDL= -5     # of ELM steps 
   EDIFF  = 0.1E-05   stopping-criterion for ELM
   LREAL  =      T    real-space projection
   NLSPLINE    = F    spline interpolate recip. space projectors
   LCOMPAT=      F    compatible to vasp.4.4
   GGA_COMPAT  = T    GGA compatible to vasp.4.4-vasp.4.6
   LMAXPAW     = -100 max onsite density
   LMAXMIX     =    2 max onsite mixed and CHGCAR
   VOSKOWN=      0    Vosko Wilk Nusair interpolation
   ROPT   =   -0.00025  -0.00025  -0.00025
 Ionic relaxation
   EDIFFG = -.1E-01   stopping-criterion for IOM
   NSW    =      1    number of steps for IOM
   NBLOCK =      1;   KBLOCK =      1    inner block; outer block 
   IBRION =     -1    ionic relax: 0-MD 1-quasi-New 2-CG
   NFREE  =      0    steps in history (QN), initial steepest desc. (CG)
   ISIF   =      2    stress and relaxation
   IWAVPR =     10    prediction:  0-non 1-charg 2-wave 3-comb
   ISYM   =      0    0-nonsym 1-usesym 2-fastsym
   LCORR  =      T    Harris-Foulkes like correction to forces

   POTIM  = 1.0000    time-step for ionic-motion
   TEIN   =    0.0    initial temperature
   TEBEG  =    0.0;   TEEND  =   0.0 temperature during run
   SMASS  =  -3.00    Nose mass-parameter (am)
   estimated Nose-frequenzy (Omega)   =  0.10E-29 period in steps =****** mass=  -0.427E-26a.u.
   SCALEE = 1.0000    scale energy and forces
   NPACO  =    256;   APACO  = 16.0  distance and # of slots for P.C.
   PSTRESS=    0.0 pullay stress

  Mass of Ions in am
   POMASS =  40.08 28.09 16.00
  Ionic Valenz
   ZVAL   =  10.00  4.00  6.00
  Atomic Wigner-Seitz radii
   RWIGS  =  -1.00 -1.00 -1.00
  virtual crystal weights 
   VCA    =   1.00  1.00  1.00
   NELECT =     864.0000    total number of electrons
   NUPDOWN=      -1.0000    fix difference up-down

 DOS related values:
   EMIN   =  10.00;   EMAX   =-10.00  energy-range for DOS
   EFERMI =   0.00
   ISMEAR =     0;   SIGMA  =   0.05  broadening in eV -4-tet -1-fermi 0-gaus

 Electronic relaxation 2 (details)
   IALGO  =     38    algorithm
   LDIAG  =      T    sub-space diagonalisation (order eigenvalues)
   LSUBROT=      F    optimize rotation matrix (better conditioning)
   TURBO    =      0    0=normal 1=particle mesh
   IRESTART =      0    0=no restart 2=restart with 2 vectors
   NREBOOT  =      0    no. of reboots
   NMIN     =      0    reboot dimension
   EREF     =   0.00    reference energy to select bands
   IMIX   =      4    mixing-type and parameters
     AMIX     =   0.40;   BMIX     =  1.00
     AMIX_MAG =   1.60;   BMIX_MAG =  1.00
     AMIN     =   0.10
     WC   =   100.;   INIMIX=   1;  MIXPRE=   1;  MAXMIX= -45

 Intra band minimization:
   WEIMIN = 0.0000     energy-eigenvalue tresh-hold
   EBREAK =  0.48E-09  absolut break condition
   DEPER  =   0.30     relativ break condition  

   TIME   =   0.40     timestep for ELM

  volume/ion in A,a.u.               =      18.93       127.72
  Fermi-wavevector in a.u.,A,eV,Ry     =   1.140556  2.155339 17.699398  1.300869
  Thomas-Fermi vector in A             =   2.277258
 
 Write flags
   LWAVE        =      F    write WAVECAR
   LDOWNSAMPLE  =      F    k-point downsampling of WAVECAR
   LCHARG       =      F    write CHGCAR
   LVTOT        =      F    write LOCPOT, total local potential
   LVHAR        =      F    write LOCPOT, Hartree potential only
   LELF         =      F    write electronic localiz. function (ELF)
   LORBIT       =      0    0 simple, 1 ext, 2 COOP (PROOUT), +10 PAW based schemes


 Dipole corrections
   LMONO  =      F    monopole corrections only (constant potential shift)
   LDIPOL =      F    correct potential (dipole corrections)
   IDIPOL =      0    1-x, 2-y, 3-z, 4-all directions 
   EPSILON=  1.0000000 bulk dielectric constant

 Exchange correlation treatment:
   GGA     =    --    GGA type
   LEXCH   =     8    internal setting for exchange type
   VOSKOWN=      0    Vosko Wilk Nusair interpolation
   LHFCALC =     F    Hartree Fock is set to
   LHFONE  =     F    Hartree Fock one center treatment
   AEXX    =    0.0000 exact exchange contribution

 Linear response parameters
   LEPSILON=     F    determine dielectric tensor
   LRPA    =     F    only Hartree local field effects (RPA)
   LNABLA  =     F    use nabla operator in PAW spheres
   LVEL    =     F    velocity operator in full k-point grid
   LINTERFAST=   F  fast interpolation
   KINTER  =     0    interpolate to denser k-point grid
   CSHIFT  =0.1000    complex shift for real part using Kramers Kronig
   OMEGAMAX=  -1.0    maximum frequency
   DEG_THRESHOLD= 0.2000000E-02 threshold for treating states as degnerate
   RTIME   =   -0.100 relaxation time in fs
  (WPLASMAI=    0.000 imaginary part of plasma frequency in eV, 0.658/RTIME)
   DFIELD  = 0.0000000 0.0000000 0.0000000 field for delta impulse in time
 
 Orbital magnetization related:
   ORBITALMAG=     F  switch on orbital magnetization
   LCHIMAG   =     F  perturbation theory with respect to B field
   DQ        =  0.001000  dq finite difference perturbation B field
   LLRAUG    =     F  two centre corrections for induced B field



--------------------------------------------------------------------------------------------------------


 Static calculation
 charge density and potential will be updated during run
 non-spin polarized calculation
 Variant of blocked Davidson
 Davidson routine will perform the subspace rotation
 perform sub-space diagonalisation
    after iterative eigenvector-optimisation
 modified Broyden-mixing scheme, WC =      100.0
 initial mixing is a Kerker type mixing with AMIX =  0.4000 and BMIX =      1.0000
 Hartree-type preconditioning will be used
 using additional bands           88
 real space projection scheme for non local part
 use partial core corrections
 calculate Harris-corrections to forces 
   (improved forces if not selfconsistent)
 use gradient corrections 
 use of overlap-Matrix (Vanderbilt PP)
 Gauss-broadening in eV      SIGMA  =   0.05


--------------------------------------------------------------------------------------------------------


  energy-cutoff  :      600.00
  volume of cell :     2554.98
      direct lattice vectors                 reciprocal lattice vectors
    13.670863650  0.000000000  0.000000000     0.073148268  0.000000000  0.000000000
     0.000000000 13.670863650  0.000000000     0.000000000  0.073148268  0.000000000
     0.000000000  0.000000000 13.670863650     0.000000000  0.000000000  0.073148268

  length of vectors
    13.670863650 13.670863650 13.670863650     0.073148268  0.073148268  0.073148268


 
 k-points in units of 2pi/SCALE and weight: read from INCAR                         
   0.00000000  0.00000000  0.00000000       0.125
   0.03657413  0.00000000  0.00000000       0.125
   0.00000000  0.03657413  0.00000000       0.125
   0.03657413  0.03657413  0.00000000       0.125
   0.00000000  0.00000000  0.03657413       0.125
   0.03657413  0.00000000  0.03657413       0.125
   0.00000000  0.03657413  0.03657413       0.125
   0.03657413  0.03657413  0.03657413       0.125
 
 k-points in reciprocal lattice and weights: read from INCAR                         
   0.00000000  0.00000000  0.00000000       0.125
   0.50000000  0.00000000  0.00000000       0.125
   0.00000000  0.50000000  0.00000000       0.125
   0.50000000  0.50000000  0.00000000       0.125
   0.00000000  0.00000000  0.50000000       0.125
   0.50000000  0.00000000  0.50000000       0.125
   0.00000000  0.50000000  0.50000000       0.125
   0.50000000  0.50000000  0.50000000       0.125
 
 position of ions in fractional coordinates (direct lattice) 
   0.54406881  0.53301117  0.55746559
   0.82781646  0.54249217  0.66072829
   0.66641680  0.26028738  0.60994611
   0.20022153  0.13524425  0.94766100
   0.75661191  0.74942852  0.84495793
   0.39374541  0.35013659  0.65961840
   0.52233927  0.22577564  0.97678409
   0.92846479  0.55408765  0.01199526
   0.39905705  0.59317403  0.87167331
   0.02194155  0.77640915  0.58403958
   0.75070987  0.64322419  0.39938867
   0.68127823  0.97991517  0.43740558
   0.08349996  0.67158384  0.23957458
   0.46878797  0.94493305  0.83517402
   0.44330070  0.27757153  0.30361762
   0.70370366  0.88774766  0.16575352
   0.89654197  0.27868738  0.01730700
   0.99416596  0.88618002  0.00688088
   0.10006130  0.54689536  0.71885887
   0.52637892  0.78857114  0.36208111
   0.27312311  0.96202483  0.70725123
   0.68137953  0.49049154  0.04734865
   0.82291858  0.21307020  0.28144756
   0.03680827  0.97742031  0.78752780
   0.21077986  0.16646240  0.30133966
   0.30977591  0.54949076  0.14689473
   0.90579351  0.05243599  0.53178541
   0.22484182  0.76813240  0.70680718
   0.30910556  0.37867739  0.97549198
   0.43880810  0.11766567  0.63746301
   0.84153702  0.43110469  0.23273495
   0.62375385  0.48165933  0.79310583
   0.14938447  0.31196796  0.77720427
   0.49328037  0.48552993  0.31565863
   0.75847058  0.10987308  0.06280891
   0.17920695  0.62578328  0.94645775
   0.71766410  0.93470803  0.93217310
   0.34086090  0.51214071  0.44425410
   0.75790058  0.12926131  0.82927967
   0.19813681  0.91790511  0.95898919
   0.44482428  0.02029248  0.40909230
   0.88566888  0.17638415  0.68258327
   0.73034040  0.41746500  0.42376763
   0.90339721  0.39193001  0.78199417
   0.93866053  0.97255618  0.29343547
   0.80386998  0.78561375  0.59314614
   0.58773451  0.65096216  0.17977051
   0.13475489  0.49020594  0.32588381
   0.92315100  0.71783475  0.79421478
   0.92732519  0.79259715  0.18971501
   0.59750747  0.75570730  0.62900739
   0.61886857  0.13827595  0.31679349
   0.21114299  0.33155104  0.42911020
   0.18777894  0.31984025  0.15010743
   0.39443174  0.44371809  0.98536292
   0.57644204  0.19455083  0.23373103
   0.63674679  0.58643047  0.87118920
   0.60024475  0.97789583  0.89006218
   0.74957373  0.16131379  0.95765078
   0.89427110  0.40497644  0.90013465
   0.65556847  0.64691236  0.65077302
   0.25809527  0.61264220  0.85251731
   0.60259084  0.41558082  0.92080233
   0.20214244  0.67087366  0.63050701
   0.18579147  0.26343576  0.52179718
   0.00577932  0.87595042  0.27109292
   0.97251554  0.09241059  0.64339538
   0.90435097  0.69166064  0.25771548
   0.66860857  0.64188969  0.10014101
   0.33361816  0.79434387  0.74019278
   0.70602426  0.81352496  0.54213899
   0.14365120  0.80655321  0.00976643
   0.71451783  0.45965785  0.72828235
   0.65401587  0.13801679  0.44640460
   0.69326589  0.03413414  0.28489198
   0.29934664  0.25071586  0.39435923
   0.87007024  0.69253756  0.53387258
   0.96625438  0.82326414  0.85483582
   0.10909111  0.30821603  0.35762873
   0.82058400  0.32844344  0.16247723
   0.77242602  0.99260155  0.84265070
   0.54483806  0.60591400  0.31210258
   0.84372965  0.51576787  0.14358493
   0.87473704  0.64300136  0.88500586
   0.01012434  0.04827131  0.32977551
   0.74293119  0.39647207  0.53332686
   0.44563827  0.05338340  0.72718873
   0.93267406  0.89754849  0.55077389
   0.07702715  0.56979947  0.90019020
   0.49233320  0.22113904  0.64494328
   0.21814490  0.57921479  0.28515840
   0.01464439  0.50723824  0.32631180
   0.87478265  0.28674773  0.74889563
   0.79001084  0.49471233  0.32119833
   0.35872495  0.01241363  0.34174623
   0.51093930  0.79163388  0.54834678
   0.11941020  0.22701868  0.17029482
   0.54265194  0.40745715  0.24043303
   0.82268708  0.81262487  0.70552550
   0.09428453  0.98249869  0.99314508
   0.31596110  0.51605165  0.55992576
   0.31601280  0.93145073  0.94775693
   0.93714041  0.49619488  0.73734424
   0.52510809  0.94298659  0.41119909
   0.16256376  0.42037748  0.21536793
   0.98699811  0.69079611  0.70595256
   0.67934803  0.34936505  0.34433203
   0.06110576  0.35578276  0.74570727
   0.68186856  0.01210676  0.05554691
   0.62804694  0.76542109  0.22139244
   0.21614909  0.64029662  0.06179724
   0.67730327  0.19752870  0.77131750
   0.50456659  0.13416879  0.37498005
   0.21656320  0.40262935  0.04287733
   0.13908600  0.21712835  0.83872339
   0.80504387  0.17199747  0.60150042
   0.52980583  0.80182145  0.72734957
   0.54824839  0.52630366  0.71015016
   0.82295183  0.94459101  0.32066093
   0.18589603  0.01577291  0.84558070
   0.25966730  0.38379620  0.77351990
   0.48484331  0.43754104  0.43237406
   0.85834615  0.10805654  0.76783088
   0.66319385  0.51156622  0.44575630
   0.36283543  0.49281480  0.31487022
   0.28944980  0.26737655  0.14580352
   0.84465570  0.85783245  0.14991627
   0.00312671  0.74391329  0.08759941
   0.39251746  0.05966952  0.53803408
   0.47838212  0.64698784  0.14941130
   0.84857753  0.13933191  0.10005995
   0.16960508  0.45770574  0.45101796
   0.71521263  0.83247961  0.96033441
   0.32989311  0.26269672  0.95608182
   0.14293740  0.85761288  0.69942235
 
 position of ions in cartesian coordinates  (Angst):
   7.43789048  7.28672301  7.62103603
  11.31696598  7.41633647  9.03272642
   9.11049322  3.55835328  8.33849016
   2.73720129  1.84890569 12.95534434
  10.34353819 10.24533513 11.55130466
   5.38283975  4.78666958  9.01755323
   7.14082899  3.08654794 13.35348216
  12.69291553  7.57485674  0.16398558
   5.45545456  8.10920122 11.91652696
   0.29995994 10.61418360  7.98432552
  10.26285231  8.79343019  5.45998800
   9.31366185 13.39628663  5.97971200
   1.14151654  9.18113114  3.27519147
   6.40873645 12.91805085 11.41755014
   6.06030346  3.79464257  4.15071504
   9.62023673 12.13627719  2.26599375
  12.25650301  3.80989719  0.23660161
  13.59110733 12.11484617  0.09406762
   1.36792435  7.47653186  9.82742161
   7.19605438 10.78044857  4.94996145
   3.73382885 13.15171025  9.66873511
   9.31504664  6.70544290  0.64729688
  11.25000771  2.91285369  3.84763128
   0.50320088 13.36217979 10.76618514
   2.88154268  2.27568478  4.11957335
   4.23490425  7.51201331  2.00817781
  12.38297959  0.71684522  7.26996579
   3.07378188 10.50103335  9.66266463
   4.22573991  5.17684699 13.33581789
   5.99888569  1.60859133  8.71466995
  11.50453780  5.89357344  3.18168781
   8.52725388  6.58469898 10.84244168
   2.04221477  4.26487148 10.62505359
   6.74356866  6.63761352  4.31532610
  10.36894782  1.50205992  0.85865210
   2.44991376  8.55499783 12.93889483
   9.81108811 12.77826598 12.74361129
   4.65986282  7.00140586  6.07333726
  10.36115545  1.76711375 11.33696932
   2.70870134 12.54855565 13.11021049
   6.08113207  0.27741569  5.59264499
  12.10785845  2.41132363  9.33150277
   9.98438404  5.70710714  5.79326951
  12.35022008  5.35802172 10.69053574
  12.83230017 13.29568298  4.01151624
  10.98959692 10.74001850  8.10882000
   8.03483832  8.89921489  2.45761814
   1.84221570  6.70153859  4.45511317
  12.62027145  9.81342103 10.85760194
  12.67733619 10.83548760  2.59356801
   8.16844309 10.33117141  8.59907424
   8.46046781  1.89035167  4.33084056
   2.88650701  4.53258908  5.86630704
   2.56710022  4.37249250  2.05209819
   5.39222253  6.06600952 13.47076216
   7.88046058  2.65967782  3.19530511
   8.70487858  8.01701105 11.90990870
   8.20586415 13.36868055 12.16791871
  10.24732030  2.20529885 13.09191318
  12.22545823  5.53637774 12.30561804
   8.96218715  8.84385071  8.89662924
   3.52838523  8.37534801 11.65464797
   8.23793725  5.68134866 12.58816309
   2.76346173  9.17142228  8.61957536
   2.53992988  3.60139438  7.13341811
   0.07900835 11.97499879  3.70607435
  13.29512733  1.26333257  8.79577050
  12.36325878  9.45559832  3.52319322
   9.14045656  8.77518642  1.36901404
   4.56084837 10.85936669 10.11907455
   9.65196136 11.12158875  7.41150817
   1.96383592 11.02627898  0.13351548
   9.76807579  6.28391975  9.95624864
   8.94096178  1.88680865  6.10273640
   9.47754349  0.46664320  3.89471942
   4.09232707  3.42750230  5.39123130
  11.89461166  9.46758659  7.29849928
  13.20953187 11.25473187 11.68634388
   1.49136968  4.21357937  4.88909354
  11.21809193  4.49010553  2.22120411
  10.55973083 13.56972043 11.51976276
   7.44840680  8.28336767  4.26671184
  11.53451301  7.05099228  1.96293006
  11.95841081  8.79038394 12.09879441
   0.13840852  0.65991052  4.50831608
  10.15651097  5.42011567  7.29103873
   6.09226003  0.72979721  9.94129804
  12.75045988 12.27026308  7.52955473
   1.05302773  7.78965083 12.30637754
   6.73062005  3.02316166  8.81693168
   2.98222922  7.91836641  3.89836155
   0.20020151  6.93438487  4.46096408
  11.95903439  3.92008910 10.23805003
  10.80013054  6.76314478  4.39105851
   4.90407991  0.16970506  4.67196615
   6.98498144 10.82231877  7.49637404
   1.63244051  3.10354145  2.32807731
   7.41852074  5.57029108  3.28692723
  11.24684295 11.10928383  9.64514295
   1.28895096 13.43160562 13.57715091
   4.31946114  7.05487177  7.65466875
   4.32016785 12.73373598 12.95665581
  12.81151876  6.78341253 10.08013251
   7.17868108 12.89144105  5.62144675
   2.22238694  5.74692327  2.94426559
  13.49311653  9.44377938  9.65098116
   9.28727429  4.77612199  4.70731620
   0.83536849  4.86385758 10.19446235
   9.32173205  0.16550982  0.75937430
   8.58594409 10.46396734  3.02662582
   2.95494477  8.75340777  0.84482162
   9.25932064  2.70038792 10.54457644
   6.89786102  1.83420322  5.12630112
   2.96060602  5.50429100  0.58617019
   1.90142573  2.96833208 11.46607308
  11.00564499  2.35135398  8.22303016
   7.24290329 10.96159177  9.94349679
   7.49502893  7.19502551  9.70836595
  11.25046229 12.91337487  4.38371187
   2.54135926  0.21562926 11.55981850
   3.54987619  5.24682553 10.57468507
   6.62822683  5.98156388  5.91092684
  11.73433319  1.47722626 10.49691132
   9.06643271  6.99355205  6.09387365
   4.96027368  6.73720390  4.30454787
   3.95702875  3.65526836  1.99326005
  11.54717293 11.72731041  2.04948489
   0.04274477 10.16993716  1.19755964
   5.36605273  0.81573381  7.35539050
   6.53989680  8.84488256  2.04258154
  11.60078777  1.90478756  1.36790593
   2.31864787  6.25723279  6.16580507
   9.77757431 11.38071523 13.12860073
   4.50992379  3.59129110 13.07046415
   1.95407769 11.72430869  9.56170753
 


--------------------------------------------------------------------------------------------------------


 k-point  1 :   0.0000 0.0000 0.0000  plane waves:   85159
 k-point  2 :   0.5000 0.0000 0.0000  plane waves:   85342
 k-point  3 :   0.0000 0.5000 0.0000  plane waves:   85342
 k-point  4 :   0.5000 0.5000 0.0000  plane waves:   85380
 k-point  5 :   0.0000 0.0000 0.5000  plane waves:   85342
 k-point  6 :   0.5000 0.0000 0.5000  plane waves:   85380
 k-point  7 :   0.0000 0.5000 0.5000  plane waves:   85380
 k-point  8 :   0.5000 0.5000 0.5000  plane waves:   85304

 maximum and minimum number of plane-waves per node :      6630     6499

 maximum number of plane-waves:     85380
 maximum index in each direction: 
   IXMAX=   27   IYMAX=   27   IZMAX=   27
   IXMIN=  -27   IYMIN=  -27   IZMIN=  -27


 real space projection operators:
  total allocation   :      50618.81 KBytes
  max/ min on nodes  :       4147.61       3555.31


 parallel 3D FFT for wavefunctions:
    minimum data exchange during FFTs selected (reduces bandwidth)
 parallel 3D FFT for charge:
    minimum data exchange during FFTs selected (reduces bandwidth)


 total amount of memory used by VASP MPI-rank0   221527. kBytes
=======================================================================

   base      :      30000. kBytes
   nonlr-proj:      21916. kBytes
   fftplans  :      36392. kBytes
   grid      :      20695. kBytes
   one-center:        171. kBytes
   wavefun   :     112353. kBytes
 
     INWAV:  cpu time    0.0000: real time    0.0000
 Broyden mixing: mesh for mixing (old mesh)
   NGX = 55   NGY = 55   NGZ = 55
  (NGX  =224   NGY  =224   NGZ  =224)
  gives a total of 166375 points

 initial charge density was supplied:
 charge density of overlapping atoms calculated
 number of electron     864.0000000 magnetization 
 keeping initial charge density in first step


--------------------------------------------------------------------------------------------------------


 Maximum index for non-local projection operator          727
 Maximum index for augmentation-charges         5647 (set IRDMAX)


--------------------------------------------------------------------------------------------------------


 First call to EWALD:  gamma=   0.130
 Maximum number of real-space cells 3x 3x 3
 Maximum number of reciprocal cells 3x 3x 3

    FEWALD:  cpu time    0.0061: real time    0.0061


--------------------------------------- Iteration      1(   1)  ---------------------------------------


    POTLOK:  cpu time    0.2396: real time    0.2440
    SETDIJ:  cpu time    0.4129: real time    0.4153
     EDDAV:  cpu time   53.5084: real time   53.5111
       DOS:  cpu time    0.0023: real time    0.0023
    --------------------------------------------
      LOOP:  cpu time   54.1632: real time   54.1727

 eigenvalue-minimisations  :  8320
 total energy-change (2. order) : 0.9220565E+04  (-0.4573974E+05)
 number of electron     864.0000000 magnetization 
 augmentation part      864.0000000 magnetization 

 Free energy of the ion-electron system (eV)
  ---------------------------------------------------
  alpha Z        PSCENC =      1870.29120978
  Ewald energy   TEWEN  =    -31868.63457133
  -Hartree energ DENC   =    -28193.89563198
  -exchange      EXHF   =         0.00000000
  -V(xc)+E(xc)   XCENC  =      3117.91962597
  PAW double counting   =     50594.51003143   -49994.65612350
  entropy T*S    EENTRO =        -0.04380252
  eigenvalues    EBANDS =     -1273.46612914
  atomic energy  EATOM  =     64968.54023382
  Solvation  Ediel_sol  =         0.00000000
  ---------------------------------------------------
  free energy    TOTEN  =      9220.56484254 eV

  energy without entropy =     9220.60864506  energy(sigma->0) =     9220.58674380


--------------------------------------------------------------------------------------------------------




--------------------------------------- Iteration      1(   2)  ---------------------------------------


     EDDAV:  cpu time   63.2161: real time   63.2345
       DOS:  cpu time    0.0009: real time    0.0009
    --------------------------------------------
      LOOP:  cpu time   63.2171: real time   63.2354

 eigenvalue-minimisations  : 10360
 total energy-change (2. order) :-0.9189001E+04  (-0.8917743E+04)
 number of electron     864.0000000 magnetization 
 augmentation part      864.0000000 magnetization 

 Free energy of the ion-electron system (eV)
  ---------------------------------------------------
  alpha Z        PSCENC =      1870.29120978
  Ewald energy   TEWEN  =    -31868.63457133
  -Hartree energ DENC   =    -28193.89563198
  -exchange      EXHF   =         0.00000000
  -V(xc)+E(xc)   XCENC  =      3117.91962597
  PAW double counting   =     50594.51003143   -49994.65612350
  entropy T*S    EENTRO =        -0.00000000
  eigenvalues    EBANDS =    -10462.51085803
  atomic energy  EATOM  =     64968.54023382
  Solvation  Ediel_sol  =         0.00000000
  ---------------------------------------------------
  free energy    TOTEN  =        31.56391617 eV

  energy without entropy =       31.56391617  energy(sigma->0) =       31.56391617


--------------------------------------------------------------------------------------------------------




--------------------------------------- Iteration      1(   3)  ---------------------------------------


     EDDAV:  cpu time   63.1535: real time   63.1841
       DOS:  cpu time    0.0010: real time    0.0010
    --------------------------------------------
      LOOP:  cpu time   63.1545: real time   63.1850

 eigenvalue-minimisations  : 10304
 total energy-change (2. order) :-0.1044772E+04  (-0.1037369E+04)
 number of electron     864.0000000 magnetization 
 augmentation part      864.0000000 magnetization 

 Free energy of the ion-electron system (eV)
  ---------------------------------------------------
  alpha Z        PSCENC =      1870.29120978
  Ewald energy   TEWEN  =    -31868.63457133
  -Hartree energ DENC   =    -28193.89563198
  -exchange      EXHF   =         0.00000000
  -V(xc)+E(xc)   XCENC  =      3117.91962597
  PAW double counting   =     50594.51003143   -49994.65612350
  entropy T*S    EENTRO =        -0.00000000
  eigenvalues    EBANDS =    -11507.28275168
  atomic energy  EATOM  =     64968.54023382
  Solvation  Ediel_sol  =         0.00000000
  ---------------------------------------------------
  free energy    TOTEN  =     -1013.20797748 eV

  energy without entropy =    -1013.20797748  energy(sigma->0) =    -1013.20797748


--------------------------------------------------------------------------------------------------------




--------------------------------------- Iteration      1(   4)  ---------------------------------------


     EDDAV:  cpu time   66.3235: real time   66.3379
       DOS:  cpu time    0.0010: real time    0.0010
    --------------------------------------------
      LOOP:  cpu time   66.3245: real time   66.3389

 eigenvalue-minimisations  : 10960
 total energy-change (2. order) :-0.4710560E+02  (-0.4692880E+02)
 number of electron     864.0000000 magnetization 
 augmentation part      864.0000000 magnetization 

 Free energy of the ion-electron system (eV)
  ---------------------------------------------------
  alpha Z        PSCENC =      1870.29120978
  Ewald energy   TEWEN  =    -31868.63457133
  -Hartree energ DENC   =    -28193.89563198
  -exchange      EXHF   =         0.00000000
  -V(xc)+E(xc)   XCENC  =      3117.91962597
  PAW double counting   =     50594.51003143   -49994.65612350
  entropy T*S    EENTRO =        -0.00000000
  eigenvalues    EBANDS =    -11554.38835072
  atomic energy  EATOM  =     64968.54023382
  Solvation  Ediel_sol  =         0.00000000
  ---------------------------------------------------
  free energy    TOTEN  =     -1060.31357653 eV

  energy without entropy =    -1060.31357653  energy(sigma->0) =    -1060.31357653


--------------------------------------------------------------------------------------------------------




--------------------------------------- Iteration      1(   5)  ---------------------------------------


     EDDAV:  cpu time   87.1420: real time   87.1598
       DOS:  cpu time    0.0011: real time    0.0011
    CHARGE:  cpu time    2.7052: real time    2.7079
    MIXING:  cpu time    0.0115: real time    0.0118
    --------------------------------------------
      LOOP:  cpu time   89.8599: real time   89.8805

 eigenvalue-minimisations  : 15264
 total energy-change (2. order) :-0.6830715E+01  (-0.6827593E+01)
 number of electron     864.0000007 magnetization 
 augmentation part      133.7209608 magnetization 

 Broyden mixing:
  rms(total) = 0.86319E+01    rms(broyden)= 0.86311E+01
  rms(prec ) = 0.10118E+02
  weight for this iteration     100.00

 Free energy of the ion-electron system (eV)
  ---------------------------------------------------
  alpha Z        PSCENC =      1870.29120978
  Ewald energy   TEWEN  =    -31868.63457133
  -Hartree energ DENC   =    -28193.89563198
  -exchange      EXHF   =         0.00000000
  -V(xc)+E(xc)   XCENC  =      3117.91962597
  PAW double counting   =     50594.51003143   -49994.65612350
  entropy T*S    EENTRO =        -0.00000000
  eigenvalues    EBANDS =    -11561.21906550
  atomic energy  EATOM  =     64968.54023382
  Solvation  Ediel_sol  =         0.00000000
  ---------------------------------------------------
  free energy    TOTEN  =     -1067.14429131 eV

  energy without entropy =    -1067.14429131  energy(sigma->0) =    -1067.14429131


--------------------------------------------------------------------------------------------------------




--------------------------------------- Iteration      1(   6)  ---------------------------------------


    POTLOK:  cpu time    0.2324: real time    0.2475
    SETDIJ:  cpu time    0.4253: real time    0.4253
     EDDAV:  cpu time   63.0067: real time   63.0096
       DOS:  cpu time    0.0023: real time    0.0022
    CHARGE:  cpu time    2.6752: real time    2.6752
    MIXING:  cpu time    0.0097: real time    0.0097
    --------------------------------------------
      LOOP:  cpu time   66.3515: real time   66.3696

 eigenvalue-minimisations  : 10328
 total energy-change (2. order) : 0.1742844E+03  (-0.8420997E+02)
 number of electron     864.0000007 magnetization 
 augmentation part      117.5898881 magnetization 

 Broyden mixing:
  rms(total) = 0.39356E+01    rms(broyden)= 0.39341E+01
  rms(prec ) = 0.42629E+01
  weight for this iteration     100.00

 eigenvalues of (default mixing * dielectric matrix)
  average eigenvalue GAMMA=   0.8998
  0.8998

 Free energy of the ion-electron system (eV)
  ---------------------------------------------------
  alpha Z        PSCENC =      1870.29120978
  Ewald energy   TEWEN  =    -31868.63457133
  -Hartree energ DENC   =    -29877.25971500
  -exchange      EXHF   =         0.00000000
  -V(xc)+E(xc)   XCENC  =      3221.81876749
  PAW double counting   =     64037.54512868   -63581.28269840
  entropy T*S    EENTRO =        -0.01659425
  eigenvalues    EBANDS =     -9663.86168107
  atomic energy  EATOM  =     64968.54023382
  Solvation  Ediel_sol  =         0.00000000
  ---------------------------------------------------
  free energy    TOTEN  =      -892.85992027 eV

  energy without entropy =     -892.84332602  energy(sigma->0) =     -892.85162315


--------------------------------------------------------------------------------------------------------




--------------------------------------- Iteration      1(   7)  ---------------------------------------


    POTLOK:  cpu time    0.2304: real time    0.2511
    SETDIJ:  cpu time    0.4185: real time    0.4206
     EDDAV:  cpu time   63.5861: real time   63.5876
       DOS:  cpu time    0.0016: real time    0.0016
    CHARGE:  cpu time    2.7095: real time    2.7095
    MIXING:  cpu time    0.0092: real time    0.0092
    --------------------------------------------
      LOOP:  cpu time   66.9552: real time   66.9795

 eigenvalue-minimisations  : 10496
 total energy-change (2. order) :-0.1941445E+01  (-0.9540572E+01)
 number of electron     864.0000007 magnetization 
 augmentation part      118.3906084 magnetization 

 Broyden mixing:
  rms(total) = 0.21285E+01    rms(broyden)= 0.21281E+01
  rms(prec ) = 0.24331E+01
  weight for this iteration     100.00

 eigenvalues of (default mixing * dielectric matrix)
  average eigenvalue GAMMA=   1.0060
  1.0060  1.0060

 Free energy of the ion-electron system (eV)
  ---------------------------------------------------
  alpha Z        PSCENC =      1870.29120978
  Ewald energy   TEWEN  =    -31868.63457133
  -Hartree energ DENC   =    -29904.31847872
  -exchange      EXHF   =         0.00000000
  -V(xc)+E(xc)   XCENC  =      3218.65604627
  PAW double counting   =     73794.61461324   -73386.76916071
  entropy T*S    EENTRO =        -0.00000033
  eigenvalues    EBANDS =     -9587.18125757
  atomic energy  EATOM  =     64968.54023382
  Solvation  Ediel_sol  =         0.00000000
  ---------------------------------------------------
  free energy    TOTEN  =      -894.80136555 eV

  energy without entropy =     -894.80136522  energy(sigma->0) =     -894.80136538


--------------------------------------------------------------------------------------------------------




--------------------------------------- Iteration      1(   8)  ---------------------------------------


    POTLOK:  cpu time    0.2287: real time    0.2463
    SETDIJ:  cpu time    0.4284: real time    0.4305
     EDDAV:  cpu time   75.0490: real time   75.0552
       DOS:  cpu time    0.0021: real time    0.0021
    CHARGE:  cpu time    2.6636: real time    2.6636
    MIXING:  cpu time    0.0090: real time    0.0090
    --------------------------------------------
      LOOP:  cpu time   78.3809: real time   78.4068

 eigenvalue-minimisations  : 12888
 total energy-change (2. order) : 0.5103035E+01  (-0.1864211E+01)
 number of electron     864.0000007 magnetization 
 augmentation part      117.3436167 magnetization 

 Broyden mixing:
  rms(total) = 0.16805E+01    rms(broyden)= 0.16800E+01
  rms(prec ) = 0.20689E+01
  weight for this iteration     100.00

 eigenvalues of (default mixing * dielectric matrix)
  average eigenvalue GAMMA=   1.0049
  1.4059  1.1170  0.4918

 Free energy of the ion-electron system (eV)
  ---------------------------------------------------
  alpha Z        PSCENC =      1870.29120978
  Ewald energy   TEWEN  =    -31868.63457133
  -Hartree energ DENC   =    -29972.70993781
  -exchange      EXHF   =         0.00000000
  -V(xc)+E(xc)   XCENC  =      3219.72023206
  PAW double counting   =     78955.20107961   -78581.57987707
  entropy T*S    EENTRO =        -0.01431797
  eigenvalues    EBANDS =     -9480.51238191
  atomic energy  EATOM  =     64968.54023382
  Solvation  Ediel_sol  =         0.00000000
  ---------------------------------------------------
  free energy    TOTEN  =      -889.69833082 eV

  energy without entropy =     -889.68401285  energy(sigma->0) =     -889.69117184


--------------------------------------------------------------------------------------------------------




--------------------------------------- Iteration      1(   9)  ---------------------------------------


    POTLOK:  cpu time    0.2301: real time    0.2470
    SETDIJ:  cpu time    0.4216: real time    0.4216
     EDDAV:  cpu time   65.4419: real time   65.4464
       DOS:  cpu time    0.0022: real time    0.0022
    CHARGE:  cpu time    2.6567: real time    2.6567
    MIXING:  cpu time    0.0120: real time    0.0120
    --------------------------------------------
      LOOP:  cpu time   68.7645: real time   68.7859

 eigenvalue-minimisations  : 10848
 total energy-change (2. order) :-0.9011103E+00  (-0.1165436E+01)
 number of electron     864.0000007 magnetization 
 augmentation part      118.1184036 magnetization 

 Broyden mixing:
  rms(total) = 0.99097E+00    rms(broyden)= 0.99027E+00
  rms(prec ) = 0.12575E+01
  weight for this iteration     100.00

 eigenvalues of (default mixing * dielectric matrix)
  average eigenvalue GAMMA=   1.0211
  1.9945  0.9168  0.8010  0.3723

 Free energy of the ion-electron system (eV)
  ---------------------------------------------------
  alpha Z        PSCENC =      1870.29120978
  Ewald energy   TEWEN  =    -31868.63457133
  -Hartree energ DENC   =    -30023.85056528
  -exchange      EXHF   =         0.00000000
  -V(xc)+E(xc)   XCENC  =      3220.56721593
  PAW double counting   =     82988.82964250   -82636.91146795
  entropy T*S    EENTRO =        -0.00019613
  eigenvalues    EBANDS =     -9409.43094250
  atomic energy  EATOM  =     64968.54023382
  Solvation  Ediel_sol  =         0.00000000
  ---------------------------------------------------
  free energy    TOTEN  =      -890.59944116 eV

  energy without entropy =     -890.59924503  energy(sigma->0) =     -890.59934310


--------------------------------------------------------------------------------------------------------




--------------------------------------- Iteration      1(  10)  ---------------------------------------


    POTLOK:  cpu time    0.2164: real time    0.2352
    SETDIJ:  cpu time    0.4087: real time    0.4087
     EDDAV:  cpu time   65.7575: real time   65.7590
       DOS:  cpu time    0.0025: real time    0.0025
    CHARGE:  cpu time    2.6534: real time    2.6534
    MIXING:  cpu time    0.0129: real time    0.0129
    --------------------------------------------
      LOOP:  cpu time   69.0514: real time   69.0717

 eigenvalue-minimisations  : 10960
 total energy-change (2. order) : 0.1738157E+01  (-0.3570511E+00)
 number of electron     864.0000007 magnetization 
 augmentation part      117.7007872 magnetization 

 Broyden mixing:
  rms(total) = 0.63844E+00    rms(broyden)= 0.63836E+00
  rms(prec ) = 0.83389E+00
  weight for this iteration     100.00

 eigenvalues of (default mixing * dielectric matrix)
  average eigenvalue GAMMA=   1.0207
  2.1466  1.0251  0.7479  0.7479  0.4361

 Free energy of the ion-electron system (eV)
  ---------------------------------------------------
  alpha Z        PSCENC =      1870.29120978
  Ewald energy   TEWEN  =    -31868.63457133
  -Hartree energ DENC   =    -30106.36676000
  -exchange      EXHF   =         0.00000000
  -V(xc)+E(xc)   XCENC  =      3223.96261519
  PAW double counting   =     86296.14026162   -85959.46710215
  entropy T*S    EENTRO =        -0.02458981
  eigenvalues    EBANDS =     -9313.30258127
  atomic energy  EATOM  =     64968.54023382
  Solvation  Ediel_sol  =         0.00000000
  ---------------------------------------------------
  free energy    TOTEN  =      -888.86128415 eV

  energy without entropy =     -888.83669434  energy(sigma->0) =     -888.84898924


--------------------------------------------------------------------------------------------------------




--------------------------------------- Iteration      1(  11)  ---------------------------------------


    POTLOK:  cpu time    0.2216: real time    0.2402
    SETDIJ:  cpu time    0.4172: real time    0.4172
     EDDAV:  cpu time   65.4050: real time   65.4070
       DOS:  cpu time    0.0025: real time    0.0025
    CHARGE:  cpu time    2.6523: real time    2.6523
    MIXING:  cpu time    0.0134: real time    0.0133
    --------------------------------------------
      LOOP:  cpu time   68.7120: real time   68.7326

 eigenvalue-minimisations  : 10888
 total energy-change (2. order) : 0.3478685E+00  (-0.3994003E+00)
 number of electron     864.0000007 magnetization 
 augmentation part      117.6761038 magnetization 

 Broyden mixing:
  rms(total) = 0.43265E+00    rms(broyden)= 0.43255E+00
  rms(prec ) = 0.58762E+00
  weight for this iteration     100.00

 eigenvalues of (default mixing * dielectric matrix)
  average eigenvalue GAMMA=   0.9630
  2.2452  1.0360  0.8341  0.8341  0.4637  0.3649

 Free energy of the ion-electron system (eV)
  ---------------------------------------------------
  alpha Z        PSCENC =      1870.29120978
  Ewald energy   TEWEN  =    -31868.63457133
  -Hartree energ DENC   =    -30132.48612555
  -exchange      EXHF   =         0.00000000
  -V(xc)+E(xc)   XCENC  =      3224.81892398
  PAW double counting   =     86965.72835820   -86631.22965011
  entropy T*S    EENTRO =        -0.00520969
  eigenvalues    EBANDS =     -9285.53658477
  atomic energy  EATOM  =     64968.54023382
  Solvation  Ediel_sol  =         0.00000000
  ---------------------------------------------------
  free energy    TOTEN  =      -888.51341567 eV

  energy without entropy =     -888.50820598  energy(sigma->0) =     -888.51081082


--------------------------------------------------------------------------------------------------------




--------------------------------------- Iteration      1(  12)  ---------------------------------------


    POTLOK:  cpu time    0.1801: real time    0.1955
    SETDIJ:  cpu time    0.4051: real time    0.4072
     EDDAV:  cpu time   66.0709: real time   66.0711
       DOS:  cpu time    0.0027: real time    0.0026
    CHARGE:  cpu time    2.6566: real time    2.6567
    MIXING:  cpu time    0.0118: real time    0.0117
    --------------------------------------------
      LOOP:  cpu time   69.3270: real time   69.3448

 eigenvalue-minimisations  : 11032
 total energy-change (2. order) : 0.2444715E+00  (-0.6683923E-01)
 number of electron     864.0000007 magnetization 
 augmentation part      117.3581882 magnetization 

 Broyden mixing:
  rms(total) = 0.48821E+00    rms(broyden)= 0.48785E+00
  rms(prec ) = 0.64775E+00
  weight for this iteration     100.00

 eigenvalues of (default mixing * dielectric matrix)
  average eigenvalue GAMMA=   0.8680
  2.2149  1.0878  0.8717  0.8717  0.3960  0.3171  0.3171

 Free energy of the ion-electron system (eV)
  ---------------------------------------------------
  alpha Z        PSCENC =      1870.29120978
  Ewald energy   TEWEN  =    -31868.63457133
  -Hartree energ DENC   =    -30155.14704285
  -exchange      EXHF   =         0.00000000
  -V(xc)+E(xc)   XCENC  =      3225.70513622
  PAW double counting   =     87354.94787807   -87021.53084022
  entropy T*S    EENTRO =        -0.04255987
  eigenvalues    EBANDS =     -9262.39838778
  atomic energy  EATOM  =     64968.54023382
  Solvation  Ediel_sol  =         0.00000000
  ---------------------------------------------------
  free energy    TOTEN  =      -888.26894417 eV

  energy without entropy =     -888.22638429  energy(sigma->0) =     -888.24766423


--------------------------------------------------------------------------------------------------------




--------------------------------------- Iteration      1(  13)  ---------------------------------------


    POTLOK:  cpu time    0.2381: real time    0.2535
    SETDIJ:  cpu time    0.4291: real time    0.4291
     EDDAV:  cpu time   63.5312: real time   63.5308
       DOS:  cpu time    0.0024: real time    0.0024
    CHARGE:  cpu time    2.6463: real time    2.6463
    MIXING:  cpu time    0.0121: real time    0.0121
    --------------------------------------------
      LOOP:  cpu time   66.8592: real time   66.8742

 eigenvalue-minimisations  : 10408
 total energy-change (2. order) : 0.3137290E-01  (-0.2106360E-01)
 number of electron     864.0000007 magnetization 
 augmentation part      117.5248068 magnetization 

 Broyden mixing:
  rms(total) = 0.28510E+00    rms(broyden)= 0.28466E+00
  rms(prec ) = 0.39880E+00
  weight for this iteration     100.00

 eigenvalues of (default mixing * dielectric matrix)
  average eigenvalue GAMMA=   0.8766
  2.2828  1.1083  0.8862  0.8862  0.6804  0.5749  0.4361  0.1578

 Free energy of the ion-electron system (eV)
  ---------------------------------------------------
  alpha Z        PSCENC =      1870.29120978
  Ewald energy   TEWEN  =    -31868.63457133
  -Hartree energ DENC   =    -30155.21247646
  -exchange      EXHF   =         0.00000000
  -V(xc)+E(xc)   XCENC  =      3225.63442788
  PAW double counting   =     87292.32858378   -86958.60098000
  entropy T*S    EENTRO =        -0.00851273
  eigenvalues    EBANDS =     -9262.57548601
  atomic energy  EATOM  =     64968.54023382
  Solvation  Ediel_sol  =         0.00000000
  ---------------------------------------------------
  free energy    TOTEN  =      -888.23757127 eV

  energy without entropy =     -888.22905853  energy(sigma->0) =     -888.23331490


--------------------------------------------------------------------------------------------------------




--------------------------------------- Iteration      1(  14)  ---------------------------------------


    POTLOK:  cpu time    0.2323: real time    0.2513
    SETDIJ:  cpu time    0.4251: real time    0.4292
     EDDAV:  cpu time   62.8440: real time   62.8451
       DOS:  cpu time    0.0024: real time    0.0024
    CHARGE:  cpu time    2.6401: real time    2.6401
    MIXING:  cpu time    0.0123: real time    0.0123
    --------------------------------------------
      LOOP:  cpu time   66.1563: real time   66.1804

 eigenvalue-minimisations  : 10344
 total energy-change (2. order) : 0.5593904E-01  (-0.2265482E-01)
 number of electron     864.0000007 magnetization 
 augmentation part      117.4115687 magnetization 

 Broyden mixing:
  rms(total) = 0.22516E+00    rms(broyden)= 0.22506E+00
  rms(prec ) = 0.31449E+00
  weight for this iteration     100.00

 eigenvalues of (default mixing * dielectric matrix)
  average eigenvalue GAMMA=   0.9109
  2.2681  1.4220  1.0252  0.9320  0.9320  0.5012  0.5012  0.4479  0.1687

 Free energy of the ion-electron system (eV)
  ---------------------------------------------------
  alpha Z        PSCENC =      1870.29120978
  Ewald energy   TEWEN  =    -31868.63457133
  -Hartree energ DENC   =    -30168.30514931
  -exchange      EXHF   =         0.00000000
  -V(xc)+E(xc)   XCENC  =      3226.03884780
  PAW double counting   =     87387.58165076   -87053.55088604
  entropy T*S    EENTRO =        -0.02444484
  eigenvalues    EBANDS =     -9250.11852286
  atomic energy  EATOM  =     64968.54023382
  Solvation  Ediel_sol  =         0.00000000
  ---------------------------------------------------
  free energy    TOTEN  =      -888.18163223 eV

  energy without entropy =     -888.15718739  energy(sigma->0) =     -888.16940981


--------------------------------------------------------------------------------------------------------




--------------------------------------- Iteration      1(  15)  ---------------------------------------


    POTLOK:  cpu time    0.2248: real time    0.2404
    SETDIJ:  cpu time    0.4051: real time    0.4071
     EDDAV:  cpu time   63.5429: real time   63.5448
       DOS:  cpu time    0.0026: real time    0.0026
    CHARGE:  cpu time    2.6299: real time    2.6299
    MIXING:  cpu time    0.0132: real time    0.0131
    --------------------------------------------
      LOOP:  cpu time   66.8184: real time   66.8380

 eigenvalue-minimisations  : 10504
 total energy-change (2. order) :-0.1277285E-01  (-0.3639915E-01)
 number of electron     864.0000007 magnetization 
 augmentation part      117.3727982 magnetization 

 Broyden mixing:
  rms(total) = 0.15235E+00    rms(broyden)= 0.15221E+00
  rms(prec ) = 0.21478E+00
  weight for this iteration     100.00

 eigenvalues of (default mixing * dielectric matrix)
  average eigenvalue GAMMA=   0.9342
  2.2526  2.2526  0.9262  0.9262  0.7757  0.7757  0.4034  0.4312  0.4312  0.1672

 Free energy of the ion-electron system (eV)
  ---------------------------------------------------
  alpha Z        PSCENC =      1870.29120978
  Ewald energy   TEWEN  =    -31868.63457133
  -Hartree energ DENC   =    -30180.79750286
  -exchange      EXHF   =         0.00000000
  -V(xc)+E(xc)   XCENC  =      3226.37089329
  PAW double counting   =     87361.74915380   -87026.85404344
  entropy T*S    EENTRO =        -0.03182646
  eigenvalues    EBANDS =     -9238.82795168
  atomic energy  EATOM  =     64968.54023382
  Solvation  Ediel_sol  =         0.00000000
  ---------------------------------------------------
  free energy    TOTEN  =      -888.19440508 eV

  energy without entropy =     -888.16257862  energy(sigma->0) =     -888.17849185


--------------------------------------------------------------------------------------------------------




--------------------------------------- Iteration      1(  16)  ---------------------------------------


    POTLOK:  cpu time    0.2308: real time    0.2495
    SETDIJ:  cpu time    0.4099: real time    0.4099
     EDDAV:  cpu time   63.6586: real time   63.6608
       DOS:  cpu time    0.0023: real time    0.0023
    CHARGE:  cpu time    2.6464: real time    2.6464
    MIXING:  cpu time    0.0139: real time    0.0139
    --------------------------------------------
      LOOP:  cpu time   66.9618: real time   66.9827

 eigenvalue-minimisations  : 10480
 total energy-change (2. order) :-0.2848436E-02  (-0.1270307E-01)
 number of electron     864.0000007 magnetization 
 augmentation part      117.3618758 magnetization 

 Broyden mixing:
  rms(total) = 0.13131E+00    rms(broyden)= 0.13121E+00
  rms(prec ) = 0.17450E+00
  weight for this iteration     100.00

 eigenvalues of (default mixing * dielectric matrix)
  average eigenvalue GAMMA=   0.8751
  2.3075  1.9943  0.8962  0.8962  0.8852  0.8852  0.4563  0.4563  0.3989  0.2814
  0.1685

 Free energy of the ion-electron system (eV)
  ---------------------------------------------------
  alpha Z        PSCENC =      1870.29120978
  Ewald energy   TEWEN  =    -31868.63457133
  -Hartree energ DENC   =    -30188.64551231
  -exchange      EXHF   =         0.00000000
  -V(xc)+E(xc)   XCENC  =      3226.52027763
  PAW double counting   =     87312.52902732   -86976.85413126
  entropy T*S    EENTRO =        -0.03622327
  eigenvalues    EBANDS =     -9231.90756391
  atomic energy  EATOM  =     64968.54023382
  Solvation  Ediel_sol  =         0.00000000
  ---------------------------------------------------
  free energy    TOTEN  =      -888.19725352 eV

  energy without entropy =     -888.16103025  energy(sigma->0) =     -888.17914188


--------------------------------------------------------------------------------------------------------




--------------------------------------- Iteration      1(  17)  ---------------------------------------


    POTLOK:  cpu time    0.2384: real time    0.2547
    SETDIJ:  cpu time    0.4467: real time    0.4467
     EDDAV:  cpu time   63.1182: real time   63.1179
       DOS:  cpu time    0.0023: real time    0.0023
    CHARGE:  cpu time    2.6461: real time    2.6461
    MIXING:  cpu time    0.0113: real time    0.0113
    --------------------------------------------
      LOOP:  cpu time   66.4631: real time   66.4791

 eigenvalue-minimisations  : 10352
 total energy-change (2. order) : 0.2354653E-02  (-0.6491950E-02)
 number of electron     864.0000007 magnetization 
 augmentation part      117.3956699 magnetization 

 Broyden mixing:
  rms(total) = 0.96387E-01    rms(broyden)= 0.96321E-01
  rms(prec ) = 0.13473E+00
  weight for this iteration     100.00

 eigenvalues of (default mixing * dielectric matrix)
  average eigenvalue GAMMA=   0.8758
  2.4603  2.0074  0.9753  0.9753  0.8656  0.7435  0.7435  0.4393  0.4393  0.3462
  0.3462  0.1682

 Free energy of the ion-electron system (eV)
  ---------------------------------------------------
  alpha Z        PSCENC =      1870.29120978
  Ewald energy   TEWEN  =    -31868.63457133
  -Hartree energ DENC   =    -30189.55026416
  -exchange      EXHF   =         0.00000000
  -V(xc)+E(xc)   XCENC  =      3226.55905553
  PAW double counting   =     87335.90656301   -87000.41972045
  entropy T*S    EENTRO =        -0.02972040
  eigenvalues    EBANDS =     -9230.85768467
  atomic energy  EATOM  =     64968.54023382
  Solvation  Ediel_sol  =         0.00000000
  ---------------------------------------------------
  free energy    TOTEN  =      -888.19489886 eV

  energy without entropy =     -888.16517846  energy(sigma->0) =     -888.18003866


--------------------------------------------------------------------------------------------------------




--------------------------------------- Iteration      1(  18)  ---------------------------------------


    POTLOK:  cpu time    0.2283: real time    0.2453
    SETDIJ:  cpu time    0.4050: real time    0.4050
     EDDAV:  cpu time   68.9024: real time   68.9041
       DOS:  cpu time    0.0024: real time    0.0024
    CHARGE:  cpu time    2.6282: real time    2.6282
    MIXING:  cpu time    0.0130: real time    0.0129
    --------------------------------------------
      LOOP:  cpu time   72.1792: real time   72.1980

 eigenvalue-minimisations  : 11600
 total energy-change (2. order) :-0.7520295E-02  (-0.3299390E-02)
 number of electron     864.0000007 magnetization 
 augmentation part      117.3070061 magnetization 

 Broyden mixing:
  rms(total) = 0.15629E+00    rms(broyden)= 0.15611E+00
  rms(prec ) = 0.21176E+00
  weight for this iteration     100.00

 eigenvalues of (default mixing * dielectric matrix)
  average eigenvalue GAMMA=   0.8900
  2.4584  2.1367  1.1535  1.1535  0.8703  0.8703  0.7222  0.5018  0.5018  0.4423
  0.1680  0.2958  0.2958

 Free energy of the ion-electron system (eV)
  ---------------------------------------------------
  alpha Z        PSCENC =      1870.29120978
  Ewald energy   TEWEN  =    -31868.63457133
  -Hartree energ DENC   =    -30194.53622602
  -exchange      EXHF   =         0.00000000
  -V(xc)+E(xc)   XCENC  =      3226.71154395
  PAW double counting   =     87337.92108403   -87002.32703065
  entropy T*S    EENTRO =        -0.04512606
  eigenvalues    EBANDS =     -9226.12353668
  atomic energy  EATOM  =     64968.54023382
  Solvation  Ediel_sol  =         0.00000000
  ---------------------------------------------------
  free energy    TOTEN  =      -888.20241916 eV

  energy without entropy =     -888.15729310  energy(sigma->0) =     -888.17985613


--------------------------------------------------------------------------------------------------------




--------------------------------------- Iteration      1(  19)  ---------------------------------------


    POTLOK:  cpu time    0.2376: real time    0.2566
    SETDIJ:  cpu time    0.4254: real time    0.4275
     EDDAV:  cpu time   59.2046: real time   59.2051
       DOS:  cpu time    0.0022: real time    0.0022
    CHARGE:  cpu time    2.6411: real time    2.6415
    MIXING:  cpu time    0.0136: real time    0.0136
    --------------------------------------------
      LOOP:  cpu time   62.5245: real time   62.5465

 eigenvalue-minimisations  :  9544
 total energy-change (2. order) : 0.1876567E-02  (-0.1343466E-02)
 number of electron     864.0000007 magnetization 
 augmentation part      117.3347620 magnetization 

 Broyden mixing:
  rms(total) = 0.64099E-01    rms(broyden)= 0.64045E-01
  rms(prec ) = 0.84552E-01
  weight for this iteration     100.00

 eigenvalues of (default mixing * dielectric matrix)
  average eigenvalue GAMMA=   0.9071
  2.6352  2.1048  1.3266  1.3266  0.9967  0.7971  0.7971  0.6109  0.4716  0.4716
  0.3893  0.3017  0.3017  0.1680

 Free energy of the ion-electron system (eV)
  ---------------------------------------------------
  alpha Z        PSCENC =      1870.29120978
  Ewald energy   TEWEN  =    -31868.63457133
  -Hartree energ DENC   =    -30198.27540891
  -exchange      EXHF   =         0.00000000
  -V(xc)+E(xc)   XCENC  =      3226.78765339
[...]
   -.117E+03 -.634E+02 0.148E+03   0.119E+03 0.664E+02 -.151E+03   -.402E+01 -.396E+01 0.371E+01   0.682E-03 -.428E-03 -.428E-03
   -.694E+02 0.623E+02 -.548E+02   0.503E+02 -.738E+02 0.461E+02   0.210E+02 0.130E+02 0.102E+02   -.966E-03 0.107E-02 0.160E-03
   0.561E+02 0.247E+02 -.457E+02   -.394E+02 -.378E+01 0.492E+02   -.174E+02 -.203E+02 -.404E+01   -.799E-03 0.117E-02 -.566E-03
   -.476E+02 -.271E+03 -.135E+03   0.653E+02 0.283E+03 0.132E+03   -.212E+02 -.114E+02 0.430E+01   0.212E-03 0.113E-02 -.526E-03
   0.802E+02 0.150E+02 -.112E+03   -.110E+03 -.124E+02 0.117E+03   0.319E+02 -.178E+01 -.469E+01   0.282E-03 0.625E-03 -.715E-03
   -.614E+02 0.250E+02 0.304E+02   0.486E+02 -.391E+02 -.265E+02   0.130E+02 0.119E+02 -.598E+01   -.707E-03 0.101E-02 -.805E-04
   -.145E+03 0.583E+00 0.713E+01   0.138E+03 0.190E+02 -.461E+00   0.900E+01 -.214E+02 -.539E+01   -.509E-03 0.867E-03 -.519E-03
   0.263E+03 0.193E+03 0.165E+03   -.292E+03 -.197E+03 -.191E+03   0.252E+02 0.333E+01 0.233E+02   -.241E-02 -.133E-02 -.774E-03
   0.269E+03 -.526E+02 0.440E+02   -.291E+03 0.641E+02 -.533E+02   0.230E+02 -.139E+02 0.828E+01   -.320E-03 -.252E-03 -.259E-02
   0.159E+03 0.198E+03 0.499E+02   -.178E+03 -.221E+03 -.444E+02   0.168E+02 0.236E+02 -.694E+01   0.920E-03 -.823E-03 0.137E-02
   -.148E+02 0.410E+02 0.219E+03   0.328E+02 -.597E+02 -.237E+03   -.201E+02 0.201E+02 0.187E+02   0.323E-04 0.602E-03 -.541E-03
   0.445E+02 -.167E+03 0.189E+02   -.407E+02 0.185E+03 0.292E+01   -.358E+01 -.203E+02 -.199E+02   0.899E-03 -.134E-02 0.822E-03
   -.981E+02 -.203E+03 -.224E+03   0.866E+02 0.217E+03 0.231E+03   0.153E+02 -.106E+02 -.742E+01   0.623E-03 -.168E-02 0.126E-02
   0.781E+02 -.105E+03 -.836E+02   -.899E+02 0.110E+03 0.111E+03   0.139E+02 -.563E+01 -.287E+02   -.350E-04 -.116E-02 0.333E-04
   -.187E+03 0.232E+02 -.227E+03   0.214E+03 -.225E+02 0.227E+03   -.273E+02 -.586E+00 0.977E+00   -.821E-03 -.945E-03 0.173E-02
   -.136E+03 0.752E+02 0.650E+02   0.149E+03 -.526E+02 -.672E+02   -.114E+02 -.248E+02 0.286E+01   -.959E-03 0.102E-02 0.114E-02
   0.195E+03 0.798E+02 0.190E+02   -.176E+03 -.100E+03 -.172E+02   -.166E+02 0.175E+02 -.145E+01   -.188E-02 -.110E-03 -.163E-02
   0.984E+02 0.367E+01 0.169E+02   -.102E+03 0.890E+01 -.192E+02   0.347E+01 -.122E+02 0.291E+01   0.581E-03 0.331E-03 0.657E-03
   -.141E+03 0.428E+02 0.801E+02   0.159E+03 -.508E+02 -.103E+03   -.168E+02 0.546E+01 0.219E+02   -.528E-03 0.255E-04 0.954E-03
   -.140E+02 0.129E+03 0.617E+02   -.494E+01 -.143E+03 -.850E+02   0.209E+02 0.111E+02 0.231E+02   -.490E-03 0.518E-03 -.366E-03
   -.320E+02 0.760E+02 0.135E+03   -.343E+01 -.600E+02 -.151E+03   0.265E+02 -.107E+02 0.132E+02   -.277E-03 0.585E-03 -.798E-03
   0.223E+03 -.380E+02 -.443E+02   -.247E+03 0.269E+02 0.477E+02   0.268E+02 0.124E+02 -.412E+01   -.138E-03 -.180E-02 0.234E-03
   0.134E+03 -.762E+02 0.230E+02   -.127E+03 0.885E+02 -.221E+02   -.871E+01 -.135E+02 0.157E+01   -.814E-04 -.482E-03 -.920E-03
   -.758E+02 -.177E+03 -.681E+02   0.797E+02 0.188E+03 0.899E+02   -.471E+01 -.126E+02 -.247E+02   -.747E-04 0.140E-02 0.674E-03
   0.185E+03 -.510E+01 -.617E+02   -.204E+03 0.211E+02 0.514E+02   0.212E+02 -.177E+02 0.119E+02   0.792E-04 0.202E-02 0.585E-03
   0.174E+03 0.582E+02 -.112E+02   -.181E+03 -.447E+02 0.171E+02   0.515E+01 -.155E+02 -.563E+01   -.205E-02 -.355E-03 -.235E-03
   0.124E+03 -.400E+00 0.718E+02   -.145E+03 0.171E+02 -.640E+02   0.190E+02 -.169E+02 -.776E+01   0.436E-03 0.952E-03 0.401E-03
   0.192E+02 0.309E+02 0.587E+02   -.262E+02 -.560E+02 -.467E+02   0.674E+01 0.248E+02 -.122E+02   0.357E-03 -.760E-06 -.895E-03
   -.785E+01 -.115E+02 0.151E+03   -.145E+02 0.990E+01 -.173E+03   0.218E+02 0.207E+01 0.209E+02   0.465E-03 0.720E-03 0.335E-03
   0.110E+03 -.375E+02 -.757E+02   -.126E+03 0.422E+02 0.893E+02   0.188E+02 -.511E+01 -.143E+02   0.836E-03 -.195E-02 0.138E-02
   0.238E+03 0.369E+01 -.917E+02   -.248E+03 0.120E+02 0.801E+02   0.705E+01 -.188E+02 0.133E+02   0.172E-02 -.118E-03 0.274E-02
   -.972E+02 0.200E+02 -.647E+02   0.730E+02 -.271E+02 0.680E+02   0.280E+02 0.784E+01 -.270E+01   0.105E-02 -.787E-03 -.400E-03
   -.119E+03 -.683E+02 0.496E+02   0.121E+03 0.738E+02 -.525E+02   -.116E+01 -.725E+01 0.107E+01   -.287E-03 -.811E-03 0.160E-03
   -.544E+02 0.160E+02 0.277E+02   0.689E+02 -.207E+01 -.266E+02   -.168E+02 -.162E+02 -.134E+01   0.174E-03 0.392E-03 -.815E-03
   0.995E+02 0.895E+02 -.896E+02   -.940E+02 -.103E+03 0.106E+03   -.735E+01 0.147E+02 -.158E+02   -.351E-03 -.396E-03 0.453E-04
   -.889E+02 0.579E+02 -.728E+02   0.103E+03 -.879E+02 0.811E+02   -.148E+02 0.293E+02 -.348E+01   0.194E-03 0.288E-04 -.195E-03
   0.283E+02 -.489E+02 0.770E+01   -.442E+02 0.641E+02 -.470E+01   0.152E+02 -.116E+02 -.314E+01   -.157E-03 0.134E-03 0.170E-03
   0.795E+02 -.851E+02 0.589E+01   -.974E+02 0.844E+02 -.231E+02   0.194E+02 0.816E+00 0.186E+02   -.117E-03 -.174E-03 -.407E-03
   -.153E+03 0.204E+03 0.322E+02   0.180E+03 -.220E+03 -.376E+02   -.240E+02 0.153E+02 0.711E+01   0.245E-03 -.306E-03 0.126E-02
   -.612E+02 -.527E+02 0.326E+02   0.422E+02 0.682E+02 -.438E+02   0.200E+02 -.138E+02 0.892E+01   0.519E-03 -.980E-03 -.293E-03
   -.101E+03 0.457E+02 -.590E+02   0.112E+03 -.535E+02 0.438E+02   -.135E+02 0.812E+01 0.191E+02   0.234E-03 -.603E-04 -.111E-03
   0.195E+03 0.870E+02 0.251E+02   -.212E+03 -.959E+02 -.369E+02   0.186E+02 0.973E+01 0.130E+02   -.201E-02 0.585E-03 -.182E-02
   0.205E+03 -.178E+03 0.119E+03   -.235E+03 0.180E+03 -.127E+03   0.266E+02 -.278E+01 0.727E+01   -.156E-03 0.296E-03 -.580E-03
   -.199E+03 0.658E+02 -.916E+02   0.243E+03 -.559E+02 0.110E+03   -.324E+02 -.685E+01 -.126E+02   0.106E-02 -.264E-03 0.848E-03
   0.961E+02 -.937E+02 -.163E+03   -.103E+03 0.104E+03 0.186E+03   0.952E+01 -.103E+02 -.262E+02   0.768E-03 -.137E-02 0.193E-03
   0.166E+03 0.550E+02 -.137E+03   -.172E+03 -.944E+02 0.155E+03   0.694E+01 0.340E+02 -.152E+02   0.974E-03 -.280E-02 0.650E-03
   -.924E+02 0.162E+03 0.511E+02   0.951E+02 -.187E+03 -.534E+02   -.175E+01 0.246E+02 0.127E+01   0.395E-03 0.677E-03 0.421E-03
   -.630E+02 -.526E+02 0.159E+03   0.439E+02 0.671E+02 -.160E+03   0.199E+02 -.149E+02 0.797E+00   -.763E-03 -.259E-03 0.646E-05
 -----------------------------------------------------------------------------------------------
   -.120E+03 -.656E+02 -.649E+01   -.739E-12 0.156E-12 -.341E-12   0.120E+03 0.657E+02 0.648E+01   -.199E-02 -.220E-02 0.877E-02
 
 
 POSITION                                       TOTAL-FORCE (eV/Angst)
 -----------------------------------------------------------------------------------
      7.43789      7.28672      7.62104         1.246088      1.210713     -0.825896
     11.31697      7.41634      9.03273        -3.923683      2.228566     -3.678449
      9.11049      3.55835      8.33849         0.909022     -0.299751     -0.527875
      2.73720      1.84891     12.95534         0.962421     -0.253511      1.729388
     10.34354     10.24534     11.55130        -4.435760     -2.057778     -0.035564
      5.38284      4.78667      9.01755        -1.661398      1.128661      0.250702
      7.14083      3.08655     13.35348        -0.368590      1.407323     -0.479474
     12.69292      7.57486      0.16399         1.069839      1.280189     -0.844468
      5.45545      8.10920     11.91653         3.719910     -0.461725      0.185459
      0.29996     10.61418      7.98433         0.703060      0.481273     -1.613602
     10.26285      8.79343      5.45999         0.983426     -0.176409     -0.741499
      9.31366     13.39629      5.97971         0.931088     -0.385765      0.024123
      1.14152      9.18113      3.27519        -0.943060      0.104539     -0.803723
      6.40874     12.91805     11.41755        -0.199328     -2.804543      0.582129
      6.06030      3.79464      4.15072         0.249813     -0.413096     -0.261400
      9.62024     12.13628      2.26599        -1.651263      0.728874      0.969876
     12.25650      3.80990      0.23660        -0.077438      0.572201      0.113789
     13.59111     12.11485      0.09407        -2.836490     -4.018023      1.019995
      1.36792      7.47653      9.82742         0.555552      0.106237      0.782152
      7.19605     10.78045      4.94996        -0.704644     -0.586013      0.212312
      3.73383     13.15171      9.66874         0.382761      0.638687      0.681896
      9.31505      6.70544      0.64730        -0.742985      0.682588     -0.842174
     11.25001      2.91285      3.84763        -0.562487     -0.448239     -0.031109
      0.50320     13.36218     10.76619        -0.419926     -0.248717     -0.553237
      2.88154      2.27568      4.11957        -1.298265     -1.243148     -0.755522
      4.23490      7.51201      2.00818         0.875608     -0.388592      0.785044
     12.38298      0.71685      7.26997        -1.388870     -2.181414     -5.009274
      3.07378     10.50103      9.66266        -0.118035     -3.440687     -2.591800
      4.22574      5.17685     13.33582        -3.053731     -6.259175      0.069097
      5.99889      1.60859      8.71467         0.293335     -0.195129     -5.018706
     11.50454      5.89357      3.18169        -0.752905      3.275417     -2.913453
      8.52725      6.58470     10.84244        -0.907774      4.142939      5.955657
      2.04221      4.26487     10.62505        10.812734     -1.460862      2.614297
      6.74357      6.63761      4.31533         2.073621      1.216114      0.006480
     10.36895      1.50206      0.85865       -12.385395     -5.989294     -4.079892
      2.44991      8.55500     12.93889        -1.354440     -0.180016      0.430249
      9.81109     12.77827     12.74361        -7.128191     10.297353     -2.856454
      4.65986      7.00141      6.07334        -0.107326     -1.443425     -0.855707
     10.36116      1.76711     11.33697        -2.909248     -1.844392      0.176677
      2.70870     12.54856     13.11021        -1.034973     -1.426438      0.198930
      6.08113      0.27742      5.59264         0.111905      6.224935      1.176293
     12.10786      2.41132      9.33150         2.546223      1.415580     -1.747708
      9.98438      5.70711      5.79327        -2.253062      1.888062     -3.275617
     12.35022      5.35802     10.69054         2.536529      1.933567      2.739152
     12.83230     13.29568      4.01152        -3.347529     -4.720736      1.316660
     10.98960     10.74002      8.10882         5.549589     -1.347958     -2.112880
      8.03484      8.89921      2.45762        -0.814545      3.650237      2.306486
      1.84222      6.70154      4.45511        -0.494334     -1.903094     -1.530724
     12.62027      9.81342     10.85760         3.336182      2.953166      5.113957
     12.67734     10.83549      2.59357         2.595911     -4.943650      1.268353
      8.16844     10.33117      8.59907        -3.687715      0.712248      1.176607
      8.46047      1.89035      4.33084         0.581637     -5.524567      6.868609
      2.88651      4.53259      5.86631        -4.166139     -2.841735      0.402944
      2.56710      4.37249      2.05210        -0.129744      1.932696      0.401700
      5.39222      6.06601     13.47076         3.882475      5.031279     -0.379188
      7.88046      2.65968      3.19531        -0.477767      3.390328     -5.720690
      8.70488      8.01701     11.90991         0.219856     -1.264713     -1.083540
      8.20586     13.36868     12.16792         2.302534     -0.388403      1.719254
     10.24732      2.20530     13.09191         0.194460      1.321453     -3.587660
     12.22546      5.53638     12.30562         0.033061     -1.000113      0.708171
      8.96219      8.84385      8.89663         0.205114      3.293880     -1.650404
      3.52839      8.37535     11.65465        -2.905752      1.060443      1.294620
      8.23794      5.68135     12.58816         0.027607     -1.173840     -2.379991
      2.76346      9.17142      8.61958        -0.875563      2.599795      2.753238
      2.53993      3.60139      7.13342         0.055813      0.760226      2.652175
      0.07901     11.97500      3.70607        -1.097053     -1.997091     -2.604935
     13.29513      1.26333      8.79577         2.492664      3.680863      4.331598
     12.36326      9.45560      3.52319         0.987590      2.448691     -0.541045
      9.14046      8.77519      1.36901         1.339848     -2.637407     -1.007876
      4.56085     10.85937     10.11907        -1.615956      1.188792      0.034915
      9.65196     11.12159      7.41151        -2.375637      0.941538     -0.528320
      1.96384     11.02628      0.13352         2.612706      2.640215     -3.592227
      9.76808      6.28392      9.95625         2.777064     -2.458531     -0.349252
      8.94096      1.88681      6.10274         2.253612      0.667236     -1.490924
      9.47754      0.46664      3.89472        -3.143213      4.020293     -0.523221
      4.09233      3.42750      5.39123         1.593757      3.115095     -1.007960
     11.89461      9.46759      7.29850        -2.297344      1.397161      1.642919
     13.20953     11.25473     11.68634        -1.579688     -1.637341     -1.837302
      1.49137      4.21358      4.88909         2.324213      0.037141      0.602263
     11.21809      4.49011      2.22120         0.845708      0.565349      1.874658
     10.55973     13.56972     11.51976         0.708696      0.822650      1.926968
      7.44841      8.28337      4.26671         0.205163     -1.489658     -0.078372
     11.53451      7.05099      1.96293         0.279446     -2.073118      0.049299
     11.95841      8.79038     12.09879         0.332827      2.335687     -3.626689
      0.13841      0.65991      4.50832         0.846585      4.017256      1.214146
     10.15651      5.42012      7.29104         2.581001     -2.804729      3.723438
      6.09226      0.72980      9.94130        -1.435394     -1.091596      2.037082
     12.75046     12.27026      7.52955        -1.783476     -0.928719      0.551702
      1.05303      7.78965     12.30638         1.912911      1.496573      1.573567
      6.73062      3.02316      8.81693        -0.705800      0.634625     -0.548206
      2.98223      7.91837      3.89836        -3.495128      0.169830      1.645720
      0.20020      6.93438      4.46096         2.154552      0.842595     -0.554657
     11.95903      3.92009     10.23805         0.194939     -2.170577     -2.110748
     10.80013      6.76314      4.39106         1.324879     -1.876839      1.284209
      4.90408      0.16971      4.67197        -3.918231     -0.527545     -1.930641
      6.98498     10.82232      7.49637         1.962928     -2.412060     -1.039796
      1.63244      3.10354      2.32808        -2.127373      0.008951     -1.446564
      7.41852      5.57029      3.28693        -2.155438      1.454208      0.270099
     11.24684     11.10928      9.64514         0.282156     -1.868001      1.907230
      1.28895     13.43161     13.57715         3.762228      3.382827     -0.263621
      4.31946      7.05487      7.65467         2.085804     -0.637913     -1.116326
      4.32017     12.73374     12.95666        -0.499559      0.109752      0.542849
     12.81152      6.78341     10.08013         1.587379     -2.192721      0.679401
      7.17868     12.89144      5.62145         2.551084     -2.615256      0.395459
      2.22239      5.74692      2.94427         0.303576      0.379219      0.561616
     13.49312      9.44378      9.65098         0.935753     -2.554268     -0.484119
      9.28727      4.77612      4.70732         1.989069     -2.725852     -0.193668
      0.83537      4.86386     10.19446        -8.936272      5.376679     -3.223281
      9.32173      0.16551      0.75937         3.093384      1.306461     -0.654716
      8.58594     10.46397      3.02663        -1.621266     -1.179770      2.472053
      2.95494      8.75341      0.84482        -0.828545     -1.232250     -2.813496
      9.25932      2.70039     10.54458         1.332396     -1.675837      1.586627
      6.89786      1.83420      5.12630        -2.120663     -2.097163      0.315715
      2.96061      5.50429      0.58617        -1.894984     -0.184895     -0.020829
      1.90143      2.96833     11.46607        -0.248451     -0.281054     -0.225183
     11.00564      2.35135      8.22303        -0.475020      0.476209     -1.564390
      7.24290     10.96159      9.94350         3.157739     -0.429957     -0.705727
      7.49503      7.19503      9.70837        -3.166949     -3.101945      1.702094
     11.25046     12.91337      4.38371         3.765994      0.656684      0.605228
      2.54136      0.21563     11.55982         0.125208     -1.711800     -1.856320
      3.54988      5.24683     10.57469        -2.246910     -2.232882     -0.196204
      6.62823      5.98156      5.91093        -1.862350      0.936113      0.280974
     11.73433      1.47723     10.49691        -0.408225     -0.721973      4.862226
      9.06643      6.99355      6.09387        -0.761325      3.582205     -0.137499
      4.96027      6.73720      4.30455         1.540160      0.134253      1.395660
      3.95703      3.65527      1.99326         3.213012     -0.563922      1.733851
     11.54717     11.72731      2.04948         1.059656      1.662205     -2.304704
      0.04274     10.16994      1.19756        -2.294126      0.397415      3.932159
      5.36605      0.81573      7.35539         1.481027      0.844598      1.281680
      6.53990      8.84488      2.04258        -2.971990     -0.822544     -1.435798
     11.60079      1.90479      1.36791        11.100478      3.007903      6.036936
      2.31865      6.25723      6.16581         2.619950     -0.270559     -3.026430
      9.77757     11.38072     13.12860         0.854182     -5.434711      3.268146
      4.50992      3.59129     13.07046         0.913879     -0.040323     -0.977727
      1.95408     11.72431      9.56171         0.752347     -0.411081     -0.202503
 -----------------------------------------------------------------------------------
    total drift:                               -0.007469      0.041854     -0.000377


--------------------------------------------------------------------------------------------------------



  FREE ENERGIE OF THE ION-ELECTRON SYSTEM (eV)
  ---------------------------------------------------
  free  energy   TOTEN  =      -888.20261708 eV

  energy  without entropy=     -888.16571155  energy(sigma->0) =     -888.18416432
 


--------------------------------------------------------------------------------------------------------


    POTLOK:  cpu time    0.5840: real time    0.5840


--------------------------------------------------------------------------------------------------------


     LOOP+:  cpu time 1970.7216: real time 1971.4046
    4ORBIT:  cpu time    0.0000: real time    0.0000

 total amount of memory used by VASP MPI-rank0   221527. kBytes
=======================================================================

   base      :      30000. kBytes
   nonlr-proj:      21916. kBytes
   fftplans  :      36392. kBytes
   grid      :      20695. kBytes
   one-center:        171. kBytes
   wavefun   :     112353. kBytes
 
  
  
 General timing and accounting informations for this job:
 ========================================================
  
                  Total CPU time used (sec):     2005.558
                            User time (sec):     1998.896
                          System time (sec):        6.662
                         Elapsed time (sec):     2006.434
  
                   Maximum memory used (kb):      381288.
                   Average memory used (kb):           0.
  
                          Minor page faults:       199152
                          Major page faults:            0
                 Voluntary context switches:         2879
