 running on   48 total cores
 distrk:  each k-point on   48 cores,    1 groups
 distr:  one band on   12 cores,    4 groups
 using from now: INCAR     
 vasp.5.4.4.18Apr17-6-g9f103f2a35 (build Mar 16 2023 09:39:13) complex          
  
 POSCAR found type information on POSCAR  Ca Si O 
 POSCAR found :  3 types and     135 ions
 scaLAPACK is switched off
 LDA part: xc-table for Pade appr. of Perdew
 generate k-points for:    2    2    2
 POSCAR, INCAR and KPOINTS ok, starting setup
 FFT: planning ...
 WAVECAR not read
 entering main loop
       N       E                     dE             d eps       ncg     rms          rms(c)
DAV:   1     0.102874872340E+05    0.10287E+05   -0.49408E+05  8320   0.192E+03
DAV:   2     0.192759911840E+03   -0.10095E+05   -0.97129E+04  9392   0.535E+02
DAV:   3    -0.951757736223E+03   -0.11445E+04   -0.11351E+04  9856   0.181E+02
DAV:   4    -0.101194019071E+04   -0.60182E+02   -0.59977E+02 12104   0.353E+01
DAV:   5    -0.101614382766E+04   -0.42036E+01   -0.42011E+01 13600   0.827E+00    0.851E+01
DAV:   6    -0.888233405124E+03    0.12791E+03   -0.52503E+02 10008   0.373E+01    0.356E+01
DAV:   7    -0.890266456119E+03   -0.20331E+01   -0.67276E+01 10560   0.131E+01    0.165E+01
DAV:   8    -0.889572679912E+03    0.69378E+00   -0.10518E+01 11400   0.608E+00    0.690E+00
DAV:   9    -0.889345931885E+03    0.22675E+00   -0.21977E+00 10432   0.315E+00    0.205E+00
DAV:  10    -0.889401747714E+03   -0.55816E-01   -0.84184E-01 11056   0.166E+00    0.147E+00
DAV:  11    -0.889399794621E+03    0.19531E-02   -0.14641E-01 10904   0.725E-01    0.734E-01
DAV:  12    -0.889399686701E+03    0.10792E-03   -0.39787E-02 11024   0.365E-01    0.174E-01
DAV:  13    -0.889400183925E+03   -0.49722E-03   -0.63683E-03 12672   0.161E-01    0.112E-01
DAV:  14    -0.889400266844E+03   -0.82919E-04   -0.15553E-03 10808   0.675E-02    0.832E-02
DAV:  15    -0.889400239323E+03    0.27521E-04   -0.24371E-04  9968   0.302E-02    0.405E-02
DAV:  16    -0.889400236449E+03    0.28749E-05   -0.86688E-05 11864   0.189E-02    0.997E-03
DAV:  17    -0.889400235711E+03    0.73774E-06   -0.29349E-05 10928   0.949E-03    0.712E-03
DAV:  18    -0.889400235275E+03    0.43627E-06   -0.35942E-06  7264   0.346E-03
   1 F= -.88940024E+03 E0= -.88940024E+03  d E =-.103656E-20
