80
Time=50000.00000004 pbc="T T F" Lattice="13.12862340 0.00000000 0.00000000 -6.56431170 11.36972138 0.00000000 0.00000000 0.00000000 26.82809424" energy=-594.42519045 virial="14.67594954 2.39323838 0.88376166 2.39323838 15.16197111 12.87964591 0.88376166 12.87964591 8.74714166" stress="0.00486982 0.00059762 0.00022069 0.00059762 0.00499118 0.00321622 0.00022069 0.00321622 0.00338932" Properties=species:S:1:pos:R:3
Sc -0.02120964 1.84070966 12.08094634
Sc -1.60785879 4.67446534 11.97108619
Sc -3.09234198 7.44437176 12.07097843
Sc -4.94373844 10.24958008 12.20146393
Sc 3.25599517 1.84606234 12.22251666
Sc 1.65200109 4.80497243 12.06813315
Sc 0.06560657 7.65594319 12.15577722
Sc -1.69378397 10.38172237 12.15630024
Sc 6.52229594 1.95602832 12.23594640
Sc 4.82861726 4.73772552 12.25003513
Sc 3.28888113 7.78532176 12.13761406
Sc 1.53933929 10.53419912 12.07415774
Sc 9.80483054 2.03887312 12.17874407
Sc 8.16134377 4.79839234 12.06399742
Sc 6.56534154 7.67750019 12.19502359
Sc 4.80462667 10.45520430 12.13151742
Sc 1.48554728 0.97883761 14.71497415
Sc -0.00378136 3.78733573 14.56230773
Sc -1.63460506 6.64142429 14.67031030
Sc -3.27217536 9.46613169 14.64585980
Sc 4.79318117 0.88072557 14.67779253
Sc 3.33124452 3.70087282 14.83065028
Sc 1.61450563 6.65294300 14.57741124
Sc 0.07471108 9.57899950 14.73604923
Sc 8.26797077 0.96565181 14.67571938
Sc 6.51447653 3.67465604 14.73438220
Sc 4.91339494 6.56263991 14.68797177
Sc 3.43497535 9.40390302 14.79212115
Sc 11.56218368 0.85297212 14.64846550
Sc 9.82030494 3.73177460 14.67609904
Sc 8.08101864 6.59051992 14.50408739
Sc 6.70740502 9.29105585 14.80901441
F -0.18144510 1.93884913 15.76037237
F -1.51410248 4.61027923 15.65558497
F -3.18641213 7.52029156 15.77285364
F -4.75395064 10.35569487 15.99582801
F 3.10541298 1.86877724 16.03520979
F 1.76535334 4.76438823 15.88629819
F -0.02544299 7.48902063 15.87912088
F -1.76458248 10.35622227 15.99200158
F 6.75649640 1.81451693 15.78512416
F 5.04811159 4.62383443 15.75609066
F 3.20377155 7.63543076 15.87830503
F 1.75245112 10.44569776 15.82770484
F 9.68103763 2.05881479 15.81624469
F 8.25190741 4.76166671 15.70568835
F 6.55111193 7.36221886 15.92613680
F 4.96744128 10.58578225 15.92713651
F 1.78623154 0.96272742 10.88740009
F 0.22450353 3.81585411 10.96252531
F -1.49616955 6.83532908 10.98636710
F -3.27899145 9.50127847 10.96465204
F 5.03179489 0.80076012 11.02451086
F 3.29519731 3.83947071 11.10660518
F 1.49420463 6.80609567 10.89049866
F -0.11473267 9.54056978 11.10256510
F 8.28800107 1.12792536 11.17709030
F 6.39740943 3.91952344 10.99029894
F 5.10347866 6.93669774 11.15161034
F 3.25393774 9.51957924 11.06214698
F 11.38149151 1.06096863 10.92032444
F 9.98798285 3.89250694 10.87307873
F 8.07640356 6.80271150 10.83458547
F 6.65956296 9.35756688 11.08245701
C 6.51172626 11.29880259 13.38708336
C -1.62056403 2.87201060 13.34587073
C 9.81585860 5.69387278 13.20796570
C 8.16026086 8.49246380 13.47400340
C -3.43399892 11.29895062 13.37136840
C 1.61801159 2.79345964 13.52402428
C -0.03678039 5.68371247 13.28556895
C -1.64598279 8.46563791 13.35958014
C 6.37143667 0.06979668 13.34540906
C 4.89076660 2.80101037 13.50544055
C 3.41598105 5.61682558 13.56432758
C 1.72335886 8.48098812 13.40588295
C 3.23731562 11.27630623 13.37170498
C 8.15045573 2.88356755 13.40044793
C 6.57000262 5.54810194 13.40805712
C 4.99557480 8.50299277 13.50702067
80
Time=99999.99999996 pbc="T T F" Lattice="13.12862340 0.00000000 0.00000000 -6.56431170 11.36972138 0.00000000 0.00000000 0.00000000 26.82809424" energy=-593.63556337 virial="21.68602694 0.38593155 1.02129089 0.38593155 12.56630501 9.96755387 1.02129089 9.96755387 1.67338162" stress="0.00662033 0.00009637 0.00025503 0.00009637 0.00434301 0.00248903 0.00025503 0.00248903 0.00162291" Properties=species:S:1:pos:R:3
Sc 0.14465405 1.78353536 12.06477428
Sc -1.57097279 4.73034259 12.13350653
Sc -3.29466250 7.53594863 11.98647403
Sc -5.03049100 10.28395610 12.29473290
Sc 3.30663110 1.69939995 12.02600154
Sc 1.68901341 4.92826169 12.30561219
Sc -0.14121581 7.58735091 12.06848616
Sc -1.62094721 10.29522573 12.10340055
Sc 6.69630197 1.82956102 12.13796688
Sc 4.87982446 4.79282919 12.09047612
Sc 3.17792932 7.56708837 12.30526069
Sc 1.81041659 10.53294139 12.15183099
Sc 9.69632153 1.90966860 12.09677027
Sc 8.16447073 4.80403864 12.11767505
Sc 6.58173810 7.56346562 12.14025006
Sc 4.99865569 10.40323950 12.24987985
Sc 1.71703047 0.88244273 14.64768121
Sc 0.05217205 3.73643407 14.70941890
Sc -1.59498866 6.64044488 14.75524426
Sc -3.27298335 9.41136701 14.74843199
Sc 4.90156370 0.95671415 14.57242347
Sc 3.31187500 3.83112522 14.53699265
Sc 1.59961840 6.69417211 14.69472502
Sc -0.05011852 9.46492859 14.70855362
Sc 8.25490551 1.08501225 14.78454294
Sc 6.58283038 3.78245762 14.58630398
Sc 5.10314509 6.61486061 14.66672115
Sc 3.16370186 9.46267813 14.84860112
Sc 11.50369266 0.93769853 14.76571095
Sc 9.75959828 3.79019249 14.70717045
Sc 8.19344950 6.62366550 14.65760364
Sc 6.47145244 9.56709396 14.76646061
F -0.26805331 1.88903384 15.88322644
F -1.64788745 4.78644061 15.95124838
F -3.21394965 7.46209222 15.69179176
F -4.95103205 10.43713070 15.93879555
F 3.21992995 1.68176095 15.74052330
F 1.82298837 4.77907106 15.77847178
F 0.03826196 7.68014660 15.85546496
F -1.73010040 10.43345511 15.79990484
F 6.65630464 1.83628289 15.79339398
F 5.07511532 4.56087905 15.76572927
F 3.31615401 7.57789534 16.06929298
F 1.48721439 10.22188238 15.93176771
F 9.84802470 1.79468067 15.78330113
F 8.19440171 4.78558770 15.95993890
F 6.53841310 7.55440842 15.66924872
F 4.90484969 10.25642228 15.87621881
F 1.69558720 1.01548081 10.99111056
F -0.00814195 3.61507564 10.98171183
F -1.64004538 6.71777115 11.02102109
F -3.32960959 9.28781919 10.92949418
F 5.04200046 1.08560401 10.77922362
F 3.07325674 4.15638427 10.89627333
F 1.57504146 6.85447065 10.96612395
F 0.01782246 9.43406224 10.93939688
F 8.18748645 1.41527349 10.80125045
F 6.70665611 3.91688443 11.06722475
F 4.97906742 6.79646672 11.08788232
F 3.28248062 9.31324874 11.02349416
F 11.59480086 0.76348302 10.88179076
F 10.00893609 3.86180887 10.95920290
F 8.06025266 6.85415324 10.96332499
F 6.36447635 9.38550961 11.06000646
C 0.01188434 0.01581154 13.51262734
C 11.46100814 2.76847832 13.52719065
C 9.72894442 5.65263561 13.33711985
C -4.89038294 8.50865185 13.43144680
C -3.27566893 11.29222269 13.40899128
C 1.60432802 2.92891375 13.40077213
C -0.09889201 5.82582233 13.50573231
C -1.65888253 8.54772873 13.42138546
C 0.13438315 11.34754904 13.29607048
C 4.81218746 2.76212620 13.26770684
C 3.23386916 5.72337982 13.47941805
C 1.57942102 8.55805663 13.46203981
C 9.79232976 0.04983354 13.47124267
C 8.17158580 2.95171414 13.32766260
C 6.52157314 5.69603071 13.34223835
C 5.00722182 8.56342600 13.41140420
80
Time=149999.99999957 pbc="T T F" Lattice="13.12862340 0.00000000 0.00000000 -6.56431170 11.36972138 0.00000000 0.00000000 0.00000000 26.82809424" energy=-591.89866114 virial="13.47022120 3.46338175 6.04222421 3.46338175 10.20364329 10.61590862 6.04222421 10.61590862 -12.79373998" stress="0.00456873 0.00086485 0.00150882 0.00086485 0.00375303 0.00265093 0.00150882 0.00265093 -0.00198972" Properties=species:S:1:pos:R:3
Sc -0.09066742 1.94144392 12.00915600
Sc -1.61036904 4.80796016 11.99266236
Sc -3.21955105 7.64143332 12.30520058
Sc -5.08766725 10.48342826 12.16748440
Sc 3.32538990 1.90348429 12.26345755
Sc 1.78863434 4.78909936 12.15455868
Sc 0.02807262 7.59754746 12.07693735
Sc -1.56986411 10.45830205 12.06980450
Sc 6.80370881 1.83256611 12.35686813
Sc 4.99595069 4.60827773 12.06564877
Sc 3.32814505 7.75938691 11.97835303
Sc 1.57770198 10.46855031 12.17061701
Sc 9.81687790 1.97509906 12.17843774
Sc 8.23931210 4.69865397 12.08502066
Sc 6.58793868 7.58356289 11.98283538
Sc 4.85862653 10.41255578 12.28095431
Sc 1.62022552 0.82532418 14.68282228
Sc 0.18493849 3.71522897 14.56008688
Sc -1.70304366 6.53153264 14.61118039
Sc -3.30976013 9.52326718 14.74190491
Sc 4.86801086 1.08852946 14.75356192
Sc 3.26942041 3.70281871 14.64096839
Sc 1.59100092 6.63718106 14.66186301
Sc -0.14587047 9.38565886 14.67470477
Sc 8.14442546 0.93379412 14.80862796
Sc 6.64922527 3.68394518 14.78918850
Sc 4.80307313 6.70185852 14.57602322
Sc 3.04795284 9.47736555 14.55622637
Sc 11.39762265 0.93130878 14.79565691
Sc 9.97214960 3.82687584 14.81882551
Sc 8.11237388 6.45023285 14.64081934
Sc 6.70302251 9.39555640 14.92813634
F -0.24974387 1.66051051 15.82192918
F -1.38512036 4.79372471 15.81010266
F -3.06238084 7.86026245 16.03051749
F -4.91563527 10.59723997 15.94227986
F 3.20685838 2.01760810 15.82350344
F 1.82506689 4.56685192 15.77115072
F 0.16897861 7.48179793 15.94551495
F -1.51322458 10.68714604 15.83216234
F 6.49829220 1.96785173 15.94393897
F 4.83722208 4.48491954 15.64223864
F 3.34847558 7.53152002 15.93318898
F 1.30358614 10.47301773 16.02791169
F 9.98773369 1.80004315 15.99524468
F 8.09824797 4.71048284 15.83350965
F 6.77102570 7.37148250 16.02860102
F 4.86346173 10.15154455 15.86874706
F 1.74731039 0.91549408 10.95874948
F -0.02052584 3.58707660 10.81010142
F -1.74366276 6.62634936 10.97469822
F -3.68353433 9.39683318 10.94887439
F 5.03625682 0.99470410 10.89865798
F 3.44379193 3.76685555 10.88451095
F 1.70980390 7.04403268 10.82445285
F 0.12831381 9.62292531 10.97937742
F 8.09141556 0.91324381 10.86489062
F 6.57607843 3.71394749 10.94479692
F 5.08116893 6.67195949 10.98689911
F 3.22378309 9.67186326 11.03870102
F 11.32237821 0.98797953 10.95248062
F 9.57406672 3.74575513 10.84236532
F 8.40767124 6.63366758 10.89887103
F 6.45464391 9.72484767 11.00481958
C 6.49117905 11.29525086 13.37346543
C 11.44992704 2.79178643 13.37089248
C 9.86843790 5.62061800 13.38012130
C 8.15964911 8.46059714 13.62710683
C -3.15639918 11.28877855 13.45609685
C 1.66943589 2.81649960 13.44279443
C 0.13667984 5.62542087 13.23256012
C -1.66859479 8.48741688 13.36059493
C 6.58437784 0.06396264 13.44581327
C 4.92102238 2.74151427 13.38736490
C 3.32059704 5.81073668 13.31076550
C 1.49524086 8.72263783 13.42025706
C 9.83339508 0.16010431 13.46097173
C 8.13033359 2.94314342 13.50581449
C 6.71145551 5.73455263 13.23343389
C 4.85692049 8.52456462 13.42726521
80
Time=199999.99999918 pbc="T T F" Lattice="13.12862340 0.00000000 0.00000000 -6.56431170 11.36972138 0.00000000 0.00000000 0.00000000 26.82809424" energy=-593.39330149 virial="13.23228359 0.37821377 3.36144916 0.37821377 13.86168388 -1.04037314 3.36144916 -1.04037314 -3.73759204" stress="0.00450932 0.00009444 0.00083940 0.00009444 0.00466649 -0.00025979 0.00083940 -0.00025979 0.00027172" Properties=species:S:1:pos:R:3
Sc -0.09621653 1.93162219 12.14294661
Sc -1.46990395 4.68140833 12.12135286
Sc -3.44880683 7.50225889 12.05447437
Sc -4.92530609 10.49945315 12.03899063
Sc 3.37873397 1.86721930 12.23717298
Sc 1.62500488 4.70008274 12.16416542
Sc -0.04542568 7.58506217 12.20945315
Sc -1.60361408 10.33025782 12.18997903
Sc 6.55269639 1.89246163 12.15055752
Sc 4.84902674 4.67577039 12.15276198
Sc 3.33848368 7.60968304 12.04974421
Sc 1.74156606 10.34641284 12.11788853
Sc 9.88700088 1.86514848 12.05371129
Sc 8.20497367 4.76866337 12.03101218
Sc 6.52804260 7.67684997 12.12636253
Sc 4.85851265 10.54068391 12.26192988
Sc 1.59392121 0.93819082 14.68316149
Sc 0.03546867 3.84582690 14.79508511
Sc -1.68856488 6.65710684 14.72845624
Sc -3.28971891 9.46919566 14.62515213
Sc 4.93876293 0.81031398 14.64782213
Sc 3.22803727 3.83012060 14.64883337
Sc 1.43737902 6.78277193 14.66067058
Sc 0.20515782 9.58503180 14.62668189
Sc 8.24128273 1.02481634 14.75600560
Sc 6.41917031 3.85266327 14.65657196
Sc 4.91573514 6.62452158 14.74117618
Sc 3.45738396 9.43745068 14.76356061
Sc 11.43901651 1.07424895 14.66982041
Sc 9.81922997 3.74698563 14.67608879
Sc 8.22411403 6.43256663 14.58466766
Sc 6.52374290 9.50835972 14.72273679
F -0.10978070 2.04539961 15.67519181
F -1.58482255 4.61869504 15.99905761
F -3.23474077 7.50461387 15.97525678
F -5.21716356 10.36503362 15.96399535
F 3.35673668 1.64469787 15.90311911
F 1.57606670 4.78407106 15.91134174
F 0.22177528 7.57884148 15.85464009
F -1.78063007 10.33230206 15.78919143
F 6.61499653 2.08738651 15.73203315
F 4.79904859 4.80700248 16.04173994
F 3.23023208 7.39062480 15.92093648
F 1.59546992 10.47852596 15.84233943
F 9.94494500 1.89638471 16.05508182
F 8.24230931 4.77142879 15.60252009
F 6.65221682 7.49867794 15.91029629
F 4.90085720 10.50903401 15.89455026
F 1.70551547 1.02966272 11.04231913
F 0.06095866 3.79814149 10.82011227
F -1.65071840 6.61064661 10.88685475
F -3.11001330 9.50029559 10.99566324
F 4.95034826 1.06141340 11.13843474
F 3.26492540 3.76756130 10.97983498
F 1.80117188 6.56430642 11.03103995
F -0.23035141 9.43275980 11.07272720
F 8.16773114 0.88900668 11.11347446
F 6.74878636 3.65727453 11.01552355
F 4.94427178 6.65378552 11.16682188
F 3.43653174 9.27689660 10.97369362
F 11.76075277 0.84087994 10.90503504
F 9.61377342 3.68290449 10.77589006
F 8.07862455 6.80646737 10.77470746
F 6.69476463 9.53958974 10.90043646
C 6.50638770 11.36147305 13.49192162
C -1.65275807 3.01116345 13.41178660
C 9.81829313 5.60735840 13.30226222
C -4.94288445 8.65810613 13.27062762
C 3.25967762 0.00865288 13.46428491
C 1.64005140 2.87231989 13.49952036
C 0.14060567 5.66536455 13.38909100
C -1.76035572 8.38242396 13.45018625
C 0.02095901 11.33454036 13.25348772
C 4.84765941 2.82963972 13.52419511
C 3.37974011 5.66272204 13.35405245
C 1.74864363 8.69832952 13.39505276
C 9.80227257 0.00566300 13.46367236
C 8.12826029 2.75536780 13.39353301
C 6.65241749 5.59088539 13.46394014
C 4.84491693 8.62577362 13.44247884
80
Time=249999.99999879 pbc="T T F" Lattice="13.12862340 0.00000000 0.00000000 -6.56431170 11.36972138 0.00000000 0.00000000 0.00000000 26.82809424" energy=-594.29672956 virial="11.49078294 -0.97628111 3.72051164 -0.97628111 13.01955546 -14.81473478 3.72051164 -14.81473478 -3.17319968" stress="0.00407444 -0.00024379 0.00092906 -0.00024379 0.00445620 -0.00369943 0.00092906 -0.00369943 0.00041265" Properties=species:S:1:pos:R:3
Sc 0.07849214 1.69622601 12.07224898
Sc -1.61829164 4.82466312 12.22647134
Sc -3.35295309 7.61768903 12.20609979
Sc -5.01907640 10.28158945 12.27733969
Sc 3.32972876 1.83366063 12.10772757
Sc 1.64073181 4.65406574 12.11460575
Sc -0.01762506 7.57819863 12.08877642
Sc -1.74650331 10.30731212 11.97101584
Sc 6.58094561 1.89609355 12.03070538
Sc 5.05013591 4.80434174 12.16658850
Sc 3.30768463 7.50417808 12.11906016
Sc 1.61592171 10.55108288 12.17725011
Sc 9.91519796 1.91762391 12.06028979
Sc 8.16886743 4.73996447 12.12570536
Sc 6.65368759 7.47729914 12.24418714
Sc 4.96883877 10.34723263 12.07641000
Sc 1.54621936 0.95521810 14.59194905
Sc -0.00314309 3.88850208 14.79001218
Sc -1.57862779 6.64760516 14.73506330
Sc -3.19396705 9.51206378 14.69178148
Sc 4.78991470 1.00439740 14.53427964
Sc 3.19837864 3.76988815 14.60227874
Sc 1.61885631 6.68830651 14.60578290
Sc -0.17753175 9.58100951 14.66370703
Sc 8.10212785 0.96639342 14.60126320
Sc 6.59926138 3.87330666 14.75033361
Sc 4.79822081 6.55827801 14.67284017
Sc 3.25674698 9.46363635 14.54004470
Sc 11.47510788 0.92924859 14.75919371
Sc 9.78829446 3.76370651 14.67630593
Sc 8.24875889 6.73604284 14.79961134
Sc 6.65631651 9.36937154 14.91789160
F 0.31497912 2.01150369 15.83929898
F -1.58055057 4.57382155 15.99167240
F -3.20705913 7.75474229 15.80152880
F -4.90904959 10.35602387 15.86092175
F 3.09299702 1.82621483 15.74126856
F 1.64974517 4.86850575 15.85742473
F -0.14303741 7.66479675 15.86660089
F -1.53894593 10.89692489 15.98497392
F 6.63041981 2.01933110 15.85337187
F 4.97474812 4.88800879 15.95340413
F 3.39895731 7.70072743 15.91141781
F 1.59384669 10.33395262 15.71998243
F 9.61587704 2.09627302 15.82101819
F 8.24244365 4.80818405 15.87390138
F 6.55165653 7.60524942 15.98628813
F 5.23019961 10.56253374 16.12171326
F 1.44507796 0.72358678 10.93891750
F 0.12340083 3.72537311 11.00848586
F -1.65773230 6.54661601 10.97970828
F -3.47235760 9.28375663 11.00930072
F 5.18609932 0.91480794 10.84628917
F 3.41533159 3.67833256 10.99148916
F 1.43199964 6.49294973 10.93486815
F 0.02571109 9.25628685 10.96256982
F 8.15955757 1.09499516 11.12146131
F 6.67859456 3.89275301 10.95802796
F 5.00349594 6.45755745 11.09500249
F 3.52973887 9.46757663 10.77739238
F 11.38332316 0.86688275 10.94008533
F 9.96144618 3.82912063 10.96546833
F 8.27153296 6.57275222 11.09676502
F 6.53311327 9.57530473 11.06835584
C 13.06125759 0.07101617 13.38047139
C 11.30721166 2.79223941 13.42397266
C -3.19166451 5.75928736 13.49270483
C 8.17069771 8.53112151 13.52796337
C -3.31174555 11.29943292 13.30523118
C 1.66028798 2.81026627 13.24024740
C -0.02666192 5.71501103 13.58960584
C -1.63250045 8.56424325 13.36674855
C -0.08727545 11.32836104 13.40503851
C 4.81803787 2.85081348 13.34823247
C 3.17968580 5.64483112 13.37671918
C 1.72085168 8.45906018 13.25645978
C 9.91915632 0.05228183 13.38150155
C 8.14878888 2.89429940 13.44053468
C 6.71013751 5.71197414 13.60204426
C 5.06640970 8.45731998 13.43735656
80
Time=299999.99999840 pbc="T T F" Lattice="13.12862340 0.00000000 0.00000000 -6.56431170 11.36972138 0.00000000 0.00000000 0.00000000 26.82809424" energy=-593.08091450 virial="9.34032187 2.27682603 10.16998736 2.27682603 5.58368517 9.17867103 10.16998736 9.17867103 -25.64631795" stress="0.00353744 0.00056855 0.00253958 0.00056855 0.00259936 0.00229203 0.00253958 0.00229203 -0.00519918" Properties=species:S:1:pos:R:3
Sc 0.08057406 1.84190005 12.17756466
Sc -1.60448558 4.79865454 12.22416520
Sc -3.31983439 7.52422002 12.17911254
Sc -5.05812597 10.40866228 12.15132295
Sc 3.40440630 1.81904473 11.87172383
Sc 1.53343853 4.70400385 11.94582430
Sc -0.03973705 7.56888182 11.95143892
Sc -1.63153201 10.48036949 11.91688138
Sc 6.71319118 1.96867934 12.19303768
Sc 5.02436724 4.66224013 12.09992325
Sc 3.19989538 7.68109514 12.15078026
Sc 1.47471211 10.53331581 12.11191026
Sc 9.99644131 2.02205756 12.11351084
Sc 8.22351034 4.77495666 12.16271801
Sc 6.33870157 7.70315639 12.25452067
Sc 4.67251004 10.45438428 12.25686953
Sc 1.66971638 0.93427989 14.56172800
Sc 0.14000402 3.71290047 14.64872532
Sc -1.66647446 6.67129485 14.74115417
Sc -3.38023220 9.34040847 14.61940164
Sc 4.96999027 0.80541770 14.60604432
Sc 3.21709941 3.68971643 14.60696661
Sc 1.77068054 6.66199557 14.65719380
Sc 0.06251201 9.44786174 14.74705769
Sc 8.27885250 0.99595541 14.79691215
Sc 6.51628731 3.65407059 14.64320316
Sc 4.82585651 6.67953357 14.80802959
Sc 3.29899983 9.61539010 14.91439928
Sc 11.38349564 1.09723577 14.72990353
Sc 9.97447901 3.86230676 14.87552911
Sc 8.08839025 6.47070263 14.68422365
Sc 6.57642906 9.48312173 14.87782584
F -0.01721545 1.83671389 15.79640890
F -1.47649435 4.57123001 15.85478155
F -3.37991076 7.29787076 15.95936420
F -4.96712614 10.46321294 15.83480688
F 3.19396158 1.87755169 15.69259223
F 1.75081690 4.68884839 15.73959956
F 0.08169752 7.59581860 15.79960420
F -1.67141199 10.19991075 15.89415209
F 6.52460696 1.80633806 16.05788735
F 4.78047216 4.57996008 15.87783869
F 3.04442649 7.41681753 16.09545660
F 1.53430066 10.48784340 15.84190238
F 9.71512281 1.95954554 16.00469442
F 8.32161750 4.82377272 15.82413387
F 6.77543391 7.65338225 15.98350492
F 4.81578895 10.44800361 16.22772714
F 1.71316542 0.98613720 10.83928364
F -0.04230777 3.75284130 10.97599377
F -1.55839090 6.80014584 10.84221761
F -3.29753931 9.21818966 10.91743929
F 4.73073197 0.88270543 10.65873001
F 3.42790864 3.71302183 10.78266921
F 1.73573636 6.81713671 10.88768608
F 0.13143416 9.55737858 10.88013292
F 8.24335541 1.07065615 11.12666075
F 6.94957861 3.77089718 10.90795724
F 4.80336598 6.49548872 11.04210147
F 3.24030308 9.64383472 10.98122972
F 11.63239769 1.02044080 10.94415447
F 10.19346587 3.79064676 10.86710288
F 8.35055896 6.65651801 11.07676812
F 6.43645928 9.39993534 11.07191467
C 0.00460295 0.10704194 13.51725170
C -1.67544198 2.91792030 13.44428432
C -3.27881645 5.80580117 13.38535504
C 8.13785393 8.39329250 13.58181983
C -3.23639269 11.17352540 13.20313915
C 1.67003741 2.93176201 13.28217261
C -0.06854942 5.67299869 13.24151082
C -1.62523050 8.46789146 13.41862169
C 6.63913162 0.06532739 13.33574604
C 4.94292062 2.58397915 13.29073853
C 3.38993706 5.78425648 13.37836492
C 1.66509876 8.50769152 13.43663205
C 9.85970625 0.14279545 13.48346121
C 8.18600924 2.94899806 13.43348560
C 6.52499199 5.81352189 13.40700390
C 4.83080131 8.70215805 13.61397446
80
Time=349999.99999862 pbc="T T F" Lattice="13.12862340 0.00000000 0.00000000 -6.56431170 11.36972138 0.00000000 0.00000000 0.00000000 26.82809424" energy=-592.63721561 virial="19.22966822 -0.49073982 -8.85467048 -0.49073982 15.56293114 12.42541184 -8.85467048 12.42541184 4.47927393" stress="0.00600694 -0.00012254 -0.00221113 -0.00012254 0.00509131 0.00310279 -0.00221113 0.00310279 0.00232358" Properties=species:S:1:pos:R:3
Sc 0.02268322 2.00674597 12.32534351
Sc -1.50443946 4.80822886 12.24767603
Sc -3.26101253 7.44851101 12.22487129
Sc -5.03385176 10.47814557 12.25378998
Sc 3.20318617 1.84462479 11.98665737
Sc 1.84921984 4.65528584 12.14613040
Sc 0.02696539 7.49129841 12.19082689
Sc -1.70847705 10.37076923 12.23769600
Sc 6.38510191 1.87830407 11.95780887
Sc 5.01926582 4.78121714 12.25793890
Sc 3.33626874 7.55336204 12.28272004
Sc 1.61601324 10.46825216 11.93219064
Sc 9.85478381 2.11757805 11.98291740
Sc 8.19816840 4.82576624 12.00166023
Sc 6.48583003 7.50437730 12.16065018
Sc 4.98775201 10.49782995 12.00706621
Sc 1.56120512 0.89628587 14.80872731
Sc 0.02893082 3.85515886 14.77792547
Sc -1.61712070 6.69621412 14.89450336
Sc -3.35675319 9.46757092 14.73867828
Sc 4.98827295 0.79439061 14.51115669
Sc 3.34895772 3.74714403 14.68800129
Sc 1.67938889 6.62256017 14.63698525
Sc -0.00675533 9.43105168 14.75548248
Sc 8.26178173 0.86153633 14.56533637
Sc 6.61952053 3.63318933 14.63934567
Sc 5.09900089 6.64297019 14.89087191
Sc 3.25603841 9.57148000 14.52974117
Sc 11.50263650 0.98770803 14.71490374
Sc 9.83518508 3.68782628 14.73429047
Sc 8.23028893 6.58934713 14.65397743
Sc 6.57829009 9.50838710 14.74471798
F 0.35526468 2.08124635 15.92629830
F -1.56814804 4.70343242 15.97716631
F -3.32630060 7.60718702 15.71518628
F -5.14552425 10.30561827 15.92429348
F 3.23185646 2.01436624 15.68560861
F 1.73398182 4.62007883 15.81839572
F 0.00790853 7.49485836 15.74312399
F -1.62560597 10.32814315 15.83628345
F 6.49223040 1.64283014 15.65329707
F 5.08616469 4.54459462 15.69013761
F 3.24185297 7.47032314 15.88738306
F 1.68262601 10.38408493 15.82347124
F 9.85107681 1.96562136 15.78558027
F 8.14775183 4.62403221 15.84211817
F 6.71587329 7.41240179 16.06976256
F 4.85603421 10.60238655 15.78507641
F 1.51606587 1.15000243 11.02512023
F -0.03468309 4.00924227 11.07794180
F -1.54739973 6.77188990 11.05917991
F -3.62433224 9.90623318 10.99644178
F 4.71107480 0.94105794 10.93999243
F 3.19512618 3.37779304 10.77622873
F 1.68819381 6.49792538 11.14624759
F -0.09068415 9.36438605 11.05357777
F 8.32259968 0.94334662 10.75084432
F 6.26363621 3.83850422 10.99885437
F 4.96198091 6.74393555 11.07617679
F 3.27847294 9.41141153 10.79513601
F 11.43970843 1.12808221 10.96395474
F 9.80063796 4.05346938 10.87254849
F 8.24005720 6.89725275 11.00155628
F 6.37525449 9.59261151 10.90025314
C -0.04166177 0.09245344 13.50753057
C -1.68510343 3.04692262 13.48070708
C 9.68326238 5.57941880 13.48358598
C 8.05756042 8.53905497 13.37518312
C -3.35951350 11.30530867 13.49043857
C 1.50290657 2.88489575 13.53282858
C 0.14003352 5.67366735 13.41528765
C -1.58241159 8.44014349 13.42988937
C 0.07543308 11.29842207 13.25048756
C 4.80785669 2.81564797 13.27873384
C 3.35838170 5.51870471 13.57084171
C 1.56570394 8.61811288 13.40445466
C 9.92244868 0.04157200 13.31417043
C 8.10207981 2.76139578 13.28011328
C 6.58249622 5.80048338 13.63806194
C 4.93268571 8.45065984 13.33921262
80
Time=400000.00000008 pbc="T T F" Lattice="13.12862340 0.00000000 0.00000000 -6.56431170 11.36972138 0.00000000 0.00000000 0.00000000 26.82809424" energy=-594.39896154 virial="16.32723528 3.14975359 -6.37873430 3.14975359 10.53870730 3.82592663 -6.37873430 3.82592663 -5.77061400" stress="0.00528217 0.00078653 -0.00159285 0.00078653 0.00383670 0.00095538 -0.00159285 0.00095538 -0.00023595" Properties=species:S:1:pos:R:3
Sc 0.01198919 1.89248859 12.05298516
Sc -1.71430868 4.64963114 12.22023011
Sc -3.35854759 7.66076108 12.10199258
Sc -4.94579088 10.50219532 12.00190177
Sc 3.16880164 1.92938092 12.06132330
Sc 1.55926799 4.70955492 12.17675590
Sc 0.01979982 7.46751123 12.11690222
Sc -1.71336515 10.48609033 12.20282220
Sc 6.68579079 1.77443999 12.14053004
Sc 4.78831628 4.61049814 12.01848331
Sc 3.39564691 7.62504982 12.11700320
Sc 1.65690521 10.32672792 12.17925381
Sc 9.80715911 1.90995676 12.21064974
Sc 8.09462225 4.75959208 12.16496815
Sc 6.55338546 7.63803653 12.11722027
Sc 4.97004890 10.45254988 12.21843440
Sc 1.74600428 0.92784438 14.55649050
Sc 0.05994144 3.80580320 14.77857716
Sc -1.68139867 6.77493354 14.68191179
Sc -3.29609415 9.54006846 14.69439862
Sc 4.99175053 1.03345259 14.80323905
Sc 3.44292043 3.74716551 14.66076371
Sc 1.60452966 6.49488512 14.61679834
Sc -0.04861451 9.54931931 14.70118223
Sc 8.50753821 0.96564974 14.76044346
Sc 6.59983214 3.78503954 14.60382649
Sc 4.88796483 6.37606329 14.77247918
Sc 3.08814518 9.27947186 14.85476404
Sc 11.58406593 0.97697593 14.75937352
Sc 9.90034204 3.90187343 14.62159722
Sc 8.11991452 6.69034796 14.71955154
Sc 6.56881955 9.51719931 14.62965463
F 0.09793934 2.03687382 15.77994735
F -1.72172799 4.81167445 15.71617343
F -3.28371084 7.52162702 15.68781721
F -4.81359805 10.52929577 15.94977013
F 3.36548663 1.82926992 15.86712106
F 1.79653643 4.59656044 15.76130223
F -0.05463831 7.35585694 15.68999391
F -1.63470188 10.40101433 15.86236354
F 6.48005614 1.69324450 15.99018235
F 4.95038547 4.56447178 15.83360209
F 3.45454231 7.26372504 15.97788215
F 1.59620205 10.54548245 15.84720795
F 9.97404166 2.00831834 15.84616816
F 7.99170082 4.82805999 16.03333279
F 6.69975901 7.78911769 15.85552489
F 5.21770384 10.77364969 16.05648219
F 1.70394519 0.86035345 10.84673149
F 0.00573582 3.96470954 10.86665568
F -1.70936423 6.65830944 11.00589279
F -3.42613253 9.53260999 10.88254616
F 4.93865331 1.07153810 11.05319508
F 3.18430841 3.89507897 10.94924985
F 1.54868430 6.59941486 10.87090575
F 0.00223828 9.68888799 11.12910404
F 8.31964824 0.97739009 11.14712408
F 6.65270261 3.63679011 10.92236333
F 4.72142930 6.56615639 10.85877802
F 3.15747923 9.34832159 10.85998581
F 11.53688483 0.78601537 10.94044039
F 9.82401833 3.95427081 11.15914738
F 8.06784090 6.68108173 10.94364603
F 6.59464395 9.61678133 10.94570902
C 0.01075890 0.00506404 13.38641440
C -1.65401918 2.89034752 13.27689898
C 9.66762561 5.69460112 13.43163836
C 8.14576604 8.59978296 13.31688720
C 3.30055445 0.17927087 13.34035765
C 1.59003392 2.78653608 13.30026558
C 0.01449284 5.71054046 13.44521435
C -1.76818924 8.51571172 13.47151397
C -0.13139323 11.30431458 13.48930249
C 5.00836517 2.67973943 13.31559540
C 3.26815172 5.52572585 13.39569616
C 1.66201521 8.47071387 13.44387922
C 9.93366653 0.00354972 13.52852048
C 8.25685577 2.77437328 13.49780720
C 6.41989105 5.75829552 13.47089289
C 4.92372427 8.52550156 13.44204470
80
Time=450000.00000155 pbc="T T F" Lattice="13.12862340 0.00000000 0.00000000 -6.56431170 11.36972138 0.00000000 0.00000000 0.00000000 26.82809424" energy=-592.49361086 virial="9.83556422 0.81966537 -3.30325934 0.81966537 14.16280067 -1.52723665 -3.30325934 -1.52723665 -13.17867996" stress="0.00366111 0.00020468 -0.00082487 0.00020468 0.00474168 -0.00038137 -0.00082487 -0.00038137 -0.00208584" Properties=species:S:1:pos:R:3
Sc -0.05774387 1.80897089 11.92756442
Sc -1.61870743 4.73437713 12.17983119
Sc -3.35916605 7.63260731 12.15366680
Sc -4.99878972 10.48510447 12.18832346
Sc 3.22406982 1.90538939 12.19595525
Sc 1.65182697 4.73639768 12.04371340
Sc 0.03626725 7.59337570 11.88739114
Sc -1.59522059 10.52795713 12.07348838
Sc 6.65559062 1.95924695 12.18804738
Sc 5.02369507 4.66931249 12.23240570
Sc 3.35938619 7.61364885 12.09059862
Sc 1.64108082 10.27237608 12.18841192
Sc 9.78861537 1.64983310 12.16633473
Sc 8.18756810 4.68233244 12.12079325
Sc 6.69486175 7.73116384 12.16061534
Sc 4.88865271 10.44871582 12.23578771
Sc 1.77844059 1.15060130 14.71724443
Sc -0.23049155 3.90205993 14.56960655
Sc -1.73434299 6.72380792 14.56962298
Sc -3.39092220 9.48426064 14.61755658
Sc 4.97838402 0.98025496 14.70304712
Sc 3.34660848 3.82753858 14.74901214
Sc 1.46300965 6.50981047 14.60902926
Sc -0.02752756 9.49982120 14.84927900
Sc 8.21692174 0.75693733 14.82080057
Sc 6.73197900 3.68661748 14.62981802
Sc 4.88012949 6.51100048 14.64218344
Sc 3.32207542 9.38000946 14.63930475
Sc 11.62810885 1.05670758 14.82820712
Sc 9.78085702 3.73060617 14.61887741
Sc 8.10466146 6.69233442 14.92016389
Sc 6.55895760 9.55546333 14.80361982
F -0.04602173 1.80209544 15.96596726
F -1.81466978 4.37219699 15.95372285
F -3.20498562 7.74688761 15.77242335
F -5.04112404 10.33984663 15.93057190
F 3.55244445 2.02126132 15.77045669
F 1.47694327 4.88352198 15.85868669
F -0.13489991 7.64407387 15.90621982
F -1.65863032 10.53674739 15.84076011
F 6.70748656 1.94192660 16.12824546
F 5.09435439 4.92374280 15.84952963
F 3.29389430 7.47017903 15.63790229
F 1.84961179 10.01440362 15.91240641
F 9.95288223 1.82744352 15.72176053
F 8.38629543 4.86434115 15.98827948
F 6.69234623 7.61467809 16.07891334
F 4.87284640 10.40599752 15.76120035
F 1.49844939 0.90729232 10.94967065
F -0.03632513 4.08225663 10.83547984
F -1.56623621 6.93006471 10.65571379
F -3.32083234 9.60921915 10.95937614
F 4.93902905 1.01992337 11.17248097
F 3.27931307 3.41574477 10.91374912
F 1.51591879 6.70295051 10.70707200
F -0.08783136 9.56267910 10.99731657
F 8.17945541 0.79156526 11.18178072
F 6.47768611 3.85740519 10.80346915
F 5.03552988 6.59876018 11.08555148
F 3.13303385 9.38895357 11.07430082
F 11.33883983 0.90956748 10.81822137
F 9.72824496 3.97023691 10.92645139
F 8.29497857 6.69317136 11.01709324
F 6.47003291 9.36092234 10.80643685
C 0.04794340 0.15194382 13.47207013
C 11.48735487 2.79024509 13.42483732
C -3.20448822 5.73106850 13.44987397
C -4.92327038 8.59194158 13.41517024
C -3.24082012 11.27999727 13.48649813
C 1.70156232 2.93769231 13.47064937
C -0.10135114 5.68000667 13.36882358