 vasp.5.4.4.18Apr17-6-g9f103f2a35 (build Oct 31 2019 15:01:46) complex          
  
 executed on             LinuxIFC date 2024.04.30  08:18:34
 running on   52 total cores
 distrk:  each k-point on   52 cores,    1 groups
 distr:  one band on NCORES_PER_BAND=  13 cores,    4 groups


--------------------------------------------------------------------------------------------------------


 INCAR:
 POTCAR:    PAW_PBE Sc_sv 07Sep2000               
 POTCAR:    PAW_PBE Cl 06Sep2000                  
 POTCAR:    PAW_PBE C 08Apr2002                   
 POTCAR:    PAW_PBE Sc_sv 07Sep2000               
   VRHFIN =Sc: 3p4s3d                                                           
   LEXCH  = PE                                                                  
   EATOM  =  1273.2868 eV,   93.5839 Ry                                         
                                                                                
   TITEL  = PAW_PBE Sc_sv 07Sep2000                                             
   LULTRA =        F    use ultrasoft PP ?                                      
   IUNSCR =        1    unscreen: 0-lin 1-nonlin 2-no                           
   RPACOR =    2.200    partial core radius                                     
   POMASS =   44.956; ZVAL   =   11.000    mass and valenz                      
   RCORE  =    2.500    outmost cutoff radius                                   
   RWIGS  =    2.700; RWIGS  =    1.429    wigner-seitz radius (au A)           
   ENMAX  =  222.660; ENMIN  =  166.995 eV                                      
   RCLOC  =    1.805    cutoff for local pot                                    
   LCOR   =        T    correct aug charges                                     
   LPAW   =        T    paw PP                                                  
   EAUG   =  443.063                                                            
   RMAX   =    2.551    core radius for proj-oper                               
   RAUG   =    1.300    factor for augmentation sphere                          
   RDEP   =    2.650    radius for radial grids                                 
   RDEPT  =    2.038    core radius for aug-charge                              
                                                                                
   Atomic configuration                                                         
    8 entries                                                                   
     n  l   j            E        occ.                                          
     1  0  0.50     -4394.2533   2.0000                                         
     2  0  0.50      -471.0040   2.0000                                         
     2  1  1.50      -384.9788   6.0000                                         
     3  0  0.50       -52.1410   2.0000                                         
     4  0  0.50        -3.5584   1.0000                                         
     3  1  1.50       -30.8841   6.0000                                         
     3  2  2.50        -1.3655   2.0000                                         
     4  3  2.50        -1.3606   0.0000                                         
   Description                                                                  
     l       E           TYP  RCUT    TYP  RCUT                                 
     0    -52.1409870     23  1.800                                             
     0     -3.5583698     23  2.500                                             
     1    -30.8840697     23  2.300                                             
     1      4.0817478     23  2.300                                             
     2     -1.3655397     23  2.500                                             
     2      0.3564476     23  2.500                                             
  local pseudopotential read in
  partial core-charges read in
  partial kinetic energy density read in
  atomic valenz-charges read in
  non local Contribution for L=           0  read in
    real space projection operators read in
  non local Contribution for L=           0  read in
    real space projection operators read in
  non local Contribution for L=           1  read in
    real space projection operators read in
  non local Contribution for L=           1  read in
    real space projection operators read in
  non local Contribution for L=           2  read in
    real space projection operators read in
  non local Contribution for L=           2  read in
    real space projection operators read in
    PAW grid and wavefunctions read in
 
   number of l-projection  operators is LMAX  =           6
   number of lm-projection operators is LMMAX =          18
 
 POTCAR:    PAW_PBE Cl 06Sep2000                  
   VRHFIN =Cl: s2p5                                                             
   LEXCH  = PE                                                                  
   EATOM  =   409.7259 eV,   30.1140 Ry                                         
                                                                                
   TITEL  = PAW_PBE Cl 06Sep2000                                                
   LULTRA =        F    use ultrasoft PP ?                                      
   IUNSCR =        1    unscreen: 0-lin 1-nonlin 2-no                           
   RPACOR =    1.500    partial core radius                                     
   POMASS =   35.453; ZVAL   =    7.000    mass and valenz                      
   RCORE  =    1.900    outmost cutoff radius                                   
   RWIGS  =    2.100; RWIGS  =    1.111    wigner-seitz radius (au A)           
   ENMAX  =  262.472; ENMIN  =  196.854 eV                                      
   ICORE  =        2    local potential                                         
   LCOR   =        T    correct aug charges                                     
   LPAW   =        T    paw PP                                                  
   EAUG   =  356.192                                                            
   DEXC   =    0.000                                                            
   RMAX   =    1.945    core radius for proj-oper                               
   RAUG   =    1.300    factor for augmentation sphere                          
   RDEP   =    2.020    radius for radial grids                                 
   RDEPT  =    1.678    core radius for aug-charge                              
                                                                                
   Atomic configuration                                                         
    6 entries                                                                   
     n  l   j            E        occ.                                          
     1  0  0.50     -2751.1850   2.0000                                         
     2  0  0.50      -252.6861   2.0000                                         
     2  1  1.50      -191.6157   6.0000                                         
     3  0  0.50       -20.6916   2.0000                                         
     3  1  0.50        -8.5949   5.0000                                         
     3  2  1.50        -8.1635   0.0000                                         
   Description                                                                  
     l       E           TYP  RCUT    TYP  RCUT                                 
     0    -20.6915656     23  1.900                                             
     0    -22.0521482     23  1.900                                             
     1     -8.5948577     23  1.900                                             
     1     -5.3847331     23  1.900                                             
     2     -8.1634956     23  1.900                                             
  local pseudopotential read in
  partial core-charges read in
  partial kinetic energy density read in
  atomic valenz-charges read in
  non local Contribution for L=           0  read in
    real space projection operators read in
  non local Contribution for L=           0  read in
    real space projection operators read in
  non local Contribution for L=           1  read in
    real space projection operators read in
  non local Contribution for L=           1  read in
    real space projection operators read in
    PAW grid and wavefunctions read in
 
   number of l-projection  operators is LMAX  =           4
   number of lm-projection operators is LMMAX =           8
 
 POTCAR:    PAW_PBE C 08Apr2002                   
   VRHFIN =C: s2p2                                                              
   LEXCH  = PE                                                                  
   EATOM  =   147.1560 eV,   10.8157 Ry                                         
                                                                                
   TITEL  = PAW_PBE C 08Apr2002                                                 
   LULTRA =        F    use ultrasoft PP ?                                      
   IUNSCR =        1    unscreen: 0-lin 1-nonlin 2-no                           
   RPACOR =    1.200    partial core radius                                     
   POMASS =   12.011; ZVAL   =    4.000    mass and valenz                      
   RCORE  =    1.500    outmost cutoff radius                                   
   RWIGS  =    1.630; RWIGS  =    0.863    wigner-seitz radius (au A)           
   ENMAX  =  400.000; ENMIN  =  300.000 eV                                      
   ICORE  =        2    local potential                                         
   LCOR   =        T    correct aug charges                                     
   LPAW   =        T    paw PP                                                  
   EAUG   =  644.873                                                            
   DEXC   =    0.000                                                            
   RMAX   =    1.529    core radius for proj-oper                               
   RAUG   =    1.300    factor for augmentation sphere                          
   RDEP   =    1.501    radius for radial grids                                 
   RDEPT  =    1.300    core radius for aug-charge                              
                                                                                
   Atomic configuration                                                         
    4 entries                                                                   
     n  l   j            E        occ.                                          
     1  0  0.50      -273.3789   2.0000                                         
     2  0  0.50       -13.7508   2.0000                                         
     2  1  0.50        -5.2854   2.0000                                         
     3  2  1.50        -5.4423   0.0000                                         
   Description                                                                  
     l       E           TYP  RCUT    TYP  RCUT                                 
     0    -13.7508458     23  1.200                                             
     0     -8.2022199     23  1.200                                             
     1     -5.2854383     23  1.500                                             
     1     34.0145650     23  1.500                                             
     2     -5.4423304      7  1.500                                             
  local pseudopotential read in
  partial core-charges read in
  partial kinetic energy density read in
  atomic valenz-charges read in
  non local Contribution for L=           0  read in
    real space projection operators read in
  non local Contribution for L=           0  read in
    real space projection operators read in
  non local Contribution for L=           1  read in
    real space projection operators read in
  non local Contribution for L=           1  read in
    real space projection operators read in
    PAW grid and wavefunctions read in
 
   number of l-projection  operators is LMAX  =           4
   number of lm-projection operators is LMMAX =           8
 
 Optimization of the real space projectors (new method)

 maximal supplied QI-value         = 15.12
 optimisation between [QCUT,QGAM] = [ 12.55, 25.10] = [ 44.09,176.36] Ry 
 Optimized for a Real-space Cutoff    1.56 Angstroem

   l    n(q)    QCUT    max X(q) W(low)/X(q) W(high)/X(q)  e(spline) 
   0     12    12.548     2.962    0.12E-05    0.11E-06    0.46E-07
   0     12    12.548    26.414    0.30E-04    0.15E-05    0.76E-07
   1     11    12.548     3.969    0.45E-05    0.12E-05    0.60E-07
   1     11    12.548     5.137    0.15E-04    0.18E-04    0.36E-06
   2     11    12.548   143.970    0.20E-03    0.19E-03    0.76E-06
   2     11    12.548   121.201    0.20E-03    0.19E-03    0.76E-06
 Optimization of the real space projectors (new method)

 maximal supplied QI-value         = 19.84
 optimisation between [QCUT,QGAM] = [ 12.50, 25.00] = [ 43.76,175.03] Ry 
 Optimized for a Real-space Cutoff    1.20 Angstroem

   l    n(q)    QCUT    max X(q) W(low)/X(q) W(high)/X(q)  e(spline) 
   0      9    12.501   168.010    0.44E-04    0.61E-04    0.77E-07
   0      9    12.501   164.674    0.43E-04    0.60E-04    0.75E-07
   1      8    12.501    69.222    0.11E-03    0.13E-03    0.91E-07
   1      8    12.501    56.786    0.11E-03    0.13E-03    0.90E-07
 Optimization of the real space projectors (new method)

 maximal supplied QI-value         = 25.13
 optimisation between [QCUT,QGAM] = [ 12.32, 24.88] = [ 42.47,173.37] Ry 
 Optimized for a Real-space Cutoff    1.16 Angstroem

   l    n(q)    QCUT    max X(q) W(low)/X(q) W(high)/X(q)  e(spline) 
   0      9    12.315   115.676    0.19E-03    0.80E-05    0.34E-06
   0      9    12.315    87.132    0.19E-03    0.82E-05    0.34E-06
   1      8    12.315     4.429    0.18E-03    0.13E-03    0.22E-06
   1      8    12.315     2.733    0.14E-03    0.10E-03    0.18E-06
  PAW_PBE Sc_sv 07Sep2000               :
 energy of atom  1       EATOM=-1273.2868
 kinetic energy error for atom=    0.0014 (will be added to EATOM!!)
  PAW_PBE Cl 06Sep2000                  :
 energy of atom  2       EATOM= -409.7259
 kinetic energy error for atom=    0.0013 (will be added to EATOM!!)
  PAW_PBE C 08Apr2002                   :
 energy of atom  3       EATOM= -147.1560
 kinetic energy error for atom=    0.0057 (will be added to EATOM!!)
 
 
 POSCAR: Sc Cl  C                                
  positions in cartesian coordinates
  No initial velocities read in
 exchange correlation table for  LEXCH =        8
   RHO(1)=    0.500       N(1)  =     2000
   RHO(2)=  100.500       N(2)  =     4000
 


--------------------------------------------------------------------------------------------------------


 ion  position               nearest neighbor table
   1  0.067  0.167  0.545-  66 2.03  65 2.26  50 2.54  61 2.65  70 2.66  49 2.99  29 3.06  18 3.28
                             2 3.29  17 3.32  13 3.32  16 3.34
   2  0.082  0.412  0.542-  71 2.25  67 2.29  66 2.29  62 2.44  51 2.84  50 2.91  18 3.06  19 3.15
                            30 3.18   1 3.29   6 3.36   3 3.37  14 3.39
   3  0.074  0.653  0.544-  67 2.24  68 2.31  72 2.49  63 2.53  51 2.62  52 2.71  19 2.97  31 3.09
                            14 3.30  20 3.35  15 3.35   2 3.37   8 3.42
   4  0.086  0.919  0.543-  65 2.25  69 2.29  68 2.36  52 2.54  64 2.66  49 2.74  32 2.97  17 3.10
                            20 3.17   5 3.38   8 3.38
   5  0.330  0.165  0.541-  70 2.32  74 2.34  49 2.45  69 2.46  54 2.64  53 2.72  22 3.11  17 3.13
                            21 3.23   4 3.38   9 3.42
   6  0.329  0.420  0.548-  71 2.24  70 2.32  75 2.39  50 2.46  55 2.46  54 2.52  23 3.08  18 3.19
                            22 3.27   7 3.33   2 3.36
   7  0.337  0.665  0.545-  76 2.28  72 2.29  71 2.29  56 2.57  55 2.60  51 2.61  23 2.98  19 3.08
                            24 3.20  11 3.30   6 3.33   8 3.37
   8  0.322  0.901  0.544-  72 2.26  69 2.27  56 2.41  73 2.50  52 2.59  53 2.64  24 3.16  20 3.18
                            21 3.32   7 3.37   4 3.38   3 3.42
   9  0.571  0.153  0.540-  74 2.26  73 2.36  78 2.43  58 2.62  53 2.63  57 2.68  26 3.12  25 3.14
                            21 3.25  12 3.27   5 3.42  13 3.43
  10  0.595  0.432  0.551-  75 2.24  79 2.36  54 2.49  59 2.55  74 2.72  58 2.83  27 3.17  15 3.23
                            26 3.28  22 3.32
  11  0.585  0.684  0.547-  76 2.20  80 2.34  75 2.46  60 2.47  55 2.71  59 2.99  28 3.06  23 3.15
                            27 3.18  12 3.30   7 3.30  16 3.33
  12  0.581  0.921  0.537-  73 2.22  76 2.28  77 2.46  60 2.68  57 2.68  56 2.80  25 2.96  28 3.02
                            24 3.16   9 3.27  11 3.30  13 3.36
  13  0.825  0.164  0.542-  77 2.26  78 2.30  66 2.50  57 2.56  62 2.68  61 2.78  25 3.17  29 3.21
                             1 3.32  30 3.33  12 3.36  14 3.36   9 3.43
  14  0.836  0.413  0.539-  78 2.22  79 2.24  67 2.33  58 2.56  63 2.82  62 2.84  26 2.98  30 3.14
                            31 3.17   3 3.30  13 3.36   2 3.39
  15  0.835  0.660  0.549-  79 2.24  68 2.39  64 2.56  59 2.60  80 2.62  63 2.67  27 3.22  31 3.23
                            10 3.23  32 3.25   3 3.35
  16  0.835  0.916  0.548-  80 2.25  65 2.28  77 2.42  61 2.47  64 2.57  60 2.76  32 3.10  28 3.15
                            11 3.33   1 3.34  29 3.34
  17  0.160  0.078  0.455-  65 2.40  69 2.47  70 2.54  36 2.57  33 2.67  37 2.76   4 3.10   5 3.13
                            32 3.26   1 3.32  29 3.33  20 3.37  21 3.37
  18  0.171  0.344  0.455-  71 2.29  66 2.30  70 2.37  38 2.54  33 2.63  34 2.65   2 3.06   6 3.19
                             1 3.28  23 3.31  30 3.37
  19  0.170  0.595  0.461-  72 2.07  67 2.22  71 2.44  35 2.55  39 2.63   3 2.97   7 3.08   2 3.15
                            24 3.20  20 3.36  31 3.39
  20  0.162  0.834  0.453-  69 2.20  68 2.36  40 2.53  72 2.56  36 2.61  35 2.75   4 3.17   8 3.18
                            21 3.27  31 3.32  32 3.34   3 3.35  19 3.36  17 3.37  24 3.39
  21  0.400  0.070  0.449-  69 2.30  73 2.42  74 2.46  40 2.59  37 2.65  41 2.75   5 3.23   9 3.25
                            20 3.27   8 3.32  17 3.37  24 3.40
  22  0.422  0.339  0.457-  70 2.23  74 2.35  75 2.38  38 2.57  42 2.63  37 2.70   5 3.11   6 3.27
                            10 3.32  27 3.41
  23  0.412  0.582  0.462-  76 2.28  71 2.28  75 2.45  39 2.63  43 2.65  38 2.70   7 2.98   6 3.08
                            11 3.15  18 3.31  24 3.42  27 3.43
  24  0.403  0.825  0.453-  72 2.20  73 2.25  76 2.47  39 2.47  40 2.76  44 2.91   8 3.16  12 3.16
                             7 3.20  19 3.20  20 3.39  21 3.40  23 3.42
  25  0.660  0.074  0.453-  73 2.27  77 2.39  78 2.49  44 2.52  41 2.53  45 2.78  12 2.96   9 3.14
                            13 3.17  28 3.37
  26  0.669  0.334  0.459-  78 2.23  74 2.31  79 2.41  41 2.51  46 2.69  42 2.69  14 2.98   9 3.12
                            10 3.28
  27  0.664  0.591  0.460-  75 2.32  80 2.36  79 2.49  43 2.52  42 2.53  47 2.78  10 3.17  11 3.18
                            15 3.22  28 3.32  22 3.41  23 3.43
  28  0.673  0.836  0.459-  80 2.15  77 2.31  76 2.40  48 2.46  43 2.69  44 2.83  12 3.02  11 3.06
                            16 3.15  27 3.32  25 3.37
  29  0.925  0.089  0.454-  77 2.25  66 2.30  65 2.44  33 2.51  48 2.73  45 2.77   1 3.06  13 3.21
                            17 3.33  16 3.34  32 3.42
  30  0.926  0.342  0.449-  67 2.33  34 2.43  78 2.50  45 2.53  66 2.60  46 2.62  14 3.14   2 3.18
                            13 3.33  18 3.37
  31  0.923  0.592  0.455-  68 2.26  79 2.39  67 2.44  46 2.46  47 2.57  35 2.69   3 3.09  14 3.17
                            15 3.23  20 3.32  19 3.39  32 3.43
  32  0.925  0.841  0.462-  65 2.27  68 2.33  80 2.37  36 2.54  47 2.63  48 2.67   4 2.97  16 3.10
                            15 3.25  17 3.26  20 3.34  29 3.42  31 3.43
  33  0.084  0.175  0.395-  29 2.51  18 2.63  17 2.67
  34  0.070  0.399  0.388-  30 2.43  18 2.65
  35  0.091  0.655  0.391-  19 2.55  31 2.69  20 2.75
  36  0.069  0.914  0.395-  32 2.54  17 2.57  20 2.61
  37  0.335  0.177  0.390-  21 2.65  22 2.70  17 2.76
  38  0.334  0.414  0.397-  18 2.54  22 2.57  23 2.70
  39  0.332  0.663  0.397-  24 2.47  19 2.63  23 2.63
  40  0.311  0.906  0.388-  20 2.53  21 2.59  24 2.76
  41  0.597  0.179  0.398-  26 2.51  25 2.53  21 2.75
  42  0.595  0.435  0.399-  27 2.53  22 2.63  26 2.69
  43  0.578  0.660  0.399-  27 2.52  23 2.65  28 2.69
  44  0.594  0.927  0.388-  25 2.52  28 2.83  24 2.91
  45  0.839  0.182  0.390-  30 2.53  29 2.77  25 2.78
  46  0.839  0.437  0.397-  31 2.46  30 2.62  26 2.69
  47  0.844  0.682  0.397-  31 2.57  32 2.63  27 2.78
  48  0.822  0.902  0.397-  28 2.46  32 2.67  29 2.73
  49  0.195  0.093  0.607-   5 2.45   4 2.74   1 2.99
  50  0.179  0.318  0.607-   6 2.46   1 2.54   2 2.91
  51  0.175  0.595  0.608-   7 2.61   3 2.62   2 2.84
  52  0.157  0.832  0.604-   4 2.54   8 2.59   3 2.71
  53  0.409  0.072  0.604-   9 2.63   8 2.64   5 2.72
  54  0.420  0.338  0.600-  10 2.49   6 2.52   5 2.64
  55  0.407  0.574  0.607-   6 2.46   7 2.60  11 2.71
  56  0.403  0.833  0.602-   8 2.41   7 2.57  12 2.80
  57  0.667  0.082  0.604-  13 2.56   9 2.68  12 2.68
  58  0.682  0.314  0.602-  14 2.56   9 2.62  10 2.83
  59  0.680  0.584  0.615-  10 2.55  15 2.60  11 2.99
  60  0.650  0.837  0.607-  11 2.47  12 2.68  16 2.76
  61  0.903  0.069  0.608-  16 2.47   1 2.65  13 2.78
  62  0.938  0.332  0.604-   2 2.44  13 2.68  14 2.84
  63  0.928  0.580  0.610-   3 2.53  15 2.67  14 2.82
  64  0.918  0.830  0.606-  15 2.56  16 2.57   4 2.66
  65  0.999  0.001  0.507-   4 2.25   1 2.26  32 2.27  16 2.28  17 2.40  29 2.44
  66  0.012  0.246  0.501-   1 2.03   2 2.29  18 2.30  29 2.30  13 2.50  30 2.60
  67  0.007  0.499  0.498-  19 2.22   3 2.24   2 2.29  14 2.33  30 2.33  31 2.44
  68  0.002  0.747  0.502-  31 2.26   3 2.31  32 2.33  20 2.36   4 2.36  15 2.39
  69  0.246  0.984  0.498-  20 2.20   8 2.27   4 2.29  21 2.30   5 2.46  17 2.47
  70  0.262  0.264  0.498-  22 2.23   6 2.32   5 2.32  18 2.37  17 2.54   1 2.66
  71  0.249  0.498  0.504-   6 2.24   2 2.25  23 2.28  18 2.29   7 2.29  19 2.44
  72  0.255  0.743  0.499-  19 2.07  24 2.20   8 2.26   7 2.29   3 2.49  20 2.56
  73  0.494  0.988  0.493-  12 2.22  24 2.25  25 2.27   9 2.36  21 2.42   8 2.50
  74  0.498  0.241  0.497-   9 2.26  26 2.31   5 2.34  22 2.35  21 2.46  10 2.72
  75  0.506  0.500  0.508-  10 2.24  27 2.32  22 2.38   6 2.39  23 2.45  11 2.46
  76  0.499  0.749  0.502-  11 2.20  23 2.28  12 2.28   7 2.28  28 2.40  24 2.47
  77  0.764  0.008  0.496-  29 2.25  13 2.26  28 2.31  25 2.39  16 2.42  12 2.46
  78  0.750  0.252  0.498-  14 2.22  26 2.23  13 2.30   9 2.43  25 2.49  30 2.50
  79  0.760  0.505  0.504-  15 2.24  14 2.24  10 2.36  31 2.39  26 2.41  27 2.49
  80  0.749  0.763  0.502-  28 2.15  16 2.25  11 2.34  27 2.36  32 2.37  15 2.62
 
  LATTYP: Found a hexagonal cell.
 ALAT       =    13.7939866762
 C/A-ratio  =     2.0161119278
  
  Lattice vectors:
  
 A1 = (  13.7939866800,   0.0000000000,   0.0000000000)
 A2 = (  -6.8969933400,  11.9459428800,   0.0000000000)
 A3 = (   0.0000000000,   0.0000000000,  27.8102210700)


Analysis of symmetry for initial positions (statically):
=====================================================================
 Subroutine PRICEL returns:
 Original cell was already a primitive cell.
 

 Routine SETGRP: Setting up the symmetry group for a 
 hexagonal supercell.


 Subroutine GETGRP returns: Found  1 space group operations
 (whereof  1 operations were pure point group operations)
 out of a pool of 24 trial point group operations.


The static configuration has the point symmetry C_1 .


Analysis of symmetry for dynamics (positions and initial velocities):
=====================================================================
 Subroutine PRICEL returns:
 Original cell was already a primitive cell.
 

 Routine SETGRP: Setting up the symmetry group for a 
 hexagonal supercell.


 Subroutine GETGRP returns: Found  1 space group operations
 (whereof  1 operations were pure point group operations)
 out of a pool of 24 trial point group operations.


The dynamic configuration has the point symmetry C_1 .


 Subroutine INISYM returns: Found  1 space group operations
 (whereof  1 operations are pure point group operations),
 and found     1 'primitive' translations

 
 

Automatic generation of k-mesh.
 generate k-points for:    3    3    1
Space group operators:
 irot       det(A)        alpha          n_x          n_y          n_z        tau_x        tau_y        tau_z
    1     1.000000     0.000000     1.000000     0.000000     0.000000     0.000000     0.000000     0.000000
 
 Subroutine IBZKPT returns following result:
 ===========================================
 
 Found      5 irreducible k-points:
 
 Following reciprocal coordinates:
            Coordinates               Weight
  0.000000  0.000000  0.000000      1.000000
  0.333333 -0.000000  0.000000      2.000000
  0.000000  0.333333  0.000000      2.000000
  0.333333  0.333333  0.000000      2.000000
 -0.333333  0.333333  0.000000      2.000000
 
 Following cartesian coordinates:
            Coordinates               Weight
  0.000000  0.000000  0.000000      1.000000
  0.024165  0.013952  0.000000      2.000000
  0.000000  0.027903  0.000000      2.000000
  0.024165  0.041855  0.000000      2.000000
 -0.024165  0.013952  0.000000      2.000000
 


--------------------------------------------------------------------------------------------------------




 Dimension of arrays:
   k-points           NKPTS =      5   k-points in BZ     NKDIM =      5   number of bands    NBANDS=    384
   number of dos      NEDOS =    301   number of ions     NIONS =     80
   non local maximal  LDIM  =      6   non local SUM 2l+1 LMDIM =     18
   total plane-waves  NPLWV = ******
   max r-space proj   IRMAX =   9806   max aug-charges    IRDMAX= 216835
   dimension x,y,z NGX =   112 NGY =  112 NGZ =  224
   dimension x,y,z NGXF=   224 NGYF=  224 NGZF=  448
   support grid    NGXF=   448 NGYF=  448 NGZF=  896
   ions per type =              32  32  16
   NGX,Y,Z   is equivalent  to a cutoff of  13.50, 13.50, 13.39 a.u.
   NGXF,Y,Z  is equivalent  to a cutoff of  27.00, 27.00, 26.78 a.u.

 SYSTEM =  unknown system                          
 POSCAR =  Sc Cl  C                                

 Startparameter for this run:
   NWRITE =      2    write-flag & timer
   PREC   = anorma    normal or accurate (medium, high low for compatibility)
   ISTART =      0    job   : 0-new  1-cont  2-samecut
   ICHARG =      2    charge: 1-file 2-atom 10-const
   ISPIN  =      1    spin polarized calculation?
   LNONCOLLINEAR =      F non collinear calculations
   LSORBIT =      F    spin-orbit coupling
   INIWAV =      1    electr: 0-lowe 1-rand  2-diag
   LASPH  =      F    aspherical Exc in radial PAW
   METAGGA=      F    non-selfconsistent MetaGGA calc.

 Electronic Relaxation 1
   ENCUT  =  600.0 eV  44.10 Ry    6.64 a.u.  27.55 27.55 55.54*2*pi/ulx,y,z
   ENINI  =  600.0     initial cutoff
   ENAUG  =  644.9 eV  augmentation charge cutoff
   NELM   =     60;   NELMIN=  2; NELMDL= -5     # of ELM steps 
   EDIFF  = 0.1E-05   stopping-criterion for ELM
   LREAL  =      T    real-space projection
   NLSPLINE    = F    spline interpolate recip. space projectors
   LCOMPAT=      F    compatible to vasp.4.4
   GGA_COMPAT  = T    GGA compatible to vasp.4.4-vasp.4.6
   LMAXPAW     = -100 max onsite density
   LMAXMIX     =    2 max onsite mixed and CHGCAR
   VOSKOWN=      0    Vosko Wilk Nusair interpolation
   ROPT   =   -0.00025  -0.00025  -0.00025
 Ionic relaxation
   EDIFFG = -.1E-01   stopping-criterion for IOM
   NSW    =      1    number of steps for IOM
   NBLOCK =      1;   KBLOCK =      1    inner block; outer block 
   IBRION =     -1    ionic relax: 0-MD 1-quasi-New 2-CG
   NFREE  =      0    steps in history (QN), initial steepest desc. (CG)
   ISIF   =      2    stress and relaxation
   IWAVPR =     10    prediction:  0-non 1-charg 2-wave 3-comb
   ISYM   =      2    0-nonsym 1-usesym 2-fastsym
   LCORR  =      T    Harris-Foulkes like correction to forces

   POTIM  = 1.0000    time-step for ionic-motion
   TEIN   =    0.0    initial temperature
   TEBEG  =    0.0;   TEEND  =   0.0 temperature during run
   SMASS  =  -3.00    Nose mass-parameter (am)
   estimated Nose-frequenzy (Omega)   =  0.10E-29 period in steps =****** mass=  -0.435E-26a.u.
   SCALEE = 1.0000    scale energy and forces
   NPACO  =    256;   APACO  = 16.0  distance and # of slots for P.C.
   PSTRESS=    0.0 pullay stress

  Mass of Ions in am
   POMASS =  44.96 35.45 12.01
  Ionic Valenz
   ZVAL   =  11.00  7.00  4.00
  Atomic Wigner-Seitz radii
   RWIGS  =  -1.00 -1.00 -1.00
  virtual crystal weights 
   VCA    =   1.00  1.00  1.00
   NELECT =     640.0000    total number of electrons
   NUPDOWN=      -1.0000    fix difference up-down

 DOS related values:
   EMIN   =  10.00;   EMAX   =-10.00  energy-range for DOS
   EFERMI =   0.00
   ISMEAR =     0;   SIGMA  =   0.05  broadening in eV -4-tet -1-fermi 0-gaus

 Electronic relaxation 2 (details)
   IALGO  =     38    algorithm
   LDIAG  =      T    sub-space diagonalisation (order eigenvalues)
   LSUBROT=      F    optimize rotation matrix (better conditioning)
   TURBO    =      0    0=normal 1=particle mesh
   IRESTART =      0    0=no restart 2=restart with 2 vectors
   NREBOOT  =      0    no. of reboots
   NMIN     =      0    reboot dimension
   EREF     =   0.00    reference energy to select bands
   IMIX   =      4    mixing-type and parameters
     AMIX     =   0.40;   BMIX     =  1.00
     AMIX_MAG =   1.60;   BMIX_MAG =  1.00
     AMIN     =   0.10
     WC   =   100.;   INIMIX=   1;  MIXPRE=   1;  MAXMIX= -45

 Intra band minimization:
   WEIMIN = 0.0000     energy-eigenvalue tresh-hold
   EBREAK =  0.65E-09  absolut break condition
   DEPER  =   0.30     relativ break condition  

   TIME   =   0.40     timestep for ELM

  volume/ion in A,a.u.               =      57.28       386.56
  Fermi-wavevector in a.u.,A,eV,Ry     =   0.849369  1.605075  9.815628  0.721428
  Thomas-Fermi vector in A             =   1.965179
 
 Write flags
   LWAVE        =      F    write WAVECAR
   LDOWNSAMPLE  =      F    k-point downsampling of WAVECAR
   LCHARG       =      F    write CHGCAR
   LVTOT        =      F    write LOCPOT, total local potential
   LVHAR        =      F    write LOCPOT, Hartree potential only
   LELF         =      F    write electronic localiz. function (ELF)
   LORBIT       =      0    0 simple, 1 ext, 2 COOP (PROOUT), +10 PAW based schemes


 Dipole corrections
   LMONO  =      F    monopole corrections only (constant potential shift)
   LDIPOL =      F    correct potential (dipole corrections)
   IDIPOL =      0    1-x, 2-y, 3-z, 4-all directions 
   EPSILON=  1.0000000 bulk dielectric constant

 Exchange correlation treatment:
   GGA     =    --    GGA type
   LEXCH   =     8    internal setting for exchange type
   VOSKOWN=      0    Vosko Wilk Nusair interpolation
   LHFCALC =     F    Hartree Fock is set to
   LHFONE  =     F    Hartree Fock one center treatment
   AEXX    =    0.0000 exact exchange contribution

 Linear response parameters
   LEPSILON=     F    determine dielectric tensor
   LRPA    =     F    only Hartree local field effects (RPA)
   LNABLA  =     F    use nabla operator in PAW spheres
   LVEL    =     F    velocity operator in full k-point grid
   LINTERFAST=   F  fast interpolation
   KINTER  =     0    interpolate to denser k-point grid
   CSHIFT  =0.1000    complex shift for real part using Kramers Kronig
   OMEGAMAX=  -1.0    maximum frequency
   DEG_THRESHOLD= 0.2000000E-02 threshold for treating states as degnerate
   RTIME   =   -0.100 relaxation time in fs
  (WPLASMAI=    0.000 imaginary part of plasma frequency in eV, 0.658/RTIME)
   DFIELD  = 0.0000000 0.0000000 0.0000000 field for delta impulse in time
 
 Orbital magnetization related:
   ORBITALMAG=     F  switch on orbital magnetization
   LCHIMAG   =     F  perturbation theory with respect to B field
   DQ        =  0.001000  dq finite difference perturbation B field
   LLRAUG    =     F  two centre corrections for induced B field



--------------------------------------------------------------------------------------------------------


 Static calculation
 charge density and potential will be updated during run
 non-spin polarized calculation
 Variant of blocked Davidson
 Davidson routine will perform the subspace rotation
 perform sub-space diagonalisation
    after iterative eigenvector-optimisation
 modified Broyden-mixing scheme, WC =      100.0
 initial mixing is a Kerker type mixing with AMIX =  0.4000 and BMIX =      1.0000
 Hartree-type preconditioning will be used
 using additional bands           64
 real space projection scheme for non local part
 use partial core corrections
 calculate Harris-corrections to forces 
   (improved forces if not selfconsistent)
 use gradient corrections 
 use of overlap-Matrix (Vanderbilt PP)
 Gauss-broadening in eV      SIGMA  =   0.05


--------------------------------------------------------------------------------------------------------


  energy-cutoff  :      600.00
  volume of cell :     4582.63
      direct lattice vectors                 reciprocal lattice vectors
    13.793986680  0.000000000  0.000000000     0.072495358  0.041855214  0.000000000
    -6.896993340 11.945942880  0.000000000     0.000000000  0.083710429  0.000000000
     0.000000000  0.000000000 27.810221070     0.000000000  0.000000000  0.035958003

  length of vectors
    13.793986680 13.793986676 27.810221070     0.083710429  0.083710429  0.035958003


 
 k-points in units of 2pi/SCALE and weight: read from INCAR                         
   0.00000000  0.00000000  0.00000000       0.111
   0.02416512  0.01395174  0.00000000       0.222
   0.00000000  0.02790348  0.00000000       0.222
   0.02416512  0.04185521  0.00000000       0.222
  -0.02416512  0.01395174  0.00000000       0.222
 
 k-points in reciprocal lattice and weights: read from INCAR                         
   0.00000000  0.00000000  0.00000000       0.111
   0.33333333 -0.00000000  0.00000000       0.222
   0.00000000  0.33333333  0.00000000       0.222
   0.33333333  0.33333333  0.00000000       0.222
  -0.33333333  0.33333333  0.00000000       0.222
 
 position of ions in fractional coordinates (direct lattice) 
   0.06746605  0.16684254  0.54497572
   0.08186523  0.41233547  0.54193533
   0.07373870  0.65271593  0.54430313
   0.08636781  0.91934281  0.54313433
   0.32981238  0.16528106  0.54060962
   0.32859537  0.41978447  0.54785759
   0.33652197  0.66497171  0.54468998
   0.32157567  0.90121142  0.54378432
   0.57131048  0.15288781  0.53979030
   0.59512764  0.43161871  0.55080915
   0.58507616  0.68445630  0.54716125
   0.58123377  0.92090908  0.53665370
   0.82507283  0.16380235  0.54152057
   0.83611316  0.41279359  0.53857378
   0.83499984  0.66029052  0.54921119
   0.83470313  0.91643879  0.54836636
   0.15990677  0.07766141  0.45483132
   0.17058514  0.34411384  0.45533833
   0.16967194  0.59535060  0.46055134
   0.16208268  0.83431971  0.45259229
   0.40015747  0.06988870  0.44897313
   0.42245591  0.33879869  0.45743954
   0.41171715  0.58221890  0.46197573
   0.40294235  0.82480980  0.45273919
   0.65961943  0.07350085  0.45268934
   0.66886092  0.33355356  0.45898885
   0.66442181  0.59123306  0.46003229
   0.67305986  0.83637461  0.45868366
   0.92452849  0.08878768  0.45377432
   0.92556102  0.34154049  0.44929945
   0.92281229  0.59248590  0.45450677
   0.92452846  0.84145434  0.46223480
   0.08366409  0.17546913  0.39467943
   0.07037247  0.39945353  0.38826582
   0.09085780  0.65528918  0.39122678
   0.06873229  0.91363794  0.39501902
   0.33472323  0.17660273  0.39003394
   0.33379399  0.41353959  0.39732593
   0.33197461  0.66341973  0.39724631
   0.31058597  0.90648004  0.38763133
   0.59740616  0.17861679  0.39821815
   0.59461053  0.43514415  0.39894275
   0.57762686  0.65985219  0.39890821
   0.59406313  0.92677924  0.38773814
   0.83922639  0.18169673  0.38997566
   0.83917980  0.43676251  0.39653948
   0.84429736  0.68206606  0.39684208
   0.82160272  0.90157566  0.39748455
   0.19488041  0.09258968  0.60697793
   0.17866113  0.31805796  0.60691070
   0.17534691  0.59456905  0.60778242
   0.15724590  0.83173110  0.60409691
   0.40917255  0.07192921  0.60401364
   0.42033408  0.33833112  0.59976594
   0.40719342  0.57369936  0.60677533
   0.40277162  0.83252594  0.60192763
   0.66694180  0.08195100  0.60378540
   0.68203294  0.31445222  0.60181510
   0.67994585  0.58427359  0.61468615
   0.64958228  0.83680758  0.60710213
   0.90296773  0.06918628  0.60829783
   0.93790119  0.33161495  0.60385939
   0.92794705  0.58036983  0.61012439
   0.91751446  0.83008247  0.60558917
   0.99943360  0.00081090  0.50690004
   0.01164912  0.24635425  0.50102960
   0.00661691  0.49940201  0.49823125
   0.00165577  0.74662655  0.50182451
   0.24627490  0.98395630  0.49846829
   0.26197839  0.26405604  0.49821926
   0.24854117  0.49785530  0.50437624
   0.25453430  0.74284518  0.49949882
   0.49362612  0.98826336  0.49263808
   0.49797932  0.24124054  0.49747315
   0.50550978  0.50036092  0.50766529
   0.49913640  0.74864929  0.50172372
   0.76439775  0.00797930  0.49648939
   0.75005114  0.25244580  0.49831469
   0.75966990  0.50539193  0.50407314
   0.74938716  0.76346571  0.50167751
 
 position of ions in cartesian coordinates  (Angst):
  -0.22008606  1.99309146 15.15589528
  -1.71462716  4.92573601 15.07134145
  -3.48462673  7.79730721 15.13719037
  -5.14934487 10.98241672 15.10468571
   3.40948513  1.97443813 15.03447299
   1.63738944  5.01472128 15.23604073
   0.05567409  7.94371410 15.14794871
  -1.77983864 10.76582019 15.12276222
   6.82618292  1.82638906 15.01168748
   5.23231135  5.15609246 15.31812436
   3.34984221  8.17647587 15.21667527
   1.66602711 11.00112721 14.92445816
  10.25129986  1.95677351 15.05980666
   8.68629918  4.93120870 14.97785580
   6.96395736  7.88779279 15.27368455
   5.19321167 10.94772538 15.25018965
   1.67012171  0.92773871 12.64895958
  -0.02030177  4.11076433 12.66305967
  -1.76567664  7.11202423 12.80803461
  -3.51853119  9.96673565 12.58669168
   5.03774490  0.83488636 12.48604192
   3.49065888  4.04726978 12.72149481
   1.66366105  6.95515371 12.84764731
  -0.13052623  9.85313071 12.59077690
   8.59184671  0.87803701 12.58939057
   6.92574191  3.98461181 12.76458144
   5.08729519  7.06283635 12.79359965
   3.51570858  9.99128337 12.75609402
  12.14056559  1.06065259 12.61956412
  10.41157391  4.08002314 12.49511697
   8.64288910  7.07780268 12.63993374
   6.94942822 10.05196548 12.85485187
  -0.05614813  2.09614426 10.97612230
  -1.78431136  4.77184905 10.79775840
  -3.26623382  7.82804713 10.88010311
  -5.35326253 10.91426670 10.98556626
   3.39913993  2.10968610 10.84693016
   1.75217003  4.94012033 11.04972192
   0.00365193  7.92517421 11.04750770
  -1.96776810 10.82875879 10.78011300
   7.00869388  2.13374592 11.07453480
   5.20086345  5.19820720 11.09468605
   3.41678108  7.88255660 11.09372545
   1.80250868 11.07125190 10.78308347
  10.32311651  2.17053881 10.84530937
   8.56328683  5.21754000 11.02785063
   6.94202146  8.14792216 11.03626590
   5.11501565 10.77017131 11.05413313
   2.04958735  1.10607107 16.88019037
   0.27080562  3.79950221 16.87832082
  -1.68200588  7.10268795 16.90256335
  -3.56739601  9.93581227 16.80006869
   5.14802548  0.85926222 16.79775295
   3.46461519  4.04168421 16.67962352
   1.66001997  6.85337975 16.87455613
  -0.18609948  9.94530727 16.73974055
   8.63457076  0.97898201 16.79140558
   7.23917841  3.75642829 16.73661106
   5.34943289  6.97969895 17.09455780
   3.18887299  9.99645552 16.88364452
  11.97834748  0.82649540 16.91689717
  10.65025039  3.96145331 16.79346317
   8.79728236  6.93306487 16.96769412
   6.93110901  9.91611772 16.84156868
  13.78058106  0.00968692 14.09700210
  -1.53841581  2.94293380 13.93374389
  -3.35309874  5.96582793 13.85592118
  -5.12663869  8.91915814 13.95585059
  -3.38922730 11.75428577 13.86251339
   1.79253374  3.15439836 13.85558765
  -0.00533105  5.94735098 14.02681464
  -1.61235552  8.87398612 13.89117250
  -0.00697367 11.80573759 13.70037402
   5.20528579  2.88184566 13.83483818
   3.52200928  5.97728293 14.11828383
   1.72165171  8.94332171 13.95304754
  10.48905927  0.09532022 13.80747980
   8.60507847  3.01570316 13.85824159
   6.99319162  6.03738317 14.01838532
   5.07141861  9.12031777 13.95176248
 


--------------------------------------------------------------------------------------------------------


 k-point  1 :   0.0000 0.0000 0.0000  plane waves:  153003
 k-point  2 :   0.3333-0.0000 0.0000  plane waves:  152954
 k-point  3 :   0.0000 0.3333 0.0000  plane waves:  152954
 k-point  4 :   0.3333 0.3333 0.0000  plane waves:  152898
 k-point  5 :  -0.3333 0.3333 0.0000  plane waves:  152954

 maximum and minimum number of plane-waves per node :     11814    11730

 maximum number of plane-waves:    153003
 maximum index in each direction: 
   IXMAX=   27   IYMAX=   27   IZMAX=   55
   IXMIN=  -27   IYMIN=  -27   IZMIN=  -55


 real space projection operators:
  total allocation   :      55032.66 KBytes
  max/ min on nodes  :       4468.00       3877.12


 parallel 3D FFT for wavefunctions:
    minimum data exchange during FFTs selected (reduces bandwidth)
 parallel 3D FFT for charge:
    minimum data exchange during FFTs selected (reduces bandwidth)


 total amount of memory used by VASP MPI-rank0   253952. kBytes
=======================================================================

   base      :      30000. kBytes
   nonlr-proj:      18768. kBytes
   fftplans  :      72602. kBytes
   grid      :      41267. kBytes
   one-center:        108. kBytes
   wavefun   :      91207. kBytes
 
     INWAV:  cpu time    0.0000: real time    0.0000
 Broyden mixing: mesh for mixing (old mesh)
   NGX = 55   NGY = 55   NGZ =111
  (NGX  =224   NGY  =224   NGZ  =448)
  gives a total of 335775 points

 initial charge density was supplied:
 charge density of overlapping atoms calculated
 number of electron     640.0000000 magnetization 
 keeping initial charge density in first step


--------------------------------------------------------------------------------------------------------


 Maximum index for non-local projection operator          943
 Maximum index for augmentation-charges         5142 (set IRDMAX)


--------------------------------------------------------------------------------------------------------


 First call to EWALD:  gamma=   0.107
 Maximum number of real-space cells 4x 4x 2
 Maximum number of reciprocal cells 2x 2x 4

    FEWALD:  cpu time    0.0031: real time    0.0031


--------------------------------------- Iteration      1(   1)  ---------------------------------------


    POTLOK:  cpu time    0.4082: real time    0.4147
    SETDIJ:  cpu time    0.4219: real time    0.4222
     EDDAV:  cpu time   50.5337: real time   50.5385
       DOS:  cpu time    0.0013: real time    0.0013
    --------------------------------------------
      LOOP:  cpu time   51.3653: real time   51.3767

 eigenvalue-minimisations  :  4456
 total energy-change (2. order) : 0.1223121E+05  (-0.2681718E+05)
 number of electron     640.0000000 magnetization 
 augmentation part      640.0000000 magnetization 

 Free energy of the ion-electron system (eV)
  ---------------------------------------------------
  alpha Z        PSCENC =       784.57699423
  Ewald energy   TEWEN  =    252186.62171887
  -Hartree energ DENC   =   -299837.93195850
  -exchange      EXHF   =         0.00000000
  -V(xc)+E(xc)   XCENC  =      2502.82367941
  PAW double counting   =     43679.68029659   -43417.33247688
  entropy T*S    EENTRO =        -0.06455266
  eigenvalues    EBANDS =       122.10798596
  atomic energy  EATOM  =     56210.72393729
  Solvation  Ediel_sol  =         0.00000000
  ---------------------------------------------------
  free energy    TOTEN  =     12231.20562431 eV

  energy without entropy =    12231.27017697  energy(sigma->0) =    12231.23790064


--------------------------------------------------------------------------------------------------------




--------------------------------------- Iteration      1(   2)  ---------------------------------------


     EDDAV:  cpu time   57.1559: real time   57.1677
       DOS:  cpu time    0.0013: real time    0.0013
    --------------------------------------------
      LOOP:  cpu time   57.1572: real time   57.1690

 eigenvalue-minimisations  :  5224
 total energy-change (2. order) :-0.1047723E+05  (-0.1021127E+05)
 number of electron     640.0000000 magnetization 
 augmentation part      640.0000000 magnetization 

 Free energy of the ion-electron system (eV)
  ---------------------------------------------------
  alpha Z        PSCENC =       784.57699423
  Ewald energy   TEWEN  =    252186.62171887
  -Hartree energ DENC   =   -299837.93195850
  -exchange      EXHF   =         0.00000000
  -V(xc)+E(xc)   XCENC  =      2502.82367941
  PAW double counting   =     43679.68029659   -43417.33247688
  entropy T*S    EENTRO =        -0.05085701
  eigenvalues    EBANDS =    -10355.13971004
  atomic energy  EATOM  =     56210.72393729
  Solvation  Ediel_sol  =         0.00000000
  ---------------------------------------------------
  free energy    TOTEN  =      1753.97162396 eV

  energy without entropy =     1754.02248098  energy(sigma->0) =     1753.99705247


--------------------------------------------------------------------------------------------------------




--------------------------------------- Iteration      1(   3)  ---------------------------------------


     EDDAV:  cpu time   71.0894: real time   71.0969
       DOS:  cpu time    0.0008: real time    0.0008
    --------------------------------------------
      LOOP:  cpu time   71.0903: real time   71.0977

 eigenvalue-minimisations  :  6800
 total energy-change (2. order) :-0.2151413E+04  (-0.2064423E+04)
 number of electron     640.0000000 magnetization 
 augmentation part      640.0000000 magnetization 

 Free energy of the ion-electron system (eV)
  ---------------------------------------------------
  alpha Z        PSCENC =       784.57699423
  Ewald energy   TEWEN  =    252186.62171887
  -Hartree energ DENC   =   -299837.93195850
  -exchange      EXHF   =         0.00000000
  -V(xc)+E(xc)   XCENC  =      2502.82367941
  PAW double counting   =     43679.68029659   -43417.33247688
  entropy T*S    EENTRO =        -0.00000067
  eigenvalues    EBANDS =    -12506.60390016
  atomic energy  EATOM  =     56210.72393729
  Solvation  Ediel_sol  =         0.00000000
  ---------------------------------------------------
  free energy    TOTEN  =      -397.44170982 eV

  energy without entropy =     -397.44170915  energy(sigma->0) =     -397.44170948


--------------------------------------------------------------------------------------------------------




--------------------------------------- Iteration      1(   4)  ---------------------------------------


     EDDAV:  cpu time   64.8304: real time   64.8390
       DOS:  cpu time    0.0005: real time    0.0005
    --------------------------------------------
      LOOP:  cpu time   64.8309: real time   64.8395

 eigenvalue-minimisations  :  6088
 total energy-change (2. order) :-0.2438671E+03  (-0.2386655E+03)
 number of electron     640.0000000 magnetization 
 augmentation part      640.0000000 magnetization 

 Free energy of the ion-electron system (eV)
  ---------------------------------------------------
  alpha Z        PSCENC =       784.57699423
  Ewald energy   TEWEN  =    252186.62171887
  -Hartree energ DENC   =   -299837.93195850
  -exchange      EXHF   =         0.00000000
  -V(xc)+E(xc)   XCENC  =      2502.82367941
  PAW double counting   =     43679.68029659   -43417.33247688
  entropy T*S    EENTRO =        -0.00000000
  eigenvalues    EBANDS =    -12750.47104189
  atomic energy  EATOM  =     56210.72393729
  Solvation  Ediel_sol  =         0.00000000
  ---------------------------------------------------
  free energy    TOTEN  =      -641.30885088 eV

  energy without entropy =     -641.30885088  energy(sigma->0) =     -641.30885088


--------------------------------------------------------------------------------------------------------




--------------------------------------- Iteration      1(   5)  ---------------------------------------


     EDDAV:  cpu time   64.7649: real time   64.7749
       DOS:  cpu time    0.0007: real time    0.0007
    CHARGE:  cpu time    3.8811: real time    3.8811
    MIXING:  cpu time    0.0126: real time    0.0127
    --------------------------------------------
      LOOP:  cpu time   68.6592: real time   68.6695

 eigenvalue-minimisations  :  6080
 total energy-change (2. order) :-0.1104822E+02  (-0.1098902E+02)
 number of electron     640.0000003 magnetization 
 augmentation part       59.2201749 magnetization 

 Broyden mixing:
  rms(total) = 0.69986E+01    rms(broyden)= 0.69984E+01
  rms(prec ) = 0.73573E+01
  weight for this iteration     100.00

 Free energy of the ion-electron system (eV)
  ---------------------------------------------------
  alpha Z        PSCENC =       784.57699423
  Ewald energy   TEWEN  =    252186.62171887
  -Hartree energ DENC   =   -299837.93195850
  -exchange      EXHF   =         0.00000000
  -V(xc)+E(xc)   XCENC  =      2502.82367941
  PAW double counting   =     43679.68029659   -43417.33247688
  entropy T*S    EENTRO =        -0.00000000
  eigenvalues    EBANDS =    -12761.51925866
  atomic energy  EATOM  =     56210.72393729
  Solvation  Ediel_sol  =         0.00000000
  ---------------------------------------------------
  free energy    TOTEN  =      -652.35706765 eV

  energy without entropy =     -652.35706765  energy(sigma->0) =     -652.35706765


--------------------------------------------------------------------------------------------------------




--------------------------------------- Iteration      1(   6)  ---------------------------------------


    POTLOK:  cpu time    0.3838: real time    0.3930
    SETDIJ:  cpu time    0.4202: real time    0.4202
     EDDAV:  cpu time   62.7851: real time   62.7877
       DOS:  cpu time    0.0009: real time    0.0009
    CHARGE:  cpu time    3.8743: real time    3.8743
    MIXING:  cpu time    0.0121: real time    0.0121
    --------------------------------------------
      LOOP:  cpu time   67.4764: real time   67.4883

 eigenvalue-minimisations  :  5840
 total energy-change (2. order) : 0.1301400E+03  (-0.7054563E+02)
 number of electron     640.0000004 magnetization 
 augmentation part       70.0091903 magnetization 

 Broyden mixing:
  rms(total) = 0.29815E+01    rms(broyden)= 0.29814E+01
  rms(prec ) = 0.30152E+01
  weight for this iteration     100.00

 eigenvalues of (default mixing * dielectric matrix)
  average eigenvalue GAMMA=   0.9600
  0.9600

 Free energy of the ion-electron system (eV)
  ---------------------------------------------------
  alpha Z        PSCENC =       784.57699423
  Ewald energy   TEWEN  =    252186.62171887
  -Hartree energ DENC   =   -299636.02853349
  -exchange      EXHF   =         0.00000000
  -V(xc)+E(xc)   XCENC  =      2492.59525843
  PAW double counting   =     49288.27320738   -49080.57713254
  entropy T*S    EENTRO =        -0.00000001
  eigenvalues    EBANDS =    -12768.40252806
  atomic energy  EATOM  =     56210.72393729
  Solvation  Ediel_sol  =         0.00000000
  ---------------------------------------------------
  free energy    TOTEN  =      -522.21707789 eV

  energy without entropy =     -522.21707788  energy(sigma->0) =     -522.21707789


--------------------------------------------------------------------------------------------------------




--------------------------------------- Iteration      1(   7)  ---------------------------------------


    POTLOK:  cpu time    0.3837: real time    0.3924
    SETDIJ:  cpu time    0.4202: real time    0.4202
     EDDAV:  cpu time   63.8793: real time   63.8819
       DOS:  cpu time    0.0006: real time    0.0006
    CHARGE:  cpu time    3.8715: real time    3.8716
    MIXING:  cpu time    0.0129: real time    0.0129
    --------------------------------------------
      LOOP:  cpu time   68.5682: real time   68.5796

 eigenvalue-minimisations  :  5968
 total energy-change (2. order) :-0.4192846E+01  (-0.8152499E+01)
 number of electron     640.0000004 magnetization 
 augmentation part       69.4898849 magnetization 

 Broyden mixing:
  rms(total) = 0.15142E+01    rms(broyden)= 0.15141E+01
  rms(prec ) = 0.15476E+01
  weight for this iteration     100.00

 eigenvalues of (default mixing * dielectric matrix)
  average eigenvalue GAMMA=   1.0189
  1.0189  1.0189

 Free energy of the ion-electron system (eV)
  ---------------------------------------------------
  alpha Z        PSCENC =       784.57699423
  Ewald energy   TEWEN  =    252186.62171887
  -Hartree energ DENC   =   -299732.25119311
  -exchange      EXHF   =         0.00000000
  -V(xc)+E(xc)   XCENC  =      2488.53743332
  PAW double counting   =     54276.55806404   -54083.82064652
  entropy T*S    EENTRO =        -0.00000000
  eigenvalues    EBANDS =    -12657.35623157
  atomic energy  EATOM  =     56210.72393729
  Solvation  Ediel_sol  =         0.00000000
  ---------------------------------------------------
  free energy    TOTEN  =      -526.40992346 eV

  energy without entropy =     -526.40992346  energy(sigma->0) =     -526.40992346


--------------------------------------------------------------------------------------------------------




--------------------------------------- Iteration      1(   8)  ---------------------------------------


    POTLOK:  cpu time    0.3840: real time    0.3927
    SETDIJ:  cpu time    0.4202: real time    0.4202
     EDDAV:  cpu time   61.7094: real time   61.7117
       DOS:  cpu time    0.0006: real time    0.0006
    CHARGE:  cpu time    3.8450: real time    3.8451
    MIXING:  cpu time    0.0125: real time    0.0125
    --------------------------------------------
      LOOP:  cpu time   66.3718: real time   66.3829

 eigenvalue-minimisations  :  5720
 total energy-change (2. order) : 0.2066530E+01  (-0.9096979E+00)
 number of electron     640.0000004 magnetization 
 augmentation part       69.3046890 magnetization 

 Broyden mixing:
  rms(total) = 0.90605E+00    rms(broyden)= 0.90605E+00
  rms(prec ) = 0.92075E+00
  weight for this iteration     100.00

 eigenvalues of (default mixing * dielectric matrix)
  average eigenvalue GAMMA=   1.4111
  2.4883  0.8726  0.8726

 Free energy of the ion-electron system (eV)
  ---------------------------------------------------
  alpha Z        PSCENC =       784.57699423
  Ewald energy   TEWEN  =    252186.62171887
  -Hartree energ DENC   =   -299799.05612576
  -exchange      EXHF   =         0.00000000
  -V(xc)+E(xc)   XCENC  =      2488.54257557
  PAW double counting   =     56396.42050194   -56214.83892317
  entropy T*S    EENTRO =        -0.00000000
  eigenvalues    EBANDS =    -12577.33407261
  atomic energy  EATOM  =     56210.72393729
  Solvation  Ediel_sol  =         0.00000000
  ---------------------------------------------------
  free energy    TOTEN  =      -524.34339365 eV

  energy without entropy =     -524.34339365  energy(sigma->0) =     -524.34339365


--------------------------------------------------------------------------------------------------------




--------------------------------------- Iteration      1(   9)  ---------------------------------------


    POTLOK:  cpu time    0.3848: real time    0.3953
    SETDIJ:  cpu time    0.4195: real time    0.4195
     EDDAV:  cpu time   59.3707: real time   59.3728
       DOS:  cpu time    0.0006: real time    0.0006
    CHARGE:  cpu time    3.8696: real time    3.8697
    MIXING:  cpu time    0.0116: real time    0.0116
    --------------------------------------------
      LOOP:  cpu time   64.0568: real time   64.0694

 eigenvalue-minimisations  :  5456
 total energy-change (2. order) : 0.4397851E+00  (-0.3345485E+00)
 number of electron     640.0000004 magnetization 
 augmentation part       69.9347018 magnetization 

 Broyden mixing:
  rms(total) = 0.28279E+00    rms(broyden)= 0.28278E+00
  rms(prec ) = 0.29634E+00
  weight for this iteration     100.00

 eigenvalues of (default mixing * dielectric matrix)
  average eigenvalue GAMMA=   1.2216
  2.2165  0.8609  0.8609  0.9481

 Free energy of the ion-electron system (eV)
  ---------------------------------------------------
  alpha Z        PSCENC =       784.57699423
  Ewald energy   TEWEN  =    252186.62171887
  -Hartree energ DENC   =   -299916.86612010
  -exchange      EXHF   =         0.00000000
  -V(xc)+E(xc)   XCENC  =      2488.19695620
  PAW double counting   =     60009.01209073   -59843.34776753
  entropy T*S    EENTRO =        -0.00000000
  eigenvalues    EBANDS =    -12442.82141820
  atomic energy  EATOM  =     56210.72393729
  Solvation  Ediel_sol  =         0.00000000
  ---------------------------------------------------
  free energy    TOTEN  =      -523.90360851 eV

  energy without entropy =     -523.90360851  energy(sigma->0) =     -523.90360851


--------------------------------------------------------------------------------------------------------




--------------------------------------- Iteration      1(  10)  ---------------------------------------


    POTLOK:  cpu time    0.3846: real time    0.3969
    SETDIJ:  cpu time    0.4204: real time    0.4205
     EDDAV:  cpu time   61.9922: real time   61.9941
       DOS:  cpu time    0.0006: real time    0.0006
    CHARGE:  cpu time    3.8733: real time    3.8734
    MIXING:  cpu time    0.0129: real time    0.0129
    --------------------------------------------
      LOOP:  cpu time   66.6840: real time   66.6982

 eigenvalue-minimisations  :  5752
 total energy-change (2. order) : 0.1259480E+00  (-0.5170217E-01)
 number of electron     640.0000004 magnetization 
 augmentation part       69.7972840 magnetization 

 Broyden mixing:
  rms(total) = 0.16533E+00    rms(broyden)= 0.16533E+00
  rms(prec ) = 0.17216E+00
  weight for this iteration     100.00

 eigenvalues of (default mixing * dielectric matrix)
  average eigenvalue GAMMA=   1.2453
  2.2264  1.4642  0.9213  0.9213  0.6931

 Free energy of the ion-electron system (eV)
  ---------------------------------------------------
  alpha Z        PSCENC =       784.57699423
  Ewald energy   TEWEN  =    252186.62171887
  -Hartree energ DENC   =   -299945.09615332
  -exchange      EXHF   =         0.00000000
  -V(xc)+E(xc)   XCENC  =      2488.70273662
  PAW double counting   =     59622.36120195   -59455.03704884
  entropy T*S    EENTRO =        -0.00000000
  eigenvalues    EBANDS =    -12416.63104732
  atomic energy  EATOM  =     56210.72393729
  Solvation  Ediel_sol  =         0.00000000
  ---------------------------------------------------
  free energy    TOTEN  =      -523.77766052 eV

  energy without entropy =     -523.77766052  energy(sigma->0) =     -523.77766052


--------------------------------------------------------------------------------------------------------




--------------------------------------- Iteration      1(  11)  ---------------------------------------


    POTLOK:  cpu time    0.3835: real time    0.3926
    SETDIJ:  cpu time    0.4201: real time    0.4201
     EDDAV:  cpu time   61.2581: real time   61.2592
       DOS:  cpu time    0.0007: real time    0.0007
    CHARGE:  cpu time    3.8846: real time    3.8847
    MIXING:  cpu time    0.0127: real time    0.0128
    --------------------------------------------
      LOOP:  cpu time   65.9597: real time   65.9700

 eigenvalue-minimisations  :  5664
 total energy-change (2. order) : 0.1964087E-01  (-0.2451931E-01)
 number of electron     640.0000004 magnetization 
 augmentation part       69.7362224 magnetization 

 Broyden mixing:
  rms(total) = 0.67988E-01    rms(broyden)= 0.67986E-01
  rms(prec ) = 0.74305E-01
  weight for this iteration     100.00

 eigenvalues of (default mixing * dielectric matrix)
  average eigenvalue GAMMA=   1.2725
  2.4603  1.7872  0.9003  0.9003  0.7935  0.7935

 Free energy of the ion-electron system (eV)
  ---------------------------------------------------
  alpha Z        PSCENC =       784.57699423
  Ewald energy   TEWEN  =    252186.62171887
  -Hartree energ DENC   =   -299995.39520391
  -exchange      EXHF   =         0.00000000
  -V(xc)+E(xc)   XCENC  =      2489.31190786
  PAW double counting   =     59729.57295516   -59562.34799293
  entropy T*S    EENTRO =        -0.00000000
  eigenvalues    EBANDS =    -12366.82233622
  atomic energy  EATOM  =     56210.72393729
  Solvation  Ediel_sol  =         0.00000000
  ---------------------------------------------------
  free energy    TOTEN  =      -523.75801965 eV

  energy without entropy =     -523.75801965  energy(sigma->0) =     -523.75801965


--------------------------------------------------------------------------------------------------------




--------------------------------------- Iteration      1(  12)  ---------------------------------------


    POTLOK:  cpu time    0.3838: real time    0.3941
    SETDIJ:  cpu time    0.4198: real time    0.4198
     EDDAV:  cpu time   63.8716: real time   63.8745
       DOS:  cpu time    0.0007: real time    0.0007
    CHARGE:  cpu time    3.8830: real time    3.8830
    MIXING:  cpu time    0.0134: real time    0.0134
    --------------------------------------------
      LOOP:  cpu time   68.5723: real time   68.5855

 eigenvalue-minimisations  :  5960
 total energy-change (2. order) : 0.1174468E-01  (-0.4053401E-02)
 number of electron     640.0000004 magnetization 
 augmentation part       69.7314075 magnetization 

 Broyden mixing:
  rms(total) = 0.31363E-01    rms(broyden)= 0.31363E-01
  rms(prec ) = 0.37641E-01
  weight for this iteration     100.00

 eigenvalues of (default mixing * dielectric matrix)
  average eigenvalue GAMMA=   1.2510
  2.2065  2.2065  0.9451  0.9451  0.8873  0.8873  0.6794

 Free energy of the ion-electron system (eV)
  ---------------------------------------------------
  alpha Z        PSCENC =       784.57699423
  Ewald energy   TEWEN  =    252186.62171887
  -Hartree energ DENC   =   -300025.76379083
  -exchange      EXHF   =         0.00000000
  -V(xc)+E(xc)   XCENC  =      2489.68699598
  PAW double counting   =     59790.26335741   -59623.15836468
  entropy T*S    EENTRO =        -0.00000000
  eigenvalues    EBANDS =    -12336.69712324
  atomic energy  EATOM  =     56210.72393729
  Solvation  Ediel_sol  =         0.00000000
  ---------------------------------------------------
  free energy    TOTEN  =      -523.74627497 eV

  energy without entropy =     -523.74627497  energy(sigma->0) =     -523.74627497


--------------------------------------------------------------------------------------------------------




--------------------------------------- Iteration      1(  13)  ---------------------------------------


    POTLOK:  cpu time    0.3834: real time    0.3924
    SETDIJ:  cpu time    0.4205: real time    0.4222
     EDDAV:  cpu time   61.4663: real time   61.4686
       DOS:  cpu time    0.0006: real time    0.0006
    CHARGE:  cpu time    3.8776: real time    3.8776
    MIXING:  cpu time    0.0151: real time    0.0151
    --------------------------------------------
      LOOP:  cpu time   66.1634: real time   66.1766

 eigenvalue-minimisations  :  5688
 total energy-change (2. order) : 0.2343316E-02  (-0.9689966E-03)
 number of electron     640.0000004 magnetization 
 augmentation part       69.7309070 magnetization 

 Broyden mixing:
  rms(total) = 0.19112E-01    rms(broyden)= 0.19112E-01
  rms(prec ) = 0.25435E-01
  weight for this iteration     100.00

 eigenvalues of (default mixing * dielectric matrix)
  average eigenvalue GAMMA=   1.2967
  2.6251  1.9363  1.5377  0.9276  0.9276  0.8829  0.8829  0.6532

 Free energy of the ion-electron system (eV)
  ---------------------------------------------------
  alpha Z        PSCENC =       784.57699423
  Ewald energy   TEWEN  =    252186.62171887
  -Hartree energ DENC   =   -300042.91821199
  -exchange      EXHF   =         0.00000000
  -V(xc)+E(xc)   XCENC  =      2489.84403119
  PAW double counting   =     59744.57029435   -59577.30537012
  entropy T*S    EENTRO =        -0.00000000
  eigenvalues    EBANDS =    -12319.85732548
  atomic energy  EATOM  =     56210.72393729
  Solvation  Ediel_sol  =         0.00000000
  ---------------------------------------------------
  free energy    TOTEN  =      -523.74393166 eV

  energy without entropy =     -523.74393166  energy(sigma->0) =     -523.74393166


--------------------------------------------------------------------------------------------------------




--------------------------------------- Iteration      1(  14)  ---------------------------------------


    POTLOK:  cpu time    0.3822: real time    0.3902
    SETDIJ:  cpu time    0.4203: real time    0.4203
     EDDAV:  cpu time   59.4955: real time   59.4987
       DOS:  cpu time    0.0006: real time    0.0006
    CHARGE:  cpu time    3.8736: real time    3.8736
    MIXING:  cpu time    0.0139: real time    0.0139
    --------------------------------------------
      LOOP:  cpu time   64.1860: real time   64.1973

 eigenvalue-minimisations  :  5464
 total energy-change (2. order) : 0.1818287E-02  (-0.6490859E-03)
 number of electron     640.0000004 magnetization 
 augmentation part       69.7445914 magnetization 

 Broyden mixing:
  rms(total) = 0.15987E-01    rms(broyden)= 0.15986E-01
  rms(prec ) = 0.19822E-01
  weight for this iteration     100.00

 eigenvalues of (default mixing * dielectric matrix)
  average eigenvalue GAMMA=   1.3237
  2.5556  2.5556  1.6563  0.9617  0.9617  0.9892  0.7780  0.7780  0.6774

 Free energy of the ion-electron system (eV)
  ---------------------------------------------------
  alpha Z        PSCENC =       784.57699423
  Ewald energy   TEWEN  =    252186.62171887
  -Hartree energ DENC   =   -300067.58683624
  -exchange      EXHF   =         0.00000000
  -V(xc)+E(xc)   XCENC  =      2490.00062950
  PAW double counting   =     59749.02073136   -59581.82143840
  entropy T*S    EENTRO =        -0.00000000
  eigenvalues    EBANDS =    -12295.27784998
  atomic energy  EATOM  =     56210.72393729
  Solvation  Ediel_sol  =         0.00000000
  ---------------------------------------------------
  free energy    TOTEN  =      -523.74211337 eV

  energy without entropy =     -523.74211337  energy(sigma->0) =     -523.74211337


--------------------------------------------------------------------------------------------------------




--------------------------------------- Iteration      1(  15)  ---------------------------------------


    POTLOK:  cpu time    0.3832: real time    0.3921
    SETDIJ:  cpu time    0.4201: real time    0.4202
     EDDAV:  cpu time   60.5649: real time   60.5661
       DOS:  cpu time    0.0006: real time    0.0006
    CHARGE:  cpu time    3.8722: real time    3.8723
    MIXING:  cpu time    0.0134: real time    0.0134
    --------------------------------------------
      LOOP:  cpu time   65.2544: real time   65.2646

 eigenvalue-minimisations  :  5584
 total energy-change (2. order) :-0.1158316E-02  (-0.2019083E-03)
 number of electron     640.0000004 magnetization 
 augmentation part       69.7461985 magnetization 

 Broyden mixing:
  rms(total) = 0.95632E-02    rms(broyden)= 0.95631E-02
  rms(prec ) = 0.12771E-01
  weight for this iteration     100.00

 eigenvalues of (default mixing * dielectric matrix)
  average eigenvalue GAMMA=   1.3401
  2.7517  2.7517  1.6044  1.1283  0.9708  0.9708  0.8557  0.8557  0.8744  0.6375

 Free energy of the ion-electron system (eV)
  ---------------------------------------------------
  alpha Z        PSCENC =       784.57699423
  Ewald energy   TEWEN  =    252186.62171887
  -Hartree energ DENC   =   -300084.05465512
  -exchange      EXHF   =         0.00000000
  -V(xc)+E(xc)   XCENC  =      2490.07926844
  PAW double counting   =     59714.70712941   -59547.40649686
  entropy T*S    EENTRO =        -0.00000000
  eigenvalues    EBANDS =    -12278.99116795
  atomic energy  EATOM  =     56210.72393729
  Solvation  Ediel_sol  =         0.00000000
  ---------------------------------------------------
  free energy    TOTEN  =      -523.74327169 eV

  energy without entropy =     -523.74327169  energy(sigma->0) =     -523.74327169


--------------------------------------------------------------------------------------------------------




--------------------------------------- Iteration      1(  16)  ---------------------------------------


    POTLOK:  cpu time    0.3846: real time    0.3927
    SETDIJ:  cpu time    0.4198: real time    0.4198
     EDDAV:  cpu time   62.6764: real time   62.6784
       DOS:  cpu time    0.0006: real time    0.0006
    CHARGE:  cpu time    3.8733: real time    3.8733
    MIXING:  cpu time    0.0140: real time    0.0140
    --------------------------------------------
      LOOP:  cpu time   67.3687: real time   67.3789

 eigenvalue-minimisations  :  5832
 total energy-change (2. order) :-0.1682334E-02  (-0.1105299E-03)
 number of electron     640.0000004 magnetization 
 augmentation part       69.7447475 magnetization 

 Broyden mixing:
  rms(total) = 0.53637E-02    rms(broyden)= 0.53637E-02
  rms(prec ) = 0.78520E-02
  weight for this iteration     100.00

 eigenvalues of (default mixing * dielectric matrix)
  average eigenvalue GAMMA=   1.3891
  3.2187  2.5945  2.0703  1.2972  1.0309  0.9636  0.9636  0.8716  0.8716  0.7587
  0.6395

 Free energy of the ion-electron system (eV)
  ---------------------------------------------------
  alpha Z        PSCENC =       784.57699423
  Ewald energy   TEWEN  =    252186.62171887
  -Hartree energ DENC   =   -300097.27459492
  -exchange      EXHF   =         0.00000000
  -V(xc)+E(xc)   XCENC  =      2490.14382461
  PAW double counting   =     59708.49178340   -59541.19704295
  entropy T*S    EENTRO =        -0.00000000
  eigenvalues    EBANDS =    -12265.83157455
  atomic energy  EATOM  =     56210.72393729
  Solvation  Ediel_sol  =         0.00000000
  ---------------------------------------------------
  free energy    TOTEN  =      -523.74495402 eV

  energy without entropy =     -523.74495402  energy(sigma->0) =     -523.74495402


--------------------------------------------------------------------------------------------------------




--------------------------------------- Iteration      1(  17)  ---------------------------------------


    POTLOK:  cpu time    0.3865: real time    0.3949
    SETDIJ:  cpu time    0.4207: real time    0.4208
     EDDAV:  cpu time   58.0882: real time   58.0895
       DOS:  cpu time    0.0006: real time    0.0006
    CHARGE:  cpu time    3.8719: real time    3.8720
    MIXING:  cpu time    0.0141: real time    0.0141
    --------------------------------------------
      LOOP:  cpu time   62.7821: real time   62.7919

 eigenvalue-minimisations  :  5312
 total energy-change (2. order) :-0.3023195E-02  (-0.6511375E-04)
 number of electron     640.0000004 magnetization 
 augmentation part       69.7439276 magnetization 

 Broyden mixing:
  rms(total) = 0.34181E-02    rms(broyden)= 0.34179E-02
  rms(prec ) = 0.50220E-02
  weight for this iteration     100.00

 eigenvalues of (default mixing * dielectric matrix)
  average eigenvalue GAMMA=   1.4297
  3.9334  2.6900  2.2718  1.4098  0.8923  0.8923  0.9385  0.9385  0.9435  0.8038
  0.8038  0.6392

 Free energy of the ion-electron system (eV)
  ---------------------------------------------------
  alpha Z        PSCENC =       784.57699423
  Ewald energy   TEWEN  =    252186.62171887
  -Hartree energ DENC   =   -300109.22939584
  -exchange      EXHF   =         0.00000000
  -V(xc)+E(xc)   XCENC  =      2490.18546836
  PAW double counting   =     59706.01548437   -59538.74962713
  entropy T*S    EENTRO =        -0.00000000
  eigenvalues    EBANDS =    -12253.89255736
  atomic energy  EATOM  =     56210.72393729
  Solvation  Ediel_sol  =         0.00000000
  ---------------------------------------------------
  free energy    TOTEN  =      -523.74797722 eV

  energy without entropy =     -523.74797722  energy(sigma->0) =     -523.74797722


--------------------------------------------------------------------------------------------------------




--------------------------------------- Iteration      1(  18)  ---------------------------------------


    POTLOK:  cpu time    0.3899: real time    0.3987
    SETDIJ:  cpu time    0.4201: real time    0.4201
     EDDAV:  cpu time   55.4086: real time   55.4117
       DOS:  cpu time    0.0005: real time    0.0005
    CHARGE:  cpu time    3.8959: real time    3.8960
    MIXING:  cpu time    0.0168: real time    0.0168
    --------------------------------------------
      LOOP:  cpu time   60.1318: real time   60.1438

 eigenvalue-minimisations  :  5008
 total energy-change (2. order) :-0.2209618E-02  (-0.2114519E-04)
 number of electron     640.0000004 magnetization 
 augmentation part       69.7439961 magnetization 

 Broyden mixing:
  rms(total) = 0.26135E-02    rms(broyden)= 0.26135E-02
  rms(prec ) = 0.34809E-02
  weight for this iteration     100.00

 eigenvalues of (default mixing * dielectric matrix)
  average eigenvalue GAMMA=   1.4326
  4.2466  2.5209  2.3504  1.4420  1.0757  1.0757  0.9598  0.9598  0.9668  0.8471
  0.8471  0.6411  0.6901

 Free energy of the ion-electron system (eV)
  ---------------------------------------------------
  alpha Z        PSCENC =       784.57699423
  Ewald energy   TEWEN  =    252186.62171887
  -Hartree energ DENC   =   -300117.30042155
  -exchange      EXHF   =         0.00000000
  -V(xc)+E(xc)   XCENC  =      2490.20965400
  PAW double counting   =     59702.31161022   -59535.05223135
  entropy T*S    EENTRO =        -0.00000000
  eigenvalues    EBANDS =    -12245.84144856
  atomic energy  EATOM  =     56210.72393729
  Solvation  Ediel_sol  =         0.00000000
  ---------------------------------------------------
  free energy    TOTEN  =      -523.75018683 eV

  energy without entropy =     -523.75018683  energy(sigma->0) =     -523.75018683


--------------------------------------------------------------------------------------------------------




--------------------------------------- Iteration      1(  19)  ---------------------------------------


    POTLOK:  cpu time    0.3899: real time    0.3987
    SETDIJ:  cpu time    0.4197: real time    0.4197
     EDDAV:  cpu time   55.9943: real time   55.9958
       DOS:  cpu time    0.0006: real time    0.0006
    CHARGE:  cpu time    3.8758: real time    3.8759
    MIXING:  cpu time    0.0157: real time    0.0157
    --------------------------------------------
      LOOP:  cpu time   60.6960: real time   60.7064

 eigenvalue-minimisations  :  5072
 total energy-change (2. order) :-0.1125532E-02  (-0.1424379E-04)
 number of electron     640.0000004 magnetization 
 augmentation part       69.7443869 magnetization 

 Broyden mixing:
  rms(total) = 0.16426E-02    rms(broyden)= 0.16425E-02
  rms(prec ) = 0.23475E-02
  weight for this iteration     100.00

 eigenvalues of (default mixing * dielectric matrix)
  average eigenvalue GAMMA=   1.5094
  4.9042  2.8180  2.1394  2.1394  1.1820  1.1820  0.9581  0.9581  0.9197  0.9197
  0.8428  0.8428  0.6917  0.6337

 Free energy of the ion-electron system (eV)
  ---------------------------------------------------
  alpha Z        PSCENC =       784.57699423
  Ewald energy   TEWEN  =    252186.62171887
  -Hartree energ DENC   =   -300120.95782300
  -exchange      EXHF   =         0.00000000
  -V(xc)+E(xc)   XCENC  =      2490.22016469
  PAW double counting   =     59702.83933932   -59535.58509590
  entropy T*S    EENTRO =        -0.00000000
  eigenvalues    EBANDS =    -12242.19054788
  atomic energy  EATOM  =     56210.72393729
  Solvation  Ediel_sol  =         0.00000000
  ---------------------------------------------------
  free energy    TOTEN  =      -523.75131237 eV

  energy without entropy =     -523.75131237  energy(sigma->0) =     -523.75131237


--------------------------------------------------------------------------------------------------------




--------------------------------------- Iteration      1(  20)  ---------------------------------------


    POTLOK:  cpu time    0.3955: real time    0.4059
    SETDIJ:  cpu time    0.4193: real time    0.4193
     EDDAV:  cpu time   49.7516: real time   49.7520
       DOS:  cpu time    0.0005: real time    0.0005
    CHARGE:  cpu time    3.8858: real time    3.8859
    MIXING:  cpu time    0.0162: real time    0.0162
    --------------------------------------------
      LOOP:  cpu time   54.4689: real time   54.4798

 eigenvalue-minimisations  :  4360
 total energy-change (2. order) :-0.1236786E-02  (-0.7316131E-05)
 number of electron     640.0000004 magnetization 
 augmentation part       69.7440956 magnetization 

 Broyden mixing:
  rms(total) = 0.11509E-02    rms(broyden)= 0.11508E-02
  rms(prec ) = 0.15114E-02
  weight for this iteration     100.00

 eigenvalues of (default mixing * dielectric matrix)
  average eigenvalue GAMMA=   1.5490
  5.7652  2.9168  2.2732  2.2732  1.0121  1.0121  1.1108  1.1108  0.9699  0.9699
  0.8637  0.8637  0.7998  0.6649  0.6291

 Free energy of the ion-electron system (eV)
  ---------------------------------------------------
  alpha Z        PSCENC =       784.57699423
  Ewald energy   TEWEN  =    252186.62171887
  -Hartree energ DENC   =   -300125.09618534
  -exchange      EXHF   =         0.00000000
  -V(xc)+E(xc)   XCENC  =      2490.22820423
  PAW double counting   =     59700.91161084   -59533.65451939
  entropy T*S    EENTRO =        -0.00000000
  eigenvalues    EBANDS =    -12238.06430988
  atomic energy  EATOM  =     56210.72393729
  Solvation  Ediel_sol  =         0.00000000
  ---------------------------------------------------
  free energy    TOTEN  =      -523.75254915 eV

  energy without entropy =     -523.75254915  energy(sigma->0) =     -523.75254915


--------------------------------------------------------------------------------------------------------




--------------------------------------- Iteration      1(  21)  ---------------------------------------


    POTLOK:  cpu time    0.3915: real time    0.3982
    SETDIJ:  cpu time    0.4177: real time    0.4177
     EDDAV:  cpu time   52.0496: real time   52.0520
       DOS:  cpu time    0.0006: real time    0.0005
    CHARGE:  cpu time    3.8732: real time    3.8734
    MIXING:  cpu time    0.0143: real time    0.0143
    --------------------------------------------
      LOOP:  cpu time   56.7469: real time   56.7561

 eigenvalue-minimisations  :  4608
 total energy-change (2. order) :-0.4608940E-03  (-0.2351909E-05)
 number of electron     640.0000004 magnetization 
 augmentation part       69.7440983 magnetization 

 Broyden mixing:
  rms(total) = 0.81897E-03    rms(broyden)= 0.81882E-03
  rms(prec ) = 0.10769E-02
  weight for this iteration     100.00

 eigenvalues of (default mixing * dielectric matrix)
  average eigenvalue GAMMA=   1.5422
  6.2166  2.9372  2.4478  1.8465  1.3195  1.1477  1.1477  0.9864  0.9864  0.9120
  0.9120  0.8703  0.8268  0.8268  0.6630  0.6291

 Free energy of the ion-electron system (eV)
  ---------------------------------------------------
  alpha Z        PSCENC =       784.57699423
  Ewald energy   TEWEN  =    252186.62171887
  -Hartree energ DENC   =   -300126.71009938
  -exchange      EXHF   =         0.00000000
[...]
    -6.896993340 11.945942880  0.000000000     0.000000000  0.083710429  0.000000000
     0.000000000  0.000000000 27.810221070     0.000000000  0.000000000  0.035958003

  length of vectors
    13.793986680 13.793986676 27.810221070     0.083710429  0.083710429  0.035958003


 FORCES acting on ions
    electron-ion (+dipol)            ewald-force                    non-local-force                 convergence-correction
 -----------------------------------------------------------------------------------------------
   -.724E+02 0.212E+02 -.111E+04   0.740E+02 -.213E+02 0.111E+04   0.655E+00 -.797E-01 0.425E+01   0.614E-04 0.220E-04 0.486E-04
   0.733E+01 0.146E+02 -.106E+04   -.716E+01 -.144E+02 0.105E+04   0.370E-01 0.154E+00 0.422E+01   0.246E-05 0.104E-10 0.757E-04
   0.106E+02 -.201E+02 -.109E+04   -.108E+02 0.204E+02 0.109E+04   0.396E+00 0.670E+00 0.333E+01   0.254E-05 0.694E-05 0.611E-04
   0.456E+01 -.381E+02 -.108E+04   -.392E+01 0.377E+02 0.108E+04   -.295E+00 0.208E+00 0.388E+01   -.167E-05 -.789E-05 0.594E-04
   -.347E+02 -.169E+02 -.956E+03   0.351E+02 0.185E+02 0.953E+03   0.204E+00 -.890E+00 0.331E+01   -.172E-04 0.948E-04 -.445E-04
   -.463E+02 0.354E+02 -.112E+04   0.475E+02 -.365E+02 0.111E+04   -.793E-01 0.206E+00 0.339E+01   0.625E-04 -.531E-04 -.136E-04
   -.970E+01 -.896E+01 -.111E+04   0.881E+01 0.886E+01 0.111E+04   0.155E+00 0.293E+00 0.373E+01   -.109E-04 -.262E-04 0.866E-04
   -.468E+00 -.700E+02 -.105E+04   0.357E+00 0.701E+02 0.105E+04   -.401E-01 0.776E+00 0.328E+01   0.785E-05 0.957E-05 0.871E-04
   0.341E+02 -.231E+02 -.977E+03   -.354E+02 0.249E+02 0.973E+03   0.960E+00 -.884E+00 0.393E+01   -.304E-04 0.525E-04 -.101E-04
   -.275E+02 0.691E+02 -.119E+04   0.263E+02 -.686E+02 0.119E+04   0.113E+01 -.140E+01 0.357E+01   -.640E-04 -.197E-04 -.174E-04
   -.626E+02 0.583E+02 -.116E+04   0.626E+02 -.589E+02 0.116E+04   0.551E+00 -.804E+00 0.473E+01   0.287E-04 -.698E-04 0.396E-04
   -.108E+01 -.305E+02 -.931E+03   0.525E+00 0.295E+02 0.928E+03   0.439E+00 0.624E+00 0.429E+01   0.260E-04 0.449E-04 0.577E-04
   0.882E+01 -.241E+02 -.101E+04   -.929E+01 0.240E+02 0.100E+04   0.913E+00 0.453E+00 0.431E+01   -.337E-04 -.804E-05 0.247E-04
   0.118E+02 0.195E+02 -.984E+03   -.128E+02 -.201E+02 0.982E+03   0.103E+01 0.469E+00 0.441E+01   -.874E-05 -.381E-04 0.210E-04
   0.361E+02 0.156E+01 -.115E+04   -.353E+02 -.221E+01 0.115E+04   -.558E+00 0.970E+00 0.351E+01   -.992E-05 0.687E-05 0.382E-04
   0.194E+02 0.425E+01 -.117E+04   -.191E+02 -.398E+01 0.117E+04   -.637E+00 -.135E+00 0.426E+01   -.203E-04 0.220E-04 0.504E-04
   -.204E+02 -.672E+02 0.108E+04   0.204E+02 0.689E+02 -.107E+04   0.792E-01 -.190E+00 -.376E+01   0.401E-05 0.906E-04 -.376E-05
   -.283E+02 0.159E+02 0.109E+04   0.299E+02 -.171E+02 -.109E+04   -.855E+00 0.288E+00 -.431E+01   0.872E-04 -.343E-04 -.895E-05
   -.160E+02 0.638E+02 0.102E+04   0.160E+02 -.645E+02 -.101E+04   0.672E+00 -.101E+01 -.476E+01   -.126E-04 -.223E-04 -.785E-04
   0.798E+01 0.129E+02 0.114E+04   -.815E+01 -.127E+02 -.113E+04   0.144E+00 -.103E+01 -.423E+01   -.797E-05 -.203E-04 -.585E-04
   -.224E+02 -.681E+02 0.121E+04   0.231E+02 0.693E+02 -.121E+04   0.109E+00 0.102E+00 -.435E+01   0.682E-05 0.712E-04 -.894E-05
   -.492E+02 0.125E+02 0.103E+04   0.488E+02 -.135E+02 -.102E+04   0.303E+00 0.730E+00 -.440E+01   -.320E-04 -.346E-04 0.862E-04
   -.549E+02 0.186E+02 0.986E+03   0.559E+02 -.182E+02 -.983E+03   -.377E-01 -.394E+00 -.437E+01   0.552E-04 -.609E-04 -.158E-04
   -.556E+02 -.557E+02 0.119E+04   0.565E+02 0.562E+02 -.118E+04   0.131E+00 0.139E+00 -.498E+01   -.555E-05 0.626E-05 -.697E-04
   -.983E+01 -.334E+02 0.114E+04   0.989E+01 0.340E+02 -.114E+04   0.400E+00 0.414E+00 -.298E+01   0.192E-04 0.301E-04 -.855E-05
   0.587E+02 -.129E+02 0.998E+03   -.594E+02 0.116E+02 -.994E+03   -.154E+00 0.136E+01 -.439E+01   -.277E-04 -.493E-04 0.781E-05
   -.352E+02 0.210E+02 0.965E+03   0.345E+02 -.214E+02 -.961E+03   0.109E+01 0.286E+00 -.363E+01   -.493E-04 -.365E-04 0.658E-06
   0.439E+02 0.369E+01 0.105E+04   -.428E+02 -.331E+01 -.105E+04   -.142E+01 -.376E+00 -.396E+01   0.108E-04 0.282E-04 -.497E-04
   0.188E+02 0.177E+02 0.114E+04   -.201E+02 -.177E+02 -.113E+04   0.459E+00 -.450E+00 -.456E+01   -.135E-04 -.114E-04 -.456E-04
   0.330E+02 0.410E+02 0.116E+04   -.336E+02 -.411E+02 -.115E+04   -.194E+00 -.406E+00 -.250E+01   -.196E-04 -.137E-04 -.518E-04
   0.481E+02 0.939E+01 0.110E+04   -.493E+02 -.942E+01 -.109E+04   0.579E+00 -.116E+00 -.362E+01   -.310E-05 -.122E-05 -.590E-04
   0.328E+02 0.280E+02 0.927E+03   -.343E+02 -.292E+02 -.924E+03   0.331E+00 0.715E-01 -.382E+01   -.147E-05 -.184E-04 -.441E-04
   -.260E+02 0.955E+01 0.145E+04   0.258E+02 -.932E+01 -.145E+04   0.673E+00 -.857E+00 0.220E+01   0.615E-06 -.128E-05 -.947E-05
   -.311E+02 -.360E+02 0.150E+04   0.309E+02 0.358E+02 -.150E+04   0.798E+00 0.115E+01 0.220E+01   -.129E-04 0.955E-05 -.194E-04
   0.112E+02 0.240E+01 0.149E+04   -.108E+02 -.271E+01 -.149E+04   -.889E+00 0.749E+00 0.269E+01   0.608E-05 -.126E-04 -.263E-04
   0.814E+01 -.116E+02 0.147E+04   -.844E+01 0.114E+02 -.147E+04   0.761E+00 0.554E+00 0.220E+01   -.886E-05 -.117E-04 -.367E-04
   -.712E+01 -.194E+02 0.146E+04   0.703E+01 0.198E+02 -.146E+04   0.217E+00 -.913E+00 0.290E+01   0.270E-06 -.631E-06 -.964E-05
   -.214E+02 -.128E+02 0.144E+04   0.215E+02 0.128E+02 -.144E+04   -.225E+00 0.632E+00 0.210E+01   -.675E-06 0.766E-05 -.203E-04
   -.339E+02 0.221E+02 0.146E+04   0.339E+02 -.221E+02 -.146E+04   0.207E+00 -.344E+00 0.187E+01   -.891E-05 -.101E-04 -.316E-04
   -.282E+02 -.200E+02 0.151E+04   0.280E+02 0.198E+02 -.151E+04   0.781E+00 0.457E+00 0.243E+01   -.391E-05 -.691E-05 -.119E-04
   0.315E+02 -.925E+01 0.142E+04   -.312E+02 0.951E+01 -.142E+04   -.848E+00 -.664E+00 0.156E+01   -.643E-05 0.122E-04 -.636E-05
   -.790E+01 0.171E+02 0.141E+04   0.791E+01 -.169E+02 -.141E+04   0.102E+00 -.711E+00 0.212E+01   0.409E-05 0.752E-05 -.299E-04
   0.115E+02 0.936E+00 0.143E+04   -.114E+02 -.109E+01 -.143E+04   -.283E+00 0.512E+00 0.229E+01   -.177E-05 -.493E-05 -.248E-04
   0.390E+01 0.283E+02 0.149E+04   -.360E+01 -.281E+02 -.149E+04   -.595E+00 -.666E+00 0.276E+01   0.831E-05 -.102E-04 -.151E-04
   0.157E+02 0.365E+02 0.146E+04   -.157E+02 -.363E+02 -.147E+04   0.104E+00 -.945E+00 0.275E+01   0.624E-05 0.124E-04 -.355E-05
   0.405E+02 0.211E+02 0.144E+04   -.407E+02 -.209E+02 -.144E+04   0.297E+00 -.104E+01 0.192E+01   0.611E-05 0.728E-05 -.221E-04
   0.312E+02 0.184E+02 0.143E+04   -.313E+02 -.182E+02 -.143E+04   -.455E-01 -.604E+00 0.262E+01   0.377E-05 0.173E-05 -.322E-04
   -.432E+01 -.875E+01 0.144E+04   0.417E+01 0.835E+01 -.144E+04   0.692E+00 0.127E+01 0.203E+01   -.985E-07 -.732E-05 -.164E-04
   0.273E+02 0.289E+01 -.145E+04   -.269E+02 -.258E+01 0.145E+04   -.146E+01 -.101E+01 -.225E+01   -.890E-05 0.120E-04 0.183E-04
   0.208E+02 0.149E+02 -.147E+04   -.205E+02 -.150E+02 0.148E+04   -.137E+01 0.371E+00 -.177E+01   0.893E-05 -.101E-05 0.158E-04
   0.171E+01 0.243E+02 -.148E+04   -.172E+01 -.241E+02 0.148E+04   -.675E-01 -.773E+00 -.276E+01   0.125E-04 0.217E-05 0.236E-04
   0.399E+01 -.478E+01 -.145E+04   -.410E+01 0.485E+01 0.145E+04   0.496E+00 -.243E+00 -.235E+01   0.153E-04 0.248E-05 0.844E-05
   -.116E+02 -.343E+02 -.143E+04   0.114E+02 0.343E+02 0.143E+04   0.603E+00 0.381E+00 -.282E+01   0.800E-05 -.126E-04 0.212E-04
   -.394E+02 0.277E+02 -.140E+04   0.393E+02 -.278E+02 0.140E+04   0.714E+00 -.265E+00 -.148E+01   -.223E-04 0.444E-05 0.165E-06
   -.249E+02 -.130E+02 -.148E+04   0.248E+02 0.128E+02 0.149E+04   0.365E+00 0.107E+01 -.181E+01   -.879E-05 -.731E-05 0.261E-04
   -.345E+02 -.267E+02 -.145E+04   0.343E+02 0.268E+02 0.145E+04   0.122E+01 -.684E-01 -.167E+01   -.940E-05 -.233E-05 0.340E-04
   0.153E+02 -.368E+01 -.144E+04   -.153E+02 0.378E+01 0.144E+04   -.604E-01 -.480E+00 -.272E+01   0.410E-05 -.120E-05 0.371E-04
   0.252E+02 0.411E+01 -.141E+04   -.248E+02 -.443E+01 0.141E+04   -.124E+01 0.929E+00 -.225E+01   0.592E-05 -.173E-04 0.264E-04
   0.237E+02 0.606E+00 -.150E+04   -.236E+02 -.581E+00 0.150E+04   -.319E+00 -.122E-01 -.262E+01   -.116E-04 -.269E-05 0.519E-05
   0.238E+01 -.174E+02 -.147E+04   -.266E+01 0.175E+02 0.148E+04   0.719E+00 0.569E-02 -.219E+01   -.556E-05 0.122E-04 0.401E-04
   0.253E+01 -.230E+02 -.148E+04   -.267E+01 0.229E+02 0.148E+04   0.328E+00 0.836E+00 -.219E+01   -.432E-05 -.149E-06 0.292E-04
   0.283E+02 0.125E+02 -.145E+04   -.281E+02 -.123E+02 0.145E+04   -.929E+00 -.375E+00 -.205E+01   0.828E-05 -.164E-05 0.285E-04
   0.150E+02 0.355E+02 -.149E+04   -.147E+02 -.356E+02 0.149E+04   -.681E+00 -.166E+00 -.277E+01   0.144E-04 0.274E-06 0.114E-04
   -.188E+01 -.129E+02 -.146E+04   0.200E+01 0.129E+02 0.146E+04   -.131E+00 0.229E+00 -.214E+01   -.168E-05 0.933E-05 0.157E-04
   -.376E+00 -.206E+02 -.604E+02   0.318E+00 0.205E+02 0.610E+02   0.617E+00 0.794E-01 -.226E+01   -.657E-06 0.464E-05 0.820E-05
   0.389E+02 -.619E+01 0.746E+01   -.385E+02 0.617E+01 -.737E+01   -.242E+01 0.890E+00 -.126E+01   0.806E-05 -.220E-05 0.695E-05
   0.177E+02 0.212E+02 0.198E+02   -.175E+02 -.212E+02 -.197E+02   -.586E+00 -.369E-01 0.539E-01   0.578E-05 0.223E-05 -.366E-05
   0.878E+01 -.149E+01 -.253E+02   -.871E+01 0.137E+01 0.255E+02   -.243E+00 0.511E+00 -.497E+00   -.167E-05 -.269E-06 0.123E-05
   -.269E+01 -.410E+02 0.256E+01   0.303E+01 0.406E+02 -.221E+01   -.127E+01 0.144E+01 -.122E+01   0.295E-05 0.422E-05 0.497E-05
   0.884E+01 0.294E+02 0.171E+02   -.840E+01 -.288E+02 -.171E+02   -.831E+00 -.212E+01 -.452E-01   0.423E-05 0.791E-06 0.750E-05
   0.617E+01 0.571E+01 -.272E+02   -.614E+01 -.590E+01 0.274E+02   -.953E-02 0.717E+00 -.106E+01   0.760E-05 -.325E-05 0.969E-05
   0.246E+02 -.243E+02 -.123E+02   -.241E+02 0.244E+02 0.125E+02   -.144E+01 0.793E+00 0.460E-01   0.186E-05 -.828E-05 0.377E-05
   0.270E+02 -.223E+02 0.666E+02   -.269E+02 0.221E+02 -.669E+02   -.247E+00 0.611E+00 0.731E+00   0.157E-05 0.543E-05 0.383E-05
   0.613E+01 -.146E+02 0.171E+02   -.590E+01 0.144E+02 -.173E+02   -.283E+00 0.646E-01 0.303E+00   -.983E-06 -.131E-05 0.312E-05
   -.437E+01 0.488E+01 -.657E+02   0.460E+01 -.521E+01 0.660E+02   -.272E+00 0.130E+01 -.131E+01   -.849E-05 -.634E-05 0.517E-05
   0.322E-01 -.160E+02 0.133E+02   0.604E-01 0.159E+02 -.132E+02   -.271E+00 0.320E+00 -.359E+00   0.377E-05 -.603E-05 0.323E-05
   0.295E+01 -.217E+01 0.305E+02   -.238E+01 0.246E+01 -.308E+02   -.201E+01 -.679E+00 0.759E+00   -.152E-05 0.226E-05 0.218E-05
   -.434E+01 0.204E+02 0.222E+02   0.423E+01 -.201E+02 -.219E+02   0.836E+00 -.753E+00 -.414E+00   -.451E-05 -.364E-05 0.327E-05
   0.253E+02 0.899E+01 -.150E+02   -.251E+02 -.897E+01 0.152E+02   -.573E+00 0.147E+00 -.416E+00   -.451E-05 -.382E-05 0.466E-06
   -.299E+02 0.328E+02 -.235E+02   0.296E+02 -.325E+02 0.232E+02   0.102E+01 -.134E+01 0.107E+01   -.205E-05 -.247E-06 -.875E-06
 -----------------------------------------------------------------------------------------------
   0.155E+01 -.995E+00 0.733E+01   -.398E-12 0.568E-13 -.413E-11   -.155E+01 0.995E+00 -.733E+01   0.134E-04 -.664E-04 0.241E-03
 
 
 POSITION                                       TOTAL-FORCE (eV/Angst)
 -----------------------------------------------------------------------------------
     -0.22009      1.99309     15.15590         2.321565     -0.246074      1.360335
     -1.71463      4.92574     15.07134         0.206880      0.341728      0.844599
     -3.48463      7.79731     15.13719         0.265472      0.998991      1.015150
     -5.14934     10.98242     15.10469         0.346656     -0.170893      1.618485
      3.40949      1.97444     15.03447         0.595745      0.682556      0.335095
      1.63739      5.01472     15.23604         1.078425     -0.844733     -0.573045
      0.05567      7.94371     15.14795        -0.737661      0.191646      1.091196
     -1.77984     10.76582     15.12276        -0.150831      0.894590     -0.140138
      6.82618      1.82639     15.01169        -0.317345      0.865773      0.564901
      5.23231      5.15609     15.31812        -0.140686     -0.884503     -0.285458
      3.34984      8.17648     15.21668         0.524774     -1.399797      0.435575
      1.66603     11.00113     14.92446        -0.116653     -0.438996      1.682530
     10.25130      1.95677     15.05981         0.447653      0.355377      0.260321
      8.68630      4.93121     14.97786        -0.053694     -0.133799      1.614470
      6.96396      7.88779     15.27368         0.205226      0.322065     -0.032453
      5.19321     10.94773     15.25019        -0.332797      0.133175     -0.128146
      1.67012      0.92774     12.64896         0.028774      1.499072     -0.005112
     -0.02030      4.11076     12.66306         0.777265     -0.922825      0.047224
     -1.76568      7.11202     12.80803         0.611741     -1.727268     -1.910159
     -3.51853      9.96674     12.58669        -0.026095     -0.852406      0.292412
      5.03774      0.83489     12.48604         0.812111      1.232018      0.419901
      3.49066      4.04727     12.72149        -0.019142     -0.202392      0.152500
      1.66366      6.95515     12.84765         0.947098     -0.084578     -1.133326
     -0.13053      9.85313     12.59078         0.962335      0.694475     -0.260592
      8.59185      0.87804     12.58939         0.461693      0.986679     -1.053425
      6.92574      3.98461     12.76458        -0.817974      0.064325     -0.776828
      5.08730      7.06284     12.79360         0.391609     -0.188075      0.102176
      3.51571      9.99128     12.75609        -0.318840      0.008723     -1.308080
     12.14057      1.06065     12.61956        -0.898411     -0.412838      0.001027
     10.41157      4.08002     12.49512        -0.777231     -0.519324      0.305974
      8.64289      7.07780     12.63993        -0.557385     -0.149745      0.059964
      6.94943     10.05197     12.85485        -1.162760     -1.171232     -0.821691
     -0.05615      2.09614     10.97612         0.511235     -0.622326      0.076830
     -1.78431      4.77185     10.79776         0.632951      0.927053      0.335179
     -3.26623      7.82805     10.88010        -0.563034      0.436803      0.569343
     -5.35326     10.91427     10.98557         0.467820      0.390036      0.097203
      3.39914      2.10969     10.84693         0.123314     -0.558500      0.628788
      1.75217      4.94012     11.04972        -0.109496      0.575350     -0.036489
      0.00365      7.92517     11.04751         0.219937     -0.368893     -0.155785
     -1.96777     10.82876     10.78011         0.611113      0.298267      0.319196
      7.00869      2.13375     11.07453        -0.556367     -0.403167     -0.568875
      5.20086      5.19821     11.09469         0.116317     -0.498464      0.042888
      3.41678      7.88256     11.09373        -0.220224      0.355819      0.168701
      1.80251     11.07125     10.78308        -0.301929     -0.478496      0.646902
     10.32312      2.17054     10.84531         0.049456     -0.766832      0.571950
      8.56329      5.21754     11.02785         0.094110     -0.823850     -0.210691
      6.94202      8.14792     11.03627        -0.119869     -0.452678      0.463912
      5.11502     10.77017     11.05413         0.537609      0.864078     -0.086609
      2.04959      1.10607     16.88019        -1.062648     -0.702170     -0.321310
      0.27081      3.79950     16.87832        -1.048146      0.212166      0.180117
     -1.68201      7.10269     16.90256        -0.071555     -0.581896     -0.539769
     -3.56740      9.93581     16.80007         0.389335     -0.172343     -0.206579
      5.14803      0.85926     16.79775         0.459616      0.340023     -0.653922
      3.46462      4.04168     16.67962         0.578847     -0.451316      0.723415
      1.66002      6.85338     16.87456         0.231621      0.875293      0.287040
     -0.18610      9.94531     16.73974         1.012103      0.013775      0.346258
      8.63457      0.97898     16.79141        -0.049550     -0.377825     -0.625024
      7.23918      3.75643     16.73661        -0.802336      0.603902     -0.022180
      5.34943      6.97970     17.09456        -0.262385      0.012305     -0.576161
      3.18887      9.99646     16.88364         0.432650      0.068584     -0.164937
     11.97835      0.82650     16.91690         0.194358      0.726283     -0.136159
     10.65025      3.96145     16.79346        -0.743223     -0.225413     -0.018815
      8.79728      6.93306     16.96769        -0.393282     -0.202865     -0.668652
      6.93111      9.91612     16.84157        -0.013058      0.215294      0.065442
     13.78058      0.00969     14.09700         0.558295      0.023482     -1.618689
     -1.53842      2.94293     13.93374        -1.975621      0.878892     -1.171990
     -3.35310      5.96583     13.85592        -0.387415     -0.110742      0.137667
     -5.12664      8.91916     13.95585        -0.173845      0.390162     -0.350262
     -3.38923     11.75429     13.86251        -0.934708      1.014999     -0.874673
      1.79253      3.15440     13.85559        -0.388533     -1.493642     -0.058373
     -0.00533      5.94735     14.02681         0.016484      0.533681     -0.797003
     -1.61236      8.87399     13.89117        -0.933091      0.893918      0.254577
     -0.00697     11.80574     13.70037        -0.116371      0.387391      0.441052
      5.20529      2.88185     13.83484        -0.056155     -0.162925      0.091007
      3.52201      5.97728     14.11828        -0.042687      0.963727     -0.960395
      1.72165      8.94332     13.95305        -0.178266      0.217628     -0.257736
     10.48906      0.09532     13.80748        -1.433137     -0.389788      0.447984
      8.60508      3.01570     13.85824         0.724870     -0.499339     -0.134830
      6.99319      6.03738     14.01839        -0.368003      0.166185     -0.153047
      5.07142      9.12032     13.95176         0.785377     -0.963345      0.698124
 -----------------------------------------------------------------------------------
    total drift:                                0.002090     -0.000506      0.002810


--------------------------------------------------------------------------------------------------------



  FREE ENERGIE OF THE ION-ELECTRON SYSTEM (eV)
  ---------------------------------------------------
  free  energy   TOTEN  =      -523.75439887 eV

  energy  without entropy=     -523.75439887  energy(sigma->0) =     -523.75439887
 


--------------------------------------------------------------------------------------------------------


    POTLOK:  cpu time    0.8086: real time    0.8105


--------------------------------------------------------------------------------------------------------


     LOOP+:  cpu time 1910.0263: real time 1910.3980
    4ORBIT:  cpu time    0.0000: real time    0.0000

 total amount of memory used by VASP MPI-rank0   253952. kBytes
=======================================================================

   base      :      30000. kBytes
   nonlr-proj:      18768. kBytes
   fftplans  :      72602. kBytes
   grid      :      41267. kBytes
   one-center:        108. kBytes
   wavefun   :      91207. kBytes
 
  
  
 General timing and accounting informations for this job:
 ========================================================
  
                  Total CPU time used (sec):     1940.707
                            User time (sec):     1935.140
                          System time (sec):        5.567
                         Elapsed time (sec):     1941.194
  
                   Maximum memory used (kb):      463280.
                   Average memory used (kb):           0.
  
                          Minor page faults:       332903
                          Major page faults:            0
                 Voluntary context switches:         2255
