<?xml version="1.0" encoding="ISO-8859-1"?>
<modeling>
 <generator>
  <i name="program" type="string">vasp </i>
  <i name="version" type="string">5.4.4.18Apr17-6-g9f103f2a35  </i>
  <i name="subversion" type="string">(build Mar 16 2023 09:39:13) complex            parallel </i>
  <i name="platform" type="string">LinuxIFC </i>
  <i name="date" type="string">2024 04 30 </i>
  <i name="time" type="string">09:46:57 </i>
 </generator>
 <incar>
  <i type="int" name="ISTART">     0</i>
  <i type="string" name="PREC">a</i>
  <i type="logical" name="ADDGRID"> T  </i>
  <i type="int" name="IBRION">    -1</i>
  <i name="EDIFF">      0.00000100</i>
  <i name="EDIFFG">     -0.01000000</i>
  <i type="int" name="NSW">     1</i>
  <i type="int" name="ISIF">     2</i>
  <i type="int" name="ISYM">     0</i>
  <i name="ENCUT">    600.00000000</i>
  <i name="POTIM">      1.00000000</i>
  <i type="string" name="LREAL">  A</i>
  <i type="int" name="ISMEAR">     0</i>
  <i name="SIGMA">      0.05000000</i>
  <i name="KSPACING">      0.30000000</i>
  <i type="logical" name="KGAMMA"> T  </i>
  <i type="logical" name="LWAVE"> F  </i>
  <i type="logical" name="LCHARG"> F  </i>
  <i type="logical" name="LSCALAPACK"> F  </i>
  <v type="int" name="KPOINT_BSE">    -1     0     0     0</v>
 </incar>
 <structure name="primitive_cell" >
  <crystal>
   <varray name="basis" >
    <v>      10.56489661       0.00000000       0.00000000 </v>
    <v>       0.00000000      10.56489661       0.00000000 </v>
    <v>       0.00000000       0.00000000      10.56489661 </v>
   </varray>
   <i name="volume">   1179.22249153 </i>
   <varray name="rec_basis" >
    <v>       0.09465308       0.00000000       0.00000000 </v>
    <v>       0.00000000       0.09465308       0.00000000 </v>
    <v>       0.00000000       0.00000000       0.09465308 </v>
   </varray>
  </crystal>
  <varray name="positions" >
   <v>      -0.33561420       0.17461895       0.43753721 </v>
   <v>      -0.33332679       0.13385062       0.24475334 </v>
   <v>      -0.42424907       0.36176699       0.44505284 </v>
   <v>      -0.13126808       0.12974603       0.41112148 </v>
   <v>      -0.37075647       0.23496482      -0.36158579 </v>
   <v>      -0.21661639       0.35099186      -0.47604297 </v>
   <v>       0.49463160       0.01857317       0.44163855 </v>
   <v>      -0.37022984       0.01556599      -0.38218131 </v>
   <v>      -0.29146748      -0.06140699       0.38646236 </v>
   <v>      -0.15103616       0.13934021      -0.37626618 </v>
   <v>      -0.19963326       0.06781583       0.22458462 </v>
   <v>      -0.39996286      -0.08456739      -0.49742744 </v>
   <v>      -0.33590740       0.40489448      -0.40776611 </v>
   <v>      -0.07417253       0.23539673      -0.46741390 </v>
   <v>       0.38711040       0.23474602       0.39514939 </v>
   <v>      -0.28676316       0.12835671      -0.27457283 </v>
   <v>       0.42439190       0.27800296      -0.41805440 </v>
   <v>      -0.12372106      -0.03616888       0.49778960 </v>
   <v>      -0.13255809       0.24323591       0.21908805 </v>
   <v>      -0.43737534      -0.02440817       0.21759145 </v>
   <v>      -0.23838076       0.45325472       0.31963734 </v>
   <v>      -0.35466308       0.35717503       0.17257613 </v>
   <v>       0.35272789       0.10037769       0.37828870 </v>
   <v>       0.46663677       0.43357350       0.33320216 </v>
   <v>      -0.01929890       0.31405758       0.38976350 </v>
   <v>       0.46434028       0.14506168       0.14691509 </v>
   <v>      -0.46142396       0.28143346       0.12180151 </v>
   <v>      -0.00511990       0.18272742       0.28458024 </v>
   <v>       0.43312169       0.05768646      -0.30587729 </v>
   <v>      -0.46912585       0.42721300      -0.32049897 </v>
   <v>       0.43247308       0.35996594       0.20521068 </v>
   <v>      -0.23117398      -0.08794133       0.18654057 </v>
   <v>      -0.28821581      -0.18777641      -0.44569207 </v>
   <v>      -0.29703830      -0.44787187      -0.49488143 </v>
   <v>      -0.03884850       0.04594479       0.21604814 </v>
   <v>       0.29373498       0.07808318      -0.47176049 </v>
   <v>       0.38208666       0.45417924       0.43475357 </v>
   <v>       0.04677789       0.14739182      -0.43865294 </v>
   <v>      -0.22705717       0.22683058      -0.17018713 </v>
   <v>      -0.23013588       0.45984648      -0.28538791 </v>
   <v>      -0.40507014       0.08555253      -0.16340999 </v>
   <v>       0.31755301      -0.01113419       0.29268657 </v>
   <v>      -0.20963492      -0.02618161      -0.21593011 </v>
   <v>      -0.42790975      -0.43012242       0.32022538 </v>
   <v>      -0.47855563      -0.22282071       0.36802952 </v>
   <v>      -0.36003581       0.20238458       0.01007447 </v>
   <v>      -0.16911107       0.07289246       0.05362449 </v>
   <v>      -0.40416212       0.30986751      -0.15823286 </v>
   <v>      -0.49504831      -0.19333532      -0.38288935 </v>
   <v>       0.00956530       0.32858815      -0.32253587 </v>
   <v>      -0.05159316      -0.49640155      -0.45119410 </v>
   <v>      -0.06950764      -0.17878188       0.36061166 </v>
   <v>       0.38470899       0.22675700      -0.21442140 </v>
   <v>      -0.10252134      -0.44129702       0.35850057 </v>
   <v>      -0.27052127      -0.27051013       0.35619041 </v>
   <v>      -0.17104848       0.29013866       0.02494980 </v>
   <v>       0.09177227      -0.01743695       0.43031374 </v>
   <v>      -0.01586770       0.12484660      -0.22275561 </v>
   <v>       0.49625135      -0.40408090      -0.44201747 </v>
   <v>      -0.36653771      -0.16169910      -0.23039804 </v>
   <v>       0.28103744       0.22602658       0.16216405 </v>
   <v>       0.34144681      -0.17483153       0.40880873 </v>
   <v>      -0.14611002      -0.49900467       0.14476310 </v>
   <v>       0.20026717       0.28929214       0.42880126 </v>
   <v>       0.01564284       0.44012496       0.23927767 </v>
   <v>       0.03746053      -0.06250053      -0.35854721 </v>
   <v>       0.22641965       0.28319190      -0.34842893 </v>
   <v>       0.17757867       0.15008093       0.32515741 </v>
   <v>      -0.35253749      -0.46831042       0.08161994 </v>
   <v>      -0.38296028      -0.06617343      -0.00388018 </v>
   <v>       0.08350139       0.26974597       0.16760149 </v>
   <v>       0.47257607       0.07505416      -0.02326643 </v>
   <v>      -0.28500376       0.05722366      -0.06645435 </v>
   <v>       0.26333289      -0.09094173      -0.38241233 </v>
   <v>       0.11419366      -0.01060317       0.27130086 </v>
   <v>       0.32220691       0.47281344      -0.30467015 </v>
   <v>      -0.40936532      -0.24577288       0.13090269 </v>
   <v>       0.23098745       0.43837913       0.29660646 </v>
   <v>       0.14804150       0.01262472      -0.42594512 </v>
   <v>       0.43697672       0.33259680      -0.01264274 </v>
   <v>      -0.24764246      -0.32705047      -0.39273340 </v>
   <v>       0.39189865      -0.18961728       0.15601126 </v>
   <v>       0.41384695      -0.10709821      -0.18253807 </v>
   <v>      -0.38024786      -0.35893943      -0.29480310 </v>
   <v>      -0.29301740      -0.19340901       0.04440346 </v>
   <v>       0.37230345       0.44255867       0.06870533 </v>
   <v>      -0.05446442      -0.14694469       0.10359962 </v>
   <v>      -0.10092179      -0.30842188      -0.47651271 </v>
   <v>       0.35554395      -0.19896679      -0.30724260 </v>
   <v>       0.48677934      -0.31875659       0.25543339 </v>
   <v>      -0.05778411       0.45697350      -0.17152544 </v>
   <v>       0.25092776      -0.45329030       0.41761060 </v>
   <v>       0.04128405       0.08951848       0.03458471 </v>
   <v>       0.41954622      -0.47953961      -0.19833108 </v>
   <v>      -0.29782900      -0.42498609      -0.17215853 </v>
   <v>       0.17690832       0.45897991      -0.47467953 </v>
   <v>       0.42755206      -0.41616185       0.11573389 </v>
   <v>       0.23304420       0.24177534      -0.19166423 </v>
   <v>       0.34162579      -0.36109065       0.32134845 </v>
   <v>       0.19374282       0.02143144       0.13391365 </v>
   <v>      -0.05682623      -0.20745351      -0.21945865 </v>
   <v>      -0.44558671      -0.47601368      -0.10629422 </v>
   <v>      -0.19905554      -0.30069067       0.12130013 </v>
   <v>      -0.22872520       0.47586315      -0.06151365 </v>
   <v>      -0.01545480      -0.31507379       0.32964641 </v>
   <v>      -0.00700981       0.26010746      -0.07331049 </v>
   <v>      -0.16848654      -0.35775848      -0.22559805 </v>
   <v>       0.18153825       0.08769526      -0.21471322 </v>
   <v>       0.26196101      -0.12417226       0.10273873 </v>
   <v>       0.16094669       0.43051962      -0.31354178 </v>
   <v>       0.30934278      -0.01273795      -0.02683322 </v>
   <v>      -0.18050751      -0.16393177      -0.05727301 </v>
   <v>       0.14114412      -0.16940477       0.23521166 </v>
   <v>       0.09670833      -0.24552754      -0.40687356 </v>
   <v>      -0.07078170      -0.40759556       0.04712923 </v>
   <v>       0.28386748      -0.30479959      -0.40806823 </v>
   <v>       0.21443589       0.41888237       0.06599161 </v>
   <v>       0.10673587       0.33710088       0.01063420 </v>
   <v>       0.02620186       0.48363876       0.01430401 </v>
   <v>       0.01712086      -0.35341783       0.18475158 </v>
   <v>       0.12061680      -0.36758482       0.39092167 </v>
   <v>       0.10372851      -0.42833003      -0.29422891 </v>
   <v>       0.21594168       0.23883530      -0.02950558 </v>
   <v>       0.40911130      -0.33585819      -0.21720901 </v>
   <v>       0.18795395       0.38987103      -0.15960848 </v>
   <v>       0.22683140      -0.07959982      -0.13643686 </v>
   <v>      -0.33239781      -0.28703781      -0.08121147 </v>
   <v>       0.07652908      -0.05825825      -0.08683722 </v>
   <v>       0.46042060      -0.27445242      -0.02638028 </v>
   <v>       0.35525313      -0.46319638      -0.06149764 </v>
   <v>       0.21539959      -0.38187879       0.15541511 </v>
   <v>       0.18788982      -0.20670727      -0.22130898 </v>
   <v>       0.23353179      -0.24557873       0.00310722 </v>
   <v>      -0.00030944      -0.30984776      -0.03516630 </v>
   <v>       0.16745375      -0.40022995      -0.09850302 </v>
  </varray>
 </structure>
 <varray name="primitive_index" >
  <v type="int" >        1 </v>
  <v type="int" >       65 </v>
  <v type="int" >       70 </v>
  <v type="int" >       74 </v>
  <v type="int" >      120 </v>
  <v type="int" >       69 </v>
  <v type="int" >       72 </v>
  <v type="int" >       78 </v>
  <v type="int" >       62 </v>
  <v type="int" >       86 </v>
  <v type="int" >       35 </v>
  <v type="int" >       53 </v>
  <v type="int" >       28 </v>
  <v type="int" >       34 </v>
  <v type="int" >      121 </v>
  <v type="int" >       33 </v>
  <v type="int" >       20 </v>
  <v type="int" >        7 </v>
  <v type="int" >       75 </v>
  <v type="int" >       23 </v>
  <v type="int" >        2 </v>
  <v type="int" >      109 </v>
  <v type="int" >       51 </v>
  <v type="int" >       32 </v>
  <v type="int" >      129 </v>
  <v type="int" >      119 </v>
  <v type="int" >       41 </v>
  <v type="int" >       37 </v>
  <v type="int" >       21 </v>
  <v type="int" >       84 </v>
  <v type="int" >      126 </v>
  <v type="int" >      118 </v>
  <v type="int" >      110 </v>
  <v type="int" >       63 </v>
  <v type="int" >      123 </v>
  <v type="int" >      125 </v>
  <v type="int" >       96 </v>
  <v type="int" >       80 </v>
  <v type="int" >       55 </v>
  <v type="int" >       57 </v>
  <v type="int" >      127 </v>
  <v type="int" >      134 </v>
  <v type="int" >       61 </v>
  <v type="int" >       87 </v>
  <v type="int" >       88 </v>
  <v type="int" >      116 </v>
  <v type="int" >      115 </v>
  <v type="int" >       25 </v>
  <v type="int" >      135 </v>
  <v type="int" >       58 </v>
  <v type="int" >       19 </v>
  <v type="int" >       94 </v>
  <v type="int" >       85 </v>
  <v type="int" >       98 </v>
  <v type="int" >        6 </v>
  <v type="int" >       14 </v>
  <v type="int" >      105 </v>
  <v type="int" >       26 </v>
  <v type="int" >        4 </v>
  <v type="int" >       27 </v>
  <v type="int" >       24 </v>
  <v type="int" >        8 </v>
  <v type="int" >      113 </v>
  <v type="int" >       10 </v>
  <v type="int" >       12 </v>
  <v type="int" >       89 </v>
  <v type="int" >       76 </v>
  <v type="int" >      132 </v>
  <v type="int" >       18 </v>
  <v type="int" >      102 </v>
  <v type="int" >      101 </v>
  <v type="int" >        3 </v>
  <v type="int" >       52 </v>
  <v type="int" >      128 </v>
  <v type="int" >       49 </v>
  <v type="int" >      122 </v>
  <v type="int" >       64 </v>
  <v type="int" >      111 </v>
  <v type="int" >       31 </v>
  <v type="int" >       73 </v>
  <v type="int" >       43 </v>
  <v type="int" >      112 </v>
  <v type="int" >       97 </v>
  <v type="int" >       59 </v>
  <v type="int" >       39 </v>
  <v type="int" >       30 </v>
  <v type="int" >       22 </v>
  <v type="int" >       71 </v>
  <v type="int" >       29 </v>
  <v type="int" >       42 </v>
  <v type="int" >       15 </v>
  <v type="int" >       44 </v>
  <v type="int" >        9 </v>
  <v type="int" >       50 </v>
  <v type="int" >       48 </v>
  <v type="int" >      133 </v>
  <v type="int" >      124 </v>
  <v type="int" >       36 </v>
  <v type="int" >       79 </v>
  <v type="int" >       83 </v>
  <v type="int" >       17 </v>
  <v type="int" >       90 </v>
  <v type="int" >       93 </v>
  <v type="int" >       92 </v>
  <v type="int" >       54 </v>
  <v type="int" >       68 </v>
  <v type="int" >       60 </v>
  <v type="int" >      106 </v>
  <v type="int" >       46 </v>
  <v type="int" >       47 </v>
  <v type="int" >      100 </v>
  <v type="int" >       82 </v>
  <v type="int" >       95 </v>
  <v type="int" >       11 </v>
  <v type="int" >       40 </v>
  <v type="int" >      131 </v>
  <v type="int" >       99 </v>
  <v type="int" >       45 </v>
  <v type="int" >      104 </v>
  <v type="int" >      103 </v>
  <v type="int" >       67 </v>
  <v type="int" >       77 </v>
  <v type="int" >       66 </v>
  <v type="int" >       91 </v>
  <v type="int" >      130 </v>
  <v type="int" >       38 </v>
  <v type="int" >      107 </v>
  <v type="int" >      114 </v>
  <v type="int" >       13 </v>
  <v type="int" >      108 </v>
  <v type="int" >        5 </v>
  <v type="int" >      117 </v>
  <v type="int" >       56 </v>
  <v type="int" >       81 </v>
  <v type="int" >       16 </v>
 </varray>
 <kpoints>
  <generation param="Gamma">
   <v type="int" name="divisions">       2        2        2 </v>
   <v name="usershift">      0.00000000       0.00000000       0.00000000 </v>
   <v name="genvec1">      0.50000000       0.00000000       0.00000000 </v>
   <v name="genvec2">      0.00000000       0.50000000       0.00000000 </v>
   <v name="genvec3">      0.00000000       0.00000000       0.50000000 </v>
   <v name="shift">      0.00000000       0.00000000       0.00000000 </v>
  </generation>
  <varray name="kpointlist" >
   <v>       0.00000000       0.00000000       0.00000000 </v>
   <v>       0.50000000       0.00000000       0.00000000 </v>
   <v>       0.00000000       0.50000000       0.00000000 </v>
   <v>       0.50000000       0.50000000       0.00000000 </v>
   <v>       0.00000000       0.00000000       0.50000000 </v>
   <v>       0.50000000       0.00000000       0.50000000 </v>
   <v>       0.00000000       0.50000000       0.50000000 </v>
   <v>       0.50000000       0.50000000       0.50000000 </v>
  </varray>
  <varray name="weights" >
   <v>       0.12500000 </v>
   <v>       0.12500000 </v>
   <v>       0.12500000 </v>
   <v>       0.12500000 </v>
   <v>       0.12500000 </v>
   <v>       0.12500000 </v>
   <v>       0.12500000 </v>
   <v>       0.12500000 </v>
  </varray>
 </kpoints>
 <parameters>
  <separator name="general" >
   <i type="string" name="SYSTEM">unknown system</i>
   <i type="logical" name="LCOMPAT"> F  </i>
  </separator>
  <separator name="electronic" >
   <i type="string" name="PREC">a</i>
   <i name="ENMAX">    600.00000000</i>
   <i name="ENAUG">    605.39200000</i>
   <i name="EDIFF">      0.00000100</i>
   <i type="int" name="IALGO">    38</i>
   <i type="int" name="IWAVPR">    10</i>
   <i type="int" name="NBANDS">   520</i>
   <i name="NELECT">    864.00000000</i>
   <i type="int" name="TURBO">     0</i>
   <i type="int" name="IRESTART">     0</i>
   <i type="int" name="NREBOOT">     0</i>
   <i type="int" name="NMIN">     0</i>
   <i name="EREF">      0.00000000</i>
   <separator name="electronic smearing" >
    <i type="int" name="ISMEAR">     0</i>
    <i name="SIGMA">      0.05000000</i>
    <i name="KSPACING">      0.30000000</i>
    <i type="logical" name="KGAMMA"> T  </i>
   </separator>
   <separator name="electronic projectors" >
    <i type="logical" name="LREAL"> T  </i>
    <v name="ROPT">     -0.00025000     -0.00025000     -0.00025000</v>
    <i type="int" name="LMAXPAW">  -100</i>
    <i type="int" name="LMAXMIX">     2</i>
    <i type="logical" name="NLSPLINE"> F  </i>
   </separator>
   <separator name="electronic startup" >
    <i type="int" name="ISTART">     0</i>
    <i type="int" name="ICHARG">     2</i>
    <i type="int" name="INIWAV">     1</i>
   </separator>
   <separator name="electronic spin" >
    <i type="int" name="ISPIN">     1</i>
    <i type="logical" name="LNONCOLLINEAR"> F  </i>
    <v name="MAGMOM">      1.00000000      1.00000000      1.00000000      1.00000000      1.00000000      1.00000000      1.00000000      1.00000000      1.00000000      1.00000000      1.00000000      1.00000000      1.00000000      1.00000000      1.00000000      1.00000000      1.00000000      1.00000000      1.00000000      1.00000000
      1.00000000      1.00000000      1.00000000      1.00000000      1.00000000      1.00000000      1.00000000      1.00000000      1.00000000      1.00000000      1.00000000      1.00000000      1.00000000      1.00000000      1.00000000      1.00000000      1.00000000      1.00000000      1.00000000      1.00000000
      1.00000000      1.00000000      1.00000000      1.00000000      1.00000000      1.00000000      1.00000000      1.00000000      1.00000000      1.00000000      1.00000000      1.00000000      1.00000000      1.00000000      1.00000000      1.00000000      1.00000000      1.00000000      1.00000000      1.00000000
      1.00000000      1.00000000      1.00000000      1.00000000      1.00000000      1.00000000      1.00000000      1.00000000      1.00000000      1.00000000      1.00000000      1.00000000      1.00000000      1.00000000      1.00000000      1.00000000      1.00000000      1.00000000      1.00000000      1.00000000
      1.00000000      1.00000000      1.00000000      1.00000000      1.00000000      1.00000000      1.00000000      1.00000000      1.00000000      1.00000000      1.00000000      1.00000000      1.00000000      1.00000000      1.00000000      1.00000000      1.00000000      1.00000000      1.00000000      1.00000000
      1.00000000      1.00000000      1.00000000      1.00000000      1.00000000      1.00000000      1.00000000      1.00000000      1.00000000      1.00000000      1.00000000      1.00000000      1.00000000      1.00000000      1.00000000      1.00000000      1.00000000      1.00000000      1.00000000      1.00000000
      1.00000000      1.00000000      1.00000000      1.00000000      1.00000000      1.00000000      1.00000000      1.00000000      1.00000000      1.00000000      1.00000000      1.00000000      1.00000000      1.00000000      1.00000000</v>
    <i name="NUPDOWN">     -1.00000000</i>
    <i type="logical" name="LSORBIT"> F  </i>
    <v name="SAXIS">      0.00000000      0.00000000      1.00000000</v>
    <i type="logical" name="LSPIRAL"> F  </i>
    <v name="QSPIRAL">      0.00000000      0.00000000      0.00000000</v>
    <i type="logical" name="LZEROZ"> F  </i>
   </separator>
   <separator name="electronic exchange-correlation" >
    <i type="logical" name="LASPH"> F  </i>
    <i type="logical" name="LMETAGGA"> F  </i>
   </separator>
   <separator name="electronic convergence" >
    <i type="int" name="NELM">    60</i>
    <i type="int" name="NELMDL">    -5</i>
    <i type="int" name="NELMIN">     2</i>
    <i name="ENINI">    600.00000000</i>
    <separator name="electronic convergence detail" >
     <i type="logical" name="LDIAG"> T  </i>
     <i type="logical" name="LSUBROT"> F  </i>
     <i name="WEIMIN">      0.00000000</i>
     <i name="EBREAK">      0.00000000</i>
     <i name="DEPER">      0.30000000</i>
     <i type="int" name="NRMM">     4</i>
     <i name="TIME">      0.40000000</i>
    </separator>
   </separator>
   <separator name="electronic mixer" >
    <i name="AMIX">      0.40000000</i>
    <i name="BMIX">      1.00000000</i>
    <i name="AMIN">      0.10000000</i>
    <i name="AMIX_MAG">      1.60000000</i>
    <i name="BMIX_MAG">      1.00000000</i>
    <separator name="electronic mixer details" >
     <i type="int" name="IMIX">     4</i>
     <i type="logical" name="MIXFIRST"> F  </i>
     <i type="int" name="MAXMIX">   -45</i>
     <i name="WC">    100.00000000</i>
     <i type="int" name="INIMIX">     1</i>
     <i type="int" name="MIXPRE">     1</i>
     <i type="int" name="MREMOVE">     5</i>
    </separator>
   </separator>
   <separator name="electronic dipolcorrection" >
    <i type="logical" name="LDIPOL"> F  </i>
    <i type="logical" name="LMONO"> F  </i>
    <i type="int" name="IDIPOL">     0</i>
    <i name="EPSILON">      1.00000000</i>
    <v name="DIPOL">   -100.00000000   -100.00000000   -100.00000000</v>
    <i name="EFIELD">      0.00000000</i>
   </separator>
  </separator>
  <separator name="grids" >
   <i type="int" name="NGX">    84</i>
   <i type="int" name="NGY">    84</i>
   <i type="int" name="NGZ">    84</i>
   <i type="int" name="NGXF">   168</i>
   <i type="int" name="NGYF">   168</i>
   <i type="int" name="NGZF">   168</i>
   <i type="logical" name="ADDGRID"> T  </i>
  </separator>
  <separator name="ionic" >
   <i type="int" name="NSW">     1</i>
   <i type="int" name="IBRION">    -1</i>
   <i type="int" name="MDALGO">     0</i>
   <i type="int" name="ISIF">     2</i>
   <i name="PSTRESS">      0.00000000</i>
   <i name="EDIFFG">     -0.01000000</i>
   <i type="int" name="NFREE">     0</i>
   <i name="POTIM">      1.00000000</i>
   <i name="SMASS">     -3.00000000</i>
   <i name="SCALEE">      1.00000000</i>
  </separator>
  <separator name="ionic md" >
   <i name="TEBEG">      0.00010000</i>
   <i name="TEEND">      0.00010000</i>
   <i type="int" name="NBLOCK">     1</i>
   <i type="int" name="KBLOCK">     1</i>
   <i type="int" name="NPACO">   256</i>
   <i name="APACO">     16.00000000</i>
  </separator>
  <separator name="symmetry" >
   <i type="int" name="ISYM">     0</i>
   <i name="SYMPREC">      0.00001000</i>
  </separator>
  <separator name="dos" >
   <i type="int" name="LORBIT">     0</i>
   <v name="RWIGS">     -1.00000000     -1.00000000     -1.00000000</v>
   <i type="int" name="NEDOS">   301</i>
   <i name="EMIN">     10.00000000</i>
   <i name="EMAX">    -10.00000000</i>
   <i name="EFERMI">      0.00000000</i>
  </separator>
  <separator name="writing" >
   <i type="int" name="NWRITE">     2</i>
   <i type="logical" name="LWAVE"> F  </i>
   <i type="logical" name="LDOWNSAMPLE"> F  </i>
   <i type="logical" name="LCHARG"> F  </i>
   <i type="logical" name="LPARD"> F  </i>
   <i type="logical" name="LVTOT"> F  </i>
   <i type="logical" name="LVHAR"> F  </i>
   <i type="logical" name="LELF"> F  </i>
   <i type="logical" name="LOPTICS"> F  </i>
   <v name="STM">      0.00000000      0.00000000      0.00000000      0.00000000      0.00000000      0.00000000      0.00000000</v>
  </separator>
  <separator name="performance" >
   <i type="int" name="NPAR">     4</i>
   <i type="int" name="NSIM">     4</i>
   <i type="int" name="NBLK">    -1</i>
   <i type="logical" name="LPLANE"> T  </i>
   <i type="logical" name="LSCALAPACK"> F  </i>
   <i type="logical" name="LSCAAWARE"> F  </i>
   <i type="logical" name="LSCALU"> F  </i>
   <i type="logical" name="LASYNC"> F  </i>
   <i type="logical" name="LORBITALREAL"> F  </i>
  </separator>
  <separator name="miscellaneous" >
   <i type="int" name="IDIOT">     3</i>
   <i type="int" name="ISPECIAL">     0</i>
   <i type="logical" name="LMUSIC"> F  </i>
   <v name="POMASS">     40.07800000     28.08500000     16.00000000</v>
   <v name="DARWINR">      0.00000000      0.00000000      0.00000000</v>
   <v name="DARWINV">      1.00000000      1.00000000      1.00000000</v>
   <i type="logical" name="LCORR"> T  </i>
  </separator>
  <i type="logical" name="GGA_COMPAT"> T  </i>
  <i type="logical" name="LBERRY"> F  </i>
  <i type="int" name="ICORELEVEL">     0</i>
  <i type="logical" name="LDAU"> F  </i>
  <i type="int" name="I_CONSTRAINED_M">     0</i>
  <separator name="electronic exchange-correlation" >
   <i type="string" name="GGA">--</i>
   <i type="int" name="VOSKOWN">     0</i>
   <i type="logical" name="LHFCALC"> F  </i>
   <i type="string" name="PRECFOCK"></i>
   <i type="logical" name="LSYMGRAD"> F  </i>
   <i type="logical" name="LHFONE"> F  </i>
   <i type="logical" name="LRHFCALC"> F  </i>
   <i type="logical" name="LTHOMAS"> F  </i>
   <i type="logical" name="LMODELHF"> F  </i>
   <i name="ENCUT4O">     -1.00000000</i>
   <i type="int" name="EXXOEP">     0</i>
   <i type="int" name="FOURORBIT">     0</i>
   <i name="AEXX">      0.00000000</i>
   <i name="HFALPHA">      0.00000000</i>
   <i name="MCALPHA">      0.00000000</i>
   <i name="ALDAX">      1.00000000</i>
   <i name="AGGAX">      1.00000000</i>
   <i name="ALDAC">      1.00000000</i>
   <i name="AGGAC">      1.00000000</i>
   <i type="int" name="NKREDX">     1</i>
   <i type="int" name="NKREDY">     1</i>
   <i type="int" name="NKREDZ">     1</i>
   <i type="logical" name="SHIFTRED"> F  </i>
   <i type="logical" name="ODDONLY"> F  </i>
   <i type="logical" name="EVENONLY"> F  </i>
   <i type="int" name="LMAXFOCK">     0</i>
   <i type="int" name="NMAXFOCKAE">     0</i>
   <i type="logical" name="LFOCKAEDFT"> F  </i>
   <i name="HFSCREEN">      0.00000000</i>
   <i name="HFSCREENC">      0.00000000</i>
   <i type="int" name="NBANDSGWLOW">     0</i>
  </separator>
  <separator name="vdW DFT" >
   <i type="logical" name="LUSE_VDW"> F  </i>
   <i name="Zab_VDW">     -0.84910000</i>
   <i name="PARAM1">      0.12340000</i>
   <i name="PARAM2">      1.00000000</i>
   <i name="PARAM3">      0.00000000</i>
  </separator>
  <separator name="model GW" >
   <i type="int" name="MODEL_GW">     0</i>
   <i name="MODEL_EPS0">      5.24098885</i>
   <i name="MODEL_ALPHA">      1.00000000</i>
  </separator>
  <separator name="linear response parameters" >
   <i type="logical" name="LEPSILON"> F  </i>
   <i type="logical" name="LRPA"> F  </i>
   <i type="logical" name="LNABLA"> F  </i>
   <i type="logical" name="LVEL"> F  </i>
   <i type="int" name="KINTER">     0</i>
   <i name="CSHIFT">      0.10000000</i>
   <i name="OMEGAMAX">     -1.00000000</i>
   <i name="DEG_THRESHOLD">      0.00200000</i>
   <i name="RTIME">     -0.10000000</i>
   <i name="WPLASMAI">      0.00000000</i>
   <v name="DFIELD">      0.00000000      0.00000000      0.00000000</v>
   <v name="WPLASMA">      0.00000000      0.00000000      0.00000000      0.00000000      0.00000000      0.00000000      0.00000000      0.00000000      0.00000000</v>
  </separator>
  <separator name="orbital magnetization" >
   <i type="logical" name="NUCIND"> F  </i>
   <v name="MAGPOS">      0.00000000      0.00000000      0.00000000</v>
   <i type="logical" name="LNICSALL"> T  </i>
   <i type="logical" name="ORBITALMAG"> F  </i>
   <i type="logical" name="LMAGBLOCH"> F  </i>
   <i type="logical" name="LCHIMAG"> F  </i>
   <i type="logical" name="LGAUGE"> T  </i>
   <i type="int" name="MAGATOM">     0</i>
   <v name="MAGDIPOL">      0.00000000      0.00000000      0.00000000</v>
   <v name="AVECCONST">      0.00000000      0.00000000      0.00000000</v>
  </separator>
  <separator name="response functions" >
   <i type="logical" name="LADDER"> F  </i>
   <i type="logical" name="LRPAFORCE"> F  </i>
   <i type="logical" name="LFXC"> F  </i>
   <i type="logical" name="LHARTREE"> T  </i>
   <i type="int" name="IBSE">     0</i>
   <v type="int" name="KPOINT">    -1     0     0     0</v>
   <i type="logical" name="LTCTE"> F  </i>
   <i type="logical" name="LTETE"> F  </i>
   <i type="logical" name="LTRIPLET"> F  </i>
   <i type="logical" name="LFXCEPS"> F  </i>
   <i type="logical" name="LFXHEG"> F  </i>
   <i type="int" name="NATURALO">     2</i>
   <i type="logical" name="L2ORDER"> F  </i>
   <i type="logical" name="LMP2LT"> F  </i>
   <i type="logical" name="LUSEW"> F  </i>
   <i name="ENCUTGW">     -2.00000000</i>
   <i name="ENCUTGWSOFT">     -2.00000000</i>
   <i name="ENCUTLF">     -1.00000000</i>
   <i type="int" name="LMAXMP2">    -1</i>
   <i name="SCISSOR">      0.00000000</i>
   <i type="int" name="NOMEGA">     0</i>
   <i type="int" name="NOMEGAR">     0</i>
   <i type="int" name="NBANDSGW">    -1</i>
   <i type="int" name="NBANDSO">    -1</i>
   <i type="int" name="NBANDSV">    -1</i>
   <i type="int" name="NELM">     1</i>
   <i type="int" name="NELMHF">     1</i>
   <i type="int" name="DIM">     3</i>
   <i type="int" name="ANTIRES">     0</i>
   <i name="OMEGAMAX">    -30.00000000</i>
   <i name="OMEGAMIN">    -30.00000000</i>
   <i name="OMEGATL">   -200.00000000</i>
   <i type="int" name="OMEGAGRID">   140</i>
   <i name="CSHIFT">     -0.10000000</i>
   <i type="logical" name="SELFENERGY"> F  </i>
   <i type="logical" name="LSPECTRAL"> F  </i>
   <i type="logical" name="LSPECTRALGW"> F  </i>
   <i type="logical" name="LSINGLES"> F  </i>
   <i type="logical" name="LFERMIGW"> F  </i>
   <i type="logical" name="ODDONLYGW"> F  </i>
   <i type="logical" name="EVENONLYGW"> F  </i>
   <i type="int" name="NKREDLFX">     1</i>
   <i type="int" name="NKREDLFY">     1</i>
   <i type="int" name="NKREDLFZ">     1</i>
   <i type="int" name="MAXMEM">  2800</i>
   <i type="int" name="TELESCOPE">     0</i>
   <i type="int" name="TAUPAR">     1</i>
   <i type="int" name="OMEGAPAR">    -1</i>
   <i name="LAMBDA">      1.00000000</i>
  </separator>
  <separator name="External order field" >
   <i name="OFIELD_KAPPA">      0.00000000</i>
   <v name="OFIELD_K">      0.00000000      0.00000000      0.00000000</v>
   <i name="OFIELD_Q6_NEAR">      0.00000000</i>
   <i name="OFIELD_Q6_FAR">      0.00000000</i>
   <i name="OFIELD_A">      0.00000000</i>
  </separator>
 </parameters>
 <atominfo>
  <atoms>     135 </atoms>
  <types>       3 </types>
  <array name="atoms" >
   <dimension dim="1">ion</dimension>
   <field type="string">element</field>
   <field type="int">atomtype</field>
   <set>
    <rc><c>Ca</c><c>   1</c></rc>
    <rc><c>Ca</c><c>   1</c></rc>
    <rc><c>Ca</c><c>   1</c></rc>
    <rc><c>Ca</c><c>   1</c></rc>
    <rc><c>Ca</c><c>   1</c></rc>
    <rc><c>Ca</c><c>   1</c></rc>
    <rc><c>Ca</c><c>   1</c></rc>
    <rc><c>Ca</c><c>   1</c></rc>
    <rc><c>Ca</c><c>   1</c></rc>
    <rc><c>Ca</c><c>   1</c></rc>
    <rc><c>Ca</c><c>   1</c></rc>
    <rc><c>Ca</c><c>   1</c></rc>
    <rc><c>Ca</c><c>   1</c></rc>
    <rc><c>Ca</c><c>   1</c></rc>
    <rc><c>Ca</c><c>   1</c></rc>
    <rc><c>Ca</c><c>   1</c></rc>
    <rc><c>Ca</c><c>   1</c></rc>
    <rc><c>Ca</c><c>   1</c></rc>
    <rc><c>Ca</c><c>   1</c></rc>
    <rc><c>Ca</c><c>   1</c></rc>
    <rc><c>Ca</c><c>   1</c></rc>
    <rc><c>Ca</c><c>   1</c></rc>
    <rc><c>Ca</c><c>   1</c></rc>
    <rc><c>Ca</c><c>   1</c></rc>
    <rc><c>Ca</c><c>   1</c></rc>
    <rc><c>Ca</c><c>   1</c></rc>
    <rc><c>Ca</c><c>   1</c></rc>
    <rc><c>Si</c><c>   2</c></rc>
    <rc><c>Si</c><c>   2</c></rc>
    <rc><c>Si</c><c>   2</c></rc>
    <rc><c>Si</c><c>   2</c></rc>
    <rc><c>Si</c><c>   2</c></rc>
    <rc><c>Si</c><c>   2</c></rc>
    <rc><c>Si</c><c>   2</c></rc>
    <rc><c>Si</c><c>   2</c></rc>
    <rc><c>Si</c><c>   2</c></rc>
    <rc><c>Si</c><c>   2</c></rc>
    <rc><c>Si</c><c>   2</c></rc>
    <rc><c>Si</c><c>   2</c></rc>
    <rc><c>Si</c><c>   2</c></rc>
    <rc><c>Si</c><c>   2</c></rc>
    <rc><c>Si</c><c>   2</c></rc>
    <rc><c>Si</c><c>   2</c></rc>
    <rc><c>Si</c><c>   2</c></rc>
    <rc><c>Si</c><c>   2</c></rc>
    <rc><c>Si</c><c>   2</c></rc>
    <rc><c>Si</c><c>   2</c></rc>
    <rc><c>Si</c><c>   2</c></rc>
    <rc><c>Si</c><c>   2</c></rc>
    <rc><c>Si</c><c>   2</c></rc>
    <rc><c>Si</c><c>   2</c></rc>
    <rc><c>Si</c><c>   2</c></rc>
    <rc><c>Si</c><c>   2</c></rc>
    <rc><c>Si</c><c>   2</c></rc>
    <rc><c>O </c><c>   3</c></rc>
    <rc><c>O </c><c>   3</c></rc>
    <rc><c>O </c><c>   3</c></rc>
    <rc><c>O </c><c>   3</c></rc>
    <rc><c>O </c><c>   3</c></rc>
    <rc><c>O </c><c>   3</c></rc>
    <rc><c>O </c><c>   3</c></rc>
    <rc><c>O </c><c>   3</c></rc>
    <rc><c>O </c><c>   3</c></rc>
    <rc><c>O </c><c>   3</c></rc>
    <rc><c>O </c><c>   3</c></rc>
    <rc><c>O </c><c>   3</c></rc>
    <rc><c>O </c><c>   3</c></rc>
    <rc><c>O </c><c>   3</c></rc>
    <rc><c>O </c><c>   3</c></rc>
    <rc><c>O </c><c>   3</c></rc>
    <rc><c>O </c><c>   3</c></rc>
    <rc><c>O </c><c>   3</c></rc>
    <rc><c>O </c><c>   3</c></rc>
    <rc><c>O </c><c>   3</c></rc>
    <rc><c>O </c><c>   3</c></rc>
    <rc><c>O </c><c>   3</c></rc>
    <rc><c>O </c><c>   3</c></rc>
    <rc><c>O </c><c>   3</c></rc>
    <rc><c>O </c><c>   3</c></rc>
    <rc><c>O </c><c>   3</c></rc>
    <rc><c>O </c><c>   3</c></rc>
    <rc><c>O </c><c>   3</c></rc>
    <rc><c>O </c><c>   3</c></rc>
    <rc><c>O </c><c>   3</c></rc>
    <rc><c>O </c><c>   3</c></rc>
    <rc><c>O </c><c>   3</c></rc>
    <rc><c>O </c><c>   3</c></rc>
    <rc><c>O </c><c>   3</c></rc>
    <rc><c>O </c><c>   3</c></rc>
    <rc><c>O </c><c>   3</c></rc>
    <rc><c>O </c><c>   3</c></rc>
    <rc><c>O </c><c>   3</c></rc>
    <rc><c>O </c><c>   3</c></rc>
    <rc><c>O </c><c>   3</c></rc>
    <rc><c>O </c><c>   3</c></rc>
    <rc><c>O </c><c>   3</c></rc>
    <rc><c>O </c><c>   3</c></rc>
    <rc><c>O </c><c>   3</c></rc>
    <rc><c>O </c><c>   3</c></rc>
    <rc><c>O </c><c>   3</c></rc>
    <rc><c>O </c><c>   3</c></rc>
    <rc><c>O </c><c>   3</c></rc>
    <rc><c>O </c><c>   3</c></rc>
    <rc><c>O </c><c>   3</c></rc>
    <rc><c>O </c><c>   3</c></rc>
    <rc><c>O </c><c>   3</c></rc>
    <rc><c>O </c><c>   3</c></rc>
    <rc><c>O </c><c>   3</c></rc>
    <rc><c>O </c><c>   3</c></rc>
    <rc><c>O </c><c>   3</c></rc>
    <rc><c>O </c><c>   3</c></rc>
    <rc><c>O </c><c>   3</c></rc>
    <rc><c>O </c><c>   3</c></rc>
    <rc><c>O </c><c>   3</c></rc>
    <rc><c>O </c><c>   3</c></rc>
    <rc><c>O </c><c>   3</c></rc>
    <rc><c>O </c><c>   3</c></rc>
    <rc><c>O </c><c>   3</c></rc>
    <rc><c>O </c><c>   3</c></rc>
    <rc><c>O </c><c>   3</c></rc>
    <rc><c>O </c><c>   3</c></rc>
    <rc><c>O </c><c>   3</c></rc>
    <rc><c>O </c><c>   3</c></rc>
    <rc><c>O </c><c>   3</c></rc>
    <rc><c>O </c><c>   3</c></rc>
    <rc><c>O </c><c>   3</c></rc>
    <rc><c>O </c><c>   3</c></rc>
    <rc><c>O </c><c>   3</c></rc>
    <rc><c>O </c><c>   3</c></rc>
    <rc><c>O </c><c>   3</c></rc>
    <rc><c>O </c><c>   3</c></rc>
    <rc><c>O </c><c>   3</c></rc>
    <rc><c>O </c><c>   3</c></rc>
    <rc><c>O </c><c>   3</c></rc>
    <rc><c>O </c><c>   3</c></rc>
   </set>
  </array>
  <array name="atomtypes" >
   <dimension dim="1">type</dimension>
   <field type="int">atomspertype</field>
   <field type="string">element</field>
   <field>mass</field>
   <field>valence</field>
   <field type="string">pseudopotential</field>
   <set>
    <rc><c>  27</c><c>Ca</c><c>     40.07800000</c><c>     10.00000000</c><c>  PAW_PBE Ca_sv 06Sep2000               </c></rc>
    <rc><c>  27</c><c>Si</c><c>     28.08500000</c><c>      4.00000000</c><c>  PAW_PBE Si 05Jan2001                  </c></rc>
    <rc><c>  81</c><c>O </c><c>     16.00000000</c><c>      6.00000000</c><c>  PAW_PBE O 08Apr2002                   </c></rc>
   </set>
  </array>
 </atominfo>
 <structure name="initialpos" >
  <crystal>
   <varray name="basis" >
    <v>      10.56489661       0.00000000       0.00000000 </v>
    <v>       0.00000000      10.56489661       0.00000000 </v>
    <v>       0.00000000       0.00000000      10.56489661 </v>
   </varray>
   <i name="volume">   1179.22249153 </i>
   <varray name="rec_basis" >
    <v>       0.09465308       0.00000000       0.00000000 </v>
    <v>       0.00000000       0.09465308       0.00000000 </v>
    <v>       0.00000000       0.00000000       0.09465308 </v>
   </varray>
  </crystal>
  <varray name="positions" >
   <v>       0.66438580       0.17461895       0.43753721 </v>
   <v>       0.76161924       0.45325472       0.31963734 </v>
   <v>       0.47257607       0.07505416       0.97673357 </v>
   <v>       0.49625135       0.59591910       0.55798253 </v>
   <v>       0.21539959       0.61812121       0.15541511 </v>
   <v>       0.72947873       0.72948987       0.35619041 </v>
   <v>       0.87627894       0.96383112       0.49778960 </v>
   <v>       0.34144681       0.82516847       0.40880873 </v>
   <v>       0.04128405       0.08951848       0.03458471 </v>
   <v>       0.20026717       0.28929214       0.42880126 </v>
   <v>       0.09670833       0.75447246       0.59312644 </v>
   <v>       0.01564284       0.44012496       0.23927767 </v>
   <v>       0.46042060       0.72554758       0.97361972 </v>
   <v>       0.82895152       0.29013866       0.02494980 </v>
   <v>       0.94221589       0.45697350       0.82847456 </v>
   <v>       0.16745375       0.59977005       0.90149698 </v>
   <v>       0.94317377       0.79254649       0.78054135 </v>
   <v>       0.64746251       0.53168958       0.08161994 </v>
   <v>       0.94840684       0.50359845       0.54880590 </v>
   <v>       0.42439190       0.27800296       0.58194560 </v>
   <v>       0.43312169       0.05768646       0.69412271 </v>
   <v>       0.94553558       0.85305531       0.10359962 </v>
   <v>       0.56262466       0.97559183       0.21759145 </v>
   <v>       0.28103744       0.22602658       0.16216405 </v>
   <v>       0.59583788       0.30986751       0.84176714 </v>
   <v>       0.98413230       0.12484660       0.77724439 </v>
   <v>       0.63346229       0.83830090       0.76960196 </v>
   <v>       0.66409260       0.40489448       0.59223389 </v>
   <v>       0.35554395       0.80103321       0.69275740 </v>
   <v>       0.37230345       0.44255867       0.06870533 </v>
   <v>       0.14804150       0.01262472       0.57405488 </v>
   <v>       0.46663677       0.43357350       0.33320216 </v>
   <v>       0.71323684       0.12835671       0.72542717 </v>
   <v>       0.92582747       0.23539673       0.53258610 </v>
   <v>       0.80036674       0.06781583       0.22458462 </v>
   <v>       0.23304420       0.24177534       0.80833577 </v>
   <v>       0.99488010       0.18272742       0.28458024 </v>
   <v>       0.22683140       0.92040018       0.86356314 </v>
   <v>       0.70698260       0.80659099       0.04440346 </v>
   <v>       0.92921830       0.59240444       0.04712923 </v>
   <v>       0.53857604       0.28143346       0.12180151 </v>
   <v>       0.48677934       0.68124341       0.25543339 </v>
   <v>       0.75235754       0.67294953       0.60726660 </v>
   <v>       0.25092776       0.54670970       0.41761060 </v>
   <v>       0.10673587       0.33710088       0.01063420 </v>
   <v>       0.26196101       0.87582774       0.10273873 </v>
   <v>       0.16094669       0.43051962       0.68645822 </v>
   <v>       0.70217100       0.57501391       0.82784147 </v>
   <v>       0.11419366       0.98939683       0.27130086 </v>
   <v>       0.41954622       0.52046039       0.80166892 </v>
   <v>       0.35272789       0.10037769       0.37828870 </v>
   <v>       0.71499624       0.05722366       0.93354565 </v>
   <v>       0.60003714       0.91543261       0.50257256 </v>
   <v>       0.98454520       0.68492621       0.32964641 </v>
   <v>       0.77294283       0.22683058       0.82981287 </v>
   <v>       0.23353179       0.75442127       0.00310722 </v>
   <v>       0.76986412       0.45984648       0.71461209 </v>
   <v>       0.00956530       0.32858815       0.67746413 </v>
   <v>       0.61975214       0.64106057       0.70519690 </v>
   <v>       0.83151346       0.64224152       0.77440195 </v>
   <v>       0.79036508       0.97381839       0.78406989 </v>
   <v>       0.70853252       0.93859301       0.38646236 </v>
   <v>       0.70296170       0.55212813       0.50511857 </v>
   <v>       0.59063468       0.75422712       0.13090269 </v>
   <v>       0.66667321       0.13385062       0.24475334 </v>
   <v>       0.21594168       0.23883530       0.97049442 </v>
   <v>       0.12061680       0.63241518       0.39092167 </v>
   <v>       0.99299019       0.26010746       0.92668951 </v>
   <v>       0.78338361       0.35099186       0.52395703 </v>
   <v>       0.57575093       0.36176699       0.44505284 </v>
   <v>       0.89907821       0.69157812       0.52348729 </v>
   <v>       0.49463160       0.01857317       0.44163855 </v>
   <v>       0.43697672       0.33259680       0.98735726 </v>
   <v>       0.86873192       0.12974603       0.41112148 </v>
   <v>       0.86744191       0.24323591       0.21908805 </v>
   <v>       0.22641965       0.28319190       0.65157107 </v>
   <v>       0.10372851       0.57166997       0.70577109 </v>
   <v>       0.62977016       0.01556599       0.61781869 </v>
   <v>       0.34162579       0.63890935       0.32134845 </v>
   <v>       0.04677789       0.14739182       0.56134706 </v>
   <v>       0.99969056       0.69015224       0.96483370 </v>
   <v>       0.81949249       0.83606823       0.94272699 </v>
   <v>       0.19374282       0.02143144       0.13391365 </v>
   <v>       0.53087415       0.42721300       0.67950103 </v>
   <v>       0.38470899       0.22675700       0.78557860 </v>
   <v>       0.84896384       0.13934021       0.62373382 </v>
   <v>       0.57209025       0.56987758       0.32022538 </v>
   <v>       0.52144437       0.77717929       0.36802952 </v>
   <v>       0.03746053       0.93749947       0.64145279 </v>
   <v>       0.55441329       0.52398632       0.89370578 </v>
   <v>       0.40911130       0.66414181       0.78279099 </v>
   <v>       0.77127480       0.47586315       0.93848635 </v>
   <v>       0.80094446       0.69930933       0.12130013 </v>
   <v>       0.93049236       0.82121812       0.36061166 </v>
   <v>       0.14114412       0.83059523       0.23521166 </v>
   <v>       0.38208666       0.45417924       0.43475357 </v>
   <v>       0.41384695       0.89290179       0.81746193 </v>
   <v>       0.89747866       0.55870298       0.35850057 </v>
   <v>       0.21443589       0.41888237       0.06599161 </v>
   <v>       0.30934278       0.98726205       0.97316678 </v>
   <v>       0.08350139       0.26974597       0.16760149 </v>
   <v>       0.61703972       0.93382657       0.99611982 </v>
   <v>       0.01712086       0.64658217       0.18475158 </v>
   <v>       0.02620186       0.48363876       0.01430401 </v>
   <v>       0.09177227       0.98256305       0.43031374 </v>
   <v>       0.18153825       0.08769526       0.78528678 </v>
   <v>       0.66760219       0.71296219       0.91878853 </v>
   <v>       0.35525313       0.53680362       0.93850236 </v>
   <v>       0.64533692       0.35717503       0.17257613 </v>
   <v>       0.71178419       0.81222359       0.55430793 </v>
   <v>       0.23098745       0.43837913       0.29660646 </v>
   <v>       0.39189865       0.81038272       0.15601126 </v>
   <v>       0.85388998       0.50099533       0.14476310 </v>
   <v>       0.07652908       0.94174175       0.91316278 </v>
   <v>       0.83088893       0.07289246       0.05362449 </v>
   <v>       0.63996419       0.20238458       0.01007447 </v>
   <v>       0.18788982       0.79329273       0.77869102 </v>
   <v>       0.76882602       0.91205867       0.18654057 </v>
   <v>       0.46434028       0.14506168       0.14691509 </v>
   <v>       0.62924353       0.23496482       0.63841421 </v>
   <v>       0.38711040       0.23474602       0.39514939 </v>
   <v>       0.32220691       0.47281344       0.69532985 </v>
   <v>       0.96115150       0.04594479       0.21604814 </v>
   <v>       0.42755206       0.58383815       0.11573389 </v>
   <v>       0.29373498       0.07808318       0.52823951 </v>
   <v>       0.43247308       0.35996594       0.20521068 </v>
   <v>       0.59492986       0.08555253       0.83659001 </v>
   <v>       0.26333289       0.90905827       0.61758767 </v>
   <v>       0.98070110       0.31405758       0.38976350 </v>
   <v>       0.18795395       0.38987103       0.84039152 </v>
   <v>       0.28386748       0.69520041       0.59193177 </v>
   <v>       0.17757867       0.15008093       0.32515741 </v>
   <v>       0.17690832       0.45897991       0.52532047 </v>
   <v>       0.31755301       0.98886581       0.29268657 </v>
   <v>       0.50495169       0.80666468       0.61711065 </v>
  </varray>
  <varray name="velocities" >
   <v>       0.00000000       0.00000000       0.00000000 </v>
   <v>       0.00000000       0.00000000       0.00000000 </v>
   <v>       0.00000000       0.00000000       0.00000000 </v>
   <v>       0.00000000       0.00000000       0.00000000 </v>
   <v>       0.00000000       0.00000000       0.00000000 </v>
   <v>       0.00000000       0.00000000       0.00000000 </v>
   <v>       0.00000000       0.00000000       0.00000000 </v>
   <v>       0.00000000       0.00000000       0.00000000 </v>
   <v>       0.00000000       0.00000000       0.00000000 </v>
   <v>       0.00000000       0.00000000       0.00000000 </v>
   <v>       0.00000000       0.00000000       0.00000000 </v>
   <v>       0.00000000       0.00000000       0.00000000 </v>
   <v>       0.00000000       0.00000000       0.00000000 </v>
   <v>       0.00000000       0.00000000       0.00000000 </v>
   <v>       0.00000000       0.00000000       0.00000000 </v>
   <v>       0.00000000       0.00000000       0.00000000 </v>
   <v>       0.00000000       0.00000000       0.00000000 </v>
   <v>       0.00000000       0.00000000       0.00000000 </v>
   <v>       0.00000000       0.00000000       0.00000000 </v>
   <v>       0.00000000       0.00000000       0.00000000 </v>
   <v>       0.00000000       0.00000000       0.00000000 </v>
   <v>       0.00000000       0.00000000       0.00000000 </v>
   <v>       0.00000000       0.00000000       0.00000000 </v>
   <v>       0.00000000       0.00000000       0.00000000 </v>
   <v>       0.00000000       0.00000000       0.00000000 </v>
   <v>       0.00000000       0.00000000       0.00000000 </v>
   <v>       0.00000000       0.00000000       0.00000000 </v>
   <v>       0.00000000       0.00000000       0.00000000 </v>
   <v>       0.00000000       0.00000000       0.00000000 </v>
   <v>       0.00000000       0.00000000       0.00000000 </v>
   <v>       0.00000000       0.00000000       0.00000000 </v>
   <v>       0.00000000       0.00000000       0.00000000 </v>
   <v>       0.00000000       0.00000000       0.00000000 </v>
   <v>       0.00000000       0.00000000       0.00000000 </v>
   <v>       0.00000000       0.00000000       0.00000000 </v>
   <v>       0.00000000       0.00000000       0.00000000 </v>
   <v>       0.00000000       0.00000000       0.00000000 </v>
   <v>       0.00000000       0.00000000       0.00000000 </v>
   <v>       0.00000000       0.00000000       0.00000000 </v>
   <v>       0.00000000       0.00000000       0.00000000 </v>
   <v>       0.00000000       0.00000000       0.00000000 </v>
   <v>       0.00000000       0.00000000       0.00000000 </v>
   <v>       0.00000000       0.00000000       0.00000000 </v>
   <v>       0.00000000       0.00000000       0.00000000 </v>
   <v>       0.00000000       0.00000000       0.00000000 </v>
   <v>       0.00000000       0.00000000       0.00000000 </v>
   <v>       0.00000000       0.00000000       0.00000000 </v>
   <v>       0.00000000       0.00000000       0.00000000 </v>
   <v>       0.00000000       0.00000000       0.00000000 </v>
   <v>       0.00000000       0.00000000       0.00000000 </v>
   <v>       0.00000000       0.00000000       0.00000000 </v>
   <v>       0.00000000       0.00000000       0.00000000 </v>
   <v>       0.00000000       0.00000000       0.00000000 </v>
   <v>       0.00000000       0.00000000       0.00000000 </v>
   <v>       0.00000000       0.00000000       0.00000000 </v>
   <v>       0.00000000       0.00000000       0.00000000 </v>
   <v>       0.00000000       0.00000000       0.00000000 </v>
   <v>       0.00000000       0.00000000       0.00000000 </v>
   <v>       0.00000000       0.00000000       0.00000000 </v>
   <v>       0.00000000       0.00000000       0.00000000 </v>
   <v>       0.00000000       0.00000000       0.00000000 </v>
   <v>       0.00000000       0.00000000       0.00000000 </v>
   <v>       0.00000000       0.00000000       0.00000000 </v>
   <v>       0.00000000       0.00000000       0.00000000 </v>
   <v>       0.00000000       0.00000000       0.00000000 </v>
   <v>       0.00000000       0.00000000       0.00000000 </v>
   <v>       0.00000000       0.00000000       0.00000000 </v>
   <v>       0.00000000       0.00000000       0.00000000 </v>
   <v>       0.00000000       0.00000000       0.00000000 </v>
   <v>       0.00000000       0.00000000       0.00000000 </v>
   <v>       0.00000000       0.00000000       0.00000000 </v>
   <v>       0.00000000       0.00000000       0.00000000 </v>
   <v>       0.00000000       0.00000000       0.00000000 </v>
   <v>       0.00000000       0.00000000       0.00000000 </v>
   <v>       0.00000000       0.00000000       0.00000000 </v>
   <v>       0.00000000       0.00000000       0.00000000 </v>
   <v>       0.00000000       0.00000000       0.00000000 </v>
   <v>       0.00000000       0.00000000       0.00000000 </v>
   <v>       0.00000000       0.00000000       0.00000000 </v>
   <v>       0.00000000       0.00000000       0.00000000 </v>
   <v>       0.00000000       0.00000000       0.00000000 </v>
   <v>       0.00000000       0.00000000       0.00000000 </v>
   <v>       0.00000000       0.00000000       0.00000000 </v>
   <v>       0.00000000       0.00000000       0.00000000 </v>
   <v>       0.00000000       0.00000000       0.00000000 </v>
   <v>       0.00000000       0.00000000       0.00000000 </v>
   <v>       0.00000000       0.00000000       0.00000000 </v>
   <v>       0.00000000       0.00000000       0.00000000 </v>
   <v>       0.00000000       0.00000000       0.00000000 </v>
   <v>       0.00000000       0.00000000       0.00000000 </v>
   <v>       0.00000000       0.00000000       0.00000000 </v>
   <v>       0.00000000       0.00000000       0.00000000 </v>
   <v>       0.00000000       0.00000000       0.00000000 </v>
   <v>       0.00000000       0.00000000       0.00000000 </v>
   <v>       0.00000000       0.00000000       0.00000000 </v>
   <v>       0.00000000       0.00000000       0.00000000 </v>
   <v>       0.00000000       0.00000000       0.00000000 </v>
   <v>       0.00000000       0.00000000       0.00000000 </v>
   <v>       0.00000000       0.00000000       0.00000000 </v>
   <v>       0.00000000       0.00000000       0.00000000 </v>
   <v>       0.00000000       0.00000000       0.00000000 </v>
   <v>       0.00000000       0.00000000       0.00000000 </v>
   <v>       0.00000000       0.00000000       0.00000000 </v>
   <v>       0.00000000       0.00000000       0.00000000 </v>
   <v>       0.00000000       0.00000000       0.00000000 </v>
   <v>       0.00000000       0.00000000       0.00000000 </v>
   <v>       0.00000000       0.00000000       0.00000000 </v>
   <v>       0.00000000       0.00000000       0.00000000 </v>
   <v>       0.00000000       0.00000000       0.00000000 </v>
   <v>       0.00000000       0.00000000       0.00000000 </v>
   <v>       0.00000000       0.00000000       0.00000000 </v>
   <v>       0.00000000       0.00000000       0.00000000 </v>
   <v>       0.00000000       0.00000000       0.00000000 </v>
   <v>       0.00000000       0.00000000       0.00000000 </v>
   <v>       0.00000000       0.00000000       0.00000000 </v>
   <v>       0.00000000       0.00000000       0.00000000 </v>
   <v>       0.00000000       0.00000000       0.00000000 </v>
   <v>       0.00000000       0.00000000       0.00000000 </v>
   <v>       0.00000000       0.00000000       0.00000000 </v>
   <v>       0.00000000       0.00000000       0.00000000 </v>
   <v>       0.00000000       0.00000000       0.00000000 </v>
   <v>       0.00000000       0.00000000       0.00000000 </v>
   <v>       0.00000000       0.00000000       0.00000000 </v>
   <v>       0.00000000       0.00000000       0.00000000 </v>
   <v>       0.00000000       0.00000000       0.00000000 </v>
   <v>       0.00000000       0.00000000       0.00000000 </v>
   <v>       0.00000000       0.00000000       0.00000000 </v>
   <v>       0.00000000       0.00000000       0.00000000 </v>
   <v>       0.00000000       0.00000000       0.00000000 </v>
   <v>       0.00000000       0.00000000       0.00000000 </v>
   <v>       0.00000000       0.00000000       0.00000000 </v>
   <v>       0.00000000       0.00000000       0.00000000 </v>
   <v>       0.00000000       0.00000000       0.00000000 </v>
   <v>       0.00000000       0.00000000       0.00000000 </v>
   <v>       0.00000000       0.00000000       0.00000000 </v>
  </varray>
 </structure>
 <calculation>
  <scstep>
   <time name="dav">   26.05   26.09</time>
   <time name="total">   26.38   26.43</time>
   <energy>
    <i name="alphaZ">   4052.29761577 </i>
    <i name="ewald"> -56428.46595449 </i>
    <i name="hartreedc"> -11959.69308464 </i>
    <i name="XCdc">   3270.76300617 </i>
    <i name="pawpsdc">  50594.51003143 </i>
    <i name="pawaedc"> -49994.65612350 </i>
    <i name="eentropy">     -0.03924840 </i>
    <i name="bandstr">   5802.42284576 </i>
    <i name="atom">  64968.54023382 </i>
    <i name="e_fr_energy">  10305.67932192 </i>
    <i name="e_wo_entrp">  10305.71857033 </i>
    <i name="e_0_energy">  10305.69894613 </i>
   </energy>
  </scstep>
  <scstep>
   <time name="dav">   28.67   28.77</time>
   <time name="total">   28.67   28.77</time>
   <energy>
    <i name="e_fr_energy">    185.44073376 </i>
    <i name="e_wo_entrp">    185.44073376 </i>
    <i name="e_0_energy">    185.44073376 </i>
   </energy>
  </scstep>
  <scstep>
   <time name="dav">   29.54   29.66</time>
   <time name="total">   29.55   29.66</time>
   <energy>
    <i name="e_fr_energy">   -952.23226136 </i>
    <i name="e_wo_entrp">   -952.23226136 </i>
    <i name="e_0_energy">   -952.23226136 </i>
   </energy>
  </scstep>
  <scstep>
   <time name="dav">   34.80   34.91</time>
   <time name="total">   34.80   34.92</time>
   <energy>
    <i name="e_fr_energy">  -1011.14710094 </i>
    <i name="e_wo_entrp">  -1011.14710094 </i>
    <i name="e_0_energy">  -1011.14710094 </i>
   </energy>
  </scstep>
  <scstep>
   <time name="dav">   38.03   38.13</time>
   <time name="total">   38.88   38.99</time>
   <energy>
    <i name="e_fr_energy">  -1015.34259825 </i>
    <i name="e_wo_entrp">  -1015.34259825 </i>
    <i name="e_0_energy">  -1015.34259825 </i>
   </energy>
  </scstep>
  <scstep>
   <time name="dav">   29.58   29.82</time>
   <time name="total">   30.76   31.01</time>
   <energy>
    <i name="e_fr_energy">   -886.15176514 </i>
    <i name="e_wo_entrp">   -886.15176514 </i>
    <i name="e_0_energy">   -886.15176514 </i>
   </energy>
  </scstep>
  <scstep>
   <time name="dav">   31.59   31.67</time>
   <time name="total">   32.78   32.86</time>
   <energy>
    <i name="e_fr_energy">   -888.10585908 </i>
    <i name="e_wo_entrp">   -888.10585908 </i>
    <i name="e_0_energy">   -888.10585908 </i>
   </energy>
  </scstep>
  <scstep>
   <time name="dav">   32.00   32.13</time>
   <time name="total">   33.19   33.33</time>
   <energy>
    <i name="e_fr_energy">   -887.40843145 </i>
    <i name="e_wo_entrp">   -887.40843145 </i>
    <i name="e_0_energy">   -887.40843145 </i>
   </energy>
  </scstep>
  <scstep>
   <time name="dav">   29.78   29.85</time>
   <time name="total">   30.95   31.04</time>
   <energy>
    <i name="e_fr_energy">   -887.24819093 </i>
    <i name="e_wo_entrp">   -887.24819093 </i>
    <i name="e_0_energy">   -887.24819093 </i>
   </energy>
  </scstep>
  <scstep>
   <time name="dav">   32.70   32.88</time>
   <time name="total">   33.88   34.07</time>
   <energy>
    <i name="e_fr_energy">   -887.29705730 </i>
    <i name="e_wo_entrp">   -887.29705730 </i>
    <i name="e_0_energy">   -887.29705730 </i>
   </energy>
  </scstep>
  <scstep>
   <time name="dav">   31.93   32.22</time>
   <time name="total">   33.12   33.43</time>
   <energy>
    <i name="e_fr_energy">   -887.29910832 </i>
    <i name="e_wo_entrp">   -887.29910832 </i>
    <i name="e_0_energy">   -887.29910832 </i>
   </energy>
  </scstep>
  <scstep>
   <time name="dav">   32.23   32.31</time>
   <time name="total">   33.43   33.52</time>
   <energy>
    <i name="e_fr_energy">   -887.29968271 </i>
    <i name="e_wo_entrp">   -887.29968271 </i>
    <i name="e_0_energy">   -887.29968271 </i>
   </energy>
  </scstep>
  <scstep>
   <time name="dav">   33.26   34.29</time>
   <time name="total">   34.44   35.48</time>
   <energy>
    <i name="e_fr_energy">   -887.30034743 </i>
    <i name="e_wo_entrp">   -887.30034743 </i>
    <i name="e_0_energy">   -887.30034743 </i>
   </energy>
  </scstep>
  <scstep>
   <time name="dav">   32.73   32.97</time>
   <time name="total">   33.91   34.17</time>
   <energy>
    <i name="e_fr_energy">   -887.30042319 </i>
    <i name="e_wo_entrp">   -887.30042319 </i>
    <i name="e_0_energy">   -887.30042319 </i>
   </energy>
  </scstep>
  <scstep>
   <time name="dav">   29.97   30.09</time>
   <time name="total">   31.16   31.29</time>
   <energy>
    <i name="e_fr_energy">   -887.30040586 </i>
    <i name="e_wo_entrp">   -887.30040586 </i>
    <i name="e_0_energy">   -887.30040586 </i>
   </energy>
  </scstep>
  <scstep>
   <time name="dav">   32.10   32.38</time>
   <time name="total">   33.29   33.57</time>
   <energy>
    <i name="e_fr_energy">   -887.30040070 </i>
    <i name="e_wo_entrp">   -887.30040070 </i>
    <i name="e_0_energy">   -887.30040070 </i>
   </energy>
  </scstep>
  <scstep>
   <time name="dav">   33.82   34.85</time>
   <time name="total">   34.98   36.05</time>
   <energy>
    <i name="e_fr_energy">   -887.30040077 </i>
    <i name="e_wo_entrp">   -887.30040077 </i>
    <i name="e_0_energy">   -887.30040077 </i>
   </energy>
  </scstep>
  <scstep>
   <time name="dav">   23.44   23.51</time>
   <time name="total">   23.77   23.85</time>
   <energy>
    <i name="alphaZ">   4052.29761577 </i>
    <i name="ewald"> -56428.46595449 </i>
    <i name="hartreedc"> -13185.78097531 </i>
    <i name="XCdc">   3361.10864238 </i>
    <i name="pawpsdc">  99981.51441817 </i>
    <i name="pawaedc"> -99627.86670440 </i>
    <i name="eentropy">     -0.00000000 </i>
    <i name="bandstr">  -4008.64767626 </i>
    <i name="atom">  64968.54023382 </i>
    <i name="e_fr_energy">   -887.30040031 </i>
    <i name="e_wo_entrp">   -887.30040031 </i>
    <i name="e_0_energy">   -887.30040031 </i>
   </energy>
  </scstep>
  <structure>
   <crystal>
    <varray name="basis" >
     <v>      10.56489661       0.00000000       0.00000000 </v>
     <v>       0.00000000      10.56489661       0.00000000 </v>
     <v>       0.00000000       0.00000000      10.56489661 </v>
    </varray>
    <i name="volume">   1179.22249153 </i>
    <varray name="rec_basis" >
     <v>       0.09465308       0.00000000       0.00000000 </v>
     <v>       0.00000000       0.09465308       0.00000000 </v>
     <v>       0.00000000       0.00000000       0.09465308 </v>
    </varray>
   </crystal>
   <varray name="positions" >
    <v>       0.66438580       0.17461895       0.43753721 </v>
    <v>       0.76161924       0.45325472       0.31963734 </v>
    <v>       0.47257607       0.07505416       0.97673357 </v>
    <v>       0.49625135       0.59591910       0.55798253 </v>
    <v>       0.21539959       0.61812121       0.15541511 </v>
    <v>       0.72947873       0.72948987       0.35619041 </v>
    <v>       0.87627894       0.96383112       0.49778960 </v>
    <v>       0.34144681       0.82516847       0.40880873 </v>
    <v>       0.04128405       0.08951848       0.03458471 </v>
    <v>       0.20026717       0.28929214       0.42880126 </v>
    <v>       0.09670833       0.75447246       0.59312644 </v>
    <v>       0.01564284       0.44012496       0.23927767 </v>
    <v>       0.46042060       0.72554758       0.97361972 </v>
    <v>       0.82895152       0.29013866       0.02494980 </v>
    <v>       0.94221589       0.45697350       0.82847456 </v>
    <v>       0.16745375       0.59977005       0.90149698 </v>
    <v>       0.94317377       0.79254649       0.78054135 </v>
    <v>       0.64746251       0.53168958       0.08161994 </v>
    <v>       0.94840684       0.50359845       0.54880590 </v>
    <v>       0.42439190       0.27800296       0.58194560 </v>
    <v>       0.43312169       0.05768646       0.69412271 </v>
    <v>       0.94553558       0.85305531       0.10359962 </v>
    <v>       0.56262466       0.97559183       0.21759145 </v>
    <v>       0.28103744       0.22602658       0.16216405 </v>
    <v>       0.59583788       0.30986751       0.84176714 </v>
    <v>       0.98413230       0.12484660       0.77724439 </v>
    <v>       0.63346229       0.83830090       0.76960196 </v>
    <v>       0.66409260       0.40489448       0.59223389 </v>
    <v>       0.35554395       0.80103321       0.69275740 </v>
    <v>       0.37230345       0.44255867       0.06870533 </v>
    <v>       0.14804150       0.01262472       0.57405488 </v>
    <v>       0.46663677       0.43357350       0.33320216 </v>
    <v>       0.71323684       0.12835671       0.72542717 </v>
    <v>       0.92582747       0.23539673       0.53258610 </v>
    <v>       0.80036674       0.06781583       0.22458462 </v>
    <v>       0.23304420       0.24177534       0.80833577 </v>
    <v>       0.99488010       0.18272742       0.28458024 </v>
    <v>       0.22683140       0.92040018       0.86356314 </v>
    <v>       0.70698260       0.80659099       0.04440346 </v>
    <v>       0.92921830       0.59240444       0.04712923 </v>
    <v>       0.53857604       0.28143346       0.12180151 </v>
    <v>       0.48677934       0.68124341       0.25543339 </v>
    <v>       0.75235754       0.67294953       0.60726660 </v>
    <v>       0.25092776       0.54670970       0.41761060 </v>
    <v>       0.10673587       0.33710088       0.01063420 </v>
    <v>       0.26196101       0.87582774       0.10273873 </v>
    <v>       0.16094669       0.43051962       0.68645822 </v>
    <v>       0.70217100       0.57501391       0.82784147 </v>
    <v>       0.11419366       0.98939683       0.27130086 </v>
    <v>       0.41954622       0.52046039       0.80166892 </v>
    <v>       0.35272789       0.10037769       0.37828870 </v>
    <v>       0.71499624       0.05722366       0.93354565 </v>
    <v>       0.60003714       0.91543261       0.50257256 </v>
    <v>       0.98454520       0.68492621       0.32964641 </v>
    <v>       0.77294283       0.22683058       0.82981287 </v>
    <v>       0.23353179       0.75442127       0.00310722 </v>
    <v>       0.76986412       0.45984648       0.71461209 </v>
    <v>       0.00956530       0.32858815       0.67746413 </v>
    <v>       0.61975214       0.64106057       0.70519690 </v>
    <v>       0.83151346       0.64224152       0.77440195 </v>
    <v>       0.79036508       0.97381839       0.78406989 </v>
    <v>       0.70853252       0.93859301       0.38646236 </v>
    <v>       0.70296170       0.55212813       0.50511857 </v>
    <v>       0.59063468       0.75422712       0.13090269 </v>
    <v>       0.66667321       0.13385062       0.24475334 </v>
    <v>       0.21594168       0.23883530       0.97049442 </v>
    <v>       0.12061680       0.63241518       0.39092167 </v>
    <v>       0.99299019       0.26010746       0.92668951 </v>
    <v>       0.78338361       0.35099186       0.52395703 </v>
    <v>       0.57575093       0.36176699       0.44505284 </v>
    <v>       0.89907821       0.69157812       0.52348729 </v>
    <v>       0.49463160       0.01857317       0.44163855 </v>
    <v>       0.43697672       0.33259680       0.98735726 </v>
    <v>       0.86873192       0.12974603       0.41112148 </v>
    <v>       0.86744191       0.24323591       0.21908805 </v>
    <v>       0.22641965       0.28319190       0.65157107 </v>
    <v>       0.10372851       0.57166997       0.70577109 </v>
    <v>       0.62977016       0.01556599       0.61781869 </v>
    <v>       0.34162579       0.63890935       0.32134845 </v>
    <v>       0.04677789       0.14739182       0.56134706 </v>
    <v>       0.99969056       0.69015224       0.96483370 </v>
    <v>       0.81949249       0.83606823       0.94272699 </v>
    <v>       0.19374282       0.02143144       0.13391365 </v>
    <v>       0.53087415       0.42721300       0.67950103 </v>
    <v>       0.38470899       0.22675700       0.78557860 </v>
    <v>       0.84896384       0.13934021       0.62373382 </v>
    <v>       0.57209025       0.56987758       0.32022538 </v>
    <v>       0.52144437       0.77717929       0.36802952 </v>
    <v>       0.03746053       0.93749947       0.64145279 </v>
    <v>       0.55441329       0.52398632       0.89370578 </v>
    <v>       0.40911130       0.66414181       0.78279099 </v>
    <v>       0.77127480       0.47586315       0.93848635 </v>
    <v>       0.80094446       0.69930933       0.12130013 </v>
    <v>       0.93049236       0.82121812       0.36061166 </v>
    <v>       0.14114412       0.83059523       0.23521166 </v>
    <v>       0.38208666       0.45417924       0.43475357 </v>
    <v>       0.41384695       0.89290179       0.81746193 </v>
    <v>       0.89747866       0.55870298       0.35850057 </v>
    <v>       0.21443589       0.41888237       0.06599161 </v>
    <v>       0.30934278       0.98726205       0.97316678 </v>
    <v>       0.08350139       0.26974597       0.16760149 </v>
    <v>       0.61703972       0.93382657       0.99611982 </v>
    <v>       0.01712086       0.64658217       0.18475158 </v>
    <v>       0.02620186       0.48363876       0.01430401 </v>
    <v>       0.09177227       0.98256305       0.43031374 </v>
    <v>       0.18153825       0.08769526       0.78528678 </v>
    <v>       0.66760219       0.71296219       0.91878853 </v>
    <v>       0.35525313       0.53680362       0.93850236 </v>
    <v>       0.64533692       0.35717503       0.17257613 </v>
    <v>       0.71178419       0.81222359       0.55430793 </v>
    <v>       0.23098745       0.43837913       0.29660646 </v>
    <v>       0.39189865       0.81038272       0.15601126 </v>
    <v>       0.85388998       0.50099533       0.14476310 </v>
    <v>       0.07652908       0.94174175       0.91316278 </v>
    <v>       0.83088893       0.07289246       0.05362449 </v>
    <v>       0.63996419       0.20238458       0.01007447 </v>
    <v>       0.18788982       0.79329273       0.77869102 </v>
    <v>       0.76882602       0.91205867       0.18654057 </v>
    <v>       0.46434028       0.14506168       0.14691509 </v>
    <v>       0.62924353       0.23496482       0.63841421 </v>
    <v>       0.38711040       0.23474602       0.39514939 </v>
    <v>       0.32220691       0.47281344       0.69532985 </v>
    <v>       0.96115150       0.04594479       0.21604814 </v>
    <v>       0.42755206       0.58383815       0.11573389 </v>
    <v>       0.29373498       0.07808318       0.52823951 </v>
    <v>       0.43247308       0.35996594       0.20521068 </v>
    <v>       0.59492986       0.08555253       0.83659001 </v>
    <v>       0.26333289       0.90905827       0.61758767 </v>
    <v>       0.98070110       0.31405758       0.38976350 </v>
    <v>       0.18795395       0.38987103       0.84039152 </v>
    <v>       0.28386748       0.69520041       0.59193177 </v>
    <v>       0.17757867       0.15008093       0.32515741 </v>
    <v>       0.17690832       0.45897991       0.52532047 </v>
    <v>       0.31755301       0.98886581       0.29268657 </v>
    <v>       0.50495169       0.80666468       0.61711065 </v>
   </varray>
  </structure>
  <varray name="forces" >
   <v>       0.02695339      -0.73318545       0.75338512 </v>
   <v>      -3.29848263      -4.92027480       0.03081728 </v>
   <v>      -2.32221658       0.34891023      -2.15416502 </v>
   <v>      -2.58378002       1.42498413      -0.52916002 </v>
   <v>      -0.67724885       1.21274460       1.66902880 </v>
   <v>       1.69654528       0.99479143      -2.14925196 </v>
   <v>       1.31396094      -2.87226927       2.90458084 </v>
   <v>      -3.23250771       1.50916849       2.21838427 </v>
   <v>      -0.02270816       0.93502193      -3.18412786 </v>
   <v>      -1.89941373       3.48270988       6.16339176 </v>
   <v>       0.79666753      -1.40153319      -1.57221663 </v>
   <v>       1.17387994       1.04640689       0.60658785 </v>
   <v>      -1.04155390       0.97451626      -1.71720650 </v>
   <v>      -2.38440509       1.59060586       2.00253871 </v>
   <v>      -0.38296235      -1.01136851      -2.61391923 </v>
   <v>       0.41179161       1.03522179      -2.85893895 </v>
   <v>       1.71194099       3.79293802       3.10004467 </v>
   <v>       1.11330799       2.94022875       0.38503833 </v>
   <v>       0.54283634      -1.88961014       0.38768817 </v>
   <v>      -0.95347792       2.03220765       1.98652156 </v>
   <v>      -0.45188216      -1.47857780      -1.11831386 </v>
   <v>       1.05037468      -1.42483127      -1.30344971 </v>
   <v>      -1.60094608      -3.21814832       0.92522037 </v>
   <v>      -0.52549351      -1.38207610       0.15925028 </v>
   <v>      -1.82133281       2.00540015      -0.06840324 </v>
   <v>      -1.45580766      -1.62296500      -1.62955792 </v>
   <v>      -0.12447397       2.19238117       0.97461431 </v>
   <v>       0.42650440       0.18931382       2.66981124 </v>
   <v>      -1.08646565      -3.82251701       0.20243868 </v>
   <v>      -1.57692077       3.09961456      -3.85617868 </v>
   <v>       1.10804349       3.93799707      -0.42043599 </v>
   <v>      10.74470000      -2.28101739      -2.76693082 </v>
   <v>       2.09372143      -2.89918619      -5.63109812 </v>
   <v>      -0.26212248       1.72289686       0.08576483 </v>
   <v>      -2.03283947       0.45299987      -2.45935869 </v>
   <v>       2.44848915      -2.28485463      -1.31070572 </v>
   <v>      -1.27858713       6.88625311       2.99442461 </v>
   <v>      -3.81270864       0.40688880      -0.99915979 </v>
   <v>       3.76400065      -0.44874059      -0.67541728 </v>
   <v>      -5.45633069       2.80270841       5.92911210 </v>
   <v>       0.67980352      -8.39366095      -4.91922939 </v>
   <v>      -2.24793188       2.32255101      -4.98076050 </v>
   <v>       2.14490357      -2.90344195       0.45551201 </v>
   <v>      -2.26507083      -1.43437152       0.17811509 </v>
   <v>      -3.63885022      -0.74703087      -2.74368919 </v>
   <v>      -0.80935775       0.53344996      -0.03956419 </v>
   <v>       3.15664023      -1.70416725      -3.55123091 </v>
   <v>      -1.47409636      -0.97576866       1.07564354 </v>
   <v>       4.78800060      -3.01335269       3.93008101 </v>
   <v>       1.40925764      -2.37289918      -1.11894963 </v>
   <v>       0.02489137      -6.92000143       5.41849344 </v>
   <v>       2.97930772      -1.55622055       2.81139575 </v>
   <v>      -0.59609392      -0.09338888       0.23278578 </v>
   <v>       1.04086530      -0.46254272       0.88871353 </v>
   <v>       2.28413504      -2.32432509       0.52666502 </v>
   <v>       0.66981986       3.31079828       1.48544059 </v>
   <v>      -3.57161958      -2.10793053      -1.41902638 </v>
   <v>      -1.32883497       2.49914945      -1.26420944 </v>
   <v>       3.30885076       0.67936243      -0.75434516 </v>
   <v>       0.65314665       2.08266861      -2.84771117 </v>
   <v>      -0.44170185       5.10807454       1.11493367 </v>
   <v>      -2.43101695       1.17053977       1.03010949 </v>
   <v>      -0.55596800       2.19278067       1.84533345 </v>
   <v>      -1.66979844      -2.21989986       4.24534078 </v>
   <v>       0.34471708       0.66079024       0.10703819 </v>
   <v>       1.05624482      -5.64970137      -0.39695155 </v>
   <v>      -0.33740459       1.82488904       0.65987873 </v>
   <v>       1.92941680       1.66490189       0.92452373 </v>
   <v>       6.50867748      -3.52019185      -3.63330636 </v>
   <v>      -0.42753263       1.26133989      -2.10341991 </v>
   <v>      -2.01015665       1.02885865       5.25561664 </v>
   <v>      -1.10285742       0.62115638      -1.19886579 </v>
   <v>       2.43423560      -1.47499421       2.88628577 </v>
   <v>       1.18408859       1.22309212      -4.01179993 </v>
   <v>      -1.08678030      -1.24376749      -0.69338104 </v>
   <v>      -1.49627348      -0.58372778       0.16810678 </v>
   <v>      -3.45611257       0.37112014       1.12613777 </v>
   <v>       0.78559859       0.59854569       0.68611324 </v>
   <v>       0.75831371       0.98599672       0.40421683 </v>
   <v>       4.10173014      -0.79127149      -0.57075862 </v>
   <v>      -0.03067445       1.69203099      -2.94669237 </v>
   <v>       2.50383546       3.05083677       0.96048426 </v>
   <v>      -2.34529636      -0.54232042       0.93353440 </v>
   <v>       0.51272072       1.62942402      -0.72100575 </v>
   <v>       2.19335984      -0.59855551       2.10488778 </v>
   <v>      -4.29457488      -0.65167953       2.42113511 </v>
   <v>      -1.22585913      -3.63784675      -1.69314650 </v>
   <v>       2.25947255       1.49428963       1.15608848 </v>
   <v>      -2.76579492      -0.85633456       2.24786536 </v>
   <v>       1.49033395      -1.86310821      -1.84187329 </v>
   <v>      -0.25206690       6.08335002      -2.64496820 </v>
   <v>       0.52026113       1.29793482      -0.80901195 </v>
   <v>       0.55586652      -0.67101540      -0.18955014 </v>
   <v>       0.62306410      -0.36437190      -2.82842016 </v>
   <v>       1.16795186       2.18456775      -1.03459187 </v>
   <v>      -5.66212492       3.41394952      10.36439846 </v>
   <v>      -1.54678993      -0.69407250      -1.72896958 </v>
   <v>       2.71569282       3.25522661       0.65383639 </v>
   <v>       6.10978143       4.61294355       4.40516088 </v>
   <v>      -1.80530662      -2.56947155       2.38939954 </v>
   <v>      -0.96871968      -1.81480749      -2.04660978 </v>
   <v>       0.45823438       1.05675573       0.29223328 </v>
   <v>       0.46270470       0.44555163      -1.02052226 </v>
   <v>       2.41663207      -4.79595394      -0.79374346 </v>
   <v>       0.37518688      -3.03810141      -3.53716836 </v>
   <v>       2.65778741      -0.31012027      -0.96895175 </v>
   <v>      -2.99130845      -3.65747294       0.59389185 </v>
   <v>      -2.90630140      -1.89609743       1.35813522 </v>
   <v>       3.39585789       3.27694891       2.34703064 </v>
   <v>       0.95158946      -1.55501719       1.58688568 </v>
   <v>      -1.67284713       1.51947503      -1.69813101 </v>
   <v>      -0.89713943       1.07564302       1.86171215 </v>
   <v>      -1.99749962      -3.65692128      -0.17592892 </v>
   <v>      -0.71680015      -0.95342791       0.86887257 </v>
   <v>      -1.18433666       0.47221961      -2.98107123 </v>
   <v>      -0.67399173      -0.22317027       1.49139337 </v>
   <v>       1.97327894      -0.03472387       1.38903580 </v>
   <v>      -0.76566818       0.56150309      -0.06642303 </v>
   <v>      -0.74542071       1.35665350       3.35350069 </v>
   <v>      -0.95750396       0.52370891       1.10970956 </v>
   <v>       3.20741746       4.17604489      -3.62381993 </v>
   <v>       0.57673702       0.41989155      -0.12779638 </v>
   <v>       4.65596529      -3.04223938       2.29909390 </v>
   <v>       1.49046101      -1.51600574       4.47579088 </v>
   <v>      -0.88587211       3.52790459      -1.97996947 </v>
   <v>      -2.35230463       2.50177717       0.15849986 </v>
   <v>       1.19376034       0.24491951      -5.08706603 </v>
   <v>       1.34328676      -0.75911825      -0.04973638 </v>
   <v>       1.82861949      -0.43487509       2.98941724 </v>
   <v>      -3.41977254       1.00828958       0.54296239 </v>
   <v>       2.62718788      -1.71968680      -3.83893563 </v>
   <v>      -4.80437118      -4.59704259      -4.25589071 </v>
   <v>      -1.67674875       1.83057429       0.19285533 </v>
   <v>       0.81849121      -1.75069750      -0.99434405 </v>
   <v>      -2.97468066       2.51867778      -3.20340236 </v>
  </varray>
  <varray name="stress" >
   <v>     499.25083465     -12.66721368       3.83660946 </v>
   <v>     -12.66721369     499.70694389      15.21530580 </v>
   <v>       3.83660946      15.21530579     485.77591272 </v>
  </varray>
  <energy>
   <i name="e_fr_energy">   -887.30040031 </i>
   <i name="e_wo_entrp">   -887.30040031 </i>
   <i name="e_0_energy">     -0.00000000 </i>
  </energy>
  <time name="totalsc">  608.78  613.34</time>
  <eigenvalues>
   <array>
    <dimension dim="1">band</dimension>
    <dimension dim="2">kpoint</dimension>
    <dimension dim="3">spin</dimension>
    <field>eigene</field>
    <field>occ</field>
    <set>
     <set comment="spin 1">
      <set comment="kpoint 1">
       <r>  -31.7901    1.0000 </r>
       <r>  -31.5081    1.0000 </r>
       <r>  -31.4578    1.0000 </r>
       <r>  -31.3851    1.0000 </r>
       <r>  -31.3773    1.0000 </r>
       <r>  -31.3511    1.0000 </r>
       <r>  -31.0731    1.0000 </r>
       <r>  -30.9495    1.0000 </r>
       <r>  -30.9315    1.0000 </r>
       <r>  -30.8837    1.0000 </r>
       <r>  -30.8804    1.0000 </r>
       <r>  -30.8661    1.0000 </r>
       <r>  -30.8148    1.0000 </r>
       <r>  -30.6770    1.0000 </r>
       <r>  -30.6562    1.0000 </r>
       <r>  -30.6138    1.0000 </r>
       <r>  -30.5721    1.0000 </r>
       <r>  -30.5376    1.0000 </r>
       <r>  -30.4913    1.0000 </r>
       <r>  -30.4720    1.0000 </r>
       <r>  -30.4538    1.0000 </r>
       <r>  -30.4352    1.0000 </r>
       <r>  -30.4185    1.0000 </r>
       <r>  -30.3995    1.0000 </r>
       <r>  -30.2014    1.0000 </r>
       <r>  -30.1169    1.0000 </r>
       <r>  -29.9850    1.0000 </r>
       <r>  -17.1419    1.0000 </r>
       <r>  -16.8725    1.0000 </r>
       <r>  -15.6785    1.0000 </r>
       <r>  -15.6113    1.0000 </r>
       <r>  -15.1286    1.0000 </r>
       <r>  -15.0405    1.0000 </r>
       <r>  -15.0293    1.0000 </r>
       <r>  -14.7618    1.0000 </r>
       <r>  -14.7149    1.0000 </r>
       <r>  -14.5640    1.0000 </r>
       <r>  -14.5117    1.0000 </r>
       <r>  -14.4340    1.0000 </r>
       <r>  -14.3750    1.0000 </r>
       <r>  -14.2432    1.0000 </r>
       <r>  -14.1561    1.0000 </r>
[...]
       <r>     9.8576     0.0000   864.0000 </r>
       <r>    10.0294     0.0000   864.0000 </r>
       <r>    10.2013     0.0000   864.0000 </r>
       <r>    10.3731     0.0000   864.0000 </r>
       <r>    10.5450     0.3388   864.0582 </r>
       <r>    10.7168    10.7076   865.8982 </r>
       <r>    10.8886     0.5924   866.0000 </r>
       <r>    11.0605     0.8331   866.1432 </r>
       <r>    11.2323    12.2733   868.2522 </r>
       <r>    11.4042    10.4568   870.0491 </r>
       <r>    11.5760     8.6006   871.5270 </r>
       <r>    11.7478    24.9492   875.8143 </r>
       <r>    11.9197    11.9928   877.8751 </r>
       <r>    12.0915    28.4850   882.7700 </r>
       <r>    12.2634    42.2778   890.0350 </r>
       <r>    12.4352    37.7123   896.5154 </r>
       <r>    12.6070    41.4766   903.6428 </r>
       <r>    12.7789    40.5963   910.6188 </r>
       <r>    12.9507    36.8962   916.9590 </r>
       <r>    13.1226    44.2885   924.5696 </r>
       <r>    13.2944    47.9992   932.8177 </r>
       <r>    13.4662    49.5690   941.3357 </r>
       <r>    13.6381    62.8388   952.1339 </r>
       <r>    13.8099    61.1331   962.6390 </r>
       <r>    13.9818    57.7545   972.5635 </r>
       <r>    14.1536    60.8317   983.0168 </r>
       <r>    14.3254    66.0212   994.3618 </r>
       <r>    14.4973    65.2945  1005.5820 </r>
       <r>    14.6691    65.8051  1016.8899 </r>
       <r>    14.8409    65.7808  1028.1937 </r>
       <r>    15.0128    57.0841  1038.0030 </r>
       <r>    15.1846    11.6196  1039.9997 </r>
       <r>    15.3565     0.0016  1040.0000 </r>
       <r>    15.5283     0.0000  1040.0000 </r>
       <r>    15.7001     0.0000  1040.0000 </r>
       <r>    15.8720     0.0000  1040.0000 </r>
       <r>    16.0438     0.0000  1040.0000 </r>
       <r>    16.2157     0.0000  1040.0000 </r>
       <r>    16.3875     0.0000  1040.0000 </r>
       <r>    16.5593     0.0000  1040.0000 </r>
       <r>    16.7312     0.0000  1040.0000 </r>
       <r>    16.9030     0.0000  1040.0000 </r>
       <r>    17.0749     0.0000  1040.0000 </r>
       <r>    17.2467     0.0000  1040.0000 </r>
       <r>    17.4185     0.0000  1040.0000 </r>
      </set>
     </set>
    </array>
   </total>
  </dos>
 </calculation>
 <structure name="finalpos" >
  <crystal>
   <varray name="basis" >
    <v>      10.56489661       0.00000000       0.00000000 </v>
    <v>       0.00000000      10.56489661       0.00000000 </v>
    <v>       0.00000000       0.00000000      10.56489661 </v>
   </varray>
   <i name="volume">   1179.22249153 </i>
   <varray name="rec_basis" >
    <v>       0.09465308       0.00000000       0.00000000 </v>
    <v>       0.00000000       0.09465308       0.00000000 </v>
    <v>       0.00000000       0.00000000       0.09465308 </v>
   </varray>
  </crystal>
  <varray name="positions" >
   <v>       0.66438580       0.17461895       0.43753721 </v>
   <v>       0.76161924       0.45325472       0.31963734 </v>
   <v>       0.47257607       0.07505416       0.97673357 </v>
   <v>       0.49625135       0.59591910       0.55798253 </v>
   <v>       0.21539959       0.61812121       0.15541511 </v>
   <v>       0.72947873       0.72948987       0.35619041 </v>
   <v>       0.87627894       0.96383112       0.49778960 </v>
   <v>       0.34144681       0.82516847       0.40880873 </v>
   <v>       0.04128405       0.08951848       0.03458471 </v>
   <v>       0.20026717       0.28929214       0.42880126 </v>
   <v>       0.09670833       0.75447246       0.59312644 </v>
   <v>       0.01564284       0.44012496       0.23927767 </v>
   <v>       0.46042060       0.72554758       0.97361972 </v>
   <v>       0.82895152       0.29013866       0.02494980 </v>
   <v>       0.94221589       0.45697350       0.82847456 </v>
   <v>       0.16745375       0.59977005       0.90149698 </v>
   <v>       0.94317377       0.79254649       0.78054135 </v>
   <v>       0.64746251       0.53168958       0.08161994 </v>
   <v>       0.94840684       0.50359845       0.54880590 </v>
   <v>       0.42439190       0.27800296       0.58194560 </v>
   <v>       0.43312169       0.05768646       0.69412271 </v>
   <v>       0.94553558       0.85305531       0.10359962 </v>
   <v>       0.56262466       0.97559183       0.21759145 </v>
   <v>       0.28103744       0.22602658       0.16216405 </v>
   <v>       0.59583788       0.30986751       0.84176714 </v>
   <v>       0.98413230       0.12484660       0.77724439 </v>
   <v>       0.63346229       0.83830090       0.76960196 </v>
   <v>       0.66409260       0.40489448       0.59223389 </v>
   <v>       0.35554395       0.80103321       0.69275740 </v>
   <v>       0.37230345       0.44255867       0.06870533 </v>
   <v>       0.14804150       0.01262472       0.57405488 </v>
   <v>       0.46663677       0.43357350       0.33320216 </v>
   <v>       0.71323684       0.12835671       0.72542717 </v>
   <v>       0.92582747       0.23539673       0.53258610 </v>
   <v>       0.80036674       0.06781583       0.22458462 </v>
   <v>       0.23304420       0.24177534       0.80833577 </v>
   <v>       0.99488010       0.18272742       0.28458024 </v>
   <v>       0.22683140       0.92040018       0.86356314 </v>
   <v>       0.70698260       0.80659099       0.04440346 </v>
   <v>       0.92921830       0.59240444       0.04712923 </v>
   <v>       0.53857604       0.28143346       0.12180151 </v>
   <v>       0.48677934       0.68124341       0.25543339 </v>
   <v>       0.75235754       0.67294953       0.60726660 </v>
   <v>       0.25092776       0.54670970       0.41761060 </v>
   <v>       0.10673587       0.33710088       0.01063420 </v>
   <v>       0.26196101       0.87582774       0.10273873 </v>
   <v>       0.16094669       0.43051962       0.68645822 </v>
   <v>       0.70217100       0.57501391       0.82784147 </v>
   <v>       0.11419366       0.98939683       0.27130086 </v>
   <v>       0.41954622       0.52046039       0.80166892 </v>
   <v>       0.35272789       0.10037769       0.37828870 </v>
   <v>       0.71499624       0.05722366       0.93354565 </v>
   <v>       0.60003714       0.91543261       0.50257256 </v>
   <v>       0.98454520       0.68492621       0.32964641 </v>
   <v>       0.77294283       0.22683058       0.82981287 </v>
   <v>       0.23353179       0.75442127       0.00310722 </v>
   <v>       0.76986412       0.45984648       0.71461209 </v>
   <v>       0.00956530       0.32858815       0.67746413 </v>
   <v>       0.61975214       0.64106057       0.70519690 </v>
   <v>       0.83151346       0.64224152       0.77440195 </v>
   <v>       0.79036508       0.97381839       0.78406989 </v>
   <v>       0.70853252       0.93859301       0.38646236 </v>
   <v>       0.70296170       0.55212813       0.50511857 </v>
   <v>       0.59063468       0.75422712       0.13090269 </v>
   <v>       0.66667321       0.13385062       0.24475334 </v>
   <v>       0.21594168       0.23883530       0.97049442 </v>
   <v>       0.12061680       0.63241518       0.39092167 </v>
   <v>       0.99299019       0.26010746       0.92668951 </v>
   <v>       0.78338361       0.35099186       0.52395703 </v>
   <v>       0.57575093       0.36176699       0.44505284 </v>
   <v>       0.89907821       0.69157812       0.52348729 </v>
   <v>       0.49463160       0.01857317       0.44163855 </v>
   <v>       0.43697672       0.33259680       0.98735726 </v>
   <v>       0.86873192       0.12974603       0.41112148 </v>
   <v>       0.86744191       0.24323591       0.21908805 </v>
   <v>       0.22641965       0.28319190       0.65157107 </v>
   <v>       0.10372851       0.57166997       0.70577109 </v>
   <v>       0.62977016       0.01556599       0.61781869 </v>
   <v>       0.34162579       0.63890935       0.32134845 </v>
   <v>       0.04677789       0.14739182       0.56134706 </v>
   <v>       0.99969056       0.69015224       0.96483370 </v>
   <v>       0.81949249       0.83606823       0.94272699 </v>
   <v>       0.19374282       0.02143144       0.13391365 </v>
   <v>       0.53087415       0.42721300       0.67950103 </v>
   <v>       0.38470899       0.22675700       0.78557860 </v>
   <v>       0.84896384       0.13934021       0.62373382 </v>
   <v>       0.57209025       0.56987758       0.32022538 </v>
   <v>       0.52144437       0.77717929       0.36802952 </v>
   <v>       0.03746053       0.93749947       0.64145279 </v>
   <v>       0.55441329       0.52398632       0.89370578 </v>
   <v>       0.40911130       0.66414181       0.78279099 </v>
   <v>       0.77127480       0.47586315       0.93848635 </v>
   <v>       0.80094446       0.69930933       0.12130013 </v>
   <v>       0.93049236       0.82121812       0.36061166 </v>
   <v>       0.14114412       0.83059523       0.23521166 </v>
   <v>       0.38208666       0.45417924       0.43475357 </v>
   <v>       0.41384695       0.89290179       0.81746193 </v>
   <v>       0.89747866       0.55870298       0.35850057 </v>
   <v>       0.21443589       0.41888237       0.06599161 </v>
   <v>       0.30934278       0.98726205       0.97316678 </v>
   <v>       0.08350139       0.26974597       0.16760149 </v>
   <v>       0.61703972       0.93382657       0.99611982 </v>
   <v>       0.01712086       0.64658217       0.18475158 </v>
   <v>       0.02620186       0.48363876       0.01430401 </v>
   <v>       0.09177227       0.98256305       0.43031374 </v>
   <v>       0.18153825       0.08769526       0.78528678 </v>
   <v>       0.66760219       0.71296219       0.91878853 </v>
   <v>       0.35525313       0.53680362       0.93850236 </v>
   <v>       0.64533692       0.35717503       0.17257613 </v>
   <v>       0.71178419       0.81222359       0.55430793 </v>
   <v>       0.23098745       0.43837913       0.29660646 </v>
   <v>       0.39189865       0.81038272       0.15601126 </v>
   <v>       0.85388998       0.50099533       0.14476310 </v>
   <v>       0.07652908       0.94174175       0.91316278 </v>
   <v>       0.83088893       0.07289246       0.05362449 </v>
   <v>       0.63996419       0.20238458       0.01007447 </v>
   <v>       0.18788982       0.79329273       0.77869102 </v>
   <v>       0.76882602       0.91205867       0.18654057 </v>
   <v>       0.46434028       0.14506168       0.14691509 </v>
   <v>       0.62924353       0.23496482       0.63841421 </v>
   <v>       0.38711040       0.23474602       0.39514939 </v>
   <v>       0.32220691       0.47281344       0.69532985 </v>
   <v>       0.96115150       0.04594479       0.21604814 </v>
   <v>       0.42755206       0.58383815       0.11573389 </v>
   <v>       0.29373498       0.07808318       0.52823951 </v>
   <v>       0.43247308       0.35996594       0.20521068 </v>
   <v>       0.59492986       0.08555253       0.83659001 </v>
   <v>       0.26333289       0.90905827       0.61758767 </v>
   <v>       0.98070110       0.31405758       0.38976350 </v>
   <v>       0.18795395       0.38987103       0.84039152 </v>
   <v>       0.28386748       0.69520041       0.59193177 </v>
   <v>       0.17757867       0.15008093       0.32515741 </v>
   <v>       0.17690832       0.45897991       0.52532047 </v>
   <v>       0.31755301       0.98886581       0.29268657 </v>
   <v>       0.50495169       0.80666468       0.61711065 </v>
  </varray>
  <varray name="velocities" >
   <v>       0.00000000       0.00000000       0.00000000 </v>
   <v>       0.00000000       0.00000000       0.00000000 </v>
   <v>       0.00000000       0.00000000       0.00000000 </v>
   <v>       0.00000000       0.00000000       0.00000000 </v>
   <v>       0.00000000       0.00000000       0.00000000 </v>
   <v>       0.00000000       0.00000000       0.00000000 </v>
   <v>       0.00000000       0.00000000       0.00000000 </v>
   <v>       0.00000000       0.00000000       0.00000000 </v>
   <v>       0.00000000       0.00000000       0.00000000 </v>
   <v>       0.00000000       0.00000000       0.00000000 </v>
   <v>       0.00000000       0.00000000       0.00000000 </v>
   <v>       0.00000000       0.00000000       0.00000000 </v>
   <v>       0.00000000       0.00000000       0.00000000 </v>
   <v>       0.00000000       0.00000000       0.00000000 </v>
   <v>       0.00000000       0.00000000       0.00000000 </v>
   <v>       0.00000000       0.00000000       0.00000000 </v>
   <v>       0.00000000       0.00000000       0.00000000 </v>
   <v>       0.00000000       0.00000000       0.00000000 </v>
   <v>       0.00000000       0.00000000       0.00000000 </v>
   <v>       0.00000000       0.00000000       0.00000000 </v>
   <v>       0.00000000       0.00000000       0.00000000 </v>
   <v>       0.00000000       0.00000000       0.00000000 </v>
   <v>       0.00000000       0.00000000       0.00000000 </v>
   <v>       0.00000000       0.00000000       0.00000000 </v>
   <v>       0.00000000       0.00000000       0.00000000 </v>
   <v>       0.00000000       0.00000000       0.00000000 </v>
   <v>       0.00000000       0.00000000       0.00000000 </v>
   <v>       0.00000000       0.00000000       0.00000000 </v>
   <v>       0.00000000       0.00000000       0.00000000 </v>
   <v>       0.00000000       0.00000000       0.00000000 </v>
   <v>       0.00000000       0.00000000       0.00000000 </v>
   <v>       0.00000000       0.00000000       0.00000000 </v>
   <v>       0.00000000       0.00000000       0.00000000 </v>
   <v>       0.00000000       0.00000000       0.00000000 </v>
   <v>       0.00000000       0.00000000       0.00000000 </v>
   <v>       0.00000000       0.00000000       0.00000000 </v>
   <v>       0.00000000       0.00000000       0.00000000 </v>
   <v>       0.00000000       0.00000000       0.00000000 </v>
   <v>       0.00000000       0.00000000       0.00000000 </v>
   <v>       0.00000000       0.00000000       0.00000000 </v>
   <v>       0.00000000       0.00000000       0.00000000 </v>
   <v>       0.00000000       0.00000000       0.00000000 </v>
   <v>       0.00000000       0.00000000       0.00000000 </v>
   <v>       0.00000000       0.00000000       0.00000000 </v>
   <v>       0.00000000       0.00000000       0.00000000 </v>
   <v>       0.00000000       0.00000000       0.00000000 </v>
   <v>       0.00000000       0.00000000       0.00000000 </v>
   <v>       0.00000000       0.00000000       0.00000000 </v>
   <v>       0.00000000       0.00000000       0.00000000 </v>
   <v>       0.00000000       0.00000000       0.00000000 </v>
   <v>       0.00000000       0.00000000       0.00000000 </v>
   <v>       0.00000000       0.00000000       0.00000000 </v>
   <v>       0.00000000       0.00000000       0.00000000 </v>
   <v>       0.00000000       0.00000000       0.00000000 </v>
   <v>       0.00000000       0.00000000       0.00000000 </v>
   <v>       0.00000000       0.00000000       0.00000000 </v>
   <v>       0.00000000       0.00000000       0.00000000 </v>
   <v>       0.00000000       0.00000000       0.00000000 </v>
   <v>       0.00000000       0.00000000       0.00000000 </v>
   <v>       0.00000000       0.00000000       0.00000000 </v>
   <v>       0.00000000       0.00000000       0.00000000 </v>
   <v>       0.00000000       0.00000000       0.00000000 </v>
   <v>       0.00000000       0.00000000       0.00000000 </v>
   <v>       0.00000000       0.00000000       0.00000000 </v>
   <v>       0.00000000       0.00000000       0.00000000 </v>
   <v>       0.00000000       0.00000000       0.00000000 </v>
   <v>       0.00000000       0.00000000       0.00000000 </v>
   <v>       0.00000000       0.00000000       0.00000000 </v>
   <v>       0.00000000       0.00000000       0.00000000 </v>
   <v>       0.00000000       0.00000000       0.00000000 </v>
   <v>       0.00000000       0.00000000       0.00000000 </v>
   <v>       0.00000000       0.00000000       0.00000000 </v>
   <v>       0.00000000       0.00000000       0.00000000 </v>
   <v>       0.00000000       0.00000000       0.00000000 </v>
   <v>       0.00000000       0.00000000       0.00000000 </v>
   <v>       0.00000000       0.00000000       0.00000000 </v>
   <v>       0.00000000       0.00000000       0.00000000 </v>
   <v>       0.00000000       0.00000000       0.00000000 </v>
   <v>       0.00000000       0.00000000       0.00000000 </v>
   <v>       0.00000000       0.00000000       0.00000000 </v>
   <v>       0.00000000       0.00000000       0.00000000 </v>
   <v>       0.00000000       0.00000000       0.00000000 </v>
   <v>       0.00000000       0.00000000       0.00000000 </v>
   <v>       0.00000000       0.00000000       0.00000000 </v>
   <v>       0.00000000       0.00000000       0.00000000 </v>
   <v>       0.00000000       0.00000000       0.00000000 </v>
   <v>       0.00000000       0.00000000       0.00000000 </v>
   <v>       0.00000000       0.00000000       0.00000000 </v>
   <v>       0.00000000       0.00000000       0.00000000 </v>
   <v>       0.00000000       0.00000000       0.00000000 </v>
   <v>       0.00000000       0.00000000       0.00000000 </v>
   <v>       0.00000000       0.00000000       0.00000000 </v>
   <v>       0.00000000       0.00000000       0.00000000 </v>
   <v>       0.00000000       0.00000000       0.00000000 </v>
   <v>       0.00000000       0.00000000       0.00000000 </v>
   <v>       0.00000000       0.00000000       0.00000000 </v>
   <v>       0.00000000       0.00000000       0.00000000 </v>
   <v>       0.00000000       0.00000000       0.00000000 </v>
   <v>       0.00000000       0.00000000       0.00000000 </v>
   <v>       0.00000000       0.00000000       0.00000000 </v>
   <v>       0.00000000       0.00000000       0.00000000 </v>
   <v>       0.00000000       0.00000000       0.00000000 </v>
   <v>       0.00000000       0.00000000       0.00000000 </v>
   <v>       0.00000000       0.00000000       0.00000000 </v>
   <v>       0.00000000       0.00000000       0.00000000 </v>
   <v>       0.00000000       0.00000000       0.00000000 </v>
   <v>       0.00000000       0.00000000       0.00000000 </v>
   <v>       0.00000000       0.00000000       0.00000000 </v>
   <v>       0.00000000       0.00000000       0.00000000 </v>
   <v>       0.00000000       0.00000000       0.00000000 </v>
   <v>       0.00000000       0.00000000       0.00000000 </v>
   <v>       0.00000000       0.00000000       0.00000000 </v>
   <v>       0.00000000       0.00000000       0.00000000 </v>
   <v>       0.00000000       0.00000000       0.00000000 </v>
   <v>       0.00000000       0.00000000       0.00000000 </v>
   <v>       0.00000000       0.00000000       0.00000000 </v>
   <v>       0.00000000       0.00000000       0.00000000 </v>
   <v>       0.00000000       0.00000000       0.00000000 </v>
   <v>       0.00000000       0.00000000       0.00000000 </v>
   <v>       0.00000000       0.00000000       0.00000000 </v>
   <v>       0.00000000       0.00000000       0.00000000 </v>
   <v>       0.00000000       0.00000000       0.00000000 </v>
   <v>       0.00000000       0.00000000       0.00000000 </v>
   <v>       0.00000000       0.00000000       0.00000000 </v>
   <v>       0.00000000       0.00000000       0.00000000 </v>
   <v>       0.00000000       0.00000000       0.00000000 </v>
   <v>       0.00000000       0.00000000       0.00000000 </v>
   <v>       0.00000000       0.00000000       0.00000000 </v>
   <v>       0.00000000       0.00000000       0.00000000 </v>
   <v>       0.00000000       0.00000000       0.00000000 </v>
   <v>       0.00000000       0.00000000       0.00000000 </v>
   <v>       0.00000000       0.00000000       0.00000000 </v>
   <v>       0.00000000       0.00000000       0.00000000 </v>
   <v>       0.00000000       0.00000000       0.00000000 </v>
   <v>       0.00000000       0.00000000       0.00000000 </v>
  </varray>
 </structure>
</modeling>
