 vasp.5.4.4.18Apr17-6-g9f103f2a35 (build Oct 31 2019 15:01:46) complex          
  
 executed on             LinuxIFC date 2024.04.30  01:12:10
 running on   52 total cores
 distrk:  each k-point on   52 cores,    1 groups
 distr:  one band on NCORES_PER_BAND=  13 cores,    4 groups


--------------------------------------------------------------------------------------------------------


 INCAR:
 POTCAR:    PAW_PBE Ca_sv 06Sep2000               
 POTCAR:    PAW_PBE Si 05Jan2001                  
 POTCAR:    PAW_PBE O 08Apr2002                   
 POTCAR:    PAW_PBE Ca_sv 06Sep2000               
   SHA256 =  a47365830e737f14e0e6c5cf1ed81b94e081eecf0a33df105380881bc9da05d5 Ca
   COPYR  = (c) Copyright 06Sep2000 Georg Kresse                                
   COPYR  = This file is part of the software VASP. Any use, copying, and all ot
   COPYR  = If you do not have a valid VASP license, you may not use, copy or di
   VRHFIN =Ca: 3s3p4s                                                           
   LEXCH  = PE                                                                  
   EATOM  =  1006.0909 eV,   73.9456 Ry                                         
                                                                                
   TITEL  = PAW_PBE Ca_sv 06Sep2000                                             
   LULTRA =        F    use ultrasoft PP ?                                      
   IUNSCR =        1    unscreen: 0-lin 1-nonlin 2-no                           
   RPACOR =    2.000    partial core radius                                     
   POMASS =   40.078; ZVAL   =   10.000    mass and valenz                      
   RCORE  =    2.300    outmost cutoff radius                                   
   RWIGS  =    2.500; RWIGS  =    1.323    wigner-seitz radius (au A)           
   ENMAX  =  266.622; ENMIN  =  199.967 eV                                      
   RCLOC  =    1.808    cutoff for local pot                                    
   LCOR   =        T    correct aug charges                                     
   LPAW   =        T    paw PP                                                  
   EAUG   =  420.852                                                            
   RMAX   =    2.359    core radius for proj-oper                               
   RAUG   =    1.300    factor for augmentation sphere                          
   RDEP   =    2.392    radius for radial grids                                 
   RDEPT  =    1.987    core radius for aug-charge                              
                                                                                
   Atomic configuration                                                         
    7 entries                                                                   
     n  l   j            E        occ.                                          
     1  0  0.50     -3949.1705   2.0000                                         
     2  0  0.50      -414.3434   2.0000                                         
     2  1  1.50      -334.7047   6.0000                                         
     3  0  0.50       -47.0896   2.0000                                         
     4  0  0.50        -3.7663   2.0000                                         
     3  1  1.50       -28.0061   6.0000                                         
     3  2  1.50        -4.0817   0.0000                                         
   Description                                                                  
     l       E           TYP  RCUT    TYP  RCUT                                 
     0    -47.0896403     23  2.300                                             
     0     -3.7663320     23  2.300                                             
     1    -28.0060855     23  2.300                                             
     1      6.8029130     23  2.300                                             
     2     -4.0817478     23  2.300                                             
     2      0.4464412     23  2.300                                             
  local pseudopotential read in
  partial core-charges read in
  partial kinetic energy density read in
  atomic valenz-charges read in
  non local Contribution for L=           0  read in
    real space projection operators read in
  non local Contribution for L=           0  read in
    real space projection operators read in
  non local Contribution for L=           1  read in
    real space projection operators read in
  non local Contribution for L=           1  read in
    real space projection operators read in
  non local Contribution for L=           2  read in
    real space projection operators read in
  non local Contribution for L=           2  read in
    real space projection operators read in
    PAW grid and wavefunctions read in
 
   number of l-projection  operators is LMAX  =           6
   number of lm-projection operators is LMMAX =          18
 
 POTCAR:    PAW_PBE Si 05Jan2001                  
   SHA256 =  79d9987ad8750f624c4d6acb2a16d13abf6a777132adc04dc6c8399be72b42bb Si
   COPYR  = (c) Copyright 05Jan2001 Georg Kresse                                
   COPYR  = This file is part of the software VASP. Any use, copying, and all ot
   COPYR  = If you do not have a valid VASP license, you may not use, copy or di
   VRHFIN =Si: s2p2                                                             
   LEXCH  = PE                                                                  
   EATOM  =   103.0669 eV,    7.5752 Ry                                         
                                                                                
   TITEL  = PAW_PBE Si 05Jan2001                                                
   LULTRA =        F    use ultrasoft PP ?                                      
   IUNSCR =        1    unscreen: 0-lin 1-nonlin 2-no                           
   RPACOR =    1.500    partial core radius                                     
   POMASS =   28.085; ZVAL   =    4.000    mass and valenz                      
   RCORE  =    1.900    outmost cutoff radius                                   
   RWIGS  =    2.480; RWIGS  =    1.312    wigner-seitz radius (au A)           
   ENMAX  =  245.345; ENMIN  =  184.009 eV                                      
   ICORE  =        2    local potential                                         
   LCOR   =        T    correct aug charges                                     
   LPAW   =        T    paw PP                                                  
   EAUG   =  322.069                                                            
   DEXC   =    0.000                                                            
   RMAX   =    1.950    core radius for proj-oper                               
   RAUG   =    1.300    factor for augmentation sphere                          
   RDEP   =    1.993    radius for radial grids                                 
   RDEPT  =    1.837    core radius for aug-charge                              
                                                                                
   Atomic configuration                                                         
    6 entries                                                                   
     n  l   j            E        occ.                                          
     1  0  0.50     -1785.8828   2.0000                                         
     2  0  0.50      -139.4969   2.0000                                         
     2  1  1.50       -95.5546   6.0000                                         
     3  0  0.50       -10.8127   2.0000                                         
     3  1  0.50        -4.0811   2.0000                                         
     3  2  1.50        -4.0817   0.0000                                         
   Description                                                                  
     l       E           TYP  RCUT    TYP  RCUT                                 
     0    -10.8127223     23  1.900                                             
     0     -7.6451159     23  1.900                                             
     1     -4.0811372     23  1.900                                             
     1      2.4879257     23  1.900                                             
     2     -4.0817478      7  1.900                                             
  local pseudopotential read in
  partial core-charges read in
  partial kinetic energy density read in
  atomic valenz-charges read in
  non local Contribution for L=           0  read in
    real space projection operators read in
  non local Contribution for L=           0  read in
    real space projection operators read in
  non local Contribution for L=           1  read in
    real space projection operators read in
  non local Contribution for L=           1  read in
    real space projection operators read in
    PAW grid and wavefunctions read in
 
   number of l-projection  operators is LMAX  =           4
   number of lm-projection operators is LMMAX =           8
 
 POTCAR:    PAW_PBE O 08Apr2002                   
   SHA256 =  818f92134a0a090dccd8ba1447fa70422a3b330e708bb4f08108d8ae51209ddf O/
   COPYR  = (c) Copyright 08Apr2002 Georg Kresse                                
   COPYR  = This file is part of the software VASP. Any use, copying, and all ot
   COPYR  = If you do not have a valid VASP license, you may not use, copy or di
   VRHFIN =O: s2p4                                                              
   LEXCH  = PE                                                                  
   EATOM  =   432.3788 eV,   31.7789 Ry                                         
                                                                                
   TITEL  = PAW_PBE O 08Apr2002                                                 
   LULTRA =        F    use ultrasoft PP ?                                      
   IUNSCR =        1    unscreen: 0-lin 1-nonlin 2-no                           
   RPACOR =    1.200    partial core radius                                     
   POMASS =   16.000; ZVAL   =    6.000    mass and valenz                      
   RCORE  =    1.520    outmost cutoff radius                                   
   RWIGS  =    1.550; RWIGS  =    0.820    wigner-seitz radius (au A)           
   ENMAX  =  400.000; ENMIN  =  300.000 eV                                      
   ICORE  =        2    local potential                                         
   LCOR   =        T    correct aug charges                                     
   LPAW   =        T    paw PP                                                  
   EAUG   =  605.392                                                            
   DEXC   =    0.000                                                            
   RMAX   =    1.553    core radius for proj-oper                               
   RAUG   =    1.300    factor for augmentation sphere                          
   RDEP   =    1.550    radius for radial grids                                 
   RDEPT  =    1.329    core radius for aug-charge                              
                                                                                
   Atomic configuration                                                         
    4 entries                                                                   
     n  l   j            E        occ.                                          
     1  0  0.50      -514.6923   2.0000                                         
     2  0  0.50       -23.9615   2.0000                                         
     2  1  0.50        -9.0305   4.0000                                         
     3  2  1.50        -9.5241   0.0000                                         
   Description                                                                  
     l       E           TYP  RCUT    TYP  RCUT                                 
     0    -23.9615318     23  1.200                                             
     0     -9.5240782     23  1.200                                             
     1     -9.0304911     23  1.520                                             
     1      8.1634956     23  1.520                                             
     2     -9.5240782      7  1.500                                             
  local pseudopotential read in
  partial core-charges read in
  partial kinetic energy density read in
  kinetic energy density of atom read in
  atomic valenz-charges read in
  non local Contribution for L=           0  read in
    real space projection operators read in
  non local Contribution for L=           0  read in
    real space projection operators read in
  non local Contribution for L=           1  read in
    real space projection operators read in
  non local Contribution for L=           1  read in
    real space projection operators read in
    PAW grid and wavefunctions read in
 
   number of l-projection  operators is LMAX  =           4
   number of lm-projection operators is LMMAX =           8
 
 Optimization of the real space projectors (new method)

 maximal supplied QI-value         = 16.25
 optimisation between [QCUT,QGAM] = [ 12.51, 25.03] = [ 43.85,175.40] Ry 
 Optimized for a Real-space Cutoff    1.47 Angstroem

   l    n(q)    QCUT    max X(q) W(low)/X(q) W(high)/X(q)  e(spline) 
   0     11    12.514    11.817    0.25E-04    0.32E-05    0.87E-07
   0     11    12.514     8.461    0.39E-04    0.59E-05    0.18E-06
   1     11    12.514     3.957    0.97E-05    0.57E-05    0.28E-07
   1     11    12.514     4.314    0.42E-04    0.14E-04    0.23E-06
   2     10    12.514    14.565    0.79E-04    0.50E-03    0.16E-05
   2     10    12.514    14.552    0.75E-04    0.48E-03    0.15E-05
 Optimization of the real space projectors (new method)

 maximal supplied QI-value         = 19.84
 optimisation between [QCUT,QGAM] = [ 12.50, 25.00] = [ 43.76,175.03] Ry 
 Optimized for a Real-space Cutoff    1.16 Angstroem

   l    n(q)    QCUT    max X(q) W(low)/X(q) W(high)/X(q)  e(spline) 
   0      9    12.501   159.560    0.10E-03    0.83E-04    0.71E-07
   0      9    12.501   115.863    0.99E-04    0.81E-04    0.70E-07
   1      8    12.501    88.339    0.20E-03    0.25E-03    0.76E-07
   1      8    12.501    48.592    0.20E-03    0.24E-03    0.75E-07
 Optimization of the real space projectors (new method)

 maximal supplied QI-value         = 24.76
 optimisation between [QCUT,QGAM] = [ 12.38, 25.00] = [ 42.90,175.06] Ry 
 Optimized for a Real-space Cutoff    1.16 Angstroem

   l    n(q)    QCUT    max X(q) W(low)/X(q) W(high)/X(q)  e(spline) 
   0      9    12.378    20.381    0.16E-03    0.67E-05    0.31E-06
   0      9    12.378    15.268    0.17E-03    0.81E-05    0.33E-06
   1      8    12.378     5.964    0.20E-03    0.16E-03    0.30E-06
   1      8    12.378     5.382    0.18E-03    0.14E-03    0.26E-06
  PAW_PBE Ca_sv 06Sep2000               :
 energy of atom  1       EATOM=-1006.0909
 kinetic energy error for atom=    0.0012 (will be added to EATOM!!)
  PAW_PBE Si 05Jan2001                  :
 energy of atom  2       EATOM= -103.0669
 kinetic energy error for atom=    0.0003 (will be added to EATOM!!)
  PAW_PBE O 08Apr2002                   :
 energy of atom  3       EATOM= -432.3788
 kinetic energy error for atom=    0.0168 (will be added to EATOM!!)
 
 
 POSCAR: Ca Si  O                                
  positions in direct lattice
  No initial velocities read in
 exchange correlation table for  LEXCH =        8
   RHO(1)=    0.500       N(1)  =     2000
   RHO(2)=  100.500       N(2)  =     4000
 


--------------------------------------------------------------------------------------------------------


 ion  position               nearest neighbor table
   1  0.116  0.541  0.922-  68 2.13 112 2.13  99 2.47  39 2.90  42 2.99
   2  0.834  0.547  0.883- 133 2.09  68 2.11 113 2.30  79 2.37  32 2.97
   3  0.433  0.285  0.257-  74 2.22 121 2.23 101 2.42 118 2.47 122 2.51  41 2.86   7 3.10  27 3.15

   4  0.932  0.133  0.602- 100 1.89 125 2.03  64 2.32  63 2.32 129 2.44  10 2.68  23 2.76  26 2.81
                            52 2.83  47 2.85  51 2.86  29 2.90
   5  0.528  0.041  0.843- 102 1.86  73 2.16 108 2.20  62 2.34  78 2.37  43 2.63  47 2.75  50 3.10

   6  0.035  0.907  0.171-  75 2.09  81 2.10  71 2.13  93 2.41  67 2.47  38 2.71
   7  0.567  0.273  0.027- 121 1.96 120 2.15 102 2.38  34 3.01   3 3.10
   8  0.974  0.570  0.482-  92 1.86  95 2.42  28 2.98  31 3.16
   9  0.123  0.440  0.261- 118 2.18  56 2.21  92 2.27 109 2.30 124 2.47  60 2.50  27 2.78  38 3.04
                            31 3.15
  10  0.927  0.980  0.774-  91 2.08  61 2.12 129 2.19 107 2.48 100 2.57  47 2.65   4 2.68  42 2.98
                            18 3.00
  11  0.437  0.562  0.783-  87 2.34  70 2.35  53 2.87
  12  0.309  0.993  0.327- 122 2.40 111 2.47  41 3.04
  13  0.753  0.306  0.257-  94 2.02  65 2.07 105 2.34  30 2.34 101 2.38  80 2.38  26 3.07  54 3.13
                            37 3.15
  14  0.769  0.627  0.245-  95 2.14  79 2.44  94 2.48  80 2.55 103 2.55  17 2.62  46 3.14  38 3.14

  15  0.808  0.066  0.123-  65 1.93 131 2.02 107 2.12  81 2.48  34 2.67  54 3.07
  16  0.347  0.815  0.964- 119 2.15  58 2.24 108 2.50  48 2.98
  17  0.591  0.586  0.114- 120 2.16 130 2.27 104 2.33  76 2.34  94 2.51  14 2.62
  18  0.819  0.778  0.656- 113 2.20  98 2.26  69 2.26 110 2.29  10 3.00  35 3.02
  19  0.267  0.309  0.770-  62 2.15 128 2.17  66 2.32  57 2.34  83 2.55  43 2.85  51 3.11
  20  0.472  0.266  0.579-  55 2.30  66 2.33  74 2.43  97 2.53  33 2.90  43 3.11  37 3.12
  21  0.032  0.196  0.973-  57 2.20 107 2.24 134 2.36  63 2.45  27 2.74  40 2.76  34 2.98
  22  0.685  0.322  0.745- 126 2.11  87 2.19  59 2.34 123 2.36  34 2.91  47 3.02  35 3.15
  23  0.870  0.022  0.403- 131 2.05 105 2.05 100 2.32 135 2.39  69 2.40  46 2.75   4 2.76  54 2.86

  24  0.505  0.677  0.405- 127 1.91 104 2.50  37 2.87  48 3.12
  25  0.532  0.988  0.514- 122 2.28 135 2.28 132 2.28  88 2.42  96 2.43  78 2.47  41 2.62  36 2.91

  26  0.830  0.331  0.509- 125 2.09  55 2.23 124 2.23 105 2.35  80 2.41   4 2.81  13 3.07
  27  0.195  0.250  0.135- 118 2.28 106 2.31  57 2.47 109 2.48  21 2.74   9 2.78  54 2.90   3 3.15

  28  0.052  0.808  0.429-  93 1.74  69 1.84  75 1.88  84 1.92 114 2.05  44 2.86  31 2.89   8 2.98

  29  0.100  0.254  0.462-  64 1.43 106 1.84  60 1.87  72 1.88 124 1.94  54 2.71   4 2.90  52 2.91

  30  0.845  0.366  0.087-  94 1.58 133 1.60  65 1.63 109 2.07  59 2.11  13 2.34  34 3.03
  31  0.230  0.634  0.417-  92 1.58  84 1.64 116 1.71 127 1.81  33 2.71  28 2.89  44 2.90  48 3.02
                             9 3.15   8 3.16
  32  0.779  0.786  0.954-  91 1.66  86 1.67  79 1.73 113 1.81  53 2.36  42 2.75   2 2.97
  33  0.313  0.424  0.469-  66 1.54  60 1.58  74 1.80 116 1.81  31 2.71  20 2.90
  34  0.782  0.174  0.922- 126 1.51 107 1.60  59 1.77 102 1.81  65 2.29  15 2.67  47 2.79  22 2.91
                            21 2.98   7 3.01  30 3.03
  35  0.675  0.564  0.624- 123 1.49 110 1.52  70 1.75  97 1.86  37 2.86  18 3.02  22 3.15
  36  0.458  0.823  0.688-  58 1.54  77 1.64  96 1.65  78 1.76  70 2.36  88 2.40  44 2.76  25 2.91
                            53 2.95
  37  0.594  0.448  0.423-  97 1.59  80 1.63 104 1.69  74 1.75  55 2.27  35 2.86  24 2.87  20 3.12
                            13 3.15
  38  0.030  0.675  0.192-  56 1.63  95 1.85  93 1.93  71 1.94   6 2.71   9 3.04  14 3.14
  39  0.100  0.679  0.715-  99 1.51  98 1.59 114 1.77  90 1.93  68 2.43  42 2.66   1 2.90  44 2.92

  40  0.220  0.059  0.925-  57 1.61 108 1.65 134 1.73  82 1.86  85 2.10  50 2.50  21 2.76  43 2.77

  41  0.556  0.078  0.309- 101 1.59 135 1.63 122 1.72 111 1.81 132 1.96  25 2.62  49 2.83   3 2.86
                            46 2.88  12 3.04
  42  0.010  0.774  0.903-  68 1.44  90 1.64  91 1.66  71 1.83  39 2.66  32 2.75  10 2.98   1 2.99

  43  0.342  0.081  0.721-  78 1.60  62 1.65 128 1.65  82 1.76 108 2.44 115 2.47  52 2.53   5 2.63
                            40 2.77  19 2.85  20 3.11
  44  0.249  0.826  0.576- 115 1.71  88 1.77 114 1.79  77 1.83  84 1.88  36 2.76  52 2.85  28 2.86
                            31 2.90  39 2.92
  45  0.352  0.459  0.057-  83 1.41 118 1.63 120 1.72  76 1.83
  46  0.704  0.880  0.313- 117 1.58 103 1.59 131 1.67 132 1.86 135 2.31  49 2.67  23 2.75  41 2.88
                            14 3.14
  47  0.726  0.067  0.715-  61 1.56  73 1.57 126 1.59 100 1.79  10 2.65   5 2.75  34 2.79   4 2.85
                            22 3.02
  48  0.343  0.697  0.192-  76 1.64 127 1.71  89 1.75  67 1.96  16 2.98  31 3.02  24 3.12
  49  0.536  0.890  0.156-  89 1.56 119 1.69 117 1.79 111 1.92 132 2.09  86 2.39  46 2.67  41 2.83
                            50 2.90
  50  0.384  0.065  0.065-  85 1.52 121 1.67 108 1.75 111 1.77 119 1.98  40 2.50  49 2.90   5 3.10

  51  0.006  0.337  0.718- 125 1.47 112 1.49  72 1.58  63 1.86   4 2.86  19 3.11
  52  0.163  0.054  0.600- 115 1.45 129 1.70 128 1.73  64 1.98  82 2.31  43 2.53   4 2.83  44 2.85
                            29 2.91
  53  0.616  0.716  0.855- 130 1.40 113 1.60  58 2.00  70 2.04  32 2.36  86 2.36  11 2.87  36 2.95

  54  0.994  0.185  0.267-  81 1.47 106 1.52 105 1.79 109 1.93 124 2.54  29 2.71  23 2.86  27 2.90
                            15 3.07  13 3.13
  55  0.648  0.272  0.488-  26 2.23  37 2.27  20 2.30
  56  0.134  0.593  0.148-  38 1.63   9 2.21
  57  0.216  0.198  0.930-  40 1.61  21 2.20  19 2.34  27 2.47
  58  0.471  0.800  0.817-  36 1.54  53 2.00  16 2.24
  59  0.762  0.325  0.931-  34 1.77  30 2.11  22 2.34
  60  0.232  0.332  0.412-  33 1.58  29 1.87   9 2.50
  61  0.747  0.958  0.791-  47 1.56  10 2.12
  62  0.408  0.191  0.782-  43 1.65  19 2.15   5 2.34
  63  0.039  0.187  0.763-  51 1.86   4 2.32  21 2.45
  64  0.084  0.132  0.472-  29 1.43  52 1.98   4 2.32
  65  0.816  0.231  0.108-  30 1.63  15 1.93  13 2.07  34 2.29
  66  0.321  0.396  0.599-  33 1.54  19 2.32  20 2.33
  67  0.224  0.812  0.160-  48 1.96   6 2.47
  68  0.979  0.656  0.884-  42 1.44   2 2.11   1 2.13  39 2.43
  69  0.919  0.850  0.505-  28 1.84  18 2.26  23 2.40
  70  0.584  0.665  0.690-  35 1.75  53 2.04  11 2.35  36 2.36
  71  0.992  0.769  0.059-  42 1.83  38 1.94   6 2.13
  72  0.087  0.318  0.610-  51 1.58  29 1.88
  73  0.601  0.112  0.688-  47 1.57   5 2.16
  74  0.454  0.393  0.414-  37 1.75  33 1.80   3 2.22  20 2.43
  75  0.089  0.938  0.340-  28 1.88   6 2.09
  76  0.392  0.607  0.095-  48 1.64  45 1.83  17 2.34
  77  0.338  0.748  0.679-  36 1.64  44 1.83
  78  0.415  0.969  0.690-  43 1.60  36 1.76   5 2.37  25 2.47
  79  0.805  0.670  0.043-  32 1.73   2 2.37  14 2.44
  80  0.728  0.463  0.385-  37 1.63  13 2.38  26 2.41  14 2.55
  81  0.009  0.085  0.191-  54 1.47   6 2.10  15 2.48
  82  0.231  0.996  0.778-  43 1.76  40 1.86  52 2.31
  83  0.345  0.419  0.943-  45 1.41  19 2.55
  84  0.214  0.774  0.427-  31 1.64  44 1.88  28 1.92
  85  0.260  0.041  0.100-  50 1.52  40 2.10
  86  0.660  0.855  0.997-  32 1.67  53 2.36  49 2.39
  87  0.509  0.374  0.787-  22 2.19  11 2.34
  88  0.378  0.849  0.499-  44 1.77  36 2.40  25 2.42
  89  0.470  0.776  0.180-  49 1.56  48 1.75
  90  0.109  0.814  0.811-  42 1.64  39 1.93
  91  0.890  0.852  0.894-  32 1.66  42 1.66  10 2.08
  92  0.120  0.554  0.419-  31 1.58   8 1.86   9 2.27
  93  0.967  0.772  0.312-  28 1.74  38 1.93   6 2.41
  94  0.747  0.440  0.146-  30 1.58  13 2.02  14 2.48  17 2.51
  95  0.942  0.572  0.276-  38 1.85  14 2.14   8 2.42
  96  0.590  0.874  0.680-  36 1.65  25 2.43
  97  0.578  0.455  0.559-  37 1.59  35 1.86  20 2.53
  98  0.967  0.656  0.688-  39 1.59  18 2.26
  99  0.208  0.614  0.745-  39 1.51   1 2.47
 100  0.810  0.027  0.593-  47 1.79   4 1.89  23 2.32  10 2.57
 101  0.604  0.172  0.222-  41 1.59  13 2.38   3 2.42
 102  0.642  0.106  0.935-  34 1.81   5 1.86   7 2.38
 103  0.769  0.790  0.393-  46 1.59  14 2.55
 104  0.560  0.502  0.293-  37 1.69  17 2.33  24 2.50
 105  0.878  0.194  0.368-  54 1.79  23 2.05  13 2.34  26 2.35
 106  0.114  0.208  0.311-  54 1.52  29 1.84  27 2.31
 107  0.878  0.081  0.955-  34 1.60  15 2.12  21 2.24  10 2.48
 108  0.358  0.025  0.923-  40 1.65  50 1.75   5 2.20  43 2.44  16 2.50
 109  0.996  0.319  0.170-  54 1.93  30 2.07   9 2.30  27 2.48
 110  0.721  0.653  0.539-  35 1.52  18 2.29
 111  0.465  0.036  0.190-  50 1.77  41 1.81  49 1.92  12 2.47
 112  0.038  0.435  0.794-  51 1.49   1 2.13
 113  0.749  0.714  0.819-  53 1.60  32 1.81  18 2.20   2 2.30
 114  0.106  0.770  0.593-  39 1.77  44 1.79  28 2.05
 115  0.249  0.972  0.564-  52 1.45  44 1.71  43 2.47
 116  0.331  0.574  0.505-  31 1.71  33 1.81
 117  0.675  0.832  0.189-  46 1.58  49 1.79
 118  0.288  0.418  0.175-  45 1.63   9 2.18  27 2.28   3 2.47
 119  0.478  0.928  0.029-  49 1.69  50 1.98  16 2.15
 120  0.493  0.430  0.090-  45 1.72   7 2.15  17 2.16
 121  0.426  0.201  0.085-  50 1.67   7 1.96   3 2.23
 122  0.449  0.125  0.401-  41 1.72  25 2.28  12 2.40   3 2.51
 123  0.768  0.494  0.675-  35 1.49  22 2.36
 124  0.986  0.357  0.400-  29 1.94  26 2.23   9 2.47  54 2.54
 125  0.899  0.291  0.670-  51 1.47   4 2.03  26 2.09
 126  0.771  0.170  0.793-  34 1.51  47 1.59  22 2.11
 127  0.358  0.660  0.333-  48 1.71  31 1.81  24 1.91
 128  0.247  0.164  0.655-  43 1.65  52 1.73  19 2.17
 129  0.053  0.965  0.635-  52 1.70  10 2.19   4 2.44
 130  0.549  0.671  0.943-  53 1.40  17 2.27
 131  0.814  0.950  0.252-  46 1.67  15 2.02  23 2.05
 132  0.548  0.912  0.334-  46 1.86  41 1.96  49 2.09  25 2.28
 133  0.915  0.421  0.982-  30 1.60   2 2.09
 134  0.087  0.001  0.956-  40 1.73  21 2.36
 135  0.668  0.058  0.392-  41 1.63  25 2.28  46 2.31  23 2.39
 

IMPORTANT INFORMATION: All symmetrisations will be switched off!
NOSYMM: (Re-)initialisation of all symmetry stuff for point group C_1.

 
 

Automatic generation of k-mesh.
 generate k-points for:    2    2    2
Space group operators:
 irot       det(A)        alpha          n_x          n_y          n_z        tau_x        tau_y        tau_z
    1     1.000000     0.000001     1.000000     0.000000     0.000000     0.000000     0.000000     0.000000
 
 Subroutine IBZKPT returns following result:
 ===========================================
 
 Found      8 irreducible k-points:
 
 Following reciprocal coordinates:
            Coordinates               Weight
  0.000000  0.000000  0.000000      1.000000
  0.500000  0.000000  0.000000      1.000000
  0.000000  0.500000  0.000000      1.000000
  0.500000  0.500000  0.000000      1.000000
  0.000000  0.000000  0.500000      1.000000
  0.500000  0.000000  0.500000      1.000000
  0.000000  0.500000  0.500000      1.000000
  0.500000  0.500000  0.500000      1.000000
 
 Following cartesian coordinates:
            Coordinates               Weight
  0.000000  0.000000  0.000000      1.000000
  0.042999  0.000000  0.000000      1.000000
  0.000000  0.042999  0.000000      1.000000
  0.042999  0.042999  0.000000      1.000000
  0.000000  0.000000  0.042999      1.000000
  0.042999  0.000000  0.042999      1.000000
  0.000000  0.042999  0.042999      1.000000
  0.042999  0.042999  0.042999      1.000000
 


--------------------------------------------------------------------------------------------------------




 Dimension of arrays:
   k-points           NKPTS =      8   k-points in BZ     NKDIM =      8   number of bands    NBANDS=    520
   number of dos      NEDOS =    301   number of ions     NIONS =    135
   non local maximal  LDIM  =      6   non local SUM 2l+1 LMDIM =     18
   total plane-waves  NPLWV = 884736
   max r-space proj   IRMAX =   7548   max aug-charges    IRDMAX= 214954
   dimension x,y,z NGX =    96 NGY =   96 NGZ =   96
   dimension x,y,z NGXF=   192 NGYF=  192 NGZF=  192
   support grid    NGXF=   384 NGYF=  384 NGZF=  384
   ions per type =              27  27  81
   NGX,Y,Z   is equivalent  to a cutoff of  13.72, 13.72, 13.72 a.u.
   NGXF,Y,Z  is equivalent  to a cutoff of  27.45, 27.45, 27.45 a.u.

 SYSTEM =  unknown system                          
 POSCAR =  Ca Si  O                                

 Startparameter for this run:
   NWRITE =      2    write-flag & timer
   PREC   = a         normal or accurate (medium, high low for compatibility)
   ISTART =      0    job   : 0-new  1-cont  2-samecut
   ICHARG =      2    charge: 1-file 2-atom 10-const
   ISPIN  =      1    spin polarized calculation?
   LNONCOLLINEAR =      F non collinear calculations
   LSORBIT =      F    spin-orbit coupling
   INIWAV =      1    electr: 0-lowe 1-rand  2-diag
   LASPH  =      F    aspherical Exc in radial PAW
   METAGGA=      F    non-selfconsistent MetaGGA calc.

 Electronic Relaxation 1
   ENCUT  =  600.0 eV  44.10 Ry    6.64 a.u.  23.22 23.22 23.22*2*pi/ulx,y,z
   ENINI  =  600.0     initial cutoff
   ENAUG  =  605.4 eV  augmentation charge cutoff
   NELM   =     60;   NELMIN=  2; NELMDL= -5     # of ELM steps 
   EDIFF  = 0.1E-05   stopping-criterion for ELM
   LREAL  =      T    real-space projection
   NLSPLINE    = F    spline interpolate recip. space projectors
   LCOMPAT=      F    compatible to vasp.4.4
   GGA_COMPAT  = T    GGA compatible to vasp.4.4-vasp.4.6
   LMAXPAW     = -100 max onsite density
   LMAXMIX     =    2 max onsite mixed and CHGCAR
   VOSKOWN=      0    Vosko Wilk Nusair interpolation
   ROPT   =   -0.00025  -0.00025  -0.00025
 Ionic relaxation
   EDIFFG = -.1E-01   stopping-criterion for IOM
   NSW    =      1    number of steps for IOM
   NBLOCK =      1;   KBLOCK =      1    inner block; outer block 
   IBRION =     -1    ionic relax: 0-MD 1-quasi-New 2-CG
   NFREE  =      0    steps in history (QN), initial steepest desc. (CG)
   ISIF   =      2    stress and relaxation
   IWAVPR =     10    prediction:  0-non 1-charg 2-wave 3-comb
   ISYM   =      0    0-nonsym 1-usesym 2-fastsym
   LCORR  =      T    Harris-Foulkes like correction to forces

   POTIM  = 1.0000    time-step for ionic-motion
   TEIN   =    0.0    initial temperature
   TEBEG  =    0.0;   TEEND  =   0.0 temperature during run
   SMASS  =  -3.00    Nose mass-parameter (am)
   estimated Nose-frequenzy (Omega)   =  0.10E-29 period in steps =****** mass=  -0.309E-26a.u.
   SCALEE = 1.0000    scale energy and forces
   NPACO  =    256;   APACO  = 16.0  distance and # of slots for P.C.
   PSTRESS=    0.0 pullay stress

  Mass of Ions in am
   POMASS =  40.08 28.09 16.00
  Ionic Valenz
   ZVAL   =  10.00  4.00  6.00
  Atomic Wigner-Seitz radii
   RWIGS  =  -1.00 -1.00 -1.00
  virtual crystal weights 
   VCA    =   1.00  1.00  1.00
   NELECT =     864.0000    total number of electrons
   NUPDOWN=      -1.0000    fix difference up-down

 DOS related values:
   EMIN   =  10.00;   EMAX   =-10.00  energy-range for DOS
   EFERMI =   0.00
   ISMEAR =     0;   SIGMA  =   0.05  broadening in eV -4-tet -1-fermi 0-gaus

 Electronic relaxation 2 (details)
   IALGO  =     38    algorithm
   LDIAG  =      T    sub-space diagonalisation (order eigenvalues)
   LSUBROT=      F    optimize rotation matrix (better conditioning)
   TURBO    =      0    0=normal 1=particle mesh
   IRESTART =      0    0=no restart 2=restart with 2 vectors
   NREBOOT  =      0    no. of reboots
   NMIN     =      0    reboot dimension
   EREF     =   0.00    reference energy to select bands
   IMIX   =      4    mixing-type and parameters
     AMIX     =   0.40;   BMIX     =  1.00
     AMIX_MAG =   1.60;   BMIX_MAG =  1.00
     AMIN     =   0.10
     WC   =   100.;   INIMIX=   1;  MIXPRE=   1;  MAXMIX= -45

 Intra band minimization:
   WEIMIN = 0.0000     energy-eigenvalue tresh-hold
   EBREAK =  0.48E-09  absolut break condition
   DEPER  =   0.30     relativ break condition  

   TIME   =   0.40     timestep for ELM

  volume/ion in A,a.u.               =      11.65        78.60
  Fermi-wavevector in a.u.,A,eV,Ry     =   1.340915  2.533962 24.463997  1.798053
  Thomas-Fermi vector in A             =   2.469190
 
 Write flags
   LWAVE        =      F    write WAVECAR
   LDOWNSAMPLE  =      F    k-point downsampling of WAVECAR
   LCHARG       =      F    write CHGCAR
   LVTOT        =      F    write LOCPOT, total local potential
   LVHAR        =      F    write LOCPOT, Hartree potential only
   LELF         =      F    write electronic localiz. function (ELF)
   LORBIT       =      0    0 simple, 1 ext, 2 COOP (PROOUT), +10 PAW based schemes


 Dipole corrections
   LMONO  =      F    monopole corrections only (constant potential shift)
   LDIPOL =      F    correct potential (dipole corrections)
   IDIPOL =      0    1-x, 2-y, 3-z, 4-all directions 
   EPSILON=  1.0000000 bulk dielectric constant

 Exchange correlation treatment:
   GGA     =    --    GGA type
   LEXCH   =     8    internal setting for exchange type
   VOSKOWN=      0    Vosko Wilk Nusair interpolation
   LHFCALC =     F    Hartree Fock is set to
   LHFONE  =     F    Hartree Fock one center treatment
   AEXX    =    0.0000 exact exchange contribution

 Linear response parameters
   LEPSILON=     F    determine dielectric tensor
   LRPA    =     F    only Hartree local field effects (RPA)
   LNABLA  =     F    use nabla operator in PAW spheres
   LVEL    =     F    velocity operator in full k-point grid
   LINTERFAST=   F  fast interpolation
   KINTER  =     0    interpolate to denser k-point grid
   CSHIFT  =0.1000    complex shift for real part using Kramers Kronig
   OMEGAMAX=  -1.0    maximum frequency
   DEG_THRESHOLD= 0.2000000E-02 threshold for treating states as degnerate
   RTIME   =   -0.100 relaxation time in fs
  (WPLASMAI=    0.000 imaginary part of plasma frequency in eV, 0.658/RTIME)
   DFIELD  = 0.0000000 0.0000000 0.0000000 field for delta impulse in time
 
 Orbital magnetization related:
   ORBITALMAG=     F  switch on orbital magnetization
   LCHIMAG   =     F  perturbation theory with respect to B field
   DQ        =  0.001000  dq finite difference perturbation B field
   LLRAUG    =     F  two centre corrections for induced B field



--------------------------------------------------------------------------------------------------------


 Static calculation
 charge density and potential will be updated during run
 non-spin polarized calculation
 Variant of blocked Davidson
 Davidson routine will perform the subspace rotation
 perform sub-space diagonalisation
    after iterative eigenvector-optimisation
 modified Broyden-mixing scheme, WC =      100.0
 initial mixing is a Kerker type mixing with AMIX =  0.4000 and BMIX =      1.0000
 Hartree-type preconditioning will be used
 using additional bands           88
 real space projection scheme for non local part
 use partial core corrections
 calculate Harris-corrections to forces 
   (improved forces if not selfconsistent)
 use gradient corrections 
 use of overlap-Matrix (Vanderbilt PP)
 Gauss-broadening in eV      SIGMA  =   0.05


--------------------------------------------------------------------------------------------------------


  energy-cutoff  :      600.00
  volume of cell :     1572.30
      direct lattice vectors                 reciprocal lattice vectors
    11.628173330  0.000000000  0.000000000     0.085998030  0.000000000  0.000000000
     0.000000000 11.628173330  0.000000000     0.000000000  0.085998030  0.000000000
     0.000000000  0.000000000 11.628173330     0.000000000  0.000000000  0.085998030

  length of vectors
    11.628173330 11.628173330 11.628173330     0.085998030  0.085998030  0.085998030


 
 k-points in units of 2pi/SCALE and weight: read from INCAR                         
   0.00000000  0.00000000  0.00000000       0.125
   0.04299902  0.00000000  0.00000000       0.125
   0.00000000  0.04299902  0.00000000       0.125
   0.04299902  0.04299902  0.00000000       0.125
   0.00000000  0.00000000  0.04299902       0.125
   0.04299902  0.00000000  0.04299902       0.125
   0.00000000  0.04299902  0.04299902       0.125
   0.04299902  0.04299902  0.04299902       0.125
 
 k-points in reciprocal lattice and weights: read from INCAR                         
   0.00000000  0.00000000  0.00000000       0.125
   0.50000000  0.00000000  0.00000000       0.125
   0.00000000  0.50000000  0.00000000       0.125
   0.50000000  0.50000000  0.00000000       0.125
   0.00000000  0.00000000  0.50000000       0.125
   0.50000000  0.00000000  0.50000000       0.125
   0.00000000  0.50000000  0.50000000       0.125
   0.50000000  0.50000000  0.50000000       0.125
 
 position of ions in fractional coordinates (direct lattice) 
   0.11581792  0.54096755  0.92169866
   0.83350098  0.54689324  0.88275005
   0.43297594  0.28532021  0.25734550
   0.93248424  0.13321131  0.60238593
   0.52819515  0.04137305  0.84277088
   0.03463558  0.90738385  0.17100708
   0.56696883  0.27289128  0.02709212
   0.97414534  0.56983279  0.48225821
   0.12301978  0.44040164  0.26075602
   0.92740406  0.97981479  0.77412184
   0.43716120  0.56210543  0.78273320
   0.30941522  0.99262031  0.32700158
   0.75346095  0.30619840  0.25673637
   0.76935511  0.62673556  0.24531936
   0.80769517  0.06568807  0.12296164
   0.34667615  0.81457370  0.96409802
   0.59136577  0.58621933  0.11394099
   0.81941577  0.77791183  0.65560036
   0.26745887  0.30920457  0.77005976
   0.47230999  0.26594571  0.57858399
   0.03195928  0.19578071  0.97301981
   0.68518656  0.32189006  0.74468955
   0.86960624  0.02185765  0.40274965
   0.50473440  0.67710646  0.40514936
   0.53193291  0.98802189  0.51425789
   0.82959395  0.33119327  0.50872656
   0.19455164  0.25029645  0.13453978
   0.05223053  0.80827290  0.42923138
   0.10039929  0.25373070  0.46241622
   0.84477792  0.36574227  0.08730481
   0.22950443  0.63442220  0.41715514
   0.77881867  0.78579159  0.95355210
   0.31339051  0.42361380  0.46905967
   0.78154150  0.17416846  0.92222768
   0.67511961  0.56446789  0.62399479
   0.45759424  0.82337039  0.68782122
   0.59373555  0.44789377  0.42345713
   0.02971523  0.67515004  0.19203052
   0.09966862  0.67938984  0.71515957
   0.22026826  0.05948428  0.92523203
   0.55582468  0.07843424  0.30946831
   0.00986680  0.77436535  0.90282092
   0.34173229  0.08105414  0.72111754
   0.24871463  0.82588618  0.57603254
   0.35206331  0.45928473  0.05708743
   0.70376707  0.87951150  0.31256667
   0.72555928  0.06737060  0.71521163
   0.34270346  0.69702884  0.19191032
   0.53630514  0.89022932  0.15602317
   0.38364894  0.06549392  0.06503118
   0.00628572  0.33691212  0.71814895
   0.16302256  0.05425383  0.60016122
   0.61625729  0.71618051  0.85453887
   0.99385319  0.18495542  0.26716132
   0.64838469  0.27224659  0.48833932
   0.13433511  0.59337093  0.14835338
   0.21597981  0.19818267  0.92969717
   0.47071297  0.79973621  0.81722662
   0.76196764  0.32493253  0.93099108
   0.23179224  0.33169362  0.41156196
   0.74714006  0.95834402  0.79105852
   0.40840151  0.19056448  0.78158470
   0.03913344  0.18711376  0.76267190
   0.08376248  0.13222799  0.47169609
   0.81601881  0.23052877  0.10817343
   0.32133342  0.39599355  0.59868945
   0.22377547  0.81204400  0.16006025
   0.97890339  0.65608761  0.88429646
   0.91912350  0.84960031  0.50465482
   0.58411304  0.66506066  0.68992693
   0.99213454  0.76892248  0.05904877
   0.08717370  0.31784641  0.61046198
   0.60137250  0.11246539  0.68793210
   0.45421797  0.39316670  0.41362050
   0.08933715  0.93770352  0.33992804
   0.39216252  0.60717516  0.09480421
   0.33849934  0.74796296  0.67882527
   0.41495431  0.96855978  0.69025068
   0.80461154  0.67005334  0.04294311
   0.72790708  0.46313721  0.38536673
   0.00898431  0.08510906  0.19055949
   0.23055022  0.99633736  0.77817432
   0.34548156  0.41901095  0.94329614
   0.21415397  0.77429616  0.42655954
   0.25972637  0.04128369  0.10036021
   0.66040775  0.85489277  0.99655228
   0.50948543  0.37392854  0.78712168
   0.37798438  0.84929313  0.49874193
   0.46988055  0.77616697  0.17956255
   0.10937625  0.81412145  0.81148564
   0.88989364  0.85181772  0.89382106
   0.11991716  0.55448894  0.41923432
   0.96664394  0.77168199  0.31162244
   0.74670907  0.43964753  0.14599161
   0.94242060  0.57197512  0.27630399
   0.58990760  0.87384756  0.67974693
   0.57759088  0.45524521  0.55894201
   0.96737951  0.65598528  0.68788506
   0.20805829  0.61394126  0.74462271
   0.80956169  0.02699108  0.59319884
   0.60357148  0.17159334  0.22174373
   0.64231006  0.10640082  0.93473894
   0.76876494  0.78958090  0.39279354
   0.55983556  0.50201823  0.29290773
   0.87798315  0.19447791  0.36810785
   0.11445817  0.20753588  0.31149396
   0.87783537  0.08103086  0.95540573
   0.35768226  0.02502015  0.92270747
   0.99569871  0.31947735  0.17032167
   0.72109154  0.65293082  0.53905581
   0.46539703  0.03569360  0.18987628
   0.03781315  0.43486135  0.79447992
   0.74890313  0.71370730  0.81917393
   0.10604870  0.76971722  0.59259238
   0.24896595  0.97205212  0.56404998
   0.33122084  0.57438251  0.50525790
   0.67489459  0.83153740  0.18878221
   0.28826483  0.41770314  0.17497738
   0.47779610  0.92848996  0.02872125
   0.49295354  0.43026313  0.08983385
   0.42570051  0.20133427  0.08522388
   0.44931174  0.12490670  0.40134893
   0.76840154  0.49373972  0.67503537
   0.98568425  0.35739238  0.40039915
   0.89870430  0.29106646  0.66981299
   0.77131078  0.17004160  0.79312192
   0.35813406  0.66041275  0.33338204
   0.24713308  0.16368532  0.65492157
   0.05318602  0.96467884  0.63527188
   0.54930729  0.67090252  0.94337302
   0.81360420  0.94956865  0.25209808
   0.54824278  0.91218275  0.33407773
   0.91480877  0.42132502  0.98225646
   0.08710931  0.00129809  0.95608548
   0.66796761  0.05783781  0.39157890
 
 position of ions in cartesian coordinates  (Angst):
   1.34675084  6.29046438 10.71767181
   9.69209386  6.35936942 10.26477059
   5.03471931  3.31775282  2.99245813
  10.84308838  1.54900420  7.00464797
   6.14194470  0.48109304  9.79988583
   0.40274857 10.55121668  1.98849994
   6.59281187  3.17322714  0.31503187
  11.32753084  6.62611450  5.60778202
   1.43049537  5.12106666  3.03211616
  10.78401510 11.39345617  9.00162294
   5.08338615  6.53625937  9.10175737
   3.59793384 11.54236105  3.80243100
   8.76137456  3.56052809  2.98537501
   8.94619458  7.28778969  2.85261599
   9.39201939  0.76383231  1.42981931
   4.03121036  9.47200423 11.21069887
   6.87650369  6.81665998  1.32492554
   9.52830865  9.04569354  7.62343461
   3.11005808  3.59548436  8.95438836
   5.49210242  3.09246284  6.72787497
   0.37162809  2.27657208 11.31444303
   7.96746803  3.74299344  8.65937921
  10.11193207  0.25416452  4.68324270
   5.86913914  7.87351126  4.71114697
   6.18540802 11.48888974  5.97987991
   9.64666225  3.85117280  5.91556056
   2.26228014  2.91049056  1.56445183
   0.60734565  9.39873739  4.99117683
   1.16746033  2.95042457  5.37705595
   9.82322412  4.25291452  1.01519544
   2.66871734  7.37717128  4.85075223
   9.05623850  9.13732084 11.08806909
   3.64415919  4.92585466  5.45430720
   9.08790001  2.02526101 10.72382328
   7.85040782  6.56373041  7.25591959
   5.32098519  9.57429364  7.99810433
   6.90405994  5.20818639  4.92403291
   0.34553384  7.85076169  2.23296421
   1.15896396  7.90006279  8.31599939
   2.56131746  0.69169355 10.75875837
   6.46322572  0.91204696  3.59855112
   0.11473284  9.00445454 10.49815817
   3.97372226  0.94251158  8.38527974
   2.89209685  9.60354762  6.69820620
   4.09385323  5.34064248  0.66382254
   8.18352545 10.22711214  3.63457939
   8.43692912  0.78339700  8.31660481
   3.98501529  8.10517216  2.23156644
   6.23624918 10.35174087  1.81426448
   4.46113635  0.76157471  0.75619388
   0.07309140  3.91767251  8.35076049
   1.89565455  0.63087293  6.97877865
   7.16594664  8.32787108  9.93672610
  11.55669715  2.15069369  3.10659816
   7.53952951  3.16573051  5.67849421
   1.56207194  6.89981997  1.72507877
   2.51145068  2.30450239 10.81067987
   5.47353198  9.29947125  9.50285279
   8.86029174  3.77837173 10.82572562
   2.69532029  3.85699090  4.78571383
   8.68787416 11.14379033  9.19856563
   4.74896351  2.21591684  9.08840239
   0.45505038  2.17579118  8.86848102
   0.97400459  1.53756995  5.48496387
   9.48880814  2.68062853  1.25785944
   3.73652071  4.60468159  6.96166464
   2.60210000  9.44258838  1.86120834
  11.38285826  7.62910040 10.28275253
  10.68772735  9.87929970  5.86821376
   6.79216767  7.73344059  8.02258988
  11.53671235  8.94116393  0.68662930
   1.01367093  3.69597311  7.09855777
   6.99286367  1.30776702  7.99939374
   5.28172530  4.57181053  4.80965081
   1.03882782 10.90377906  3.95274212
   4.56013381  7.06033799  1.10239981
   3.93612897  8.69744292  7.89349795
   4.82516064 11.26258105  8.02635451
   9.35616240  7.79149633  0.49934988
   8.46422964  5.38543981  4.48111116
   0.10447114  0.98966285  2.21585874
   2.68087792 11.58558357  9.04874591
   4.01731952  4.87233201 10.96881103
   2.49021950  9.00364998  4.96010827
   3.02014320  0.48005393  1.16700588
   7.67933580  9.94084132 11.58808263
   5.92438494  4.34810591  9.15278729
   4.39526790  9.87572776  5.79945757
   5.46385248  9.02540402  2.08798442
   1.27184597  9.46674534  9.43609564
  10.34783752  9.90508409 10.39350618
   1.39441751  6.44769352  4.87492938
  11.24030326  8.97325189  3.62359972
   8.68286246  5.11229773  1.69761569
  10.95863006  6.65102583  3.21291065
   6.85954785 10.16125088  7.90421510
   6.71632681  5.29367022  6.49947459
  11.24885657  7.62791051  7.99884667
   2.41933783  7.13901543  8.65860190
   9.41372368  0.31385691  6.89781891
   7.01843378  1.99531714  2.57847447
   7.46889272  1.23724718 10.86930638
   8.93933194  9.18138357  4.56747137
   6.50986488  5.83755499  3.40598184
  10.20934023  2.26142281  4.28042186
   1.33093942  2.41326324  3.62210575
  10.20762188  0.94224086 11.10962343
   4.15919126  0.29093865 10.72940236
  11.57815715  3.71493803  1.98052989
   8.38497743  7.59239280  6.26823439
   5.41171730  0.41505142  2.20791431
   0.43969786  5.05664319  9.23835023
   8.70837544  8.29911219  9.52549639
   1.23315268  8.95040522  6.89076688
   2.89501918 11.30319048  6.55887089
   3.85149332  6.67901940  5.87522647
   7.84779132  9.66926101  2.19519221
   3.35199338  4.85712456  2.03466732
   5.55589588 10.79664215  0.33397564
   5.73214915  5.00317421  1.04460354
   4.95011932  2.34114974  0.99099802
   5.22467481  1.45243677  4.66695496
   8.93510634  5.74129100  7.84942832
  11.46170732  4.15582052  4.65591075
  10.45028941  3.38457122  7.78870154
   8.96893548  1.97727318  9.22255911
   4.16444495  7.67939389  3.87662416
   2.87370625  1.90336126  7.61554155
   0.61845629 11.21745274  7.38705157
   6.38744043  7.80137076 10.96970498
   9.46073065 11.04174882  2.93144013
   6.37506203 10.60701916  3.88471371
  10.63755498  4.89924036 11.42184835
   1.01292215  0.01509444 11.11752769
   7.76724313  0.67254812  4.55334732
 


--------------------------------------------------------------------------------------------------------


 k-point  1 :   0.0000 0.0000 0.0000  plane waves:   52515
 k-point  2 :   0.5000 0.0000 0.0000  plane waves:   52518
 k-point  3 :   0.0000 0.5000 0.0000  plane waves:   52518
 k-point  4 :   0.5000 0.5000 0.0000  plane waves:   52456
 k-point  5 :   0.0000 0.0000 0.5000  plane waves:   52518
 k-point  6 :   0.5000 0.0000 0.5000  plane waves:   52456
 k-point  7 :   0.0000 0.5000 0.5000  plane waves:   52456
 k-point  8 :   0.5000 0.5000 0.5000  plane waves:   52568

 maximum and minimum number of plane-waves per node :      4066     3984

 maximum number of plane-waves:     52568
 maximum index in each direction: 
   IXMAX=   23   IYMAX=   23   IZMAX=   23
   IXMIN=  -23   IYMIN=  -23   IZMIN=  -23


 real space projection operators:
  total allocation   :      51803.22 KBytes
  max/ min on nodes  :       4331.55       3752.70


 parallel 3D FFT for wavefunctions:
    minimum data exchange during FFTs selected (reduces bandwidth)
 parallel 3D FFT for charge:
    minimum data exchange during FFTs selected (reduces bandwidth)


 total amount of memory used by VASP MPI-rank0   158177. kBytes
=======================================================================

   base      :      30000. kBytes
   nonlr-proj:      22626. kBytes
   fftplans  :      23353. kBytes
   grid      :      12472. kBytes
   one-center:        171. kBytes
   wavefun   :      69555. kBytes
 
     INWAV:  cpu time    0.0000: real time    0.0000
 Broyden mixing: mesh for mixing (old mesh)
   NGX = 47   NGY = 47   NGZ = 47
  (NGX  =192   NGY  =192   NGZ  =192)
  gives a total of 103823 points

 initial charge density was supplied:
 charge density of overlapping atoms calculated
 number of electron     864.0000000 magnetization 
 keeping initial charge density in first step


--------------------------------------------------------------------------------------------------------


 Maximum index for non-local projection operator          866
 Maximum index for augmentation-charges         7880 (set IRDMAX)


--------------------------------------------------------------------------------------------------------


 First call to EWALD:  gamma=   0.152
 Maximum number of real-space cells 3x 3x 3
 Maximum number of reciprocal cells 3x 3x 3

    FEWALD:  cpu time    0.0049: real time    0.0049


--------------------------------------- Iteration      1(   1)  ---------------------------------------


    POTLOK:  cpu time    0.1161: real time    0.1239
    SETDIJ:  cpu time    0.3686: real time    0.3686
     EDDAV:  cpu time   34.5201: real time   34.5219
       DOS:  cpu time    0.0024: real time    0.0024
    --------------------------------------------
      LOOP:  cpu time   35.0072: real time   35.0168

 eigenvalue-minimisations  :  8320
 total energy-change (2. order) : 0.9754753E+04  (-0.4839599E+05)
 number of electron     864.0000000 magnetization 
 augmentation part      864.0000000 magnetization 

 Free energy of the ion-electron system (eV)
  ---------------------------------------------------
  alpha Z        PSCENC =      3039.22321400
  Ewald energy   TEWEN  =    -48264.30753988
  -Hartree energ DENC   =    -16424.11948531
  -exchange      EXHF   =         0.00000000
  -V(xc)+E(xc)   XCENC  =      3194.03672382
  PAW double counting   =     50594.51003143   -49994.65612350
  entropy T*S    EENTRO =        -0.03615360
  eigenvalues    EBANDS =      2641.56160203
  atomic energy  EATOM  =     64968.54023382
  Solvation  Ediel_sol  =         0.00000000
  ---------------------------------------------------
  free energy    TOTEN  =      9754.75250281 eV

  energy without entropy =     9754.78865641  energy(sigma->0) =     9754.77057961


--------------------------------------------------------------------------------------------------------




--------------------------------------- Iteration      1(   2)  ---------------------------------------


     EDDAV:  cpu time   38.8607: real time   38.8670
       DOS:  cpu time    0.0010: real time    0.0010
    --------------------------------------------
      LOOP:  cpu time   38.8617: real time   38.8680

 eigenvalue-minimisations  :  9744
 total energy-change (2. order) :-0.9665730E+04  (-0.9341277E+04)
 number of electron     864.0000000 magnetization 
 augmentation part      864.0000000 magnetization 

 Free energy of the ion-electron system (eV)
  ---------------------------------------------------
  alpha Z        PSCENC =      3039.22321400
  Ewald energy   TEWEN  =    -48264.30753988
  -Hartree energ DENC   =    -16424.11948531
  -exchange      EXHF   =         0.00000000
  -V(xc)+E(xc)   XCENC  =      3194.03672382
  PAW double counting   =     50594.51003143   -49994.65612350
  entropy T*S    EENTRO =        -0.00000000
  eigenvalues    EBANDS =     -7024.20475380
  atomic energy  EATOM  =     64968.54023382
  Solvation  Ediel_sol  =         0.00000000
  ---------------------------------------------------
  free energy    TOTEN  =        89.02230059 eV

  energy without entropy =       89.02230059  energy(sigma->0) =       89.02230059


--------------------------------------------------------------------------------------------------------




--------------------------------------- Iteration      1(   3)  ---------------------------------------


     EDDAV:  cpu time   40.5957: real time   40.6159
       DOS:  cpu time    0.0009: real time    0.0009
    --------------------------------------------
      LOOP:  cpu time   40.5966: real time   40.6168

 eigenvalue-minimisations  : 10288
 total energy-change (2. order) :-0.1069335E+04  (-0.1061198E+04)
 number of electron     864.0000000 magnetization 
 augmentation part      864.0000000 magnetization 

 Free energy of the ion-electron system (eV)
  ---------------------------------------------------
  alpha Z        PSCENC =      3039.22321400
  Ewald energy   TEWEN  =    -48264.30753988
  -Hartree energ DENC   =    -16424.11948531
  -exchange      EXHF   =         0.00000000
  -V(xc)+E(xc)   XCENC  =      3194.03672382
  PAW double counting   =     50594.51003143   -49994.65612350
  entropy T*S    EENTRO =        -0.00000000
  eigenvalues    EBANDS =     -8093.53967468
  atomic energy  EATOM  =     64968.54023382
  Solvation  Ediel_sol  =         0.00000000
  ---------------------------------------------------
  free energy    TOTEN  =      -980.31262029 eV

  energy without entropy =     -980.31262029  energy(sigma->0) =     -980.31262029


--------------------------------------------------------------------------------------------------------




--------------------------------------- Iteration      1(   4)  ---------------------------------------


     EDDAV:  cpu time   44.2897: real time   44.2943
       DOS:  cpu time    0.0009: real time    0.0009
    --------------------------------------------
      LOOP:  cpu time   44.2906: real time   44.2952

 eigenvalue-minimisations  : 11480
 total energy-change (2. order) :-0.5151538E+02  (-0.5132447E+02)
 number of electron     864.0000000 magnetization 
 augmentation part      864.0000000 magnetization 

 Free energy of the ion-electron system (eV)
  ---------------------------------------------------
  alpha Z        PSCENC =      3039.22321400
  Ewald energy   TEWEN  =    -48264.30753988
  -Hartree energ DENC   =    -16424.11948531
  -exchange      EXHF   =         0.00000000
  -V(xc)+E(xc)   XCENC  =      3194.03672382
  PAW double counting   =     50594.51003143   -49994.65612350
  entropy T*S    EENTRO =        -0.00000000
  eigenvalues    EBANDS =     -8145.05505470
  atomic energy  EATOM  =     64968.54023382
  Solvation  Ediel_sol  =         0.00000000
  ---------------------------------------------------
  free energy    TOTEN  =     -1031.82800031 eV

  energy without entropy =    -1031.82800031  energy(sigma->0) =    -1031.82800031


--------------------------------------------------------------------------------------------------------




--------------------------------------- Iteration      1(   5)  ---------------------------------------


     EDDAV:  cpu time   53.8711: real time   53.8902
       DOS:  cpu time    0.0010: real time    0.0010
    CHARGE:  cpu time    1.3562: real time    1.3562
    MIXING:  cpu time    0.0094: real time    0.0097
    --------------------------------------------
      LOOP:  cpu time   55.2377: real time   55.2572

 eigenvalue-minimisations  : 14464
 total energy-change (2. order) :-0.5124058E+01  (-0.5121154E+01)
 number of electron     864.0000007 magnetization 
 augmentation part      133.2500987 magnetization 

 Broyden mixing:
  rms(total) = 0.86616E+01    rms(broyden)= 0.86610E+01
  rms(prec ) = 0.10304E+02
  weight for this iteration     100.00

 Free energy of the ion-electron system (eV)
  ---------------------------------------------------
  alpha Z        PSCENC =      3039.22321400
  Ewald energy   TEWEN  =    -48264.30753988
  -Hartree energ DENC   =    -16424.11948531
  -exchange      EXHF   =         0.00000000
  -V(xc)+E(xc)   XCENC  =      3194.03672382
  PAW double counting   =     50594.51003143   -49994.65612350
  entropy T*S    EENTRO =        -0.00000000
  eigenvalues    EBANDS =     -8150.17911317
  atomic energy  EATOM  =     64968.54023382
  Solvation  Ediel_sol  =         0.00000000
  ---------------------------------------------------
  free energy    TOTEN  =     -1036.95205878 eV

  energy without entropy =    -1036.95205878  energy(sigma->0) =    -1036.95205878


--------------------------------------------------------------------------------------------------------




--------------------------------------- Iteration      1(   6)  ---------------------------------------


    POTLOK:  cpu time    0.1165: real time    0.1253
    SETDIJ:  cpu time    0.3810: real time    0.3810
     EDDAV:  cpu time   38.8580: real time   38.8627
       DOS:  cpu time    0.0009: real time    0.0009
    CHARGE:  cpu time    1.3183: real time    1.3184
    MIXING:  cpu time    0.0074: real time    0.0075
    --------------------------------------------
      LOOP:  cpu time   40.6820: real time   40.6957

 eigenvalue-minimisations  :  9752
 total energy-change (2. order) : 0.1466642E+03  (-0.6562113E+02)
 number of electron     864.0000006 magnetization 
 augmentation part      119.9798470 magnetization 

 Broyden mixing:
  rms(total) = 0.37674E+01    rms(broyden)= 0.37664E+01
  rms(prec ) = 0.40074E+01
  weight for this iteration     100.00

 eigenvalues of (default mixing * dielectric matrix)
  average eigenvalue GAMMA=   1.0339
  1.0339

 Free energy of the ion-electron system (eV)
  ---------------------------------------------------
  alpha Z        PSCENC =      3039.22321400
  Ewald energy   TEWEN  =    -48264.30753988
  -Hartree energ DENC   =    -17742.68287961
  -exchange      EXHF   =         0.00000000
  -V(xc)+E(xc)   XCENC  =      3282.88745825
  PAW double counting   =     66365.01888326   -65904.76812651
  entropy T*S    EENTRO =        -0.00000000
  eigenvalues    EBANDS =     -6634.19906975
  atomic energy  EATOM  =     64968.54023382
  Solvation  Ediel_sol  =         0.00000000
  ---------------------------------------------------
  free energy    TOTEN  =      -890.28782641 eV

  energy without entropy =     -890.28782641  energy(sigma->0) =     -890.28782641


--------------------------------------------------------------------------------------------------------




--------------------------------------- Iteration      1(   7)  ---------------------------------------


    POTLOK:  cpu time    0.1302: real time    0.1494
    SETDIJ:  cpu time    0.3736: real time    0.3736
     EDDAV:  cpu time   42.1860: real time   42.1879
       DOS:  cpu time    0.0009: real time    0.0009
    CHARGE:  cpu time    1.3075: real time    1.3081
    MIXING:  cpu time    0.0068: real time    0.0068
    --------------------------------------------
      LOOP:  cpu time   44.0050: real time   44.0268

 eigenvalue-minimisations  : 10848
 total energy-change (2. order) :-0.1060995E+01  (-0.7411734E+01)
 number of electron     864.0000006 magnetization 
 augmentation part      118.9844166 magnetization 

 Broyden mixing:
  rms(total) = 0.18030E+01    rms(broyden)= 0.18030E+01
  rms(prec ) = 0.19912E+01
  weight for this iteration     100.00

 eigenvalues of (default mixing * dielectric matrix)
  average eigenvalue GAMMA=   1.2128
  1.2128  1.2128

 Free energy of the ion-electron system (eV)
  ---------------------------------------------------
  alpha Z        PSCENC =      3039.22321400
  Ewald energy   TEWEN  =    -48264.30753988
  -Hartree energ DENC   =    -17810.03400977
  -exchange      EXHF   =         0.00000000
  -V(xc)+E(xc)   XCENC  =      3285.88701354
  PAW double counting   =     80528.43699788   -80123.65873539
  entropy T*S    EENTRO =        -0.00000000
  eigenvalues    EBANDS =     -6515.43599543
  atomic energy  EATOM  =     64968.54023382
  Solvation  Ediel_sol  =         0.00000000
  ---------------------------------------------------
  free energy    TOTEN  =      -891.34882122 eV

  energy without entropy =     -891.34882122  energy(sigma->0) =     -891.34882122


--------------------------------------------------------------------------------------------------------




--------------------------------------- Iteration      1(   8)  ---------------------------------------


    POTLOK:  cpu time    0.1228: real time    0.1272
    SETDIJ:  cpu time    0.3676: real time    0.3676
     EDDAV:  cpu time   41.4774: real time   41.4789
       DOS:  cpu time    0.0009: real time    0.0009
    CHARGE:  cpu time    1.2960: real time    1.2960
    MIXING:  cpu time    0.0080: real time    0.0080
    --------------------------------------------
      LOOP:  cpu time   43.2727: real time   43.2786

 eigenvalue-minimisations  : 10632
 total energy-change (2. order) : 0.1534748E+01  (-0.1051990E+01)
 number of electron     864.0000006 magnetization 
 augmentation part      119.0433043 magnetization 

 Broyden mixing:
  rms(total) = 0.77711E+00    rms(broyden)= 0.77704E+00
  rms(prec ) = 0.89934E+00
  weight for this iteration     100.00

 eigenvalues of (default mixing * dielectric matrix)
  average eigenvalue GAMMA=   1.3420
  2.1074  0.9593  0.9593

 Free energy of the ion-electron system (eV)
  ---------------------------------------------------
  alpha Z        PSCENC =      3039.22321400
  Ewald energy   TEWEN  =    -48264.30753988
  -Hartree energ DENC   =    -17810.28062423
  -exchange      EXHF   =         0.00000000
  -V(xc)+E(xc)   XCENC  =      3284.78524575
  PAW double counting   =     89038.95797863   -88672.23072407
  entropy T*S    EENTRO =        -0.00000000
  eigenvalues    EBANDS =     -6474.50185761
  atomic energy  EATOM  =     64968.54023382
  Solvation  Ediel_sol  =         0.00000000
  ---------------------------------------------------
  free energy    TOTEN  =      -889.81407357 eV

  energy without entropy =     -889.81407357  energy(sigma->0) =     -889.81407357


--------------------------------------------------------------------------------------------------------




--------------------------------------- Iteration      1(   9)  ---------------------------------------


    POTLOK:  cpu time    0.1318: real time    0.1495
    SETDIJ:  cpu time    0.3735: real time    0.3735
     EDDAV:  cpu time   43.5659: real time   43.5672
       DOS:  cpu time    0.0010: real time    0.0010
    CHARGE:  cpu time    1.3018: real time    1.3018
    MIXING:  cpu time    0.0069: real time    0.0069
    --------------------------------------------
      LOOP:  cpu time   45.3809: real time   45.4000

 eigenvalue-minimisations  : 11296
 total energy-change (2. order) : 0.3329743E+00  (-0.2555992E+00)
 number of electron     864.0000006 magnetization 
 augmentation part      118.4821465 magnetization 

 Broyden mixing:
  rms(total) = 0.23303E+00    rms(broyden)= 0.23301E+00
  rms(prec ) = 0.28726E+00
  weight for this iteration     100.00

 eigenvalues of (default mixing * dielectric matrix)
  average eigenvalue GAMMA=   1.3098
  2.3085  1.0259  0.9524  0.9524

 Free energy of the ion-electron system (eV)
  ---------------------------------------------------
  alpha Z        PSCENC =      3039.22321400
  Ewald energy   TEWEN  =    -48264.30753988
  -Hartree energ DENC   =    -17875.88426291
  -exchange      EXHF   =         0.00000000
  -V(xc)+E(xc)   XCENC  =      3288.75859599
  PAW double counting   =     95513.12184388   -95169.41114440
  entropy T*S    EENTRO =        -0.00000000
  eigenvalues    EBANDS =     -6389.52203982
  atomic energy  EATOM  =     64968.54023382
  Solvation  Ediel_sol  =         0.00000000
  ---------------------------------------------------
  free energy    TOTEN  =      -889.48109931 eV

  energy without entropy =     -889.48109931  energy(sigma->0) =     -889.48109931


--------------------------------------------------------------------------------------------------------




--------------------------------------- Iteration      1(  10)  ---------------------------------------


    POTLOK:  cpu time    0.0997: real time    0.1053
    SETDIJ:  cpu time    0.3641: real time    0.3641
     EDDAV:  cpu time   43.3758: real time   43.3769
       DOS:  cpu time    0.0009: real time    0.0009
    CHARGE:  cpu time    1.3021: real time    1.3022
    MIXING:  cpu time    0.0082: real time    0.0082
    --------------------------------------------
      LOOP:  cpu time   45.1508: real time   45.1575

 eigenvalue-minimisations  : 11240
 total energy-change (2. order) :-0.5583494E-01  (-0.1081548E+00)
 number of electron     864.0000006 magnetization 
 augmentation part      118.3433955 magnetization 

 Broyden mixing:
  rms(total) = 0.16453E+00    rms(broyden)= 0.16451E+00
  rms(prec ) = 0.19263E+00
  weight for this iteration     100.00

 eigenvalues of (default mixing * dielectric matrix)
  average eigenvalue GAMMA=   1.2234
  2.3779  1.2526  0.9668  0.7599  0.7599

 Free energy of the ion-electron system (eV)
  ---------------------------------------------------
  alpha Z        PSCENC =      3039.22321400
  Ewald energy   TEWEN  =    -48264.30753988
  -Hartree energ DENC   =    -17893.84497477
  -exchange      EXHF   =         0.00000000
  -V(xc)+E(xc)   XCENC  =      3289.76947917
  PAW double counting   =     96674.80160070   -96333.47369900
  entropy T*S    EENTRO =        -0.00000000
  eigenvalues    EBANDS =     -6370.24524831
  atomic energy  EATOM  =     64968.54023382
  Solvation  Ediel_sol  =         0.00000000
  ---------------------------------------------------
  free energy    TOTEN  =      -889.53693426 eV

  energy without entropy =     -889.53693426  energy(sigma->0) =     -889.53693426


--------------------------------------------------------------------------------------------------------




--------------------------------------- Iteration      1(  11)  ---------------------------------------


    POTLOK:  cpu time    0.1309: real time    0.1582
    SETDIJ:  cpu time    0.3835: real time    0.3835
     EDDAV:  cpu time   43.9944: real time   43.9954
       DOS:  cpu time    0.0010: real time    0.0010
    CHARGE:  cpu time    1.3014: real time    1.3014
    MIXING:  cpu time    0.0077: real time    0.0077
    --------------------------------------------
      LOOP:  cpu time   45.8189: real time   45.8473

 eigenvalue-minimisations  : 11392
 total energy-change (2. order) :-0.7805523E-03  (-0.1545527E-01)
 number of electron     864.0000006 magnetization 
 augmentation part      118.3405481 magnetization 

 Broyden mixing:
  rms(total) = 0.93880E-01    rms(broyden)= 0.93876E-01
  rms(prec ) = 0.11117E+00
  weight for this iteration     100.00

 eigenvalues of (default mixing * dielectric matrix)
  average eigenvalue GAMMA=   1.2855
  2.5014  1.6888  1.0101  0.8796  0.8796  0.7532

 Free energy of the ion-electron system (eV)
  ---------------------------------------------------
  alpha Z        PSCENC =      3039.22321400
  Ewald energy   TEWEN  =    -48264.30753988
  -Hartree energ DENC   =    -17900.29052859
  -exchange      EXHF   =         0.00000000
  -V(xc)+E(xc)   XCENC  =      3290.08586725
  PAW double counting   =     96725.16934947   -96383.05328516
  entropy T*S    EENTRO =        -0.00000000
  eigenvalues    EBANDS =     -6364.90502573
  atomic energy  EATOM  =     64968.54023382
  Solvation  Ediel_sol  =         0.00000000
  ---------------------------------------------------
  free energy    TOTEN  =      -889.53771481 eV

  energy without entropy =     -889.53771481  energy(sigma->0) =     -889.53771481


--------------------------------------------------------------------------------------------------------




--------------------------------------- Iteration      1(  12)  ---------------------------------------


    POTLOK:  cpu time    0.1214: real time    0.1257
    SETDIJ:  cpu time    0.3712: real time    0.3712
     EDDAV:  cpu time   41.8131: real time   41.8169
       DOS:  cpu time    0.0010: real time    0.0010
    CHARGE:  cpu time    1.3066: real time    1.3067
    MIXING:  cpu time    0.0078: real time    0.0078
    --------------------------------------------
      LOOP:  cpu time   43.6212: real time   43.6293

 eigenvalue-minimisations  : 10744
 total energy-change (2. order) :-0.2670532E-02  (-0.4180415E-02)
 number of electron     864.0000006 magnetization 
 augmentation part      118.3311355 magnetization 

 Broyden mixing:
  rms(total) = 0.36003E-01    rms(broyden)= 0.35998E-01
  rms(prec ) = 0.46296E-01
  weight for this iteration     100.00

 eigenvalues of (default mixing * dielectric matrix)
  average eigenvalue GAMMA=   1.3253
  2.5205  2.3320  1.0101  1.0101  0.8460  0.8460  0.7124

 Free energy of the ion-electron system (eV)
  ---------------------------------------------------
  alpha Z        PSCENC =      3039.22321400
  Ewald energy   TEWEN  =    -48264.30753988
  -Hartree energ DENC   =    -17906.42422366
  -exchange      EXHF   =         0.00000000
  -V(xc)+E(xc)   XCENC  =      3290.35402407
  PAW double counting   =     96666.61448106   -96323.05795318
  entropy T*S    EENTRO =        -0.00000000
  eigenvalues    EBANDS =     -6360.48262159
  atomic energy  EATOM  =     64968.54023382
  Solvation  Ediel_sol  =         0.00000000
  ---------------------------------------------------
  free energy    TOTEN  =      -889.54038534 eV

  energy without entropy =     -889.54038534  energy(sigma->0) =     -889.54038534


--------------------------------------------------------------------------------------------------------




--------------------------------------- Iteration      1(  13)  ---------------------------------------


    POTLOK:  cpu time    0.1194: real time    0.1375
    SETDIJ:  cpu time    0.3826: real time    0.3826
     EDDAV:  cpu time   46.0501: real time   46.0531
       DOS:  cpu time    0.0010: real time    0.0010
    CHARGE:  cpu time    1.3010: real time    1.3010
    MIXING:  cpu time    0.0090: real time    0.0090
    --------------------------------------------
      LOOP:  cpu time   47.8630: real time   47.8843

 eigenvalue-minimisations  : 12104
 total energy-change (2. order) :-0.2065112E-02  (-0.2036178E-02)
 number of electron     864.0000006 magnetization 
 augmentation part      118.3468873 magnetization 

 Broyden mixing:
  rms(total) = 0.17709E-01    rms(broyden)= 0.17707E-01
  rms(prec ) = 0.22925E-01
  weight for this iteration     100.00

 eigenvalues of (default mixing * dielectric matrix)
  average eigenvalue GAMMA=   1.3113
  2.7380  2.4366  0.8726  0.8726  0.9928  0.9928  0.9062  0.6786

 Free energy of the ion-electron system (eV)
  ---------------------------------------------------
  alpha Z        PSCENC =      3039.22321400
  Ewald energy   TEWEN  =    -48264.30753988
  -Hartree energ DENC   =    -17908.33632487
  -exchange      EXHF   =         0.00000000
  -V(xc)+E(xc)   XCENC  =      3290.38189899
  PAW double counting   =     96494.92131444   -96150.12409892
  entropy T*S    EENTRO =        -0.00000000
  eigenvalues    EBANDS =     -6359.84114804
  atomic energy  EATOM  =     64968.54023382
  Solvation  Ediel_sol  =         0.00000000
  ---------------------------------------------------
  free energy    TOTEN  =      -889.54245045 eV

  energy without entropy =     -889.54245045  energy(sigma->0) =     -889.54245045


--------------------------------------------------------------------------------------------------------




--------------------------------------- Iteration      1(  14)  ---------------------------------------


    POTLOK:  cpu time    0.1190: real time    0.1232
    SETDIJ:  cpu time    0.3836: real time    0.3836
     EDDAV:  cpu time   44.0646: real time   44.0674
       DOS:  cpu time    0.0010: real time    0.0010
    CHARGE:  cpu time    1.3018: real time    1.3019
    MIXING:  cpu time    0.0081: real time    0.0081
    --------------------------------------------
      LOOP:  cpu time   45.8781: real time   45.8851

 eigenvalue-minimisations  : 11480
 total energy-change (2. order) :-0.5348860E-03  (-0.7310654E-03)
 number of electron     864.0000006 magnetization 
 augmentation part      118.3471808 magnetization 

 Broyden mixing:
  rms(total) = 0.11407E-01    rms(broyden)= 0.11405E-01
  rms(prec ) = 0.13659E-01
  weight for this iteration     100.00

 eigenvalues of (default mixing * dielectric matrix)
  average eigenvalue GAMMA=   1.2781
  2.7607  2.4715  1.1056  1.1056  0.8768  0.8768  0.8062  0.8062  0.6939

 Free energy of the ion-electron system (eV)
  ---------------------------------------------------
  alpha Z        PSCENC =      3039.22321400
  Ewald energy   TEWEN  =    -48264.30753988
  -Hartree energ DENC   =    -17909.80490171
  -exchange      EXHF   =         0.00000000
  -V(xc)+E(xc)   XCENC  =      3290.43831982
  PAW double counting   =     96448.80645188   -96103.70910610
  entropy T*S    EENTRO =        -0.00000000
  eigenvalues    EBANDS =     -6358.72965718
  atomic energy  EATOM  =     64968.54023382
  Solvation  Ediel_sol  =         0.00000000
  ---------------------------------------------------
  free energy    TOTEN  =      -889.54298534 eV

  energy without entropy =     -889.54298534  energy(sigma->0) =     -889.54298534


--------------------------------------------------------------------------------------------------------




--------------------------------------- Iteration      1(  15)  ---------------------------------------


    POTLOK:  cpu time    0.1291: real time    0.1481
    SETDIJ:  cpu time    0.3736: real time    0.3736
     EDDAV:  cpu time   41.8368: real time   41.8416
       DOS:  cpu time    0.0009: real time    0.0009
    CHARGE:  cpu time    1.3052: real time    1.3052
    MIXING:  cpu time    0.0074: real time    0.0074
    --------------------------------------------
      LOOP:  cpu time   43.6530: real time   43.6768

 eigenvalue-minimisations  : 10752
 total energy-change (2. order) :-0.5915224E-04  (-0.1092004E-03)
 number of electron     864.0000006 magnetization 
 augmentation part      118.3518455 magnetization 

 Broyden mixing:
  rms(total) = 0.69547E-02    rms(broyden)= 0.69542E-02
  rms(prec ) = 0.85182E-02
  weight for this iteration     100.00

 eigenvalues of (default mixing * dielectric matrix)
  average eigenvalue GAMMA=   1.3476
  3.0679  2.2996  2.0313  0.8986  0.8986  0.9745  0.9745  0.8253  0.8253  0.6803

 Free energy of the ion-electron system (eV)
  ---------------------------------------------------
  alpha Z        PSCENC =      3039.22321400
  Ewald energy   TEWEN  =    -48264.30753988
  -Hartree energ DENC   =    -17909.91842297
  -exchange      EXHF   =         0.00000000
  -V(xc)+E(xc)   XCENC  =      3290.43120961
  PAW double counting   =     96444.68696523   -96099.62161141
  entropy T*S    EENTRO =        -0.00000000
  eigenvalues    EBANDS =     -6358.57709289
  atomic energy  EATOM  =     64968.54023382
  Solvation  Ediel_sol  =         0.00000000
  ---------------------------------------------------
  free energy    TOTEN  =      -889.54304449 eV

  energy without entropy =     -889.54304449  energy(sigma->0) =     -889.54304449


--------------------------------------------------------------------------------------------------------




--------------------------------------- Iteration      1(  16)  ---------------------------------------


    POTLOK:  cpu time    0.1003: real time    0.1044
    SETDIJ:  cpu time    0.3644: real time    0.3665
     EDDAV:  cpu time   39.8256: real time   39.8282
       DOS:  cpu time    0.0009: real time    0.0009
    CHARGE:  cpu time    1.3136: real time    1.3137
    MIXING:  cpu time    0.0086: real time    0.0085
    --------------------------------------------
      LOOP:  cpu time   41.6134: real time   41.6223

 eigenvalue-minimisations  : 10088
 total energy-change (2. order) :-0.1045842E-04  (-0.3723088E-04)
 number of electron     864.0000006 magnetization 
 augmentation part      118.3485630 magnetization 

 Broyden mixing:
  rms(total) = 0.26798E-02    rms(broyden)= 0.26789E-02
  rms(prec ) = 0.33508E-02
  weight for this iteration     100.00

 eigenvalues of (default mixing * dielectric matrix)
  average eigenvalue GAMMA=   1.3399
  3.1367  2.3805  2.3805  0.8813  0.8813  0.9718  0.9718  0.8487  0.8487  0.7588
  0.6784

 Free energy of the ion-electron system (eV)
  ---------------------------------------------------
  alpha Z        PSCENC =      3039.22321400
  Ewald energy   TEWEN  =    -48264.30753988
  -Hartree energ DENC   =    -17910.62988594
  -exchange      EXHF   =         0.00000000
  -V(xc)+E(xc)   XCENC  =      3290.45929328
  PAW double counting   =     96461.28904445   -96116.37130675
  entropy T*S    EENTRO =        -0.00000000
  eigenvalues    EBANDS =     -6357.74610795
  atomic energy  EATOM  =     64968.54023382
  Solvation  Ediel_sol  =         0.00000000
  ---------------------------------------------------
  free energy    TOTEN  =      -889.54305495 eV

  energy without entropy =     -889.54305495  energy(sigma->0) =     -889.54305495


--------------------------------------------------------------------------------------------------------




--------------------------------------- Iteration      1(  17)  ---------------------------------------


    POTLOK:  cpu time    0.1284: real time    0.1512
    SETDIJ:  cpu time    0.3733: real time    0.3733
     EDDAV:  cpu time   45.0461: real time   45.0483
       DOS:  cpu time    0.0010: real time    0.0010
    CHARGE:  cpu time    1.3070: real time    1.3070
    MIXING:  cpu time    0.0085: real time    0.0084
    --------------------------------------------
      LOOP:  cpu time   46.8641: real time   46.8892

 eigenvalue-minimisations  : 11792
 total energy-change (2. order) :-0.1556046E-04  (-0.2255614E-04)
 number of electron     864.0000006 magnetization 
 augmentation part      118.3495518 magnetization 

 Broyden mixing:
  rms(total) = 0.16073E-02    rms(broyden)= 0.16063E-02
  rms(prec ) = 0.19433E-02
  weight for this iteration     100.00

 eigenvalues of (default mixing * dielectric matrix)
  average eigenvalue GAMMA=   1.3133
  3.2711  2.3831  2.3831  1.0025  1.0025  0.8362  0.8362  0.9941  0.8731  0.8731
  0.6954  0.6087

 Free energy of the ion-electron system (eV)
  ---------------------------------------------------
  alpha Z        PSCENC =      3039.22321400
  Ewald energy   TEWEN  =    -48264.30753988
  -Hartree energ DENC   =    -17910.62825530
  -exchange      EXHF   =         0.00000000
  -V(xc)+E(xc)   XCENC  =      3290.45535672
  PAW double counting   =     96462.43611150   -96117.56114374
  entropy T*S    EENTRO =        -0.00000000
  eigenvalues    EBANDS =     -6357.70104764
  atomic energy  EATOM  =     64968.54023382
  Solvation  Ediel_sol  =         0.00000000
  ---------------------------------------------------
  free energy    TOTEN  =      -889.54307051 eV

  energy without entropy =     -889.54307051  energy(sigma->0) =     -889.54307051


--------------------------------------------------------------------------------------------------------




--------------------------------------- Iteration      1(  18)  ---------------------------------------


    POTLOK:  cpu time    0.1110: real time    0.1151
    SETDIJ:  cpu time    0.3681: real time    0.3681
     EDDAV:  cpu time   39.4123: real time   39.4178
       DOS:  cpu time    0.0009: real time    0.0009
    CHARGE:  cpu time    1.3548: real time    1.3549
    MIXING:  cpu time    0.0079: real time    0.0079
    --------------------------------------------
      LOOP:  cpu time   41.2551: real time   41.2648

 eigenvalue-minimisations  :  9928
 total energy-change (2. order) :-0.8855277E-06  (-0.4384405E-05)
 number of electron     864.0000006 magnetization 
 augmentation part      118.3507311 magnetization 

 Broyden mixing:
  rms(total) = 0.94598E-03    rms(broyden)= 0.94456E-03
  rms(prec ) = 0.11305E-02
  weight for this iteration     100.00

 eigenvalues of (default mixing * dielectric matrix)
[...]
   -.632E+02 0.826E+02 0.766E+02   0.743E+02 -.800E+02 -.871E+02   -.914E+01 -.386E+01 0.104E+02   -.654E-04 -.415E-03 0.215E-03
   0.582E+02 0.663E+02 -.288E+02   -.543E+02 -.812E+02 0.321E+02   -.741E+01 0.111E+02 -.220E+01   -.636E-05 -.453E-03 -.746E-03
   -.146E+03 0.305E+02 -.625E+02   0.169E+03 -.672E+01 0.499E+02   -.240E+02 -.260E+02 0.131E+02   0.540E-03 -.147E-02 0.761E-03
   -.277E+02 0.184E+02 -.103E+03   0.241E+02 0.608E+01 0.951E+02   0.433E+01 -.255E+02 0.938E+01   0.678E-03 -.112E-02 -.864E-03
   -.858E+02 -.237E+01 -.404E+02   0.685E+02 -.173E+02 0.405E+02   0.229E+02 0.200E+02 -.236E+01   -.707E-03 0.924E-03 0.199E-03
   0.469E+01 0.841E+02 0.319E+02   -.287E+02 -.807E+02 -.333E+02   0.273E+02 -.566E+01 -.590E+00   -.907E-04 0.190E-03 0.209E-03
   0.284E+02 -.147E+03 0.745E+02   -.500E+02 0.165E+03 -.658E+02   0.213E+02 -.160E+02 -.970E+01   -.231E-03 0.288E-03 0.655E-03
   -.125E+02 0.251E+02 0.465E+02   0.595E+01 -.383E+02 -.381E+02   0.861E+01 0.139E+02 -.111E+02   -.810E-04 0.162E-02 -.162E-03
   -.908E+02 0.886E+02 0.950E+02   0.116E+03 -.800E+02 -.917E+02   -.247E+02 -.929E+01 -.656E+01   -.102E-02 -.769E-03 0.464E-03
   0.650E+02 -.103E+03 -.103E+03   -.779E+02 0.905E+02 0.126E+03   0.136E+02 0.169E+02 -.189E+02   0.159E-04 -.297E-03 -.417E-03
   -.404E+01 0.134E+03 0.535E+02   -.228E+02 -.141E+03 -.551E+02   0.265E+02 0.610E+01 -.264E+00   0.580E-03 0.798E-03 0.629E-03
   -.102E+03 0.115E+03 -.276E+02   0.135E+03 -.131E+03 0.299E+02   -.314E+02 0.127E+02 -.189E-01   0.115E-03 0.530E-03 0.164E-02
   0.148E+03 0.116E+03 0.782E+02   -.148E+03 -.129E+03 -.935E+02   -.394E+01 0.132E+02 0.178E+02   0.124E-02 0.177E-03 0.352E-03
   -.300E+02 -.346E+02 0.278E+02   0.402E+02 0.482E+02 -.457E+02   -.887E+01 -.106E+02 0.169E+02   -.601E-03 0.181E-03 0.852E-03
   -.148E+01 0.607E+00 -.139E+03   -.673E+01 -.104E+02 0.142E+03   0.132E+02 0.140E+02 0.221E+01   -.581E-03 -.266E-03 -.129E-02
   0.439E+02 0.117E+03 -.677E+02   -.247E+02 -.136E+03 0.910E+02   -.225E+02 0.191E+02 -.246E+02   0.401E-03 0.172E-03 -.586E-03
   0.570E+02 -.556E+02 0.326E+02   -.638E+02 0.561E+02 -.522E+02   0.623E+01 0.271E+01 0.196E+02   0.963E-06 0.375E-03 0.161E-04
   0.391E+02 -.406E+02 0.808E+01   -.530E+02 0.461E+02 0.303E+01   0.157E+02 -.595E+01 -.145E+02   -.590E-03 -.626E-03 0.404E-03
   -.185E+03 0.423E+02 0.708E+01   0.215E+03 -.443E+02 -.388E+01   -.247E+02 0.395E+01 -.324E+01   -.104E-02 0.206E-03 -.454E-03
   -.633E+02 0.915E+02 -.144E+02   0.818E+02 -.115E+03 0.163E+02   -.178E+02 0.247E+02 -.228E+01   -.175E-03 0.133E-03 -.119E-04
   0.459E+02 0.368E+02 -.110E+02   -.289E+02 -.474E+02 -.701E+01   -.173E+02 0.114E+02 0.198E+02   -.296E-03 -.884E-03 -.211E-03
   -.223E+02 -.140E+03 0.833E+02   0.245E+02 0.150E+03 -.861E+02   -.288E+01 -.108E+02 0.240E+01   0.698E-03 0.446E-03 0.122E-03
   0.596E+01 -.193E+02 0.112E+03   0.552E+01 0.431E+02 -.139E+03   -.102E+02 -.223E+02 0.242E+02   -.253E-03 -.373E-03 0.117E-02
   0.468E+02 0.363E+02 -.183E+02   -.478E+02 -.311E+02 0.188E+02   0.789E+00 -.867E+01 0.161E+01   -.378E-03 -.599E-03 0.675E-04
   -.654E+02 -.689E+02 0.124E+01   0.711E+02 0.952E+02 0.161E+02   -.435E+01 -.233E+02 -.147E+02   0.112E-02 0.136E-02 -.879E-04
   0.240E+02 0.863E+02 0.211E+02   -.260E+01 -.918E+02 -.425E+02   -.211E+02 0.541E+01 0.239E+02   0.286E-03 -.337E-03 -.437E-04
   -.110E+02 0.877E+02 0.625E+00   -.866E+01 -.810E+02 -.254E+01   0.235E+02 -.712E+01 0.194E+01   -.905E-03 -.455E-03 0.524E-03
   -.342E+02 0.179E+01 0.111E+03   0.658E+02 -.812E+01 -.124E+03   -.269E+02 0.798E+00 0.907E+01   -.646E-03 -.197E-03 0.884E-03
   -.139E+02 -.109E+02 -.128E+03   0.318E+02 0.155E+02 0.151E+03   -.203E+02 -.500E+01 -.257E+02   0.266E-03 0.295E-03 0.106E-02
   -.317E+02 0.103E+03 0.604E+02   0.468E+02 -.119E+03 -.857E+02   -.191E+02 0.143E+02 0.226E+02   0.438E-03 -.786E-03 0.520E-03
   0.788E+00 -.103E+03 0.665E+01   -.574E+01 0.103E+03 0.147E+02   0.415E+01 -.112E+01 -.219E+02   0.126E-03 0.715E-03 -.949E-03
   -.313E+02 0.614E+02 -.142E+02   0.336E+02 -.606E+02 -.906E+01   -.212E+01 -.687E-01 0.252E+02   -.951E-03 -.165E-02 -.330E-03
   -.378E+01 -.460E+02 0.543E+02   0.203E+02 0.434E+02 -.494E+02   -.173E+02 0.213E+01 -.477E+01   -.566E-03 0.110E-02 -.637E-03
   0.103E+03 -.563E+02 0.472E+02   -.993E+02 0.743E+02 -.455E+02   -.807E+01 -.199E+02 -.225E+01   0.374E-03 0.886E-03 0.134E-03
   0.137E+03 -.791E+02 -.594E+02   -.150E+03 0.897E+02 0.738E+02   0.121E+02 -.110E+02 -.159E+02   0.921E-03 -.504E-03 -.201E-03
   -.817E+02 -.197E+02 -.380E+02   0.112E+03 0.221E+01 0.489E+02   -.264E+02 0.138E+02 -.678E+01   -.139E-02 0.135E-02 -.567E-03
   -.220E+02 -.146E+03 -.116E+02   0.120E+02 0.153E+03 0.249E+01   0.136E+02 -.696E+01 0.114E+02   -.297E-03 0.109E-03 0.155E-03
   0.566E+02 -.178E+03 -.824E+02   -.844E+02 0.167E+03 0.775E+02   0.190E+02 0.126E+02 0.352E+01   0.946E-03 -.359E-03 -.924E-03
   -.510E+02 -.818E+02 0.201E+02   0.581E+02 0.985E+02 -.351E+02   -.412E+01 -.162E+02 0.904E+01   -.104E-02 -.373E-03 0.144E-03
   0.777E+02 0.343E+02 0.775E+02   -.678E+02 -.379E+02 -.656E+02   -.161E+02 0.280E+01 -.177E+02   0.105E-02 0.315E-03 -.800E-04
   0.435E+01 -.879E+02 0.120E+03   -.107E+02 0.117E+03 -.123E+03   0.554E+01 -.300E+02 -.122E+01   0.300E-03 -.870E-04 0.147E-02
   -.489E+02 0.104E+03 0.140E+02   0.368E+02 -.125E+03 -.120E+02   0.131E+02 0.251E+02 -.291E+01   -.427E-04 -.576E-03 0.254E-03
   0.777E+02 0.132E+03 -.400E+02   -.105E+03 -.143E+03 0.739E+02   0.222E+02 0.391E+01 -.250E+02   -.548E-03 0.517E-04 -.760E-03
   -.248E+02 0.118E+03 0.730E+02   0.395E+02 -.117E+03 -.832E+02   -.140E+02 -.139E+01 0.104E+02   0.153E-03 -.685E-03 0.677E-03
   0.631E+02 0.145E+03 -.371E+02   -.754E+02 -.153E+03 0.451E+02   0.121E+02 0.790E+01 -.996E+01   0.597E-04 -.569E-03 0.273E-03
   -.148E+03 -.644E+02 -.739E+01   0.162E+03 0.703E+02 -.141E+02   -.103E+02 -.523E+01 0.235E+02   -.245E-03 0.151E-02 -.105E-03
   -.156E+02 0.142E+03 -.442E+02   -.447E+01 -.153E+03 0.472E+02   0.225E+02 0.121E+02 -.279E+01   0.704E-03 -.653E-03 -.351E-03
   -.360E+02 -.260E+02 -.607E+02   0.576E+02 0.324E+02 0.766E+02   -.204E+02 -.767E+01 -.157E+02   -.591E-03 -.365E-03 -.243E-04
 -----------------------------------------------------------------------------------------------
   0.105E+03 -.235E+03 -.565E+02   0.149E-12 -.355E-13 -.398E-12   -.105E+03 0.235E+03 0.565E+02   -.311E-02 0.227E-03 0.158E-02
 
 
 POSITION                                       TOTAL-FORCE (eV/Angst)
 -----------------------------------------------------------------------------------
      1.34675      6.29046     10.71767         0.280200     -1.256496      0.830221
      9.69209      6.35937     10.26477        -0.366721     -1.722225     -1.076818
      5.03472      3.31775      2.99246         1.034799      1.273550      0.414971
     10.84309      1.54900      7.00465         4.478134      1.430624     -0.080917
      6.14194      0.48109      9.79989        -1.113592     -3.722726     -1.230753
      0.40275     10.55122      1.98850         1.068994      1.405759     -0.487851
      6.59281      3.17323      0.31503         2.906207      1.246100     -2.389290
     11.32753      6.62611      5.60778        -6.831717     -0.226987      1.974979
      1.43050      5.12107      3.03212        -3.061756      0.056980      1.445363
     10.78402     11.39346      9.00162         3.106371      1.610536      1.501035
      5.08339      6.53626      9.10176        -0.586310     -2.028469     -0.728158
      3.59793     11.54236      3.80243        -1.609154     -1.405790      0.417996
      8.76137      3.56053      2.98538        -3.243411     -1.877582      7.623542
      8.94619      7.28779      2.85262         1.412386     -0.040720      2.002970
      9.39202      0.76383      1.42982        -1.713672     -3.790559      0.034311
      4.03121      9.47200     11.21070        -0.349473      0.234728     -0.710759
      6.87650      6.81666      1.32493        -0.908428     -0.918906     -0.826480
      9.52831      9.04569      7.62343        -1.056251      1.113082     -2.730403
      3.11006      3.59548      8.95439        -0.074159      2.014637      0.478386
      5.49210      3.09246      6.72787         1.613001      0.326720      0.749894
      0.37163      2.27657     11.31444        -2.116103     -0.552487     -1.861295
      7.96747      3.74299      8.65938        -1.569080      1.737001     -0.786698
     10.11193      0.25416      4.68324         0.177454     -3.124467      2.054728
      5.86914      7.87351      4.71115         4.088793      1.470380      2.962426
      6.18541     11.48889      5.97988         1.126216     -0.926628      3.145422
      9.64666      3.85117      5.91556        -2.337034      1.473130     -1.952189
      2.26228      2.91049      1.56445         1.230957     -1.686193     -0.744133
      0.60735      9.39874      4.99118        -4.090515      7.054052     -0.889117
      1.16746      2.95042      5.37706         0.383847     16.323766     -2.012647
      9.82322      4.25291      1.01520         3.579950      1.257423     -5.963025
      2.66872      7.37717      4.85075         5.248425      0.485095      1.530279
      9.05624      9.13732     11.08807        -0.686142      0.212603      3.359207
      3.64416      4.92585      5.45431         4.895366      1.874746      2.973316
      9.08790      2.02526     10.72382        -3.902578      1.115638      4.099298
      7.85041      6.56373      7.25592        -6.417235      1.010734     -1.893799
      5.32099      9.57429      7.99810         1.908127      3.464702     -3.019762
      6.90406      5.20819      4.92403         1.690190     -3.580085     -2.616922
      0.34553      7.85076      2.23296        -3.311827     -1.005954      0.641968
      1.15896      7.90006      8.31600        -3.250043      4.597076     -0.983926
      2.56132      0.69169     10.75876        -4.301602     -3.132872     -2.781275
      6.46323      0.91205      3.59855         0.602657      0.441240      1.190748
      0.11473      9.00445     10.49816         1.691580      8.423478      4.621758
      3.97372      0.94251      8.38528        -1.749112     -1.481391      2.970878
      2.89210      9.60355      6.69821         3.787790     -0.341020     -0.881885
      4.09385      5.34064      0.66382         6.599809      3.879075     12.293088
      8.18353     10.22711      3.63458         1.873240      1.255630      2.592021
      8.43693      0.78340      8.31660        -1.079655     -3.424435     -4.158008
      3.98502      8.10517      2.23157        -1.609505      3.906932     -0.346179
      6.23625     10.35174      1.81426         1.852529      1.464493     -0.896893
      4.46114      0.76157      0.75619         6.568087     -0.145553     -0.706073
      0.07309      3.91767      8.35076         4.164028     -5.835569      0.992007
      1.89565      0.63087      6.97878       -10.185637      4.052299      4.889172
      7.16595      8.32787      9.93673        -0.033335      7.778431    -11.987466
     11.55670      2.15069      3.10660        -5.910089      7.148365      2.149551
      7.53953      3.16573      5.67849        -0.462472      0.926722     -0.658625
      1.56207      6.89982      1.72508         0.333545      0.539002     -0.369139
      2.51145      2.30450     10.81068        -0.439687      1.095782      1.458344
      5.47353      9.29947      9.50285         0.904157     -1.740188      6.050861
      8.86029      3.77837     10.82573        -1.590816     -2.901241      0.108338
      2.69532      3.85699      4.78571        -1.512026     -0.903234     -1.020424
      8.68787     11.14379      9.19857        -0.230031     -1.281763      0.287660
      4.74896      2.21592      9.08840        -0.170340     -2.596453     -1.245967
      0.45505      2.17579      8.86848        -0.075409      1.038320      2.169462
      0.97400      1.53757      5.48496         0.473598    -11.825468      6.178531
      9.48881      2.68063      1.25786         0.139806      2.031490     -0.956782
      3.73652      4.60468      6.96166         0.275210     -1.727123      2.882964
      2.60210      9.44259      1.86121         3.911254     -3.518266      0.729976
     11.38286      7.62910     10.28275        -0.446028     -8.574994     -0.506358
     10.68773      9.87930      5.86821         4.555362     -1.719642     -1.159087
      6.79217      7.73344      8.02259        -0.560403     -2.812812      3.248570
     11.53671      8.94116      0.68663         1.950748     -1.495045      1.298873
      1.01367      3.69597      7.09856         3.447248      0.276139     -5.617493
      6.99286      1.30777      7.99939        -0.850787      1.389001     -2.329442
      5.28173      4.57181      4.80965        -4.261620     -1.092049      0.591756
      1.03883     10.90378      3.95274         1.195567     -1.522798      3.831875
      4.56013      7.06034      1.10240        -3.321942     -0.217175     -0.672436
      3.93613      8.69744      7.89350        -2.374899      1.338690     -2.295169
      4.82516     11.26258      8.02635         0.284321      1.093419     -1.014981
      9.35616      7.79150      0.49935        -1.813876      1.095923     -1.535394
      8.46423      5.38544      4.48111         2.651743     -0.122379      0.902730
      0.10447      0.98966      2.21586        -1.293899     -3.023482     -4.792280
      2.68088     11.58558      9.04875         0.085177      2.702079      1.231973
      4.01732      4.87233     10.96881        -4.243269     -1.944016    -11.360174
      2.49022      9.00365      4.96011        -3.060822     -0.376710     -0.455842
      3.02014      0.48005      1.16701        -4.086504      0.314736      2.258609
      7.67934      9.94084     11.58808         3.147881     -1.855406     -3.604583
      5.92438      4.34811      9.15279         0.714685      1.835126     -0.242868
      4.39527      9.87573      5.79946         1.978602     -1.297931     -0.079017
      5.46385      9.02540      2.08798        -3.457707     -3.895597      1.143795
      1.27185      9.46675      9.43610        -0.727420     -2.216130      0.530505
     10.34784      9.90508     10.39351         0.790824     -1.093461      1.268125
      1.39442      6.44769      4.87493         5.601340      0.393143     -2.313731
     11.24030      8.97325      3.62360         3.335842     -2.266476     -1.980605
      8.68286      5.11230      1.69762        -0.277769      2.240885     -1.034095
     10.95863      6.65103      3.21291         2.057088      0.732102     -2.763480
      6.85955     10.16125      7.90422         0.472440     -0.718948     -3.253869
      6.71633      5.29367      6.49947         0.708145      4.772151      3.503577
     11.24886      7.62791      7.99885        -0.340696     -1.402717     -1.861071
      2.41934      7.13902      8.65860         1.323540     -3.141378      2.248142
      9.41372      0.31386      6.89782        -4.217383     -0.660135      2.499218
      7.01843      1.99532      2.57847         1.396510      3.007345     -1.087132
      7.46889      1.23725     10.86931         5.029556      4.187571      5.042943
      8.93933      9.18138      4.56747        -3.319889     -0.174870     -1.277063
      6.50986      5.83755      3.40598        -0.570594      3.235829      0.011079
     10.20934      2.26142      4.28042         1.852681     -0.450809     -3.340087
      1.33094      2.41326      3.62211         5.742206      2.009773     -0.043924
     10.20762      0.94224     11.10962         0.717994      0.886373     -0.426933
      4.15919      0.29094     10.72940        -0.301267      0.804619      1.767892
     11.57816      3.71494      1.98053        -0.682207     -1.274556     -0.325182
      8.38498      7.59239      6.26823         1.288833      1.503666     -2.514213
      5.41172      0.41505      2.20791        -0.198344     -3.457906      2.090147
      0.43970      5.05664      9.23835         1.288476      3.007795      2.633348
      8.70838      8.29911      9.52550         0.314191     -0.023205      2.463054
      1.23315      8.95041      6.89077         3.871653     -0.410265      0.026358
      2.89502     11.30319      6.55887         4.695086     -5.526348     -4.266871
      3.85149      6.67902      5.87523        -2.416266     -0.354580     -1.960661
      7.84779      9.66926      2.19519        -4.108199     -1.160000     -2.695945
      3.35199      4.85712      2.03467        -0.795842     -1.367613     -0.524230
      5.55590     10.79664      0.33398         0.163564      0.769216      1.955907
      5.73215      5.00317      1.04460        -0.855684     -0.498068      0.092315
      4.95012      2.34115      0.99100        -4.600183     -1.822560     -0.550609
      5.22467      1.45244      4.66695        -0.672322     -0.395689     -1.496601
      8.93511      5.74129      7.84943         3.840836     -3.630615      4.067222
     11.46171      4.15582      4.65591         3.497108      0.042042      2.323897
     10.45029      3.38457      7.78870        -8.836399      1.510578     -1.415291
      8.96894      1.97727      9.22256         2.967732      0.411950     -6.014860
      4.16444      7.67939      3.87662        -6.218770     -0.807580     -5.710062
      2.87371      1.90336      7.61554        -0.787991     -1.295897     -4.030046
      0.61846     11.21745      7.38705         1.011265      4.196426     -0.895500
      6.38744      7.80137     10.96970        -5.682304     -7.700287      8.845815
      9.46073     11.04175      2.93144         0.748606      0.071051      0.289142
      6.37506     10.60702      3.88471        -0.136146     -0.416598     -1.961709
     10.63755      4.89924     11.42185         3.645929      0.671361      2.071199
      1.01292      0.01509     11.11753         2.439301      0.888145      0.201028
      7.76724      0.67255      4.55335         1.243554     -1.219881      0.157786
 -----------------------------------------------------------------------------------
    total drift:                               -0.004014      0.002359      0.016889


--------------------------------------------------------------------------------------------------------



  FREE ENERGIE OF THE ION-ELECTRON SYSTEM (eV)
  ---------------------------------------------------
  free  energy   TOTEN  =      -889.54307112 eV

  energy  without entropy=     -889.54307112  energy(sigma->0) =     -889.54307112
 


--------------------------------------------------------------------------------------------------------


    POTLOK:  cpu time    0.4638: real time    0.4638


--------------------------------------------------------------------------------------------------------


     LOOP+:  cpu time  871.1683: real time  871.4729
    4ORBIT:  cpu time    0.0000: real time    0.0000

 total amount of memory used by VASP MPI-rank0   158177. kBytes
=======================================================================

   base      :      30000. kBytes
   nonlr-proj:      22626. kBytes
   fftplans  :      23353. kBytes
   grid      :      12472. kBytes
   one-center:        171. kBytes
   wavefun   :      69555. kBytes
 
  
  
 General timing and accounting informations for this job:
 ========================================================
  
                  Total CPU time used (sec):      893.602
                            User time (sec):      888.439
                          System time (sec):        5.163
                         Elapsed time (sec):      894.098
  
                   Maximum memory used (kb):      300772.
                   Average memory used (kb):           0.
  
                          Minor page faults:       140932
                          Major page faults:            0
                 Voluntary context switches:         1525
