80
Time=50000.00000004 pbc="T T F" Lattice="13.79398668 0.00000000 0.00000000 -6.89699334 11.94594288 0.00000000 0.00000000 0.00000000 27.81022107" energy=-525.40551329 virial="5.33595350 0.37898426 -5.27351533 0.37898426 6.63658546 -1.26580771 -5.27351533 -1.26580771 -17.65927044" stress="0.00191656 0.00008270 -0.00115076 0.00008270 0.00220038 -0.00027622 -0.00115076 -0.00027622 -0.00310135" Properties=species:S:1:pos:R:3
Sc -0.01951482 1.95635002 15.15864214
Sc -1.60650507 5.00163785 15.21833577
Sc -3.42201224 8.02121632 15.11345389
Sc -5.12204927 10.90901074 15.02193123
Sc 3.54785509 1.97876258 15.11378397
Sc 1.75930632 5.02432850 15.09742652
Sc -0.01202436 7.97148461 15.08011778
Sc -1.72188991 10.99584267 15.14317279
Sc 6.99041401 1.96115483 15.27265530
Sc 5.26517970 4.93259203 15.20262466
Sc 3.42281565 8.14280709 15.22844046
Sc 1.67733990 11.03454344 15.29030785
Sc 10.38774895 1.94457114 15.23996262
Sc 8.56069361 5.01467323 15.22737524
Sc 7.01563621 8.02805794 15.09578963
Sc 5.23773673 10.95012496 15.03608979
Sc 1.79847889 1.12357615 12.43720335
Sc 0.00889648 3.92721151 12.62373317
Sc -1.69557225 6.88204616 12.62024145
Sc -3.40299267 9.87402293 12.66777226
Sc 5.05146070 0.98094632 12.53761365
Sc 3.39892822 3.94766433 12.66950878
Sc 1.82236024 7.04296809 12.61346101
Sc 0.13204634 9.89787633 12.53388823
Sc 8.68861607 0.99793949 12.68717499
Sc 6.76323052 4.06120121 12.74796667
Sc 5.16911099 7.01859606 12.85731284
Sc 3.40906761 10.05037347 12.64313957
Sc 12.18849055 1.01615772 12.56651313
Sc 10.29850802 3.82822128 12.91115109
Sc 8.63773098 6.81286666 12.67000537
Sc 6.94668748 9.83569008 12.46941604
Cl 0.00488028 1.99043059 10.85187999
Cl -1.75631572 4.92563490 11.05341944
Cl -3.50076767 7.90893352 11.11814484
Cl -5.44887277 11.08306301 10.86982542
Cl 3.47524316 2.12431640 10.73119646
Cl 1.75834679 4.79945352 10.90196158
Cl -0.12139982 8.07554408 10.79587700
Cl -1.81690575 10.88015024 10.96324705
Cl 6.85934396 2.00452452 10.97399143
Cl 5.30095349 5.03073751 11.05714927
Cl 3.32771084 8.06801951 10.90228701
Cl 1.57700784 11.13634257 11.01335164
Cl 10.34221254 2.06362767 11.03802750
Cl 8.54589329 4.77177281 11.11941646
Cl 6.69714867 7.79749109 11.05021994
Cl 5.06031286 10.96087500 10.92649039
Cl 1.72008607 1.04057259 16.72254363
Cl -0.15671689 4.03056182 16.94112403
Cl -1.65919223 6.96880941 16.71205879
Cl -3.49826119 9.93736717 16.89070069
Cl 5.23562445 0.70690381 16.83788745
Cl 3.40068673 3.92357172 16.85240001
Cl 1.61499467 6.98038722 16.70545896
Cl -0.00970663 9.85045984 16.96885743
Cl 8.75603754 1.04926865 17.06532065
Cl 6.95645662 3.95723025 16.93004582
Cl 5.04195543 7.05972156 16.81199115
Cl 3.45975969 10.11514115 16.88440713
Cl 12.22865605 0.88536168 16.83004508
Cl 10.57330413 4.01088059 17.02812936
Cl 8.54591929 6.97488473 16.77382041
Cl 6.86038306 9.88001452 16.86921622
C 0.06572477 0.06700499 13.73937991
C -1.64645760 2.93184415 13.89151680
C 10.30138968 5.98088184 13.91226456
C 8.56379188 8.99803734 13.76037955
C 3.42587528 0.02529296 13.73845504
C 1.77240100 3.03825132 13.92267046
C -0.09746146 5.91305591 13.90299047
C -1.80256440 9.01677456 13.97333273
C 0.00519588 11.91465851 14.02160042
C 5.17186306 2.93559582 14.04429531
C 3.37951156 6.07021767 13.75763385
C 1.75718457 9.02940885 13.98359717
C 10.38041504 0.07670239 13.85742848
C 8.55064585 2.88629767 13.98279256
C 6.93401574 6.01931992 13.99689160
C 5.11159832 9.03025919 13.95297366
80
Time=99999.99999996 pbc="T T F" Lattice="13.79398668 0.00000000 0.00000000 -6.89699334 11.94594288 0.00000000 0.00000000 0.00000000 27.81022107" energy=-525.90897894 virial="9.71414571 2.50329750 2.06781174 2.50329750 8.75439637 1.68536249 2.06781174 1.68536249 0.27452696" stress="0.00287195 0.00054626 0.00045123 0.00054626 0.00266252 0.00036777 0.00045123 0.00036777 0.00081208" Properties=species:S:1:pos:R:3
Sc 0.02086866 1.90616701 15.24292612
Sc -1.73041418 5.05238632 15.19093628
Sc -3.37720037 7.96690225 15.19704026
Sc -5.26522606 10.88009352 15.09279240
Sc 3.47529007 1.99856138 15.22555240
Sc 1.67756877 4.86508451 15.11780008
Sc 0.14443080 8.04226574 15.21292608
Sc -1.73525597 10.88526741 15.12564070
Sc 6.94547732 2.00654101 15.03110715
Sc 5.11293347 4.86724026 15.18923469
Sc 3.38025712 7.90907245 15.28876028
Sc 1.68618918 10.99945459 15.13930795
Sc 10.26724989 2.01245619 15.19754166
Sc 8.53001502 5.07271860 15.14217283
Sc 6.82939117 8.05335606 15.08676009
Sc 5.11133244 10.91008631 15.04732938
Sc 1.81164376 1.05153152 12.69162356
Sc -0.01089949 3.83125602 12.75688581
Sc -1.57408850 6.94222539 12.75663398
Sc -3.42731706 9.86839594 12.70693543
Sc 5.13145134 0.87266445 12.76265212
Sc 3.46065785 3.89938677 12.66353614
Sc 1.83777978 7.04549782 12.71708522
Sc 0.03399865 9.92531250 12.79152860
Sc 8.68204718 0.93055919 12.51660743
Sc 6.87371817 4.03168941 12.68640028
Sc 5.14884144 7.07964290 12.71780008
Sc 3.38744322 9.94250449 12.77308617
Sc 11.93534403 0.93810987 12.73704642
Sc 10.28852273 3.98039155 12.68287246
Sc 8.62841661 6.96622433 12.50054030
Sc 7.01692345 10.07123196 12.57475987
Cl 0.07941062 1.97643737 11.05663906
Cl -1.87589581 4.99829381 11.00389871
Cl -3.47511854 8.03752079 10.85882669
Cl -5.22430639 11.08288129 10.96483236
Cl 3.54754133 2.13012156 11.02027878
Cl 1.80475794 4.99381699 10.87811756
Cl -0.06955484 7.93325624 11.09066211
Cl -1.73014283 10.89844797 11.08946480
Cl 6.75165361 2.12194329 10.85373599
Cl 5.27945505 5.04247009 11.00737593
Cl 3.47018843 8.00171638 11.12277077
Cl 1.85934499 10.93729989 10.75403415
Cl 10.47744113 1.97781771 10.74146962
Cl 8.66960667 4.94561834 10.85879535
Cl 6.90065582 7.98112760 10.90961335
Cl 5.06538061 11.05065552 11.09590293
Cl 1.91802058 0.89408627 16.76700151
Cl -0.14650589 3.94509233 16.81962543
Cl -1.55938888 7.02599170 16.84368102
Cl -3.49116916 9.75019551 16.90369203
Cl 5.22784019 0.95851477 16.74262550
Cl 3.23306782 3.84862001 16.88924603
Cl 1.61476819 6.96013906 16.89001321
Cl 0.09735131 10.07519143 16.86689746
Cl 8.55416926 1.04758349 16.79038684
Cl 6.89236044 3.97598985 16.61638885
Cl 5.04992581 7.00329676 16.88108332
Cl 3.52215007 10.17081743 16.92702169
Cl 12.10454423 0.95622590 16.81022923
Cl 10.27142672 3.93682151 16.74269834
Cl 8.52204775 6.96676296 16.74638037
Cl 7.09119336 9.89650499 16.70206059
C -6.84840346 11.89841353 14.03153671
C 11.99725845 2.97448214 13.90079059
C 10.28689051 6.04937416 13.89147980
C -5.12581826 9.05277972 13.78795110
C -3.46049727 11.92919964 13.81863050
C 1.69085739 2.93143162 13.94282285
C -0.01446406 5.99440317 13.95510551
C -1.63786069 8.86410208 13.96123037
C 0.03704029 11.93488305 13.80217526
C 5.12769463 2.92121197 13.95153695
C 3.41038652 6.00390649 13.87979203
C 1.78250325 8.98959869 14.02235045
C 10.32461797 0.00954399 13.93139877
C 8.61575242 2.92128331 13.75876280
C 6.89238066 6.11967654 13.84535595
C 5.16752304 9.01760308 13.87345261
80
Time=149999.99999957 pbc="T T F" Lattice="13.79398668 0.00000000 0.00000000 -6.89699334 11.94594288 0.00000000 0.00000000 0.00000000 27.81022107" energy=-524.37993670 virial="8.69402739 0.17952215 -4.51261675 0.17952215 3.36555666 -0.22873879 -4.51261675 -0.22873879 -18.97598371" stress="0.00264934 0.00003917 -0.00098472 0.00003917 0.00148659 -0.00004991 -0.00098472 -0.00004991 -0.00338868" Properties=species:S:1:pos:R:3
Sc -0.13695960 1.93974498 14.87340583
Sc -1.61908882 4.94429344 15.18519815
Sc -3.34105115 7.93374276 15.04785118
Sc -5.35298801 10.96980641 15.01624073
Sc 3.29354343 2.04452622 15.17469982
Sc 1.69570798 4.93147356 15.10855789
Sc -0.02874643 7.99777093 15.30152332
Sc -1.69922446 10.88067079 15.20411028
Sc 6.84407347 1.97648781 15.28688003
Sc 5.19229042 4.85428945 15.29872057
Sc 3.37491631 7.86440891 15.14090193
Sc 1.86657717 10.94412722 15.21195043
Sc 10.43439066 2.03391727 15.00530070
Sc 8.70653239 5.01545624 15.17093134
Sc 6.99087836 8.07669098 15.11982792
Sc 5.15926080 10.96702161 15.16766527
Sc 1.83048863 1.11995068 12.50343909
Sc 0.01547274 4.07891944 12.57753925
Sc -1.60803802 7.07050275 12.59408216
Sc -3.45824504 10.14528242 12.71555405
Sc 5.22614320 1.05912546 12.69301717
Sc 3.58502670 3.85979938 12.70240308
Sc 1.62374855 6.92307686 12.72183510
Sc 0.02874822 10.00181799 12.69845810
Sc 8.47219539 1.23354842 12.77513903
Sc 6.90052802 4.02794500 12.58147833
Sc 5.14487635 6.88938461 12.69323270
Sc 3.44909687 9.83874468 12.88442622
Sc 11.99265013 0.88226904 12.41382028
Sc 10.41973605 4.11241598 12.56507272
Sc 8.64708810 7.04101996 12.61185599
Sc 6.89198344 9.95090361 12.64585512
Cl 0.02496248 2.10119838 10.89044801
Cl -1.94557930 5.09017449 10.86413473
Cl -3.57683638 8.16249620 11.00987685
Cl -5.06928220 11.03265944 10.86859173
Cl 3.59747117 2.04869969 11.00548159
Cl 1.61312282 4.96269077 10.92124232
Cl 0.19967716 7.74175031 10.96560978
Cl -1.77117634 11.05451906 10.96426300
Cl 6.94646766 1.93845361 11.07374895
Cl 5.08119709 4.84571539 10.89951198
Cl 3.45269297 7.86195421 11.00393425
Cl 1.61463819 11.08306034 11.11085403
Cl 10.13454688 1.96148138 10.83093218
Cl 8.63182299 4.81146536 11.00741878
Cl 6.64914047 7.74494732 10.95473163
Cl 4.91324345 10.84965884 10.86134336
Cl 1.79436911 0.90070508 16.82394068
Cl -0.01544715 3.82295276 16.70279279
Cl -1.74438562 7.05344729 17.10519880
Cl -3.39941005 9.75990151 16.75954820
Cl 5.23031088 0.88919573 16.95476002
Cl 3.34667182 3.85387278 17.05123118
Cl 1.93991591 6.90054932 16.86753108
Cl 0.14148175 10.03742615 16.93941731
Cl 8.77445343 0.94176399 16.89435512
Cl 6.95360060 4.15964353 16.94042245
Cl 5.11675800 6.93610201 16.98041712
Cl 3.44484037 9.98433048 16.69663955
Cl 12.23026176 1.00481281 16.69033894
Cl 10.52831850 3.99711452 16.90619724
Cl 8.49270832 7.01641848 16.94345118
Cl 6.75287814 10.00063717 16.87504518
C 0.00433310 0.05022583 13.76215827
C -1.70920011 3.04672075 13.78802851
C 10.34435614 5.95203837 13.87437798
C 8.59765458 8.96837047 13.86922341
C 3.38255932 0.02958088 13.88288909
C 1.72194027 2.88755191 13.72098224
C 0.01196447 6.08343445 14.01301877
C -1.73629543 8.84359966 13.93436194
C -0.00090934 11.94214449 13.98056507
C 5.21889610 3.01889310 13.82166184
C 3.39351154 5.84256464 13.85605860
C 1.63927880 8.94418613 14.04198213
C 10.48002415 0.00635833 13.90768095
C 8.64508402 3.03431148 14.05069122
C 6.92086236 5.92291416 13.90565175
C 5.24111787 9.00184498 13.91240349
80
Time=199999.99999918 pbc="T T F" Lattice="13.79398668 0.00000000 0.00000000 -6.89699334 11.94594288 0.00000000 0.00000000 0.00000000 27.81022107" energy=-524.57182360 virial="8.75681495 3.45781615 -1.78577588 3.45781615 3.59739914 3.93335293 -1.78577588 3.93335293 -10.99387491" stress="0.00266305 0.00075455 -0.00038968 0.00075455 0.00153718 0.00085832 -0.00038968 0.00085832 -0.00164686" Properties=species:S:1:pos:R:3
Sc -0.06695448 2.04809432 15.16899271
Sc -1.67303521 5.02496085 15.21677346
Sc -3.42142407 7.93010221 15.27443670
Sc -5.19686883 10.98483217 15.22064708
Sc 3.43010990 2.01019533 15.22002198
Sc 1.63374182 5.06409653 15.12985744
Sc 0.09019216 8.12789359 15.03055639
Sc -1.87904384 10.86960514 15.03023832
Sc 6.95522092 1.80325692 15.13079376
Sc 5.15049795 4.89977458 15.08797209
Sc 3.51385370 7.87632412 15.04320266
Sc 1.74340135 10.94618369 15.09612766
Sc 10.39677077 1.97677926 15.05560820
Sc 8.53398581 5.01740305 15.10544213
Sc 6.73389944 7.85228868 15.21956238
Sc 5.13581738 10.84289939 15.11983951
Sc 1.64919032 0.97825448 12.54681482
Sc 0.12503999 4.13796475 12.71397441
Sc -1.73649666 6.99923672 12.74463094
Sc -3.55328698 9.98323049 12.73843340
Sc 5.23269618 1.14722138 12.51750729
Sc 3.53258146 3.90172414 12.61977831
Sc 1.84918529 7.08671459 12.65728046
Sc -0.18924523 9.99332592 12.61980875
Sc 8.76186569 1.01333277 12.55278349
Sc 7.09045433 3.96961213 12.64625822
Sc 5.22866618 6.81382916 12.74286067
Sc 3.42886582 10.04470524 12.65932251
Sc 12.12905701 1.01653614 12.60628899
Sc 10.48323455 3.86060952 12.72273409
Sc 8.71471905 7.04234160 12.70457753
Sc 6.85185275 9.92173490 12.70631224
Cl -0.10597151 1.95322777 10.89997419
Cl -1.60875301 4.96989809 11.05135635
Cl -3.45747894 8.08391271 10.96517602
Cl -5.20661614 10.80529489 10.97920538
Cl 3.45704768 1.86334119 10.92512872
Cl 1.62005498 5.05723443 10.95343556
Cl -0.06062740 7.96245426 10.93922785
Cl -1.72792682 10.82655801 10.87724155
Cl 6.89590327 1.88777984 10.93013813
Cl 5.14365487 4.91008227 10.99931803
Cl 3.33309385 7.92932550 10.97776337
Cl 1.62161356 11.04580688 10.90674903
Cl 10.35686457 2.14554230 10.98126326
Cl 8.75816684 5.18010854 10.96977369
Cl 6.50326202 8.11073186 11.08849645
Cl 4.90184399 11.21870870 10.91846928
Cl 1.66464581 0.91319329 16.95488086
Cl 0.04105528 3.95044945 17.00556821
Cl -1.46800452 6.98431476 16.92978432
Cl -3.33087163 9.85250982 16.97747174
Cl 5.28126672 0.95734474 16.74527955
Cl 3.49314603 4.02261849 16.68730606
Cl 1.90592811 6.86453212 16.92348193
Cl -0.01915117 9.94849727 16.86265967
Cl 8.56116290 1.17532349 16.93727488
Cl 6.61204933 3.89981678 16.83709871
Cl 5.06250214 6.96175566 16.93791493
Cl 3.50590115 9.98134939 16.85081771
Cl 11.91295469 0.91078533 16.89449634
Cl 10.35471742 4.04115218 16.80446586
Cl 8.68494667 6.89362506 16.94109020
Cl 7.00009888 9.88363864 16.73329463
C 0.07011144 0.06089104 13.80078691
C -1.66140130 2.99529822 14.01859590
C -3.38483064 5.91832189 13.88897949
C -5.08241452 8.92621788 13.92340324
C 3.33672193 0.08496415 13.95770854
C 1.82518537 2.97268006 13.85051999
C 0.10016733 6.07230344 13.97358929
C -1.65732802 8.82648991 14.01686312
C 0.03694693 11.75908064 13.81206882
C 5.28292409 2.82150078 13.88101374
C 3.51710536 5.97884126 13.92170289
C 1.76825724 8.91190469 13.84197862
C 10.29925703 0.07893777 13.83354226
C 8.76467963 2.97160804 13.90580168
C 6.90127487 6.00773892 13.79858308
C 5.10962108 8.88298734 13.98655933
80
Time=249999.99999879 pbc="T T F" Lattice="13.79398668 0.00000000 0.00000000 -6.89699334 11.94594288 0.00000000 0.00000000 0.00000000 27.81022107" energy=-525.26393843 virial="13.55257952 0.95044096 1.28513209 0.95044096 11.58149504 0.95793110 1.28513209 0.95793110 9.10549809" stress="0.00370956 0.00020740 0.00028044 0.00020740 0.00327943 0.00020904 0.00028044 0.00020904 0.00273913" Properties=species:S:1:pos:R:3
Sc 0.04272842 1.95827413 15.07984214
Sc -1.83265106 4.89359451 15.08014073
Sc -3.36548251 7.86833487 15.17125447
Sc -5.18690527 10.97498645 15.22638888
Sc 3.40545995 2.00978481 15.22123614
Sc 1.66160467 5.06329703 15.14340142
Sc -0.12269597 7.97283258 15.03655917
Sc -1.87521051 10.94128005 15.11297036
Sc 6.73006926 1.93702780 15.12962200
Sc 5.17923044 4.84732575 15.18180965
Sc 3.58760468 7.97610029 15.02386464
Sc 1.86578353 10.99149832 15.06084942
Sc 10.33841546 2.05378236 15.10844317
Sc 8.64300819 4.88428922 15.23646795
Sc 7.01215290 8.00118620 15.35082534
Sc 5.19299235 10.99789014 15.17526677
Sc 1.77549946 0.97899182 12.75578920
Sc -0.04880990 4.00422175 12.73100053
Sc -1.75678958 7.09096855 12.61948783
Sc -3.56859047 9.99430228 12.81530549
Sc 5.25541015 1.08639271 12.71952122
Sc 3.47002711 3.96998006 12.74247184
Sc 1.75548050 6.88671337 12.58654511
Sc 0.02408224 10.15052006 12.63270287
Sc 8.66880299 1.04286170 12.58589843
Sc 6.97788109 3.91217281 12.69776271
Sc 5.29605322 6.85403155 12.73050752
Sc 3.36247940 9.90472446 12.67446978
Sc 12.18811341 1.00708102 12.48727987
Sc 10.41003367 4.02009209 12.69597786
Sc 8.55133834 7.02820018 12.60877409
Sc 6.87075036 9.98436889 12.75425588
Cl 0.22149226 1.82038067 10.82370360
Cl -1.80386161 5.01604083 10.91403201
Cl -3.50435556 8.01776856 11.06758764
Cl -5.48820169 10.67723775 10.92989340
Cl 3.66209952 1.83957077 11.07640261
Cl 1.88013729 4.77246500 11.02203599
Cl -0.02911232 7.94586057 10.95836289
Cl -1.76482756 10.89204265 10.91883740
Cl 6.99043059 1.90788335 11.02124361
Cl 5.12644458 5.01219722 11.13299177
Cl 3.50320566 8.07475576 11.08152428
Cl 1.61457713 10.87721750 10.86969338
Cl 10.53650430 2.17806561 10.96022292
Cl 8.58520256 5.12761001 11.02079128
Cl 6.82526846 7.95046348 11.01008666
Cl 4.96315948 10.99362486 10.98809038
Cl 1.75010646 0.94712432 16.96803061
Cl 0.04933437 3.93286336 16.71303103
Cl -1.64881975 6.82954314 16.66192933
Cl -3.44730401 10.01252314 16.83624399
Cl 5.17682512 0.88294065 16.81560275
Cl 3.52613984 4.07702453 16.90780000
Cl 1.60840756 7.11869971 16.64143914
Cl -0.15159906 10.01486882 16.57400595
Cl 8.49004177 0.93045298 16.88095266
Cl 6.81091601 4.01110713 16.87305033
Cl 5.20124929 6.93036578 16.75618883
Cl 3.49768477 9.99626975 16.74952098
Cl 12.20036018 1.24833298 16.77357128
Cl 10.55976339 3.79896231 16.86062534
Cl 8.63120558 6.83969756 16.87382642
Cl 6.84859233 10.04327223 16.96087032
C -0.02844705 0.06386726 13.88221903
C -1.75339014 3.06235864 13.77098816
C 10.22047078 5.90831001 13.91821448
C -5.23981687 9.07997486 14.01409684
C 3.33253633 0.01333429 13.97039828
C 1.68042776 2.98482555 13.96678720
C -0.12692029 5.92363421 13.80755394
C -1.91164156 9.02735872 13.86937309
C 6.88594772 0.11993279 13.80569816
C 5.05235381 3.03160921 13.93056315
C 3.50148969 6.07504612 14.00965247
C 1.66237395 9.02283939 13.92580214
C 10.34597559 0.08672673 13.96904245
C 8.58433081 3.00874788 13.96064381
C 6.98037538 5.89666609 13.90398470
C 5.20191579 9.03470158 13.92737980
80
Time=299999.99999840 pbc="T T F" Lattice="13.79398668 0.00000000 0.00000000 -6.89699334 11.94594288 0.00000000 0.00000000 0.00000000 27.81022107" energy=-524.98650074 virial="11.50017796 0.33746113 9.35635770 0.33746113 12.57501532 0.38711935 9.35635770 0.38711935 3.72501478" stress="0.00326169 0.00007364 0.00204170 0.00007364 0.00349624 0.00008448 0.00204170 0.00008448 0.00156503" Properties=species:S:1:pos:R:3
Sc 0.05832207 2.11650928 15.07260914
Sc -1.70122048 4.87442926 15.24442217
Sc -3.46499316 7.92441045 14.96349522
Sc -5.17714225 10.86592227 15.12404516
Sc 3.37145891 1.98783178 15.12117496
Sc 1.66133538 5.04347738 15.10853741
Sc 0.00939748 8.01077781 15.11357082
Sc -1.75672880 10.91669220 15.03686868
Sc 6.78038243 2.05213533 15.04997685
Sc 5.05961896 4.99024576 15.28912605
Sc 3.39063674 8.07912150 15.10639106
Sc 1.60584960 11.00194912 15.31743826
Sc 10.16643041 1.87875867 15.10916909
Sc 8.58967260 4.94722883 15.10533236
Sc 6.80287451 7.95261294 15.27806297
Sc 5.17263429 11.04179584 15.19038904
Sc 1.82463225 0.90816597 12.67694321
Sc -0.07137001 3.95156451 12.59669499
Sc -1.62531808 6.98142814 12.59906457
Sc -3.34600915 9.91468315 12.60248914
Sc 5.22108047 0.87151821 12.67694443
Sc 3.59594278 4.06846796 12.69465522
Sc 1.71819531 6.83354819 12.61015515
Sc 0.10333385 9.82874862 12.67241734
Sc 8.65327041 0.90730558 12.59935546
Sc 6.86078070 4.07819494 12.74840652
Sc 5.30005834 7.12828535 12.74977640
Sc 3.47222104 9.91675832 12.63299004
Sc 11.99292618 0.95955433 12.56664844
Sc 10.29724515 3.88197992 12.73180339
Sc 8.48052827 7.04922938 12.65000680
Sc 6.89241602 10.07224753 12.80558040
Cl -0.00759454 2.11363770 10.95136914
Cl -1.80116937 4.92908993 10.97843605
Cl -3.50126518 7.92898222 10.82768102
Cl -5.21048422 10.90460792 10.98951776
Cl 3.58313810 1.73308151 10.94422330
Cl 1.83095165 4.93321762 11.05495647
Cl 0.04385081 8.02274220 10.97895593
Cl -1.51233990 10.93271042 11.15533199
Cl 6.62266114 2.16270369 10.80487179
Cl 5.25703734 5.20507310 11.14011396
Cl 3.54919834 7.94395401 11.12277986
Cl 1.89458725 10.90546501 10.99316256
Cl 10.29736790 2.03359644 10.84480253
Cl 8.85376719 4.96265828 11.05718786
Cl 7.00279703 8.06754626 11.08370401
Cl 5.10901595 10.95019062 11.00702740
Cl 1.71992554 0.99704265 16.77267270
Cl -0.00353057 3.91616214 16.84968625
Cl -1.75515258 7.01245401 16.68126014
Cl -3.38311438 10.01806573 16.80421566
Cl 5.29496814 1.01514309 16.72336295
Cl 3.32875086 3.93821062 16.86037348
Cl 1.89859593 6.98299988 16.95610731
Cl -0.37443857 9.82687781 16.86958842
Cl 8.43087006 0.93503027 16.85103111
Cl 7.14295618 3.84524873 16.86783323
Cl 5.20380625 7.04198689 16.89291988
Cl 3.49476719 9.87352045 16.77376400
Cl 12.15736716 1.17617205 16.77757666
Cl 10.26807941 3.85350549 16.78107360
Cl 8.59675409 7.08937037 16.88541905
Cl 6.82069430 10.02685811 16.87143282
C -6.81185008 11.87774848 13.81068005
C -1.68244079 3.05621810 13.85694560
C -3.43266926 5.96069187 13.87783130
C -5.07516593 9.02436666 13.82974533
C -3.45026270 11.91492255 13.96501268
C 1.73507910 2.98932387 13.98727402
C -0.11668037 5.92573257 13.87579810
C -1.60573078 9.00166384 13.92025579
C -0.04350610 11.94084168 13.85617170
C 5.17224926 2.99816006 13.94996680
C 3.41279774 5.92633201 14.02838898
C 1.77886956 8.92086732 13.94435110
C 3.37001903 11.91125003 13.87796341
C 8.54117196 2.89639776 13.79772583
C 6.90927672 5.98899021 13.94337582
C 5.16178678 9.07684334 13.84813685
80
Time=349999.99999862 pbc="T T F" Lattice="13.79398668 0.00000000 0.00000000 -6.89699334 11.94594288 0.00000000 0.00000000 0.00000000 27.81022107" energy=-525.04728365 virial="7.26265971 -0.87289470 -2.86700267 -0.87289470 10.89605754 -5.65651344 -2.86700267 -5.65651344 -4.01429607" stress="0.00233700 -0.00019048 -0.00062562 -0.00019048 0.00312986 -0.00123434 -0.00062562 -0.00123434 -0.00012381" Properties=species:S:1:pos:R:3
Sc -0.03657627 2.11929372 15.08532918
Sc -1.76473284 4.89327028 15.02112258
Sc -3.42771490 8.05049372 15.34425973
Sc -5.21392290 10.93670369 15.07941120
Sc 3.45565757 2.07871758 15.08877781
Sc 1.65602282 5.03782155 15.06123448
Sc 0.15560631 8.00254235 15.07287449
Sc -1.69346923 11.11934521 15.15646216
Sc 7.02691063 2.11071195 15.13442336
Sc 5.19124623 5.03735179 15.30948566
Sc 3.58035451 8.06349437 15.20046745
Sc 1.72239932 11.00117784 15.14204339
Sc 10.35490888 1.94408493 15.19234065
Sc 8.68081848 4.98138401 15.03753891
Sc 6.97613777 8.00521699 15.28499298
Sc 5.24471546 10.88982165 15.13088456
Sc 1.77505845 0.99049465 12.62307572
Sc -0.02152955 4.05413846 12.66771884
Sc -1.71452788 6.92743280 12.68168800
Sc -3.38849770 9.84130282 12.83078941
Sc 5.03514888 1.12822641 12.57753013
Sc 3.42109512 4.11478780 12.62352475
Sc 1.88758850 6.94970498 12.56705611
Sc -0.12683296 9.93923067 12.70397190
Sc 8.56943643 0.91599385 12.54371479
Sc 6.86764944 3.78981572 12.69774126
Sc 5.35094982 6.97575539 12.79334254
Sc 3.46049480 9.84856853 12.59203441
Sc 11.94592722 0.99650685 12.74602582
Sc 10.46418925 3.91660932 12.51082102
Sc 8.53865273 7.06942947 12.87379240
Sc 6.85695882 9.82952696 12.66291969
Cl -0.15130551 1.91471805 11.06556716
Cl -1.80139750 5.01844516 10.94505370
Cl -3.46184428 8.07618349 11.14908872
Cl -5.21306549 10.82959754 10.91076300
Cl 3.35944598 2.07416438 10.88859106
Cl 1.60609682 5.01132329 10.84116937
Cl -0.06607232 7.86081220 10.96955017
Cl -1.77932217 10.85569079 11.09347362
Cl 6.77517287 1.99387195 10.92692586
Cl 5.27483845 4.78414820 10.94456769
Cl 3.40677033 8.11559418 10.85905756
Cl 1.67763429 10.81732833 11.14991164
Cl 10.43828163 1.98262923 10.82572416
Cl 8.72533871 4.90267098 11.03471427
Cl 6.88003661 7.85630836 11.00448274
Cl 5.27602147 10.76982697 10.92475077
Cl 1.71814201 0.97317674 16.73744435
Cl -0.00997361 3.98063818 16.70876322
Cl -1.72342695 6.92967645 16.73948169
Cl -3.38527742 10.11722433 16.89974027
Cl 5.11901637 0.99969825 16.96204739
Cl 3.26016997 4.13995780 16.69153514
Cl 1.73038988 6.99639720 16.88357769
Cl 0.02615615 9.99140031 16.80428309
Cl 8.67737508 0.81101272 16.89022419
Cl 6.80049733 3.82054008 16.86138298
Cl 5.26856847 7.04943236 16.98294566
Cl 3.44496163 9.96901601 16.88864341
Cl 12.14088534 1.13722120 16.74150683
Cl 10.23368023 3.82945420 16.81814584
Cl 8.68959111 6.95520458 16.89976856
Cl 6.98204262 10.00001927 16.89574427
C 6.74923574 11.83051082 13.75074873
C -1.68177679 2.97237527 13.85739614
C 10.35687168 5.90168000 13.83846815
C 8.55805362 9.03280444 14.01632985
C 3.38553602 0.05283538 13.85487667
C 1.66299147 3.03259647 13.87599175
C -0.09161168 6.02193428 14.01428022
C -1.80757800 9.12464973 13.97642495
C 6.79349638 0.16174227 13.90340334
C 5.15583327 3.02644389 13.75929731
C 3.42371443 6.07449611 13.94823559
C 1.86863127 8.85907932 13.87181218
C 3.40182646 11.90923964 13.80269626
C 8.68216638 2.83597571 13.85489817
C 6.81851010 5.91838076 14.05255522
C 5.18046284 8.91365756 13.90143463
80
Time=400000.00000008 pbc="T T F" Lattice="13.79398668 0.00000000 0.00000000 -6.89699334 11.94594288 0.00000000 0.00000000 0.00000000 27.81022107" energy=-525.06886578 virial="8.70902488 -0.05454943 -5.06144409 -0.05454943 10.34979927 -7.93355005 -5.06144409 -7.93355005 -4.32069741" stress="0.00265262 -0.00001190 -0.00110448 -0.00001190 0.00301066 -0.00173122 -0.00110448 -0.00173122 -0.00019067" Properties=species:S:1:pos:R:3
Sc -0.04169618 2.01480752 15.22401830
Sc -1.65984961 5.12458917 15.17590433
Sc -3.47520564 8.06416245 15.17149622
Sc -5.33564139 11.09859495 15.12078515
Sc 3.35437253 1.99408233 15.11259475
Sc 1.74449786 5.04354695 15.23726997
Sc 0.00183998 8.02918676 15.19363394
Sc -1.77496300 10.94319899 14.99025643
Sc 6.92129159 2.06349289 15.23860441
Sc 5.15879706 4.88462489 15.17148496
Sc 3.45758043 7.96030013 15.14768836
Sc 1.74786529 11.09752084 15.24234164
Sc 10.39157540 1.92158252 15.33622322
Sc 8.74642353 5.02512555 15.13944976
Sc 6.91634367 7.94428348 15.18424706
Sc 5.20058848 10.92477604 14.97824034
Sc 1.55984786 0.89396327 12.63488762
Sc 0.05832152 4.07196507 12.65466468
Sc -1.72758797 6.99707813 12.64045958
Sc -3.63516459 9.84316855 12.64418015
Sc 5.13352056 0.99030952 12.65820778
Sc 3.42765121 3.90562004 12.76958663
Sc 1.71300729 6.83659484 12.69933544
Sc -0.09800285 9.89554012 12.62251156
Sc 8.69116788 1.01826606 12.69956945
Sc 6.82818986 3.89515864 12.69261714
Sc 5.13621409 6.79841510 12.59707647
Sc 3.49786157 9.86922283 12.65881258
Sc 12.04300401 1.07424610 12.58368112
Sc 10.35120558 4.01183691 12.69028372
Sc 8.63864022 6.93427261 12.64355372
Sc 6.84230401 10.07803060 12.55922152
Cl 0.03970218 1.99963521 11.02347632
Cl -1.65724025 5.00157699 10.93500590
Cl -3.27634541 7.95289967 11.00583617
Cl -5.25802489 10.95579541 10.88493113
Cl 3.45933669 1.99721460 11.01282551
Cl 1.78629062 4.95274222 10.97181081
Cl 0.08541560 7.82337496 10.93638278
Cl -1.86346923 11.02747908 10.87976947
Cl 6.77363513 1.82531881 10.83183805
Cl 5.16840870 4.91086370 10.97069274
Cl 3.36728057 7.95115535 11.13484582
Cl 1.63481083 10.89166261 10.96155712
Cl 10.41855392 1.97591561 11.07597391
Cl 8.68007163 4.99436408 11.05037520
Cl 6.93074245 7.92309781 11.00257937
Cl 4.99096615 10.83620479 10.95046104
Cl 1.79132012 0.85036720 16.98427954
Cl 0.14773566 3.95082495 16.85437740
Cl -1.84373307 7.16922587 16.90637383
Cl -3.51301907 10.05903552 16.53213517
Cl 5.13158401 0.85459645 16.66721425
Cl 3.38906151 3.95838079 16.92536503
Cl 1.93449156 7.13414246 16.92319497
Cl 0.24507770 9.86553847 16.77342329
Cl 8.59315194 1.04500378 16.86346995
Cl 6.93345494 4.08332581 16.86596318
Cl 5.10937562 7.01080633 16.73371133
Cl 3.48221050 10.09276017 16.79057367
Cl 12.03279295 0.98485807 16.97433107
Cl 10.61986879 3.96661607 16.83219289
Cl 8.60586434 7.09680610 16.67399937
Cl 7.06193926 9.86465994 16.90108403
C 6.86724561 11.90383061 13.88139117
C -1.64195387 2.99086179 13.92492011
C -3.30019396 5.99354172 13.80826681
C 8.50201803 8.89550432 13.85431789
C 3.25042318 0.09985684 13.78033627
C 1.80018922 3.16340817 13.83348010
C -0.09621889 5.91998743 13.95915382
C -1.76591708 8.99326590 13.85968554
C 6.83863405 0.03949460 13.92595630
C 5.16726647 2.86476165 13.95676331
C 3.41627589 5.99630942 13.93447769
C 1.67109154 8.92787203 13.91647726
C 3.56618673 11.93703814 13.89740775
C 8.70103110 2.92737275 14.08397948
C 6.96587177 5.80962677 13.87206716
C 5.33053135 9.06407673 13.82806451
80
Time=450000.00000155 pbc="T T F" Lattice="13.79398668 0.00000000 0.00000000 -6.89699334 11.94594288 0.00000000 0.00000000 0.00000000 27.81022107" energy=-524.91602039 virial="8.31954086 -1.22514382 -5.08479766 -1.22514382 4.87005502 -0.62255697 -5.08479766 -0.62255697 -15.42449520" stress="0.00256763 -0.00026735 -0.00110958 -0.00026735 0.00181490 -0.00013585 -0.00110958 -0.00013585 -0.00261369" Properties=species:S:1:pos:R:3
Sc -0.07318347 1.83892509 15.22277637
Sc -1.70629278 4.99796563 15.13242627
Sc -3.35725132 7.85896814 15.02928013
Sc -5.24686473 11.00649419 15.10947928
Sc 3.48148393 1.98557600 15.16341578
Sc 1.76176088 4.99116578 15.18244796
Sc 0.10735924 7.87308415 15.18338174
Sc -1.72466868 11.00561837 15.04430639
Sc 6.82801151 1.96927254 14.97849340
Sc 5.25603754 4.97519102 15.16204252
Sc 3.49505417 7.88994166 15.21828522
Sc 1.79952121 10.77726869 15.32211930
Sc 10.33510905 1.95819394 15.16830753
Sc 8.72754706 5.03887163 15.37308619
Sc 6.83989004 7.97149624 15.29899249
Sc 5.24263407 10.90412035 15.08056237
Sc 1.70885429 1.03196196 12.63350434
Sc -0.08766708 3.93477566 12.57718236
Sc -1.64851319 6.97150121 12.58012176
Sc -3.50246517 9.97246848 12.50211375
Sc 5.20836221 1.01966461 12.56409058
Sc 3.25314373 3.97642644 12.67544095
Sc 1.71642636 6.91193244 12.74216684
Sc 0.00727274 10.02836378 12.61649406
Sc 8.56940040 0.93655977 12.68740637
Sc 6.85379441 3.97772747 12.67220482
Sc 5.20262765 6.95305456 12.72112169
Sc 3.42847941 9.88432786 12.74543775
Sc 12.04017814 1.02928818 12.58000909
Sc 10.25129137 3.85354944 12.65155500
Sc 8.55163411 6.98177125 12.70440369
Sc 6.86940909 9.94591460 12.72692462
Cl -0.17727895 1.83217110 10.77209337
Cl -1.77188254 4.99511205 11.06373262
Cl -3.38068848 8.17015231 10.93676074
Cl -5.31981358 10.88903293 10.71783459
Cl 3.40393833 2.21283967 11.04607796
Cl 1.60109079 4.92047420 10.85528304
Cl 0.18476766 8.00969372 10.87800873
Cl -1.83734496 11.16757940 11.01799504
Cl 6.98050030 2.09485781 10.88850302
Cl 5.26014703 5.02492534 11.01920607
Cl 3.58941097 7.79976619 11.13662690
Cl 1.54207803 10.89862563 11.00781120
Cl 10.26730862 1.96379605 10.85690229
Cl 8.57667648 5.03913317 10.93218780
Cl 6.97259147 7.96767338 11.06297547
Cl 5.24138801 10.93150702 10.95213912
Cl 1.72549638 0.90384866 16.92912133
Cl 0.05239072 4.04326393 16.66947393
Cl -1.57591698 6.91903645 16.95391297
Cl -3.28318624 9.94062072 16.59599624
Cl 5.00997539 1.05932362 16.84090944
Cl 3.56870659 3.94530754 16.76363942
Cl 2.01385503 6.92444971 16.99260627
Cl -0.02207854 10.03917239 16.87090311
Cl 8.51083303 1.02339105 16.85546671
Cl 6.76609297 4.07372716 16.81328697
Cl 5.27758057 7.02769708 16.92215519
Cl 3.48778399 9.83112006 16.99168069
Cl 12.04132714 1.06194216 16.90731255