 running on   48 total cores
 distrk:  each k-point on   48 cores,    1 groups
 distr:  one band on   12 cores,    4 groups
 using from now: INCAR     
 vasp.5.4.4.18Apr17-6-g9f103f2a35 (build Mar 16 2023 09:39:13) complex          
  
 POSCAR found type information on POSCAR  Ca Si O 
 POSCAR found :  3 types and     135 ions
 scaLAPACK is switched off
 LDA part: xc-table for Pade appr. of Perdew
 generate k-points for:    2    2    2
 POSCAR, INCAR and KPOINTS ok, starting setup
 FFT: planning ...
 WAVECAR not read
 entering main loop
       N       E                     dE             d eps       ncg     rms          rms(c)
DAV:   1     0.988139043077E+04    0.98814E+04   -0.48855E+05  8320   0.188E+03
DAV:   2     0.103603289566E+03   -0.97778E+04   -0.94449E+04  9584   0.515E+02
DAV:   3    -0.982207281159E+03   -0.10858E+04   -0.10773E+04 10264   0.173E+02
DAV:   4    -0.103397527972E+04   -0.51768E+02   -0.51567E+02 11368   0.337E+01
DAV:   5    -0.103850074724E+04   -0.45255E+01   -0.45228E+01 14504   0.772E+00    0.821E+01
DAV:   6    -0.907850998746E+03    0.13065E+03   -0.57028E+02 10056   0.377E+01    0.341E+01
DAV:   7    -0.909944865961E+03   -0.20939E+01   -0.62520E+01 11224   0.126E+01    0.163E+01
DAV:   8    -0.909150969857E+03    0.79390E+00   -0.84211E+00 10656   0.533E+00    0.662E+00
DAV:   9    -0.908947434087E+03    0.20354E+00   -0.18284E+00 10688   0.290E+00    0.191E+00
DAV:  10    -0.909006038771E+03   -0.58605E-01   -0.64645E-01 11232   0.141E+00    0.130E+00
DAV:  11    -0.909009320933E+03   -0.32822E-02   -0.10434E-01 11480   0.603E-01    0.654E-01
DAV:  12    -0.909011524130E+03   -0.22032E-02   -0.27679E-02 10352   0.297E-01    0.186E-01
DAV:  13    -0.909012303336E+03   -0.77921E-03   -0.45346E-03 12272   0.139E-01    0.100E-01
DAV:  14    -0.909012403977E+03   -0.10064E-03   -0.13912E-03 11432   0.663E-02    0.694E-02
DAV:  15    -0.909012404307E+03   -0.33026E-06   -0.23880E-04 10720   0.314E-02    0.295E-02
DAV:  16    -0.909012406872E+03   -0.25643E-05   -0.63342E-05 11136   0.212E-02    0.114E-02
DAV:  17    -0.909012407457E+03   -0.58569E-06   -0.45862E-05 10936   0.128E-02    0.862E-03
DAV:  18    -0.909012407172E+03    0.28533E-06   -0.69769E-06  9320   0.448E-03
   1 F= -.90901241E+03 E0= -.90901241E+03  d E =-.681582E-13
