 vasp.5.4.4.18Apr17-6-g9f103f2a35 (build Mar 16 2023 09:39:13) complex          
  
 executed on             LinuxIFC date 2024.04.29  21:08:01
 running on   48 total cores
 distrk:  each k-point on   48 cores,    1 groups
 distr:  one band on NCORES_PER_BAND=  12 cores,    4 groups


--------------------------------------------------------------------------------------------------------


 INCAR:
 POTCAR:    PAW_PBE Ca_sv 06Sep2000               
 POTCAR:    PAW_PBE Si 05Jan2001                  
 POTCAR:    PAW_PBE O 08Apr2002                   
 POTCAR:    PAW_PBE Ca_sv 06Sep2000               
   SHA256 =  a47365830e737f14e0e6c5cf1ed81b94e081eecf0a33df105380881bc9da05d5 Ca
   COPYR  = (c) Copyright 06Sep2000 Georg Kresse                                
   COPYR  = This file is part of the software VASP. Any use, copying, and all ot
   COPYR  = If you do not have a valid VASP license, you may not use, copy or di
   VRHFIN =Ca: 3s3p4s                                                           
   LEXCH  = PE                                                                  
   EATOM  =  1006.0909 eV,   73.9456 Ry                                         
                                                                                
   TITEL  = PAW_PBE Ca_sv 06Sep2000                                             
   LULTRA =        F    use ultrasoft PP ?                                      
   IUNSCR =        1    unscreen: 0-lin 1-nonlin 2-no                           
   RPACOR =    2.000    partial core radius                                     
   POMASS =   40.078; ZVAL   =   10.000    mass and valenz                      
   RCORE  =    2.300    outmost cutoff radius                                   
   RWIGS  =    2.500; RWIGS  =    1.323    wigner-seitz radius (au A)           
   ENMAX  =  266.622; ENMIN  =  199.967 eV                                      
   RCLOC  =    1.808    cutoff for local pot                                    
   LCOR   =        T    correct aug charges                                     
   LPAW   =        T    paw PP                                                  
   EAUG   =  420.852                                                            
   RMAX   =    2.359    core radius for proj-oper                               
   RAUG   =    1.300    factor for augmentation sphere                          
   RDEP   =    2.392    radius for radial grids                                 
   RDEPT  =    1.987    core radius for aug-charge                              
                                                                                
   Atomic configuration                                                         
    7 entries                                                                   
     n  l   j            E        occ.                                          
     1  0  0.50     -3949.1705   2.0000                                         
     2  0  0.50      -414.3434   2.0000                                         
     2  1  1.50      -334.7047   6.0000                                         
     3  0  0.50       -47.0896   2.0000                                         
     4  0  0.50        -3.7663   2.0000                                         
     3  1  1.50       -28.0061   6.0000                                         
     3  2  1.50        -4.0817   0.0000                                         
   Description                                                                  
     l       E           TYP  RCUT    TYP  RCUT                                 
     0    -47.0896403     23  2.300                                             
     0     -3.7663320     23  2.300                                             
     1    -28.0060855     23  2.300                                             
     1      6.8029130     23  2.300                                             
     2     -4.0817478     23  2.300                                             
     2      0.4464412     23  2.300                                             
  local pseudopotential read in
  partial core-charges read in
  partial kinetic energy density read in
  atomic valenz-charges read in
  non local Contribution for L=           0  read in
    real space projection operators read in
  non local Contribution for L=           0  read in
    real space projection operators read in
  non local Contribution for L=           1  read in
    real space projection operators read in
  non local Contribution for L=           1  read in
    real space projection operators read in
  non local Contribution for L=           2  read in
    real space projection operators read in
  non local Contribution for L=           2  read in
    real space projection operators read in
    PAW grid and wavefunctions read in
 
   number of l-projection  operators is LMAX  =           6
   number of lm-projection operators is LMMAX =          18
 
 POTCAR:    PAW_PBE Si 05Jan2001                  
   SHA256 =  79d9987ad8750f624c4d6acb2a16d13abf6a777132adc04dc6c8399be72b42bb Si
   COPYR  = (c) Copyright 05Jan2001 Georg Kresse                                
   COPYR  = This file is part of the software VASP. Any use, copying, and all ot
   COPYR  = If you do not have a valid VASP license, you may not use, copy or di
   VRHFIN =Si: s2p2                                                             
   LEXCH  = PE                                                                  
   EATOM  =   103.0669 eV,    7.5752 Ry                                         
                                                                                
   TITEL  = PAW_PBE Si 05Jan2001                                                
   LULTRA =        F    use ultrasoft PP ?                                      
   IUNSCR =        1    unscreen: 0-lin 1-nonlin 2-no                           
   RPACOR =    1.500    partial core radius                                     
   POMASS =   28.085; ZVAL   =    4.000    mass and valenz                      
   RCORE  =    1.900    outmost cutoff radius                                   
   RWIGS  =    2.480; RWIGS  =    1.312    wigner-seitz radius (au A)           
   ENMAX  =  245.345; ENMIN  =  184.009 eV                                      
   ICORE  =        2    local potential                                         
   LCOR   =        T    correct aug charges                                     
   LPAW   =        T    paw PP                                                  
   EAUG   =  322.069                                                            
   DEXC   =    0.000                                                            
   RMAX   =    1.950    core radius for proj-oper                               
   RAUG   =    1.300    factor for augmentation sphere                          
   RDEP   =    1.993    radius for radial grids                                 
   RDEPT  =    1.837    core radius for aug-charge                              
                                                                                
   Atomic configuration                                                         
    6 entries                                                                   
     n  l   j            E        occ.                                          
     1  0  0.50     -1785.8828   2.0000                                         
     2  0  0.50      -139.4969   2.0000                                         
     2  1  1.50       -95.5546   6.0000                                         
     3  0  0.50       -10.8127   2.0000                                         
     3  1  0.50        -4.0811   2.0000                                         
     3  2  1.50        -4.0817   0.0000                                         
   Description                                                                  
     l       E           TYP  RCUT    TYP  RCUT                                 
     0    -10.8127223     23  1.900                                             
     0     -7.6451159     23  1.900                                             
     1     -4.0811372     23  1.900                                             
     1      2.4879257     23  1.900                                             
     2     -4.0817478      7  1.900                                             
  local pseudopotential read in
  partial core-charges read in
  partial kinetic energy density read in
  atomic valenz-charges read in
  non local Contribution for L=           0  read in
    real space projection operators read in
  non local Contribution for L=           0  read in
    real space projection operators read in
  non local Contribution for L=           1  read in
    real space projection operators read in
  non local Contribution for L=           1  read in
    real space projection operators read in
    PAW grid and wavefunctions read in
 
   number of l-projection  operators is LMAX  =           4
   number of lm-projection operators is LMMAX =           8
 
 POTCAR:    PAW_PBE O 08Apr2002                   
   SHA256 =  818f92134a0a090dccd8ba1447fa70422a3b330e708bb4f08108d8ae51209ddf O/
   COPYR  = (c) Copyright 08Apr2002 Georg Kresse                                
   COPYR  = This file is part of the software VASP. Any use, copying, and all ot
   COPYR  = If you do not have a valid VASP license, you may not use, copy or di
   VRHFIN =O: s2p4                                                              
   LEXCH  = PE                                                                  
   EATOM  =   432.3788 eV,   31.7789 Ry                                         
                                                                                
   TITEL  = PAW_PBE O 08Apr2002                                                 
   LULTRA =        F    use ultrasoft PP ?                                      
   IUNSCR =        1    unscreen: 0-lin 1-nonlin 2-no                           
   RPACOR =    1.200    partial core radius                                     
   POMASS =   16.000; ZVAL   =    6.000    mass and valenz                      
   RCORE  =    1.520    outmost cutoff radius                                   
   RWIGS  =    1.550; RWIGS  =    0.820    wigner-seitz radius (au A)           
   ENMAX  =  400.000; ENMIN  =  300.000 eV                                      
   ICORE  =        2    local potential                                         
   LCOR   =        T    correct aug charges                                     
   LPAW   =        T    paw PP                                                  
   EAUG   =  605.392                                                            
   DEXC   =    0.000                                                            
   RMAX   =    1.553    core radius for proj-oper                               
   RAUG   =    1.300    factor for augmentation sphere                          
   RDEP   =    1.550    radius for radial grids                                 
   RDEPT  =    1.329    core radius for aug-charge                              
                                                                                
   Atomic configuration                                                         
    4 entries                                                                   
     n  l   j            E        occ.                                          
     1  0  0.50      -514.6923   2.0000                                         
     2  0  0.50       -23.9615   2.0000                                         
     2  1  0.50        -9.0305   4.0000                                         
     3  2  1.50        -9.5241   0.0000                                         
   Description                                                                  
     l       E           TYP  RCUT    TYP  RCUT                                 
     0    -23.9615318     23  1.200                                             
     0     -9.5240782     23  1.200                                             
     1     -9.0304911     23  1.520                                             
     1      8.1634956     23  1.520                                             
     2     -9.5240782      7  1.500                                             
  local pseudopotential read in
  partial core-charges read in
  partial kinetic energy density read in
  kinetic energy density of atom read in
  atomic valenz-charges read in
  non local Contribution for L=           0  read in
    real space projection operators read in
  non local Contribution for L=           0  read in
    real space projection operators read in
  non local Contribution for L=           1  read in
    real space projection operators read in
  non local Contribution for L=           1  read in
    real space projection operators read in
    PAW grid and wavefunctions read in
 
   number of l-projection  operators is LMAX  =           4
   number of lm-projection operators is LMMAX =           8
 
 Optimization of the real space projectors (new method)

 maximal supplied QI-value         = 16.25
 optimisation between [QCUT,QGAM] = [ 12.51, 25.03] = [ 43.85,175.40] Ry 
 Optimized for a Real-space Cutoff    1.47 Angstroem

   l    n(q)    QCUT    max X(q) W(low)/X(q) W(high)/X(q)  e(spline) 
   0     11    12.514    11.817    0.25E-04    0.32E-05    0.87E-07
   0     11    12.514     8.461    0.39E-04    0.59E-05    0.18E-06
   1     11    12.514     3.957    0.97E-05    0.57E-05    0.28E-07
   1     11    12.514     4.314    0.42E-04    0.14E-04    0.23E-06
   2     10    12.514    14.565    0.79E-04    0.50E-03    0.16E-05
   2     10    12.514    14.552    0.75E-04    0.48E-03    0.15E-05
 Optimization of the real space projectors (new method)

 maximal supplied QI-value         = 19.84
 optimisation between [QCUT,QGAM] = [ 12.50, 25.00] = [ 43.76,175.03] Ry 
 Optimized for a Real-space Cutoff    1.16 Angstroem

   l    n(q)    QCUT    max X(q) W(low)/X(q) W(high)/X(q)  e(spline) 
   0      9    12.501   159.560    0.10E-03    0.83E-04    0.71E-07
   0      9    12.501   115.863    0.99E-04    0.81E-04    0.70E-07
   1      8    12.501    88.339    0.20E-03    0.25E-03    0.76E-07
   1      8    12.501    48.592    0.20E-03    0.24E-03    0.75E-07
 Optimization of the real space projectors (new method)

 maximal supplied QI-value         = 24.76
 optimisation between [QCUT,QGAM] = [ 12.38, 25.00] = [ 42.90,175.06] Ry 
 Optimized for a Real-space Cutoff    1.16 Angstroem

   l    n(q)    QCUT    max X(q) W(low)/X(q) W(high)/X(q)  e(spline) 
   0      9    12.378    20.381    0.16E-03    0.67E-05    0.31E-06
   0      9    12.378    15.268    0.17E-03    0.81E-05    0.33E-06
   1      8    12.378     5.964    0.20E-03    0.16E-03    0.30E-06
   1      8    12.378     5.382    0.18E-03    0.14E-03    0.26E-06
  PAW_PBE Ca_sv 06Sep2000               :
 energy of atom  1       EATOM=-1006.0909
 kinetic energy error for atom=    0.0012 (will be added to EATOM!!)
  PAW_PBE Si 05Jan2001                  :
 energy of atom  2       EATOM= -103.0669
 kinetic energy error for atom=    0.0003 (will be added to EATOM!!)
  PAW_PBE O 08Apr2002                   :
 energy of atom  3       EATOM= -432.3788
 kinetic energy error for atom=    0.0168 (will be added to EATOM!!)
 
 
 POSCAR: Ca Si  O                                
  positions in direct lattice
  No initial velocities read in
 exchange correlation table for  LEXCH =        8
   RHO(1)=    0.500       N(1)  =     2000
   RHO(2)=  100.500       N(2)  =     4000
 


--------------------------------------------------------------------------------------------------------


 ion  position               nearest neighbor table
   1  0.490  0.932  0.565- 105 2.28  70 2.35 135 2.51 118 2.52  54 2.87  33 3.00  13 3.00  28 3.05

   2  0.115  0.590  0.553- 113 2.11 106 2.28 102 2.30 100 2.32 107 2.32  47 2.98   9 3.15  29 3.16

   3  0.699  0.984  0.375-  59 2.17  94 2.17 103 2.44  54 2.93   5 3.14
   4  0.629  0.422  0.987-  98 1.91  67 2.33 109 2.34 121 2.37  56 2.37  37 2.82  19 2.87  53 2.88
                            48 3.02  35 3.10
   5  0.909  0.844  0.503-  62 2.14  63 2.22 108 2.27 102 2.43  54 2.85  34 2.95  20 3.08   3 3.14

   6  0.315  0.384  0.639- 125 2.34 100 2.44 111 2.45 107 2.45 131 2.52 104 2.56  29 3.11  45 3.12

   7  0.835  0.937  0.894-  75 2.03  82 2.07 124 2.17 134 2.26  73 2.40  90 2.45  78 2.52  31 2.73
                            32 2.96  54 3.12  51 3.15
   8  0.927  0.519  0.789-  92 2.06 110 2.24  93 2.27  67 2.44 100 2.47  31 2.65   9 2.82  37 3.06
                            40 3.06
   9  0.174  0.561  0.829- 131 2.08  89 2.14 100 2.16 110 2.22 106 2.33  64 2.38   8 2.82  25 2.89
                            14 2.92  19 3.15   2 3.15
  10  0.786  0.552  0.190-  84 2.13  74 2.19 119 2.31  55 2.31 121 2.40  67 2.45 132 2.56  40 2.86
                            39 3.07  37 3.08  46 3.10
  11  0.594  0.152  0.756-  66 1.95 105 2.28 103 2.38  97 2.52 109 2.54  54 2.83  35 2.95  42 3.01
                            38 3.05
  12  0.458  0.275  0.248-  80 2.12  58 2.34 128 2.51 115 2.51  95 2.52 121 2.54  43 2.77  52 2.78
                            13 2.83  18 3.09
  13  0.497  0.189  0.484- 116 2.03 128 2.08  80 2.12  66 2.29 111 2.34 103 2.51  45 2.79  12 2.83
                            18 2.95   1 3.00
  14  0.048  0.694  0.017- 110 2.16  96 2.28  84 2.33  64 2.39  73 2.44  93 2.46  79 2.48   9 2.92
                            31 3.01  32 3.04  51 3.11
  15  0.027  0.388  0.321-  91 2.20 107 2.35 119 2.40  57 2.50  47 2.66  52 2.94
  16  0.916  0.132  0.134- 117 2.21  81 2.48 126 2.53 127 2.56  46 3.04  44 3.12
  17  0.109  0.929  0.246-  81 2.36  79 2.37 126 2.39  62 2.41  96 2.47  83 2.49 129 2.57  34 2.88
                            44 3.10
  18  0.560  0.444  0.443- 104 2.23 128 2.25  76 2.39  85 2.40  80 2.43  13 2.95  42 2.97  12 3.09
                            39 3.12
  19  0.444  0.585  0.914-  99 2.22 131 2.31  98 2.41  64 2.42  89 2.46  72 2.54  48 2.81   4 2.87
                            53 2.89   9 3.15
  20  0.017  0.051  0.653-  63 2.02 123 2.41 101 2.46  83 2.46 124 2.52  68 2.55  34 2.74  29 3.06
                            45 3.08   5 3.08
  21  0.783  0.256  0.516- 128 2.20  68 2.38 103 2.40 117 2.52  71 2.56  46 2.77  34 3.15  29 3.16

  22  0.674  0.701  0.683- 108 2.09  70 2.23  78 2.31  92 2.35  56 2.36  76 2.46  33 2.79  37 2.94
                            30 3.01
  23  0.215  0.476  0.101-  91 2.10  89 2.17  72 2.24 122 2.32  57 2.42  86 2.46  52 2.90  48 3.10

  24  0.364  0.712  0.341- 129 2.15  86 2.25 135 2.33  77 2.35  48 2.89  28 2.97  30 2.99  39 3.14

  25  0.237  0.810  0.790-  65 2.15 106 2.21  73 2.48  41 2.87   9 2.89  32 2.98  28 3.08
  26  0.571  0.860  0.106- 130 2.07  90 2.24  59 2.27  87 2.42  49 2.81
  27  0.116  0.250  0.911- 122 2.03 133 2.32  88 2.50  40 3.02  44 3.15
  28  0.230  0.860  0.517-  77 1.54 118 1.64 102 1.66 129 1.77  83 2.04  24 2.97  45 2.97   1 3.05
                            25 3.08
  29  0.045  0.321  0.608- 101 1.69 100 1.76  68 1.86 123 1.87  71 1.88 107 1.98  20 3.06   6 3.11
                             2 3.16  21 3.16
  30  0.423  0.651  0.596- 104 1.71  77 1.75  70 1.88 131 1.98 125 1.99 135 2.00  24 2.99  22 3.01

  31  0.949  0.757  0.773-  93 1.59  92 1.69 106 1.69  73 1.73  75 1.96   8 2.65   7 2.73  14 3.01

  32  0.092  0.958  0.960-  82 1.52  60 1.65  73 1.72  81 1.96  65 2.00  96 2.07   7 2.96  25 2.98
                            41 2.98  14 3.04
  33  0.533  0.858  0.820- 105 1.63 112 1.72  70 1.75  78 1.80  87 2.04 134 2.41  22 2.79   1 3.00
                            41 3.01
  34  0.982  0.082  0.411-  62 1.42  68 1.70  83 1.86 126 1.88  63 2.13 117 2.14  20 2.74  17 2.88
                             5 2.95  21 3.15
  35  0.640  0.145  0.017- 109 1.51  58 1.76 134 1.83  97 1.83 127 1.83  43 2.88  11 2.95   4 3.10

  36  0.385  0.999  0.288-  61 1.63  94 1.65 130 1.84 129 1.85 116 1.96  43 3.12
  37  0.733  0.648  0.936-  67 1.59  93 1.78  78 1.83  55 2.00  56 2.14  99 2.45   4 2.82  22 2.94
                             8 3.06  10 3.08
  38  0.841  0.244  0.829-  69 1.56  88 1.57 124 1.71 101 1.86 109 1.93  11 3.05  40 3.12
  39  0.645  0.702  0.375- 114 1.51  85 1.64  59 1.72 135 1.74  10 3.07  50 3.08  18 3.12  24 3.14

  40  0.934  0.406  0.039- 119 1.54  88 1.58 110 1.81 122 2.04  67 2.12  84 2.48  10 2.86  27 3.02
                             8 3.06  38 3.12
  41  0.335  0.033  0.874-  65 1.55 112 1.57 120 1.78 133 2.11  43 2.36  25 2.87  32 2.98  33 3.01

  42  0.625  0.415  0.700-  66 1.64  56 1.74  69 1.87  76 2.02 104 2.03  98 2.18  18 2.97  11 3.01

  43  0.383  0.145  0.048- 120 1.54  95 1.56  58 1.57  97 1.87  61 2.22  41 2.36 133 2.38  53 2.50
                            44 2.66  12 2.77  35 2.88  36 3.12
  44  0.187  0.188  0.179-  61 1.70  57 1.76 126 1.76  81 1.77  95 1.86 122 2.09  43 2.66  17 3.10
                            16 3.12  27 3.15
  45  0.264  0.123  0.550- 123 1.67 111 1.78 116 1.79 118 1.85  83 2.50  13 2.79  28 2.97  20 3.08
                             6 3.12
  46  0.741  0.290  0.273- 121 1.67 128 1.73 127 1.77 117 1.78 119 2.17  74 2.32  21 2.77  16 3.04
                            10 3.10
  47  0.060  0.624  0.294-  91 1.69  84 1.70 113 1.75  79 1.94 132 2.47  15 2.66   2 2.98
  48  0.473  0.558  0.163-  99 1.60 115 1.61  86 1.72  72 1.77  85 1.90  19 2.81  24 2.89   4 3.02
                            23 3.10
  49  0.328  0.805  0.063-  87 1.56 130 1.69  60 1.73  64 1.83  86 2.02 120 2.39  79 2.52  26 2.81

  50  0.843  0.538  0.478-  74 1.54  71 1.72 113 1.73 114 1.74  76 1.81  39 3.08
  51  0.852  0.835  0.157-  55 1.57  96 1.68 132 1.71  90 1.79  14 3.11   7 3.15
  52  0.287  0.428  0.347-  57 1.70 115 1.72  80 1.73  91 1.82 125 2.07 107 2.20  12 2.78  23 2.90
                            15 2.94
  53  0.395  0.331  0.922- 133 1.64  98 1.65  89 1.69  97 1.81  72 2.14  95 2.20  43 2.50   4 2.88
                            19 2.89
  54  0.734  0.977  0.635- 103 1.50 105 1.81  75 1.82  63 1.82 108 1.83 124 2.41  11 2.83   5 2.85
                             1 2.87   3 2.93   7 3.12
  55  0.792  0.730  0.083-  51 1.57  37 2.00  10 2.31
  56  0.661  0.527  0.804-  42 1.74  37 2.14  22 2.36   4 2.37
  57  0.230  0.322  0.253-  52 1.70  44 1.76  23 2.42  15 2.50
  58  0.511  0.128  0.107-  43 1.57  35 1.76  97 1.95  12 2.34
  59  0.598  0.832  0.307-  39 1.72   3 2.17  26 2.27
  60  0.195  0.877  0.029-  32 1.65  49 1.73
  61  0.289  0.080  0.213-  36 1.63  44 1.70  43 2.22
  62  0.933  0.975  0.363-  34 1.42   5 2.14  17 2.41
  63  0.865  0.032  0.555-  54 1.82  20 2.02  34 2.13   5 2.22
  64  0.260  0.675  0.987-  49 1.83   9 2.38  14 2.39  19 2.42
  65  0.208  0.997  0.828-  41 1.55  32 2.00  25 2.15
  66  0.588  0.285  0.642-  42 1.64  11 1.95  13 2.29
  67  0.807  0.531  0.972-  37 1.59  40 2.12   4 2.33   8 2.44  10 2.45
  68  0.991  0.212  0.492-  34 1.70  29 1.86  21 2.38  20 2.55
  69  0.761  0.339  0.765-  38 1.56  42 1.87
  70  0.486  0.769  0.699-  33 1.75  30 1.88  22 2.23   1 2.35
  71  0.933  0.429  0.540-  50 1.72  29 1.88  21 2.56
  72  0.411  0.436  0.083-  48 1.77  53 2.14  23 2.24  19 2.54
  73  0.031  0.851  0.865-  32 1.72  31 1.73   7 2.40  14 2.44  25 2.48
  74  0.806  0.465  0.366-  50 1.54  10 2.19  46 2.32
  75  0.834  0.880  0.721-  54 1.82  31 1.96   7 2.03
  76  0.714  0.513  0.575-  50 1.81  42 2.02  18 2.39  22 2.46
  77  0.322  0.760  0.543-  28 1.54  30 1.75  24 2.35
  78  0.668  0.785  0.873-  33 1.80  37 1.83  22 2.31   7 2.52
  79  0.166  0.729  0.203-  47 1.94  17 2.37  14 2.48  49 2.52
  80  0.380  0.323  0.415-  52 1.73  13 2.12  12 2.12  18 2.43
  81  0.126  0.072  0.089-  44 1.77  32 1.96  17 2.36  16 2.48
  82  0.993  0.034  0.905-  32 1.52   7 2.07
  83  0.109  0.986  0.462-  34 1.86  28 2.04  20 2.46  17 2.49  45 2.50
  84  0.975  0.578  0.175-  47 1.70  10 2.13  14 2.33  40 2.48
  85  0.567  0.603  0.298-  39 1.64  48 1.90  18 2.40
  86  0.347  0.646  0.151-  48 1.72  49 2.02  24 2.25  23 2.46
  87  0.420  0.813  0.957-  49 1.56  33 2.04  26 2.42
  88  0.902  0.315  0.935-  38 1.57  40 1.58  27 2.50
  89  0.283  0.434  0.923-  53 1.69   9 2.14  23 2.17  19 2.46
  90  0.752  0.947  0.098-  51 1.79  26 2.24   7 2.45
  91  0.169  0.519  0.280-  47 1.69  52 1.82  23 2.10  15 2.20
  92  0.881  0.661  0.677-  31 1.69   8 2.06  22 2.35
  93  0.875  0.695  0.879-  31 1.59  37 1.78   8 2.27  14 2.46
  94  0.528  0.036  0.295-  36 1.65   3 2.17
  95  0.304  0.257  0.082-  43 1.56  44 1.86  53 2.20  12 2.52
  96  0.974  0.875  0.078-  51 1.68  32 2.07  14 2.28  17 2.47
  97  0.504  0.214  0.954-  53 1.81  35 1.83  43 1.87  58 1.95  11 2.52
  98  0.517  0.389  0.861-  53 1.65   4 1.91  42 2.18  19 2.41
  99  0.560  0.627  0.070-  48 1.60  19 2.22  37 2.45
 100  0.110  0.437  0.694-  29 1.76   9 2.16   2 2.32   6 2.44   8 2.47
 101  0.970  0.256  0.723-  29 1.69  38 1.86  20 2.46
 102  0.114  0.779  0.468-  28 1.66   2 2.30   5 2.43
 103  0.673  0.079  0.571-  54 1.50  11 2.38  21 2.40   3 2.44  13 2.51
 104  0.500  0.520  0.618-  30 1.71  42 2.03  18 2.23   6 2.56
 105  0.607  0.949  0.733-  33 1.63  54 1.81   1 2.28  11 2.28
 106  0.082  0.711  0.715-  31 1.69  25 2.21   2 2.28   9 2.33
 107  0.154  0.396  0.489-  29 1.98  52 2.20   2 2.32  15 2.35   6 2.45
 108  0.712  0.834  0.556-  54 1.83  22 2.09   5 2.27
 109  0.707  0.233  0.937-  35 1.51  38 1.93   4 2.34  11 2.54
 110  0.033  0.508  0.960-  40 1.81  14 2.16   9 2.22   8 2.24
 111  0.375  0.173  0.654-  45 1.78  13 2.34   6 2.45
 112  0.438  0.978  0.796-  41 1.57  33 1.72
 113  0.976  0.597  0.424-  50 1.73  47 1.75   2 2.11
 114  0.759  0.664  0.437-  39 1.51  50 1.74
 115  0.408  0.493  0.274-  48 1.61  52 1.72  12 2.51
 116  0.345  0.117  0.412-  45 1.79  36 1.96  13 2.03
 117  0.870  0.205  0.313-  46 1.78  34 2.14  16 2.21  21 2.52
 118  0.271  0.968  0.610-  28 1.64  45 1.85   1 2.52
 119  0.881  0.370  0.162-  40 1.54  46 2.17  10 2.31  15 2.40
 120  0.330  0.018  0.033-  43 1.54  41 1.78  49 2.39
 121  0.652  0.382  0.195-  46 1.67   4 2.37  10 2.40  12 2.54
 122  0.087  0.313  0.081-  27 2.03  40 2.04  44 2.09  23 2.32
 123  0.166  0.206  0.626-  45 1.67  29 1.87  20 2.41
 124  0.837  0.098  0.783-  38 1.71   7 2.17  54 2.41  20 2.52
 125  0.338  0.533  0.492-  30 1.99  52 2.07   6 2.34
 126  0.083  0.139  0.288-  44 1.76  34 1.88  17 2.39  16 2.53
 127  0.693  0.179  0.170-  46 1.77  35 1.83  16 2.56
 128  0.636  0.266  0.385-  46 1.73  13 2.08  21 2.20  18 2.25  12 2.51
 129  0.296  0.889  0.376-  28 1.77  36 1.85  24 2.15  17 2.57
 130  0.399  0.877  0.177-  49 1.69  36 1.84  26 2.07
 131  0.335  0.587  0.737-  30 1.98   9 2.08  19 2.31   6 2.52
 132  0.873  0.744  0.281-  51 1.71  47 2.47  10 2.56
 133  0.316  0.222  0.861-  53 1.64  41 2.11  27 2.32  43 2.38
 134  0.647  0.007  0.928-  35 1.83   7 2.26  33 2.41
 135  0.527  0.730  0.473-  39 1.74  30 2.00  24 2.33   1 2.51
 

IMPORTANT INFORMATION: All symmetrisations will be switched off!
NOSYMM: (Re-)initialisation of all symmetry stuff for point group C_1.

 
 

Automatic generation of k-mesh.
 generate k-points for:    2    2    2
Space group operators:
 irot       det(A)        alpha          n_x          n_y          n_z        tau_x        tau_y        tau_z
    1     1.000000     0.000000     1.000000     0.000000     0.000000     0.000000     0.000000     0.000000
 
 Subroutine IBZKPT returns following result:
 ===========================================
 
 Found      8 irreducible k-points:
 
 Following reciprocal coordinates:
            Coordinates               Weight
  0.000000  0.000000  0.000000      1.000000
  0.500000  0.000000  0.000000      1.000000
  0.000000  0.500000  0.000000      1.000000
  0.500000  0.500000  0.000000      1.000000
  0.000000  0.000000  0.500000      1.000000
  0.500000  0.000000  0.500000      1.000000
  0.000000  0.500000  0.500000      1.000000
  0.500000  0.500000  0.500000      1.000000
 
 Following cartesian coordinates:
            Coordinates               Weight
  0.000000  0.000000  0.000000      1.000000
  0.044956  0.000000  0.000000      1.000000
  0.000000  0.044956  0.000000      1.000000
  0.044956  0.044956  0.000000      1.000000
  0.000000  0.000000  0.044956      1.000000
  0.044956  0.000000  0.044956      1.000000
  0.000000  0.044956  0.044956      1.000000
  0.044956  0.044956  0.044956      1.000000
 


--------------------------------------------------------------------------------------------------------




 Dimension of arrays:
   k-points           NKPTS =      8   k-points in BZ     NKDIM =      8   number of bands    NBANDS=    520
   number of dos      NEDOS =    301   number of ions     NIONS =    135
   non local maximal  LDIM  =      6   non local SUM 2l+1 LMDIM =     18
   total plane-waves  NPLWV = 729000
   max r-space proj   IRMAX =   7111   max aug-charges    IRDMAX= 202431
   dimension x,y,z NGX =    90 NGY =   90 NGZ =   90
   dimension x,y,z NGXF=   180 NGYF=  180 NGZF=  180
   support grid    NGXF=   360 NGYF=  360 NGZF=  360
   ions per type =              27  27  81
   NGX,Y,Z   is equivalent  to a cutoff of  13.45, 13.45, 13.45 a.u.
   NGXF,Y,Z  is equivalent  to a cutoff of  26.91, 26.91, 26.91 a.u.

 SYSTEM =  unknown system                          
 POSCAR =  Ca Si  O                                

 Startparameter for this run:
   NWRITE =      2    write-flag & timer
   PREC   = a         normal or accurate (medium, high low for compatibility)
   ISTART =      0    job   : 0-new  1-cont  2-samecut
   ICHARG =      2    charge: 1-file 2-atom 10-const
   ISPIN  =      1    spin polarized calculation?
   LNONCOLLINEAR =      F non collinear calculations
   LSORBIT =      F    spin-orbit coupling
   INIWAV =      1    electr: 0-lowe 1-rand  2-diag
   LASPH  =      F    aspherical Exc in radial PAW
   METAGGA=      F    non-selfconsistent MetaGGA calc.

 Electronic Relaxation 1
   ENCUT  =  600.0 eV  44.10 Ry    6.64 a.u.  22.21 22.21 22.21*2*pi/ulx,y,z
   ENINI  =  600.0     initial cutoff
   ENAUG  =  605.4 eV  augmentation charge cutoff
   NELM   =     60;   NELMIN=  2; NELMDL= -5     # of ELM steps 
   EDIFF  = 0.1E-05   stopping-criterion for ELM
   LREAL  =      T    real-space projection
   NLSPLINE    = F    spline interpolate recip. space projectors
   LCOMPAT=      F    compatible to vasp.4.4
   GGA_COMPAT  = T    GGA compatible to vasp.4.4-vasp.4.6
   LMAXPAW     = -100 max onsite density
   LMAXMIX     =    2 max onsite mixed and CHGCAR
   VOSKOWN=      0    Vosko Wilk Nusair interpolation
   ROPT   =   -0.00025  -0.00025  -0.00025
 Ionic relaxation
   EDIFFG = -.1E-01   stopping-criterion for IOM
   NSW    =      1    number of steps for IOM
   NBLOCK =      1;   KBLOCK =      1    inner block; outer block 
   IBRION =     -1    ionic relax: 0-MD 1-quasi-New 2-CG
   NFREE  =      0    steps in history (QN), initial steepest desc. (CG)
   ISIF   =      2    stress and relaxation
   IWAVPR =     10    prediction:  0-non 1-charg 2-wave 3-comb
   ISYM   =      0    0-nonsym 1-usesym 2-fastsym
   LCORR  =      T    Harris-Foulkes like correction to forces

   POTIM  = 1.0000    time-step for ionic-motion
   TEIN   =    0.0    initial temperature
   TEBEG  =    0.0;   TEEND  =   0.0 temperature during run
   SMASS  =  -3.00    Nose mass-parameter (am)
   estimated Nose-frequenzy (Omega)   =  0.10E-29 period in steps =****** mass=  -0.283E-26a.u.
   SCALEE = 1.0000    scale energy and forces
   NPACO  =    256;   APACO  = 16.0  distance and # of slots for P.C.
   PSTRESS=    0.0 pullay stress

  Mass of Ions in am
   POMASS =  40.08 28.09 16.00
  Ionic Valenz
   ZVAL   =  10.00  4.00  6.00
  Atomic Wigner-Seitz radii
   RWIGS  =  -1.00 -1.00 -1.00
  virtual crystal weights 
   VCA    =   1.00  1.00  1.00
   NELECT =     864.0000    total number of electrons
   NUPDOWN=      -1.0000    fix difference up-down

 DOS related values:
   EMIN   =  10.00;   EMAX   =-10.00  energy-range for DOS
   EFERMI =   0.00
   ISMEAR =     0;   SIGMA  =   0.05  broadening in eV -4-tet -1-fermi 0-gaus

 Electronic relaxation 2 (details)
   IALGO  =     38    algorithm
   LDIAG  =      T    sub-space diagonalisation (order eigenvalues)
   LSUBROT=      F    optimize rotation matrix (better conditioning)
   TURBO    =      0    0=normal 1=particle mesh
   IRESTART =      0    0=no restart 2=restart with 2 vectors
   NREBOOT  =      0    no. of reboots
   NMIN     =      0    reboot dimension
   EREF     =   0.00    reference energy to select bands
   IMIX   =      4    mixing-type and parameters
     AMIX     =   0.40;   BMIX     =  1.00
     AMIX_MAG =   1.60;   BMIX_MAG =  1.00
     AMIN     =   0.10
     WC   =   100.;   INIMIX=   1;  MIXPRE=   1;  MAXMIX= -45

 Intra band minimization:
   WEIMIN = 0.0000     energy-eigenvalue tresh-hold
   EBREAK =  0.48E-09  absolut break condition
   DEPER  =   0.30     relativ break condition  

   TIME   =   0.40     timestep for ELM

  volume/ion in A,a.u.               =      10.19        68.77
  Fermi-wavevector in a.u.,A,eV,Ry     =   1.401948  2.649298 26.741681  1.965458
  Thomas-Fermi vector in A             =   2.524759
 
 Write flags
   LWAVE        =      F    write WAVECAR
   LDOWNSAMPLE  =      F    k-point downsampling of WAVECAR
   LCHARG       =      F    write CHGCAR
   LVTOT        =      F    write LOCPOT, total local potential
   LVHAR        =      F    write LOCPOT, Hartree potential only
   LELF         =      F    write electronic localiz. function (ELF)
   LORBIT       =      0    0 simple, 1 ext, 2 COOP (PROOUT), +10 PAW based schemes


 Dipole corrections
   LMONO  =      F    monopole corrections only (constant potential shift)
   LDIPOL =      F    correct potential (dipole corrections)
   IDIPOL =      0    1-x, 2-y, 3-z, 4-all directions 
   EPSILON=  1.0000000 bulk dielectric constant

 Exchange correlation treatment:
   GGA     =    --    GGA type
   LEXCH   =     8    internal setting for exchange type
   VOSKOWN=      0    Vosko Wilk Nusair interpolation
   LHFCALC =     F    Hartree Fock is set to
   LHFONE  =     F    Hartree Fock one center treatment
   AEXX    =    0.0000 exact exchange contribution

 Linear response parameters
   LEPSILON=     F    determine dielectric tensor
   LRPA    =     F    only Hartree local field effects (RPA)
   LNABLA  =     F    use nabla operator in PAW spheres
   LVEL    =     F    velocity operator in full k-point grid
   LINTERFAST=   F  fast interpolation
   KINTER  =     0    interpolate to denser k-point grid
   CSHIFT  =0.1000    complex shift for real part using Kramers Kronig
   OMEGAMAX=  -1.0    maximum frequency
   DEG_THRESHOLD= 0.2000000E-02 threshold for treating states as degnerate
   RTIME   =   -0.100 relaxation time in fs
  (WPLASMAI=    0.000 imaginary part of plasma frequency in eV, 0.658/RTIME)
   DFIELD  = 0.0000000 0.0000000 0.0000000 field for delta impulse in time
 
 Orbital magnetization related:
   ORBITALMAG=     F  switch on orbital magnetization
   LCHIMAG   =     F  perturbation theory with respect to B field
   DQ        =  0.001000  dq finite difference perturbation B field
   LLRAUG    =     F  two centre corrections for induced B field



--------------------------------------------------------------------------------------------------------


 Static calculation
 charge density and potential will be updated during run
 non-spin polarized calculation
 Variant of blocked Davidson
 Davidson routine will perform the subspace rotation
 perform sub-space diagonalisation
    after iterative eigenvector-optimisation
 modified Broyden-mixing scheme, WC =      100.0
 initial mixing is a Kerker type mixing with AMIX =  0.4000 and BMIX =      1.0000
 Hartree-type preconditioning will be used
 using additional bands           88
 real space projection scheme for non local part
 use partial core corrections
 calculate Harris-corrections to forces 
   (improved forces if not selfconsistent)
 use gradient corrections 
 use of overlap-Matrix (Vanderbilt PP)
 Gauss-broadening in eV      SIGMA  =   0.05


--------------------------------------------------------------------------------------------------------


  energy-cutoff  :      600.00
  volume of cell :     1375.76
      direct lattice vectors                 reciprocal lattice vectors
    11.121947680  0.000000000  0.000000000     0.089912309  0.000000000  0.000000000
     0.000000000 11.121947680  0.000000000     0.000000000  0.089912309  0.000000000
     0.000000000  0.000000000 11.121947680     0.000000000  0.000000000  0.089912309

  length of vectors
    11.121947680 11.121947680 11.121947680     0.089912309  0.089912309  0.089912309


 
 k-points in units of 2pi/SCALE and weight: read from INCAR                         
   0.00000000  0.00000000  0.00000000       0.125
   0.04495615  0.00000000  0.00000000       0.125
   0.00000000  0.04495615  0.00000000       0.125
   0.04495615  0.04495615  0.00000000       0.125
   0.00000000  0.00000000  0.04495615       0.125
   0.04495615  0.00000000  0.04495615       0.125
   0.00000000  0.04495615  0.04495615       0.125
   0.04495615  0.04495615  0.04495615       0.125
 
 k-points in reciprocal lattice and weights: read from INCAR                         
   0.00000000  0.00000000  0.00000000       0.125
   0.50000000  0.00000000  0.00000000       0.125
   0.00000000  0.50000000  0.00000000       0.125
   0.50000000  0.50000000  0.00000000       0.125
   0.00000000  0.00000000  0.50000000       0.125
   0.50000000  0.00000000  0.50000000       0.125
   0.00000000  0.50000000  0.50000000       0.125
   0.50000000  0.50000000  0.50000000       0.125
 
 position of ions in fractional coordinates (direct lattice) 
   0.48975672  0.93200645  0.56491069
   0.11474577  0.59049257  0.55321183
   0.69915022  0.98420754  0.37457501
   0.62889831  0.42193474  0.98726355
   0.90860081  0.84431838  0.50275553
   0.31537784  0.38388131  0.63875051
   0.83488245  0.93722492  0.89414373
   0.92713215  0.51949489  0.78856931
   0.17432334  0.56074734  0.82875930
   0.78609184  0.55204165  0.19030426
   0.59387198  0.15243285  0.75595331
   0.45768763  0.27505841  0.24752291
   0.49671618  0.18943238  0.48394143
   0.04834312  0.69398958  0.01672056
   0.02683169  0.38833979  0.32081318
   0.91608654  0.13190404  0.13425200
   0.10930729  0.92906125  0.24566798
   0.55968962  0.44352919  0.44310289
   0.44369029  0.58536900  0.91352166
   0.01651366  0.05104860  0.65292869
   0.78333938  0.25580520  0.51619213
   0.67380202  0.70085897  0.68344522
   0.21472118  0.47605638  0.10101618
   0.36403365  0.71184096  0.34111553
   0.23698786  0.81023359  0.78960757
   0.57083470  0.85976390  0.10619755
   0.11601741  0.24996157  0.91120136
   0.22955152  0.85998769  0.51732924
   0.04451411  0.32099173  0.60758373
   0.42278832  0.65088995  0.59610063
   0.94906162  0.75667046  0.77287145
   0.09190311  0.95752654  0.95967685
   0.53335984  0.85777057  0.82045034
   0.98172240  0.08245458  0.41121807
   0.64027634  0.14546073  0.01726682
   0.38486488  0.99887193  0.28767996
   0.73278372  0.64756420  0.93565627
   0.84145633  0.24423062  0.82898844
   0.64460565  0.70172259  0.37452484
   0.93400734  0.40592541  0.03929505
   0.33451478  0.03326890  0.87438415
   0.62542616  0.41543514  0.70023793
   0.38318609  0.14516348  0.04838950
   0.18709198  0.18822737  0.17861811
   0.26396964  0.12263561  0.55036516
   0.74128977  0.28958423  0.27295247
   0.05959294  0.62381814  0.29359875
   0.47333327  0.55824009  0.16290171
   0.32828419  0.80465184  0.06334619
   0.84253637  0.53781673  0.47800455
   0.85159901  0.83472939  0.15740925
   0.28733839  0.42809346  0.34666958
   0.39510987  0.33050236  0.92199852
   0.73374104  0.97693675  0.63523370
   0.79231870  0.73015577  0.08338675
   0.66066680  0.52723963  0.80423736
   0.23029315  0.32155205  0.25289796
   0.51064623  0.12752722  0.10698983
   0.59759808  0.83237130  0.30683938
   0.19518534  0.87695087  0.02948891
   0.28936068  0.07998332  0.21251232
   0.93270577  0.97456725  0.36263723
   0.86528321  0.03246304  0.55472429
   0.26025486  0.67549087  0.98708609
   0.20840151  0.99727866  0.82797529
   0.58780604  0.28527388  0.64233763
   0.80702294  0.53116579  0.97211056
   0.99132492  0.21237633  0.49186028
   0.76085987  0.33908869  0.76512255
   0.48559029  0.76938959  0.69940746
   0.93325445  0.42904660  0.54008387
   0.41075648  0.43570014  0.08264032
   0.03100922  0.85135120  0.86525631
   0.80588759  0.46498146  0.36566871
   0.83380443  0.87972104  0.72093899
   0.71410495  0.51260456  0.57531179
   0.32202054  0.75975868  0.54256287
   0.66831308  0.78506727  0.87343511
   0.16630981  0.72859996  0.20306588
   0.37959676  0.32261454  0.41464943
   0.12571983  0.07177054  0.08944854
   0.99308724  0.03441753  0.90514085
   0.10855822  0.98603478  0.46209443
   0.97477594  0.57826412  0.17463392
   0.56738387  0.60258805  0.29790390
   0.34706129  0.64629965  0.15090375
   0.41986134  0.81332163  0.95709931
   0.90201056  0.31482317  0.93512449
   0.28335007  0.43357522  0.92307403
   0.75222721  0.94702277  0.09818208
   0.16925325  0.51931064  0.27956482
   0.88110381  0.66072526  0.67719809
   0.87500062  0.69492592  0.87887773
   0.52843542  0.03648427  0.29489647
   0.30446802  0.25668352  0.08165262
   0.97402800  0.87522201  0.07816859
   0.50435870  0.21389332  0.95444825
   0.51723362  0.38851713  0.86107608
   0.55954173  0.62734428  0.07008515
   0.10987913  0.43688195  0.69365447
   0.96976792  0.25585350  0.72306158
   0.11418616  0.77857788  0.46761366
   0.67252331  0.07861936  0.57121868
   0.50005140  0.51978636  0.61842455
   0.60686891  0.94884860  0.73250016
   0.08206603  0.71101017  0.71544887
   0.15400986  0.39606330  0.48934883
   0.71163619  0.83410536  0.55597844
   0.70655206  0.23309467  0.93728521
   0.03312506  0.50841770  0.95995552
   0.37462401  0.17268161  0.65419869
   0.43813892  0.97770807  0.79617962
   0.97586969  0.59672432  0.42408388
   0.75903963  0.66401988  0.43691776
   0.40793178  0.49349306  0.27445052
   0.34526761  0.11667950  0.41200282
   0.87046585  0.20454690  0.31340767
   0.27072321  0.96767913  0.60970406
   0.88097214  0.36975929  0.16241742
   0.32998303  0.01779476  0.03343924
   0.65222156  0.38238969  0.19525595
   0.08669783  0.31285826  0.08050184
   0.16564867  0.20631716  0.62623232
   0.83687123  0.09760162  0.78328486
   0.33846705  0.53299755  0.49173309
   0.08337980  0.13857535  0.28792733
   0.69314172  0.17860491  0.16964398
   0.63598707  0.26554996  0.38482855
   0.29562734  0.88926246  0.37569436
   0.39928997  0.87680710  0.17672318
   0.33504972  0.58737712  0.73686642
   0.87338108  0.74449101  0.28052474
   0.31634340  0.22187238  0.86050389
   0.64682703  0.00735057  0.92807220
   0.52652708  0.72977814  0.47259307
 
 position of ions in cartesian coordinates  (Angst):
   5.44704863 10.36572698  6.28290709
   1.27619645  6.56742743  6.15279303
   7.77591219 10.94630478  4.16600364
   6.99457412  4.69273605 10.98029356
  10.10541071  9.39046481  5.59162074
   3.50761589  4.26950785  7.10414980
   9.28551888 10.42376654  9.94461982
  10.31151531  5.77779502  8.77042665
   1.93881509  6.23660263  9.21741762
   8.74287237  6.13977830  2.11655398
   6.60501308  1.69535016  8.40767320
   5.09037793  3.05918521  2.75293683
   5.52445134  2.10685699  5.38237122
   0.53766961  7.71851582  0.18596524
   0.29842062  4.31909482  3.56806737
  10.18866662  1.46702981  1.49314377
   1.21570992 10.33297058  2.73230647
   6.22483869  4.93290850  4.92816719
   4.93470020  6.51044335 10.16014009
   0.18366405  0.56775983  7.26183874
   8.71225957  2.84505209  5.74106190
   7.49399076  7.79491683  7.60124202
   2.38811773  5.29467417  1.12349667
   4.04876317  7.91705793  3.79386904
   2.63576653  9.01137563  8.78197406
   6.34879364  9.56224908  1.18112363
   1.29033955  2.78005955 10.13433388
   2.55305994  9.56473814  5.75370873
   0.49508355  3.57005325  6.75751447
   4.70222960  7.23916392  6.62980005
  10.55541365  8.41564930  8.59583582
   1.02214160 10.64956005 10.67347567
   5.93200026  9.54007936  9.12500578
  10.91866522  0.91705553  4.57354588
   7.12111990  1.61780659  0.19204069
   4.28044711 11.10940134  3.19956144
   8.14998219  7.20217518 10.40632005
   9.35863327  2.71632016  9.21996608
   7.16927027  7.80452192  4.16544573
  10.38798082  4.51468112  0.43703746
   3.72045587  0.37001495  9.72485479
   6.95595700  4.62044787  7.78800962
   4.26177559  1.61450064  0.53818548
   2.08082721  2.09345501  1.98658123
   2.93585653  1.36394680  6.12113257
   8.24458608  3.22074064  3.03576311
   0.66278955  6.93807272  3.26538996
   5.26438782  6.20871709  1.81178432
   3.65115958  8.94929570  0.70453303
   9.37064546  5.98156954  5.31634158
   9.47143967  9.28381656  1.75069741
   3.19576252  4.76123304  3.85564095
   4.39439127  3.67583000 10.25441927
   8.16062949 10.86543939  7.06503602
   8.81212710  8.12075423  0.92742306
   7.34790162  5.86393162  8.94468586
   2.56130841  3.57628509  2.81271788
   5.67938064  1.41835112  1.18993528
   6.64645455  9.25759010  3.41265153
   2.17084109  9.75340167  0.32797413
   3.21825432  0.88957029  2.36355095
  10.37350482 10.83908595  4.03323230
   9.62363463  0.36105219  6.16961458
   2.89454099  7.51277416 10.97831981
   2.31783067 11.09168105  9.20869781
   6.53754798  3.17280116  7.14404555
   8.97566693  5.90759817 10.81176279
  11.02546389  2.36203848  5.47044431
   8.46224371  3.77132665  8.50965297
   5.40070979  8.55711077  7.77877322
  10.37960714  4.77183389  6.00678449
   4.56841208  4.84583411  0.91912130
   0.34488290  9.46868353  9.62333543
   8.96303961  5.17149948  4.06694824
   9.27352926  9.78421138  8.01824570
   7.94223793  5.70116112  6.39858763
   3.58149563  8.44999628  6.03435585
   7.43294306  8.73147705  9.71429965
   1.84968904  8.10345063  2.25848811
   4.22185532  3.58810202  4.61170922
   1.39824938  0.79822818  0.99484200
  11.04506433  0.38279001 10.06692916
   1.20737881 10.96662728  5.13939010
  10.84140698  6.43142332  1.94226932
   6.31041375  6.70195276  3.31327164
   3.85999748  7.18811091  1.67834358
   4.66967581  9.04572065 10.64480849
  10.03211428  3.50144681 10.40040567
   3.15140470  4.82220087 10.26638106
   8.36623166 10.53273774  1.09197596
   1.88242582  5.77574574  3.10930526
   9.79959049  7.34855179  7.53176176
   9.73171111  7.72892972  9.77483208
   5.87723105  0.40577610  3.27982315
   3.38627744  2.85482064  0.90813618
  10.83308847  9.73417343  0.86938696
   5.60945108  2.37891034 10.61532349
   5.75264524  4.32106721  9.57684315
   6.22319390  6.97729024  0.77948339
   1.22206990  4.85897814  7.71478872
  10.78570809  2.84558929  8.04185311
   1.26997255  8.65930240  5.20077464
   7.47976908  0.87440046  6.35306430
   5.56154547  5.78103670  6.87808553
   6.74956426 10.55304452  8.14682850
   0.91273408  7.90781793  7.95718493
   1.71288956  4.40499534  5.44251211
   7.91478051  9.27687616  6.18356316
   7.85823506  2.59246668 10.42443711
   0.36841518  5.65459509 10.67657512
   4.16654860  1.92055585  7.27596359
   4.87295813 10.87401799  8.85506805
  10.85357169  6.63673665  4.71663878
   8.44199905  7.38519438  4.85937646
   4.53699592  5.48860396  3.05242437
   3.84004826  1.29770325  4.58227383
   9.68127568  2.27495992  3.48570376
   3.01096933 10.76247670  6.78109671
   9.79812608  4.11244346  1.80639800
   3.67005399  0.19791239  0.37190943
   7.25397406  4.25291812  2.17162644
   0.96424870  3.47959322  0.89533729
   1.84233582  2.29464868  6.96492312
   9.30763809  1.08552009  8.71165324
   3.76441279  5.92797092  5.46902965
   0.92734572  1.54122774  3.20231275
   7.70908593  1.98643444  1.88677152
   7.07341488  2.95343279  4.28004304
   3.28795186  9.89033058  4.17845297
   4.44088219  9.75180264  1.96550599
   3.72640550  6.53277761  8.19538973
   9.71369866  8.28019011  3.11998148
   3.51835477  2.46765304  9.57047921
   7.19397642  0.08175267 10.32197048
   5.85600662  8.11655424  5.25615536
 


--------------------------------------------------------------------------------------------------------


 k-point  1 :   0.0000 0.0000 0.0000  plane waves:   45961
 k-point  2 :   0.5000 0.0000 0.0000  plane waves:   45932
 k-point  3 :   0.0000 0.5000 0.0000  plane waves:   45932
 k-point  4 :   0.5000 0.5000 0.0000  plane waves:   45920
 k-point  5 :   0.0000 0.0000 0.5000  plane waves:   45932
 k-point  6 :   0.5000 0.0000 0.5000  plane waves:   45920
 k-point  7 :   0.0000 0.5000 0.5000  plane waves:   45920
 k-point  8 :   0.5000 0.5000 0.5000  plane waves:   45920

 maximum and minimum number of plane-waves per node :      3885     3771

 maximum number of plane-waves:     45961
 maximum index in each direction: 
   IXMAX=   22   IYMAX=   22   IZMAX=   22
   IXMIN=  -22   IYMIN=  -22   IZMIN=  -22


 real space projection operators:
  total allocation   :      48759.27 KBytes
  max/ min on nodes  :       4403.19       3734.84


 parallel 3D FFT for wavefunctions:
    minimum data exchange during FFTs selected (reduces bandwidth)
 parallel 3D FFT for charge:
    minimum data exchange during FFTs selected (reduces bandwidth)


 total amount of memory used by VASP MPI-rank0   149259. kBytes
=======================================================================

   base      :      30000. kBytes
   nonlr-proj:      21719. kBytes
   fftplans  :      20560. kBytes
   grid      :      10967. kBytes
   one-center:        186. kBytes
   wavefun   :      65827. kBytes
 
     INWAV:  cpu time    0.0001: real time    0.0004
 Broyden mixing: mesh for mixing (old mesh)
   NGX = 45   NGY = 45   NGZ = 45
  (NGX  =180   NGY  =180   NGZ  =180)
  gives a total of  91125 points

 initial charge density was supplied:
 charge density of overlapping atoms calculated
 number of electron     864.0000000 magnetization 
 keeping initial charge density in first step


--------------------------------------------------------------------------------------------------------


 Maximum index for non-local projection operator          785
 Maximum index for augmentation-charges         5976 (set IRDMAX)


--------------------------------------------------------------------------------------------------------


 First call to EWALD:  gamma=   0.159
 Maximum number of real-space cells 3x 3x 3
 Maximum number of reciprocal cells 3x 3x 3

    FEWALD:  cpu time    0.0058: real time    0.0058


--------------------------------------- Iteration      1(   1)  ---------------------------------------


    POTLOK:  cpu time    0.0903: real time    0.0936
    SETDIJ:  cpu time    0.2916: real time    0.2923
     EDDAV:  cpu time   29.9828: real time   30.1007
       DOS:  cpu time    0.0026: real time    0.0026
    --------------------------------------------
      LOOP:  cpu time   30.3673: real time   30.4893

 eigenvalue-minimisations  :  8320
 total energy-change (2. order) : 0.9881390E+04  (-0.4885474E+05)
 number of electron     864.0000000 magnetization 
 augmentation part      864.0000000 magnetization 

 Free energy of the ion-electron system (eV)
  ---------------------------------------------------
  alpha Z        PSCENC =      3473.39795963
  Ewald energy   TEWEN  =    -52919.42033815
  -Hartree energ DENC   =    -13601.62863571
  -exchange      EXHF   =         0.00000000
  -V(xc)+E(xc)   XCENC  =      3219.54368477
  PAW double counting   =     50594.51003143   -49994.65612350
  entropy T*S    EENTRO =        -0.03167622
  eigenvalues    EBANDS =      4141.13529469
  atomic energy  EATOM  =     64968.54023382
  Solvation  Ediel_sol  =         0.00000000
  ---------------------------------------------------
  free energy    TOTEN  =      9881.39043077 eV

  energy without entropy =     9881.42210699  energy(sigma->0) =     9881.40626888


--------------------------------------------------------------------------------------------------------




--------------------------------------- Iteration      1(   2)  ---------------------------------------


     EDDAV:  cpu time   32.9466: real time   33.7133
       DOS:  cpu time    0.0010: real time    0.0010
    --------------------------------------------
      LOOP:  cpu time   32.9475: real time   33.7143

 eigenvalue-minimisations  :  9584
 total energy-change (2. order) :-0.9777787E+04  (-0.9444855E+04)
 number of electron     864.0000000 magnetization 
 augmentation part      864.0000000 magnetization 

 Free energy of the ion-electron system (eV)
  ---------------------------------------------------
  alpha Z        PSCENC =      3473.39795963
  Ewald energy   TEWEN  =    -52919.42033815
  -Hartree energ DENC   =    -13601.62863571
  -exchange      EXHF   =         0.00000000
  -V(xc)+E(xc)   XCENC  =      3219.54368477
  PAW double counting   =     50594.51003143   -49994.65612350
  entropy T*S    EENTRO =        -0.00000000
  eigenvalues    EBANDS =     -5636.68352273
  atomic energy  EATOM  =     64968.54023382
  Solvation  Ediel_sol  =         0.00000000
  ---------------------------------------------------
  free energy    TOTEN  =       103.60328957 eV

  energy without entropy =      103.60328957  energy(sigma->0) =      103.60328957


--------------------------------------------------------------------------------------------------------




--------------------------------------- Iteration      1(   3)  ---------------------------------------


     EDDAV:  cpu time   35.2870: real time   35.4308
       DOS:  cpu time    0.0012: real time    0.0012
    --------------------------------------------
      LOOP:  cpu time   35.2882: real time   35.4320

 eigenvalue-minimisations  : 10264
 total energy-change (2. order) :-0.1085811E+04  (-0.1077273E+04)
 number of electron     864.0000000 magnetization 
 augmentation part      864.0000000 magnetization 

 Free energy of the ion-electron system (eV)
  ---------------------------------------------------
  alpha Z        PSCENC =      3473.39795963
  Ewald energy   TEWEN  =    -52919.42033815
  -Hartree energ DENC   =    -13601.62863571
  -exchange      EXHF   =         0.00000000
  -V(xc)+E(xc)   XCENC  =      3219.54368477
  PAW double counting   =     50594.51003143   -49994.65612350
  entropy T*S    EENTRO =        -0.00000000
  eigenvalues    EBANDS =     -6722.49409345
  atomic energy  EATOM  =     64968.54023382
  Solvation  Ediel_sol  =         0.00000000
  ---------------------------------------------------
  free energy    TOTEN  =      -982.20728116 eV

  energy without entropy =     -982.20728116  energy(sigma->0) =     -982.20728116


--------------------------------------------------------------------------------------------------------




--------------------------------------- Iteration      1(   4)  ---------------------------------------


     EDDAV:  cpu time   38.4554: real time   38.6624
       DOS:  cpu time    0.0011: real time    0.0011
    --------------------------------------------
      LOOP:  cpu time   38.4565: real time   38.6635

 eigenvalue-minimisations  : 11368
 total energy-change (2. order) :-0.5176800E+02  (-0.5156721E+02)
 number of electron     864.0000000 magnetization 
 augmentation part      864.0000000 magnetization 

 Free energy of the ion-electron system (eV)
  ---------------------------------------------------
  alpha Z        PSCENC =      3473.39795963
  Ewald energy   TEWEN  =    -52919.42033815
  -Hartree energ DENC   =    -13601.62863571
  -exchange      EXHF   =         0.00000000
  -V(xc)+E(xc)   XCENC  =      3219.54368477
  PAW double counting   =     50594.51003143   -49994.65612350
  entropy T*S    EENTRO =        -0.00000000
  eigenvalues    EBANDS =     -6774.26209202
  atomic energy  EATOM  =     64968.54023382
  Solvation  Ediel_sol  =         0.00000000
  ---------------------------------------------------
  free energy    TOTEN  =     -1033.97527972 eV

  energy without entropy =    -1033.97527972  energy(sigma->0) =    -1033.97527972


--------------------------------------------------------------------------------------------------------




--------------------------------------- Iteration      1(   5)  ---------------------------------------


     EDDAV:  cpu time   46.4477: real time   46.6187
       DOS:  cpu time    0.0010: real time    0.0010
    CHARGE:  cpu time    1.1251: real time    1.1326
    MIXING:  cpu time    0.0041: real time    0.0042
    --------------------------------------------
      LOOP:  cpu time   47.5780: real time   47.7566

 eigenvalue-minimisations  : 14504
 total energy-change (2. order) :-0.4525468E+01  (-0.4522798E+01)
 number of electron     864.0000007 magnetization 
 augmentation part      133.4013379 magnetization 

 Broyden mixing:
  rms(total) = 0.82099E+01    rms(broyden)= 0.82093E+01
  rms(prec ) = 0.98462E+01
  weight for this iteration     100.00

 Free energy of the ion-electron system (eV)
  ---------------------------------------------------
  alpha Z        PSCENC =      3473.39795963
  Ewald energy   TEWEN  =    -52919.42033815
  -Hartree energ DENC   =    -13601.62863571
  -exchange      EXHF   =         0.00000000
  -V(xc)+E(xc)   XCENC  =      3219.54368477
  PAW double counting   =     50594.51003143   -49994.65612350
  entropy T*S    EENTRO =        -0.00000000
  eigenvalues    EBANDS =     -6778.78755954
  atomic energy  EATOM  =     64968.54023382
  Solvation  Ediel_sol  =         0.00000000
  ---------------------------------------------------
  free energy    TOTEN  =     -1038.50074724 eV

  energy without entropy =    -1038.50074724  energy(sigma->0) =    -1038.50074724


--------------------------------------------------------------------------------------------------------




--------------------------------------- Iteration      1(   6)  ---------------------------------------


    POTLOK:  cpu time    0.0856: real time    0.0932
    SETDIJ:  cpu time    0.2859: real time    0.2892
     EDDAV:  cpu time   34.4966: real time   34.6836
       DOS:  cpu time    0.0012: real time    0.0012
    CHARGE:  cpu time    1.1263: real time    1.1295
    MIXING:  cpu time    0.0036: real time    0.0036
    --------------------------------------------
      LOOP:  cpu time   35.9993: real time   36.2003

 eigenvalue-minimisations  : 10056
 total energy-change (2. order) : 0.1306497E+03  (-0.5702765E+02)
 number of electron     864.0000007 magnetization 
 augmentation part      121.3537660 magnetization 

 Broyden mixing:
  rms(total) = 0.34135E+01    rms(broyden)= 0.34126E+01
  rms(prec ) = 0.36145E+01
  weight for this iteration     100.00

 eigenvalues of (default mixing * dielectric matrix)
  average eigenvalue GAMMA=   1.0617
  1.0617

 Free energy of the ion-electron system (eV)
  ---------------------------------------------------
  alpha Z        PSCENC =      3473.39795963
  Ewald energy   TEWEN  =    -52919.42033815
  -Hartree energ DENC   =    -14768.41015119
  -exchange      EXHF   =         0.00000000
  -V(xc)+E(xc)   XCENC  =      3300.64858326
  PAW double counting   =     64982.76906157   -64521.59627601
  entropy T*S    EENTRO =        -0.00000000
  eigenvalues    EBANDS =     -5423.78007167
  atomic energy  EATOM  =     64968.54023382
  Solvation  Ediel_sol  =         0.00000000
  ---------------------------------------------------
  free energy    TOTEN  =      -907.85099875 eV

  energy without entropy =     -907.85099875  energy(sigma->0) =     -907.85099875


--------------------------------------------------------------------------------------------------------




--------------------------------------- Iteration      1(   7)  ---------------------------------------


    POTLOK:  cpu time    0.0849: real time    0.0924
    SETDIJ:  cpu time    0.2888: real time    0.2895
     EDDAV:  cpu time   37.8672: real time   38.0161
       DOS:  cpu time    0.0011: real time    0.0011
    CHARGE:  cpu time    1.1263: real time    1.1291
    MIXING:  cpu time    0.0031: real time    0.0031
    --------------------------------------------
      LOOP:  cpu time   39.3713: real time   39.5313

 eigenvalue-minimisations  : 11224
 total energy-change (2. order) :-0.2093867E+01  (-0.6252034E+01)
 number of electron     864.0000007 magnetization 
 augmentation part      119.9260944 magnetization 

 Broyden mixing:
  rms(total) = 0.16334E+01    rms(broyden)= 0.16334E+01
  rms(prec ) = 0.17796E+01
  weight for this iteration     100.00

 eigenvalues of (default mixing * dielectric matrix)
  average eigenvalue GAMMA=   1.2353
  1.2353  1.2353

 Free energy of the ion-electron system (eV)
  ---------------------------------------------------
  alpha Z        PSCENC =      3473.39795963
  Ewald energy   TEWEN  =    -52919.42033815
  -Hartree energ DENC   =    -14816.84234407
  -exchange      EXHF   =         0.00000000
  -V(xc)+E(xc)   XCENC  =      3304.12524733
  PAW double counting   =     77659.07192689   -77257.18800385
  entropy T*S    EENTRO =        -0.00000000
  eigenvalues    EBANDS =     -5321.62954756
  atomic energy  EATOM  =     64968.54023382
  Solvation  Ediel_sol  =         0.00000000
  ---------------------------------------------------
  free energy    TOTEN  =      -909.94486596 eV

  energy without entropy =     -909.94486596  energy(sigma->0) =     -909.94486596


--------------------------------------------------------------------------------------------------------




--------------------------------------- Iteration      1(   8)  ---------------------------------------


    POTLOK:  cpu time    0.0871: real time    0.0937
    SETDIJ:  cpu time    0.2887: real time    0.2894
     EDDAV:  cpu time   36.4567: real time   36.5801
       DOS:  cpu time    0.0010: real time    0.0010
    CHARGE:  cpu time    1.1256: real time    1.1284
    MIXING:  cpu time    0.0038: real time    0.0038
    --------------------------------------------
      LOOP:  cpu time   37.9630: real time   38.0963

 eigenvalue-minimisations  : 10656
 total energy-change (2. order) : 0.7938961E+00  (-0.8421128E+00)
 number of electron     864.0000007 magnetization 
 augmentation part      120.1973721 magnetization 

 Broyden mixing:
  rms(total) = 0.66247E+00    rms(broyden)= 0.66240E+00
  rms(prec ) = 0.76518E+00
  weight for this iteration     100.00

 eigenvalues of (default mixing * dielectric matrix)
  average eigenvalue GAMMA=   1.3681
  2.1143  0.9951  0.9951

 Free energy of the ion-electron system (eV)
  ---------------------------------------------------
  alpha Z        PSCENC =      3473.39795963
  Ewald energy   TEWEN  =    -52919.42033815
  -Hartree energ DENC   =    -14774.35459320
  -exchange      EXHF   =         0.00000000
  -V(xc)+E(xc)   XCENC  =      3301.49755146
  PAW double counting   =     84553.46406445   -84188.11714397
  entropy T*S    EENTRO =        -0.00000000
  eigenvalues    EBANDS =     -5324.15870391
  atomic energy  EATOM  =     64968.54023382
  Solvation  Ediel_sol  =         0.00000000
  ---------------------------------------------------
  free energy    TOTEN  =      -909.15096986 eV

  energy without entropy =     -909.15096986  energy(sigma->0) =     -909.15096986


--------------------------------------------------------------------------------------------------------




--------------------------------------- Iteration      1(   9)  ---------------------------------------


    POTLOK:  cpu time    0.0829: real time    0.0924
    SETDIJ:  cpu time    0.2846: real time    0.2894
     EDDAV:  cpu time   35.6054: real time   36.4434
       DOS:  cpu time    0.0010: real time    0.0010
    CHARGE:  cpu time    1.1063: real time    1.1310
    MIXING:  cpu time    0.0036: real time    0.0037
    --------------------------------------------
      LOOP:  cpu time   37.0839: real time   37.9609

 eigenvalue-minimisations  : 10688
 total energy-change (2. order) : 0.2035358E+00  (-0.1828411E+00)
 number of electron     864.0000007 magnetization 
 augmentation part      119.6238377 magnetization 

 Broyden mixing:
  rms(total) = 0.19062E+00    rms(broyden)= 0.19061E+00
  rms(prec ) = 0.21935E+00
  weight for this iteration     100.00

 eigenvalues of (default mixing * dielectric matrix)
  average eigenvalue GAMMA=   1.3608
  2.3014  1.2407  0.9504  0.9504

 Free energy of the ion-electron system (eV)
  ---------------------------------------------------
  alpha Z        PSCENC =      3473.39795963
  Ewald energy   TEWEN  =    -52919.42033815
  -Hartree energ DENC   =    -14826.79836335
  -exchange      EXHF   =         0.00000000
  -V(xc)+E(xc)   XCENC  =      3305.56818829
  PAW double counting   =     89624.10001715   -89282.58868897
  entropy T*S    EENTRO =        -0.00000000
  eigenvalues    EBANDS =     -5251.74644252
  atomic energy  EATOM  =     64968.54023382
  Solvation  Ediel_sol  =         0.00000000
  ---------------------------------------------------
  free energy    TOTEN  =      -908.94743409 eV

  energy without entropy =     -908.94743409  energy(sigma->0) =     -908.94743409


--------------------------------------------------------------------------------------------------------




--------------------------------------- Iteration      1(  10)  ---------------------------------------


    POTLOK:  cpu time    0.0922: real time    0.0928
    SETDIJ:  cpu time    0.2876: real time    0.2883
     EDDAV:  cpu time   38.1190: real time   38.2475
       DOS:  cpu time    0.0011: real time    0.0011
    CHARGE:  cpu time    1.1290: real time    1.1318
    MIXING:  cpu time    0.0039: real time    0.0039
    --------------------------------------------
      LOOP:  cpu time   39.6328: real time   39.7653

 eigenvalue-minimisations  : 11232
 total energy-change (2. order) :-0.5860468E-01  (-0.6464516E-01)
 number of electron     864.0000007 magnetization 
 augmentation part      119.5199034 magnetization 

 Broyden mixing:
  rms(total) = 0.12982E+00    rms(broyden)= 0.12981E+00
  rms(prec ) = 0.14526E+00
  weight for this iteration     100.00

 eigenvalues of (default mixing * dielectric matrix)
  average eigenvalue GAMMA=   1.3231
  2.3812  1.3595  1.1490  0.8629  0.8629

 Free energy of the ion-electron system (eV)
  ---------------------------------------------------
  alpha Z        PSCENC =      3473.39795963
  Ewald energy   TEWEN  =    -52919.42033815
  -Hartree energ DENC   =    -14832.58850424
  -exchange      EXHF   =         0.00000000
  -V(xc)+E(xc)   XCENC  =      3306.09662818
  PAW double counting   =     90291.16233161   -89952.44690815
  entropy T*S    EENTRO =        -0.00000000
  eigenvalues    EBANDS =     -5243.74744147
  atomic energy  EATOM  =     64968.54023382
  Solvation  Ediel_sol  =         0.00000000
  ---------------------------------------------------
  free energy    TOTEN  =      -909.00603877 eV

  energy without entropy =     -909.00603877  energy(sigma->0) =     -909.00603877


--------------------------------------------------------------------------------------------------------




--------------------------------------- Iteration      1(  11)  ---------------------------------------


    POTLOK:  cpu time    0.0855: real time    0.0925
    SETDIJ:  cpu time    0.2890: real time    0.2897
     EDDAV:  cpu time   38.3743: real time   38.4935
       DOS:  cpu time    0.0010: real time    0.0010
    CHARGE:  cpu time    1.1229: real time    1.1257
    MIXING:  cpu time    0.0032: real time    0.0032
    --------------------------------------------
      LOOP:  cpu time   39.8759: real time   40.0057

 eigenvalue-minimisations  : 11480
 total energy-change (2. order) :-0.3282162E-02  (-0.1043359E-01)
 number of electron     864.0000007 magnetization 
 augmentation part      119.4804363 magnetization 

 Broyden mixing:
  rms(total) = 0.65421E-01    rms(broyden)= 0.65415E-01
  rms(prec ) = 0.72884E-01
  weight for this iteration     100.00

 eigenvalues of (default mixing * dielectric matrix)
  average eigenvalue GAMMA=   1.3798
  2.3612  2.1124  0.9912  0.9912  0.9114  0.9114

 Free energy of the ion-electron system (eV)
  ---------------------------------------------------
  alpha Z        PSCENC =      3473.39795963
  Ewald energy   TEWEN  =    -52919.42033815
  -Hartree energ DENC   =    -14838.61748074
  -exchange      EXHF   =         0.00000000
  -V(xc)+E(xc)   XCENC  =      3306.52916673
  PAW double counting   =     90150.74457882   -89811.55556765
  entropy T*S    EENTRO =        -0.00000000
  eigenvalues    EBANDS =     -5238.62787340
  atomic energy  EATOM  =     64968.54023382
  Solvation  Ediel_sol  =         0.00000000
  ---------------------------------------------------
  free energy    TOTEN  =      -909.00932093 eV

  energy without entropy =     -909.00932093  energy(sigma->0) =     -909.00932093


--------------------------------------------------------------------------------------------------------




--------------------------------------- Iteration      1(  12)  ---------------------------------------


    POTLOK:  cpu time    0.0829: real time    0.0932
    SETDIJ:  cpu time    0.2859: real time    0.2907
     EDDAV:  cpu time   35.1327: real time   35.4430
       DOS:  cpu time    0.0012: real time    0.0012
    CHARGE:  cpu time    1.1237: real time    1.1267
    MIXING:  cpu time    0.0039: real time    0.0039
    --------------------------------------------
      LOOP:  cpu time   36.6303: real time   36.9587

 eigenvalue-minimisations  : 10352
 total energy-change (2. order) :-0.2203196E-02  (-0.2767924E-02)
 number of electron     864.0000007 magnetization 
 augmentation part      119.5051214 magnetization 

 Broyden mixing:
  rms(total) = 0.18562E-01    rms(broyden)= 0.18556E-01
  rms(prec ) = 0.22527E-01
  weight for this iteration     100.00

 eigenvalues of (default mixing * dielectric matrix)
  average eigenvalue GAMMA=   1.3711
  2.5019  2.3940  0.9696  0.9858  0.9858  0.8803  0.8803

 Free energy of the ion-electron system (eV)
  ---------------------------------------------------
  alpha Z        PSCENC =      3473.39795963
  Ewald energy   TEWEN  =    -52919.42033815
  -Hartree energ DENC   =    -14838.03548683
  -exchange      EXHF   =         0.00000000
  -V(xc)+E(xc)   XCENC  =      3306.47692601
  PAW double counting   =     89892.67385706   -89552.08646470
  entropy T*S    EENTRO =        -0.00000000
  eigenvalues    EBANDS =     -5240.55821096
  atomic energy  EATOM  =     64968.54023382
  Solvation  Ediel_sol  =         0.00000000
  ---------------------------------------------------
  free energy    TOTEN  =      -909.01152413 eV

  energy without entropy =     -909.01152413  energy(sigma->0) =     -909.01152413


--------------------------------------------------------------------------------------------------------




--------------------------------------- Iteration      1(  13)  ---------------------------------------


    POTLOK:  cpu time    0.0828: real time    0.0935
    SETDIJ:  cpu time    0.2846: real time    0.2893
     EDDAV:  cpu time   40.1504: real time   41.0689
       DOS:  cpu time    0.0009: real time    0.0010
    CHARGE:  cpu time    1.1124: real time    1.1376
    MIXING:  cpu time    0.0051: real time    0.0052
    --------------------------------------------
      LOOP:  cpu time   41.6363: real time   42.5954

 eigenvalue-minimisations  : 12272
 total energy-change (2. order) :-0.7792062E-03  (-0.4534576E-03)
 number of electron     864.0000007 magnetization 
 augmentation part      119.5048596 magnetization 

 Broyden mixing:
  rms(total) = 0.10035E-01    rms(broyden)= 0.10035E-01
  rms(prec ) = 0.12142E-01
  weight for this iteration     100.00

 eigenvalues of (default mixing * dielectric matrix)
  average eigenvalue GAMMA=   1.3344
  2.5679  2.4402  0.8929  0.8929  1.0782  1.0782  0.8627  0.8627

 Free energy of the ion-electron system (eV)
  ---------------------------------------------------
  alpha Z        PSCENC =      3473.39795963
  Ewald energy   TEWEN  =    -52919.42033815
  -Hartree energ DENC   =    -14839.39011643
  -exchange      EXHF   =         0.00000000
  -V(xc)+E(xc)   XCENC  =      3306.55599378
  PAW double counting   =     89807.73615622   -89466.57525604
  entropy T*S    EENTRO =        -0.00000000
  eigenvalues    EBANDS =     -5239.85693617
  atomic energy  EATOM  =     64968.54023382
  Solvation  Ediel_sol  =         0.00000000
  ---------------------------------------------------
  free energy    TOTEN  =      -909.01230334 eV

  energy without entropy =     -909.01230334  energy(sigma->0) =     -909.01230334


--------------------------------------------------------------------------------------------------------




--------------------------------------- Iteration      1(  14)  ---------------------------------------


    POTLOK:  cpu time    0.0865: real time    0.0923
    SETDIJ:  cpu time    0.2881: real time    0.2890
     EDDAV:  cpu time   38.4447: real time   38.5714
       DOS:  cpu time    0.0010: real time    0.0010
    CHARGE:  cpu time    1.1229: real time    1.1257
    MIXING:  cpu time    0.0045: real time    0.0045
    --------------------------------------------
      LOOP:  cpu time   39.9477: real time   40.0838

 eigenvalue-minimisations  : 11432
 total energy-change (2. order) :-0.1006412E-03  (-0.1391174E-03)
 number of electron     864.0000007 magnetization 
 augmentation part      119.5035336 magnetization 

 Broyden mixing:
  rms(total) = 0.69372E-02    rms(broyden)= 0.69366E-02
  rms(prec ) = 0.79856E-02
  weight for this iteration     100.00

 eigenvalues of (default mixing * dielectric matrix)
  average eigenvalue GAMMA=   1.3361
  2.6880  2.3645  1.5631  0.9763  0.9763  0.8657  0.8657  0.8626  0.8626

 Free energy of the ion-electron system (eV)
  ---------------------------------------------------
  alpha Z        PSCENC =      3473.39795963
  Ewald energy   TEWEN  =    -52919.42033815
  -Hartree energ DENC   =    -14839.97053639
  -exchange      EXHF   =         0.00000000
  -V(xc)+E(xc)   XCENC  =      3306.58787732
  PAW double counting   =     89798.79755156   -89457.45491121
  entropy T*S    EENTRO =        -0.00000000
  eigenvalues    EBANDS =     -5239.49024055
  atomic energy  EATOM  =     64968.54023382
  Solvation  Ediel_sol  =         0.00000000
  ---------------------------------------------------
  free energy    TOTEN  =      -909.01240398 eV

  energy without entropy =     -909.01240398  energy(sigma->0) =     -909.01240398


--------------------------------------------------------------------------------------------------------




--------------------------------------- Iteration      1(  15)  ---------------------------------------


    POTLOK:  cpu time    0.0844: real time    0.0932
    SETDIJ:  cpu time    0.2885: real time    0.2894
     EDDAV:  cpu time   36.3384: real time   36.4861
       DOS:  cpu time    0.0010: real time    0.0010
    CHARGE:  cpu time    1.1289: real time    1.1317
    MIXING:  cpu time    0.0042: real time    0.0043
    --------------------------------------------
      LOOP:  cpu time   37.8454: real time   38.0056

 eigenvalue-minimisations  : 10720
 total energy-change (2. order) :-0.3302557E-06  (-0.2387976E-04)
 number of electron     864.0000007 magnetization 
 augmentation part      119.5025389 magnetization 

 Broyden mixing:
  rms(total) = 0.29508E-02    rms(broyden)= 0.29501E-02
  rms(prec ) = 0.35386E-02
  weight for this iteration     100.00

 eigenvalues of (default mixing * dielectric matrix)
  average eigenvalue GAMMA=   1.3790
  2.8349  2.3193  2.3193  0.9783  0.9783  0.9085  0.8666  0.8666  0.8590  0.8590

 Free energy of the ion-electron system (eV)
  ---------------------------------------------------
  alpha Z        PSCENC =      3473.39795963
  Ewald energy   TEWEN  =    -52919.42033815
  -Hartree energ DENC   =    -14840.39563588
  -exchange      EXHF   =         0.00000000
  -V(xc)+E(xc)   XCENC  =      3306.61173402
  PAW double counting   =     89811.32432414   -89469.93643848
  entropy T*S    EENTRO =        -0.00000000
  eigenvalues    EBANDS =     -5239.13424341
  atomic energy  EATOM  =     64968.54023382
  Solvation  Ediel_sol  =         0.00000000
  ---------------------------------------------------
  free energy    TOTEN  =      -909.01240431 eV

  energy without entropy =     -909.01240431  energy(sigma->0) =     -909.01240431


--------------------------------------------------------------------------------------------------------




--------------------------------------- Iteration      1(  16)  ---------------------------------------


    POTLOK:  cpu time    0.0837: real time    0.0940
    SETDIJ:  cpu time    0.2848: real time    0.2898
     EDDAV:  cpu time   37.4079: real time   37.9728
       DOS:  cpu time    0.0010: real time    0.0010
    CHARGE:  cpu time    1.1280: real time    1.1310
    MIXING:  cpu time    0.0046: real time    0.0046
    --------------------------------------------
      LOOP:  cpu time   38.9100: real time   39.4932

 eigenvalue-minimisations  : 11136
 total energy-change (2. order) :-0.2564280E-05  (-0.6334178E-05)
 number of electron     864.0000007 magnetization 
 augmentation part      119.5020874 magnetization 

 Broyden mixing:
  rms(total) = 0.11391E-02    rms(broyden)= 0.11379E-02
  rms(prec ) = 0.14944E-02
  weight for this iteration     100.00

 eigenvalues of (default mixing * dielectric matrix)
  average eigenvalue GAMMA=   1.3683
  2.8866  2.3168  2.3168  0.9925  0.9925  1.0205  1.0205  0.9069  0.9069  0.8454
  0.8454

 Free energy of the ion-electron system (eV)
  ---------------------------------------------------
  alpha Z        PSCENC =      3473.39795963
  Ewald energy   TEWEN  =    -52919.42033815
  -Hartree energ DENC   =    -14840.65695810
  -exchange      EXHF   =         0.00000000
  -V(xc)+E(xc)   XCENC  =      3306.62616615
  PAW double counting   =     89821.26324083   -89479.85259009
  entropy T*S    EENTRO =        -0.00000000
  eigenvalues    EBANDS =     -5238.91012096
  atomic energy  EATOM  =     64968.54023382
  Solvation  Ediel_sol  =         0.00000000
  ---------------------------------------------------
  free energy    TOTEN  =      -909.01240687 eV

  energy without entropy =     -909.01240687  energy(sigma->0) =     -909.01240687


--------------------------------------------------------------------------------------------------------




--------------------------------------- Iteration      1(  17)  ---------------------------------------


    POTLOK:  cpu time    0.0913: real time    0.0921
    SETDIJ:  cpu time    0.2875: real time    0.2882
     EDDAV:  cpu time   36.9906: real time   37.1206
       DOS:  cpu time    0.0010: real time    0.0010
    CHARGE:  cpu time    1.1252: real time    1.1280
    MIXING:  cpu time    0.0042: real time    0.0042
    --------------------------------------------
      LOOP:  cpu time   38.4999: real time   38.6341

 eigenvalue-minimisations  : 10936
 total energy-change (2. order) :-0.5856855E-06  (-0.4586163E-05)
 number of electron     864.0000007 magnetization 
 augmentation part      119.5029904 magnetization 

 Broyden mixing:
  rms(total) = 0.86167E-03    rms(broyden)= 0.85999E-03
  rms(prec ) = 0.10229E-02
  weight for this iteration     100.00

 eigenvalues of (default mixing * dielectric matrix)
  average eigenvalue GAMMA=   1.3178
  2.9703  2.3071  2.3071  1.0873  1.0512  1.0512  0.9085  0.9085  0.8067  0.8067
  0.8048  0.8048

 Free energy of the ion-electron system (eV)
  ---------------------------------------------------
  alpha Z        PSCENC =      3473.39795963
  Ewald energy   TEWEN  =    -52919.42033815
  -Hartree energ DENC   =    -14840.62695243
  -exchange      EXHF   =         0.00000000
  -V(xc)+E(xc)   XCENC  =      3306.62413124
  PAW double counting   =     89821.05238669   -89479.64621771
  entropy T*S    EENTRO =        -0.00000000
[...]
   -.596E+01 0.715E+02 -.117E+02   0.861E+01 -.743E+02 0.129E+02   -.441E+00 0.246E+01 -.388E+00   0.516E-03 -.238E-02 -.350E-03
   0.269E+02 0.652E+02 0.126E+03   -.403E+02 -.536E+02 -.125E+03   0.143E+02 -.138E+02 -.338E+01   -.911E-04 -.678E-03 -.431E-04
   -.140E+02 -.737E+02 -.996E+02   0.280E+01 0.868E+02 0.907E+02   0.141E+02 -.137E+02 0.125E+02   -.311E-03 0.879E-03 -.143E-02
   0.427E+01 -.877E+02 -.979E+02   0.270E+01 0.862E+02 0.884E+02   -.664E+01 0.220E+01 0.133E+02   0.237E-03 -.681E-03 -.198E-02
   0.500E+01 0.136E+02 0.150E+03   -.149E+02 -.236E+02 -.165E+03   0.950E+01 0.107E+02 0.122E+02   0.857E-03 0.205E-02 0.281E-02
   0.429E+02 -.295E+02 -.488E+02   -.434E+02 0.249E+02 0.663E+02   -.488E+00 0.530E+01 -.155E+02   0.154E-02 0.208E-02 -.320E-03
   -.625E+02 0.163E+02 -.439E+01   0.859E+02 -.895E+01 -.233E+01   -.260E+02 -.712E+01 0.914E+01   -.780E-03 0.134E-03 -.218E-03
   0.326E+02 0.141E+02 0.439E+02   -.433E+02 0.179E+02 -.404E+02   0.959E+01 -.327E+02 -.401E+01   0.648E-03 -.214E-02 -.930E-03
   0.516E+02 -.615E+02 -.937E+02   -.407E+02 0.645E+02 0.852E+02   -.109E+02 -.206E+01 0.101E+02   0.712E-03 0.148E-02 -.121E-02
   -.102E+02 0.412E+02 0.684E+02   0.190E+02 -.414E+02 -.781E+02   -.124E+02 0.129E+01 0.629E+01   -.455E-03 -.191E-02 -.411E-03
   0.500E+02 0.180E+02 0.170E+03   -.360E+02 -.138E+02 -.181E+03   -.177E+02 -.343E+01 0.564E+01   -.686E-03 -.181E-02 0.194E-02
   -.121E+03 -.972E+02 -.473E+01   0.134E+03 0.115E+03 -.429E+01   -.947E+01 -.176E+02 0.668E+01   -.209E-02 0.848E-03 -.885E-03
   -.231E+01 0.813E+02 -.319E+02   0.861E+01 -.734E+02 0.387E+02   -.701E+01 -.906E+01 -.573E+01   0.125E-02 -.315E-03 0.140E-02
   -.221E+02 0.215E+01 -.261E+02   0.213E+02 -.112E+02 0.326E+02   0.704E+00 0.945E+01 -.567E+01   0.102E-02 -.312E-02 0.880E-03
   0.439E+02 0.845E+01 0.255E+02   -.617E+02 -.172E+02 -.361E+02   0.180E+02 0.793E+01 0.114E+02   0.909E-03 0.250E-02 0.893E-03
   0.271E+02 -.519E+02 0.675E+02   -.373E+02 0.776E+02 -.829E+02   0.423E+01 -.212E+02 0.122E+02   -.565E-03 -.119E-02 0.121E-02
   -.136E+02 0.111E+02 -.674E+02   0.132E+02 -.224E+02 0.673E+02   0.298E+01 0.997E+01 0.191E+01   -.147E-02 -.236E-03 0.120E-03
   -.142E+02 -.117E+02 -.148E+02   0.144E+02 0.251E+02 0.134E+02   0.445E+01 -.131E+02 -.231E+01   -.108E-02 0.189E-02 0.251E-03
   -.343E+02 -.700E+02 0.111E+03   0.473E+02 0.655E+02 -.123E+03   -.126E+02 0.436E+01 0.125E+02   0.996E-03 0.197E-02 0.183E-02
   -.254E+02 0.792E+02 0.131E+02   0.292E+02 -.773E+02 -.137E+02   -.362E+01 -.266E+01 -.800E+00   0.790E-03 -.120E-02 0.841E-03
   0.184E+02 0.544E+01 0.108E+03   -.205E+02 -.209E+02 -.116E+03   0.136E+01 0.210E+02 0.634E+01   -.304E-04 0.269E-02 0.160E-02
   -.968E+02 0.219E+02 -.365E+02   0.105E+03 -.115E+01 0.232E+02   -.443E+01 -.186E+02 0.107E+02   -.140E-02 -.257E-02 -.165E-03
   0.126E+02 0.752E+02 -.730E+01   -.360E+01 -.692E+02 0.349E+01   -.101E+02 -.869E+01 0.481E+01   0.154E-02 0.755E-03 -.129E-02
   0.322E+02 0.189E+02 -.744E+02   -.244E+02 -.137E+02 0.936E+02   -.753E+01 -.671E+01 -.225E+02   -.342E-03 -.149E-02 0.600E-03
   0.746E+02 -.425E+02 0.638E+01   -.626E+02 0.477E+02 -.295E+02   -.141E+02 -.563E+01 0.242E+02   -.766E-03 0.127E-02 -.335E-03
   0.783E+01 -.942E+02 0.106E+02   -.624E+01 0.995E+02 -.298E+01   -.138E-01 -.427E+01 -.104E+02   0.155E-02 0.772E-03 0.534E-03
   -.338E+02 -.474E+02 0.137E+02   0.530E+02 0.549E+02 -.305E+01   -.160E+02 -.888E+01 -.876E+01   -.121E-02 0.235E-02 -.479E-03
   -.220E+02 -.125E+02 -.686E+02   0.270E+02 0.123E+02 0.800E+02   -.764E+01 -.309E+01 -.756E+01   -.259E-03 -.580E-03 -.795E-03
   0.118E+03 0.586E+02 -.234E+02   -.117E+03 -.505E+02 0.899E+01   -.353E+01 -.110E+02 0.169E+02   0.888E-03 -.751E-03 0.393E-03
   0.202E+02 0.509E+02 -.891E+01   -.598E+01 -.557E+02 0.106E+02   -.171E+02 0.594E+01 -.588E+00   0.183E-03 -.206E-02 -.105E-02
   0.321E+02 -.385E+02 -.597E+02   -.244E+02 0.451E+02 0.829E+02   -.743E+01 -.593E+01 -.231E+02   0.403E-03 0.881E-03 0.172E-02
   0.317E+02 0.875E+02 -.480E+01   -.389E+02 -.959E+02 0.303E+02   0.547E+01 0.735E+01 -.243E+02   0.745E-03 -.162E-02 -.144E-02
   -.282E+02 0.467E+02 0.536E+02   0.132E+02 -.769E+02 -.353E+02   0.160E+02 0.297E+02 -.257E+02   -.283E-04 0.681E-03 -.349E-03
   0.743E+01 -.221E+02 0.180E+02   -.204E+02 0.316E+02 -.284E+02   0.123E+02 -.751E+01 0.104E+02   -.614E-03 -.227E-02 -.119E-02
   0.865E+02 0.486E+02 -.293E+02   -.836E+02 -.464E+02 0.321E+02   -.462E+01 -.215E+01 -.110E+01   0.137E-02 -.210E-02 -.182E-02
   -.277E+02 0.327E+02 -.463E+02   0.250E+02 -.268E+02 0.632E+02   0.211E+01 -.622E+01 -.175E+02   0.123E-02 -.262E-02 0.208E-02
   -.668E+01 -.589E+02 0.614E+01   0.116E+02 0.408E+02 -.121E+02   -.745E+01 0.209E+02 0.546E+01   0.318E-03 -.137E-02 0.124E-02
   0.414E+02 -.450E+02 -.516E+01   -.426E+02 0.397E+02 0.666E+01   0.323E+00 0.744E+01 -.261E+01   0.202E-03 -.273E-03 0.910E-03
   0.451E+01 -.326E+02 -.774E+02   -.543E+01 0.326E+02 0.836E+02   0.218E+00 0.715E+00 -.622E+01   0.120E-02 -.226E-02 -.123E-02
   -.655E+02 0.966E+02 -.599E+01   0.590E+02 -.107E+03 0.120E+02   0.927E+01 0.100E+02 -.727E+01   -.663E-03 -.184E-02 -.796E-03
   -.654E+02 0.508E+02 0.336E+02   0.544E+02 -.558E+02 -.265E+02   0.133E+02 0.517E+01 -.804E+01   -.161E-02 -.235E-02 0.692E-03
   0.676E+01 -.549E+02 -.735E+01   -.111E+02 0.494E+02 -.961E+00   0.592E+01 0.815E+01 0.769E+01   0.577E-04 0.103E-02 -.178E-03
   -.835E+01 -.788E+01 -.576E+02   0.175E+02 0.759E+01 0.665E+02   -.114E+02 0.540E+00 -.766E+01   0.361E-03 0.159E-02 -.115E-02
   -.438E+02 -.290E+02 0.618E+02   0.436E+02 0.238E+02 -.573E+02   0.930E+00 0.777E+01 -.694E+01   -.104E-02 0.380E-03 0.188E-02
   -.588E+01 -.872E+02 -.467E+02   0.714E+01 0.727E+02 0.652E+02   -.732E+00 0.184E+02 -.197E+02   -.214E-04 0.217E-02 -.109E-02
   0.552E+02 0.624E+02 0.149E+03   -.691E+02 -.698E+02 -.167E+03   0.129E+02 0.396E+01 0.180E+02   -.616E-03 -.140E-02 -.344E-03
   0.360E+02 0.427E+01 -.710E+02   -.324E+02 -.164E+02 0.615E+02   -.581E+01 0.153E+02 0.118E+02   0.365E-04 0.698E-03 -.337E-03
   -.112E+02 -.112E+02 -.163E+02   0.493E+01 0.225E+02 0.189E+02   0.485E+01 -.132E+02 0.628E+00   -.118E-02 0.249E-02 -.413E-04
 -----------------------------------------------------------------------------------------------
   -.486E+02 -.129E+03 -.193E+03   0.272E-12 0.689E-12 -.711E-14   0.486E+02 0.129E+03 0.193E+03   0.376E-02 0.107E-02 0.249E-02
 
 
 POSITION                                       TOTAL-FORCE (eV/Angst)
 -----------------------------------------------------------------------------------
      5.44705     10.36573      6.28291        -0.509340     -1.406082     -0.504056
      1.27620      6.56743      6.15279         1.628759     -0.581174      0.706163
      7.77591     10.94630      4.16600         1.042729      0.359993     -1.598727
      6.99457      4.69274     10.98029         3.338470     -1.141239      3.550050
     10.10541      9.39046      5.59162         0.698168     -3.425574     -0.692648
      3.50762      4.26951      7.10415        -0.190348      0.326433     -0.552336
      9.28552     10.42377      9.94462        -2.079407      0.296023      3.633011
     10.31152      5.77780      8.77043        -1.639603     -3.698530     -1.125211
      1.93882      6.23660      9.21742         0.872055     -0.489483      0.366665
      8.74287      6.13978      2.11655        -1.508623      1.285486      0.790007
      6.60501      1.69535      8.40767        -0.611098     -2.339474      3.543555
      5.09038      3.05919      2.75294         1.436240      0.097154     -1.992424
      5.52445      2.10686      5.38237         1.194832     -0.564982      1.945380
      0.53767      7.71852      0.18597         0.376224      1.450491      2.364823
      0.29842      4.31909      3.56807        -1.470881     -2.987811      1.168075
     10.18867      1.46703      1.49314        -0.146045     -0.437415     -0.415584
      1.21571     10.33297      2.73231         0.741823     -1.302942      0.272609
      6.22484      4.93291      4.92817        -0.445514      2.062680     -0.958357
      4.93470      6.51044     10.16014        -2.241951      0.701232     -1.578015
      0.18366      0.56776      7.26184         1.368824      1.060450      3.621248
      8.71226      2.84505      5.74106         1.637585      0.127024      1.817753
      7.49399      7.79492      7.60124         1.855947     -1.934271     -1.986364
      2.38812      5.29467      1.12350         0.107790      0.755545     -1.404581
      4.04876      7.91706      3.79387        -0.129438     -1.222058     -0.868703
      2.63577      9.01138      8.78197         0.901472     -1.565092     -0.072793
      6.34879      9.56225      1.18112         3.313589      0.374434     -0.387061
      1.29034      2.78006     10.13433         0.232890     -0.754562     -2.312866
      2.55306      9.56474      5.75371        -4.589158      3.048086     -6.081293
      0.49508      3.57005      6.75751         1.740988      1.573536     -2.682601
      4.70223      7.23916      6.62980        -1.687959     -2.506074      0.200072
     10.55541      8.41565      8.59584         0.012961      2.330027     -3.839498
      1.02214     10.64956     10.67348         1.851312     -0.985916      3.257188
      5.93200      9.54008      9.12501         0.265403      0.750261      1.769946
     10.91867      0.91706      4.57355         6.794883     10.678669      2.897116
      7.12112      1.61781      0.19204        -3.556817     -5.399781      5.062872
      4.28045     11.10940      3.19956        -0.532870     -1.388542      1.998913
      8.14998      7.20218     10.40632         2.214473      4.406549      0.794200
      9.35863      2.71632      9.21997        -0.603413     -4.648491     -2.921095
      7.16927      7.80452      4.16545        -6.277682      4.516300     -1.195884
     10.38798      4.51468      0.43704         5.175756      3.161655     -1.274417
      3.72046      0.37001      9.72485        -0.102760      3.240094      1.065610
      6.95596      4.62045      7.78801         1.995176      3.431743      0.615055
      4.26178      1.61450      0.53819         4.340117      0.500802      0.549837
      2.08083      2.09346      1.98658        -2.663257      0.394914      1.268009
      2.93586      1.36395      6.12113         1.978305     -0.747415      1.335106
      8.24459      3.22074      3.03576        -0.996853     -1.165864     -3.254754
      0.66279      6.93807      3.26539        -0.158183      4.358397     -3.830296
      5.26439      6.20872      1.81178        -2.135805      0.173397      1.353067
      3.65116      8.94930      0.70453        -5.779500     -4.751058      2.465612
      9.37065      5.98157      5.31634        -0.622296      0.314947      3.396483
      9.47144      9.28382      1.75070        -0.340475      1.427344      0.119790
      3.19576      4.76123      3.85564         0.008496     -0.128999      4.332590
      4.39439      3.67583     10.25442        -0.170037      1.628945      1.221731
      8.16063     10.86544      7.06504         5.579680     -7.784131      3.069937
      8.81213      8.12075      0.92742        -3.467109     -3.931730     -3.857182
      7.34790      5.86393      8.94469         0.129691      3.270138      1.309326
      2.56131      3.57629      2.81272        -0.356157     -0.581883      0.996951
      5.67938      1.41835      1.18994         0.526345     -3.262817      4.721336
      6.64645      9.25759      3.41265         2.787390     -2.207588      0.071365
      2.17084      9.75340      0.32797         0.021889     -1.651313     -0.330681
      3.21825      0.88957      2.36355         1.468423      0.943558      0.893612
     10.37350     10.83909      4.03323        -6.222168     -8.050176     -7.587408
      9.62363      0.36105      6.16961        -0.867781     -0.351376     -0.929986
      2.89454      7.51277     10.97832        -2.001787      0.540440     -3.733644
      2.31783     11.09168      9.20870        -2.794397      0.542560      0.802390
      6.53755      3.17280      7.14405        -0.405191      4.698121     -3.027508
      8.97567      5.90760     10.81176        -0.339798     -4.072633      2.608227
     11.02546      2.36204      5.47044        -0.215812     -0.279238      0.911837
      8.46224      3.77133      8.50965        -2.246360      2.886605     -3.345631
      5.40071      8.55711      7.77877        -0.680820     -0.099588      1.972621
     10.37961      4.77183      6.00678        -0.134812     -1.561016      2.201868
      4.56841      4.84583      0.91912         4.802952     -0.064082     -1.658829
      0.34488      9.46868      9.62334         1.005615     -3.142157     -1.266875
      8.96304      5.17150      4.06695        -1.683485     -4.578701     -3.462950
      9.27353      9.78421      8.01825         2.605237     -1.144879     -1.154298
      7.94224      5.70116      6.39859         0.109677     -2.305159      0.966639
      3.58150      8.45000      6.03436         2.740243     -3.194337      3.385863
      7.43294      8.73148      9.71430        -2.331238     -2.551825      0.990480
      1.84969      8.10345      2.25849        -3.953598     -0.648217      3.187831
      4.22186      3.58810      4.61171         0.152960      2.449771      1.301139
      1.39825      0.79823      0.99484        -1.709814      1.621383     -2.168060
     11.04506      0.38279     10.06693        -0.942422      7.171524     -0.106653
      1.20738     10.96663      5.13939        -0.006443      3.628927      2.298494
     10.84141      6.43142      1.94227         2.552830     -0.835462      1.387539
      6.31041      6.70195      3.31327         1.836828     -0.390290     -1.417442
      3.86000      7.18811      1.67834         4.303945      1.759999      0.776732
      4.66968      9.04572     10.64481         4.878801      0.872489     -4.761506
     10.03211      3.50145     10.40041         2.216283     -0.428201      0.787089
      3.15140      4.82220     10.26638         0.888654     -2.239484     -2.593942
      8.36623     10.53274      1.09198         2.913111     -0.615756      3.594510
      1.88243      5.77575      3.10931         0.338031      0.734561      3.870885
      9.79959      7.34855      7.53176        -0.437147      0.676263     -2.886579
      9.73171      7.72893      9.77483        -0.997415      0.699501      1.950843
      5.87723      0.40578      3.27982        -2.554250      0.241041      2.426254
      3.38628      2.85482      0.90814        -1.044018     -0.799154     -0.506609
     10.83309      9.73417      0.86939        -0.025859      0.900030      1.604226
      5.60945      2.37891     10.61532        -3.594984      1.163176     -3.418657
      5.75265      4.32107      9.57684        -3.761535      0.855300     -5.264252
      6.22319      6.97729      0.77948         3.411984      0.187385     -2.342117
      1.22207      4.85898      7.71479        -0.707722     -1.150518      1.148697
     10.78571      2.84559      8.04185        -0.113586      0.414448      0.815495
      1.26997      8.65930      5.20077         0.220723     -0.791232      0.877087
      7.47977      0.87440      6.35306        -5.921369      4.570246     -3.200689
      5.56155      5.78104      6.87809         2.553634     -1.332379      1.768815
      6.74956     10.55304      8.14683         4.663028      0.265987     -3.648849
      0.91273      7.90782      7.95718         0.420110     -0.126217      0.725413
      1.71289      4.40500      5.44251         0.183196     -0.675491     -1.341673
      7.91478      9.27688      6.18356        -0.729068      5.586318     -1.475212
      7.85824      2.59247     10.42444         4.052159      2.138708     -2.606863
      0.36842      5.65460     10.67658        -1.131419     -2.754657      1.003229
      4.16655      1.92056      7.27596         0.334160     -1.519686     -3.294669
      4.87296     10.87402      8.85507        -2.121571     -0.359684      1.069547
     10.85357      6.63674      4.71664         1.572717      1.032350     -2.717966
      8.44200      7.38519      4.85938         3.231707     -1.417519      1.900886
      4.53700      5.48860      3.05242        -2.624319     -3.341375      3.866427
      3.84005      1.29770      4.58227        -2.810048     -2.878235      2.503929
      9.68128      2.27496      3.48570        -2.836515      1.171664      1.097679
      3.01097     10.76248      6.78110         0.264061      0.637062      0.088495
      9.79813      4.11244      1.80640        -1.728593     -1.084459      1.184309
      3.67005      0.19791      0.37191         0.997207     -0.503634     -7.468152
      7.25397      4.25292      2.17163        -0.667188      2.043906     -0.077986
      0.96425      3.47959      0.89534        -1.732987      0.062968      1.728263
      1.84234      2.29465      6.96492        -0.538197     -0.279950     -0.564586
      9.30764      1.08552      8.71165        -2.543676      2.773299     -0.463127
      3.76441      5.92797      5.46903        -0.883553      2.084531     -1.110129
      0.92735      1.54123      3.20231        -0.694862      0.742595     -0.059397
      7.70909      1.98643      1.88677         2.755699     -0.778698     -1.276404
      7.07341      2.95343      4.28004         2.278600      0.155160     -0.923572
      3.28795      9.89033      4.17845         1.563210      2.659348     -0.626343
      4.44088      9.75180      1.96551        -2.282134      0.249023      1.198504
      3.72641      6.53278      8.19539         0.690671      2.563324     -2.365182
      9.71370      8.28019      3.11998         0.530283      3.865481     -1.263736
      3.51835      2.46765      9.57048        -1.055161     -3.522210     -0.255169
      7.19398      0.08175     10.32197        -2.207453      3.169590      2.330993
      5.85601      8.11655      5.25616        -1.413864     -2.001426      3.211776
 -----------------------------------------------------------------------------------
    total drift:                               -0.009336      0.022553     -0.034038


--------------------------------------------------------------------------------------------------------



  FREE ENERGIE OF THE ION-ELECTRON SYSTEM (eV)
  ---------------------------------------------------
  free  energy   TOTEN  =      -909.01240717 eV

  energy  without entropy=     -909.01240717  energy(sigma->0) =     -909.01240717
 


--------------------------------------------------------------------------------------------------------


    POTLOK:  cpu time    0.3681: real time    0.3751


--------------------------------------------------------------------------------------------------------


     LOOP+:  cpu time  716.9349: real time  723.3270
    4ORBIT:  cpu time    0.0000: real time    0.0000

 total amount of memory used by VASP MPI-rank0   149259. kBytes
=======================================================================

   base      :      30000. kBytes
   nonlr-proj:      21719. kBytes
   fftplans  :      20560. kBytes
   grid      :      10967. kBytes
   one-center:        186. kBytes
   wavefun   :      65827. kBytes
 
  
  
 General timing and accounting informations for this job:
 ========================================================
  
                  Total CPU time used (sec):      733.483
                            User time (sec):      730.148
                          System time (sec):        3.335
                         Elapsed time (sec):      740.036
  
                   Maximum memory used (kb):      277900.
                   Average memory used (kb):           0.
  
                          Minor page faults:        88592
                          Major page faults:            0
                 Voluntary context switches:          405
