  3.1617185e-01   8.1984090e-06
 -1.2136177e+00   5.0214494e-06
 -4.1351548e-01   6.9566016e-07
 -1.5485269e+00   2.5064683e-05
 -4.2538445e-02   1.6170228e-05
  5.7135433e-01   2.0252351e-06
 -1.1836871e-03   1.6379050e-05
  9.6331710e-01   2.0256062e-05
  4.5581216e-01   1.6019205e-05
  1.3171797e-04   1.3596361e-05
  4.4413194e-02   7.5483213e-06
  1.1345460e+00   1.5527330e-05
  6.4013821e-01   1.2709528e-06
  2.0776531e-01   7.4321156e-07
  1.4790675e-01   2.8204374e-06
 -5.2441806e-05   1.1769596e-05
 -9.3674535e-01   1.1616222e-06
  1.6783798e-01   1.7076216e-05
 -8.1487116e-05   1.0942064e-05
 -1.9371809e+00   3.1831620e-05
  1.7274175e-02   1.1678002e-05
  4.4135103e-01   2.4987842e-06
  2.9864985e-02   1.7125136e-05
  3.9246279e-05   7.1144223e-06
 -1.9951149e-04   2.1490764e-06
 -1.5193296e-05   2.9313037e-06
  1.5758788e-02   5.7741250e-05
 -5.3683403e-03   8.2442702e-06
 -1.1765599e-01   1.2780588e-05
  2.1201519e-04   8.8566112e-06
 -2.2002569e-05   3.5304656e-06
  6.9876427e-05   1.6453292e-06
  8.3726889e-05   6.3200841e-06
  9.0049929e-05   1.7910530e-05
 -5.6181074e-05   1.0237954e-05
  3.3892496e-04   1.6250677e-06
  4.2852062e-05   8.9857722e-06
  2.0577299e-05   4.6607001e-06
  6.6227607e-05   1.1467406e-06
 -1.8583958e-05   1.2398990e-06
  3.9633735e-05   1.2533429e-06
 -2.7667986e-05   2.3095324e-06
  2.3334562e-05   9.1382008e-06
  8.6883949e-05   1.1121953e-06
 -8.8046625e-05   9.4063165e-07
  1.1640345e-05   7.4725972e-06
 -7.0733317e-05   1.5377065e-06
  5.1163974e-05   5.0234229e-07
  4.9240261e-05   1.0711433e-06
  8.1973027e-05   5.5568657e-06
 -9.0134403e-05   8.7607832e-06
 -6.9118178e-05   1.4406741e-05
  3.4034423e-05   5.1305824e-06
  7.2771282e-04   2.5310331e-07
  7.9683232e-05   1.5603607e-06
  3.5788133e-05   1.0084282e-06
  8.1473343e-05   8.3509549e-06
  4.9798782e-05   6.0114945e-07
 -9.9209727e-05   1.2108099e-05
 -1.6581735e-05   5.4490833e-06
 -2.4847150e-05   7.1977138e-06
 -7.4139289e-03   1.5520785e-05
 -1.9107027e+00   1.7637938e-05
 -3.8184717e-05   7.4287067e-07
 -2.0803511e-02   3.8696959e-05
  1.4066483e-05   1.8260305e-06
 -1.4608974e-05   5.2023324e-06
  1.0859426e-04   1.3515551e-05
  1.9863433e-04   3.1837001e-06
  3.0410712e-04   1.9468547e-05
  4.0178154e-05   2.6561616e-05
 -1.1550745e-04   1.4922780e-05
 -2.9622787e-04   2.1013851e-07
 -2.6070954e-02   7.1315008e-06
 -2.0488955e-04   2.2199843e-05
 -1.2304531e-04   1.2754210e-06
  2.9830428e-05   4.2264951e-06
 -5.9904145e-05   3.7963928e-06
  3.9805454e-05   1.4417234e-06
  8.4132107e-06   8.5887530e-07
 -6.1960949e-05   1.5666599e-06
 -4.8284885e-05   4.2219272e-06
 -8.6315767e-06   1.4741127e-05
  1.9196972e-05   9.0643658e-07
 -7.1426759e-05   5.8729502e-06
 -7.3804498e-05   2.3511107e-06
 -6.8323466e-06   1.6524237e-06
  1.4644538e-04   1.4065395e-05
 -5.5040851e-05   2.0132966e-07
 -1.1222051e-05   9.4835940e-08
  1.4568399e-01   2.7219914e-05
  6.0661501e-01   1.5997318e-04
 -2.4582103e-01   7.0485125e-06
  6.0125786e-01   1.2984051e-04
 -1.1730378e-01   6.3820786e-05
 -2.7107788e-04   1.0191779e-05
  1.8093556e-06   1.3582381e-06
 -2.8534608e-03   4.7257934e-05
  3.1614574e-05   1.1497961e-05
  3.1101974e-04   3.7950258e-06
  1.3132758e+00   9.1927623e-06
 -2.1283159e-03   6.3179641e-06
  9.1351038e-01   1.5259626e-05
 -2.9929811e-03   4.9193110e-05
 -5.2902889e-01   4.1660865e-06
  3.2086115e-05   8.8468214e-06
 -2.8403416e-02   1.3670003e-05
 -1.2300830e-04   3.4983904e-07
  5.7987607e-05   1.6387135e-05
  2.8931317e-01   3.4069883e-05
 -2.7293825e-04   8.9808973e-06
 -6.0485208e-06   1.9283418e-06
 -7.5420576e-05   8.8002689e-06
  9.7819020e-07   4.1444237e-06
  8.2654951e-05   7.3140058e-07
  2.6214452e-04   3.1277361e-06
 -4.7710109e-05   4.0083052e-07
  1.8075723e-04   1.3043893e-05
 -2.5050720e-04   3.8129235e-07
  1.4161190e-04   2.1749531e-06
  1.3019179e-01   2.5965505e-06
  7.8316402e-01   1.3783123e-05
  7.4795231e-02   2.1193587e-06
 -2.7148724e-01   2.4379870e-07
  6.3144130e-01   9.2512464e-06
 -1.2794093e+00   1.0205494e-04
  3.3703144e-03   3.5103237e-06
 -1.2378860e-01   5.0535159e-06
 -9.8505443e-01   4.4975709e-06
 -1.4262450e-01   2.0680298e-05
 -5.7996333e-02   1.6842795e-06
 -3.9059862e-01   1.0181918e-05
  3.4152019e-01   5.3199113e-07
 -1.3224532e-01   2.6317657e-06
 -6.5446317e-02   4.7349172e-06
 -7.8667790e-02   1.0260539e-05
  1.9740576e-03   3.9831111e-06
 -3.3040571e-01   4.0832197e-06
 -1.7563209e-01   2.3265866e-05
  1.4203314e-01   3.0220571e-07
 -3.1762123e-01   1.2568382e-06
 -7.3690757e-02   1.8332063e-05
 -3.4360558e-01   1.0455164e-05
  6.1729964e-04   1.8536599e-05
  1.0801558e+00   5.3631662e-05
  1.8539386e-03   3.3280838e-05
 -7.8153544e-06   5.7676866e-06
  1.4939630e-02   1.0034813e-06
  2.8253699e-02   1.3779975e-05
 -3.6053415e-03   7.1327704e-05
 -6.0869533e-01   1.2384720e-04
 -1.4016920e-04   7.4829045e-06
  5.5790597e-01   1.2426141e-06
  2.5865492e-01   1.2015892e-05
 -2.0113547e+00   5.2889274e-05
  8.6311768e-05   2.2145159e-06
 -3.6841477e-05   1.3524745e-05
  2.3306602e-05   5.9221811e-06
 -4.4215203e-06   1.1426619e-06
  3.0754571e-05   1.0032883e-06
 -9.4143093e-02   3.9431496e-05
  5.5236274e-01   1.3320314e-05
  5.3465897e-01   3.7090849e-05
  1.4037070e-01   5.3238534e-07
 -1.2711637e-01   1.4373612e-04
 -4.1889775e-04   1.5009156e-05
  6.9467354e-01   3.8486151e-06
  3.9007008e-01   2.4825507e-05
  5.3437372e-05   7.2592734e-06
 -2.4390726e-01   2.1605365e-05
  1.8781131e-05   8.9778187e-06
  9.8411888e-02   2.5516869e-05
 -3.5570201e-04   1.1431498e-05
 -5.1424777e-06   5.7919588e-06
 -7.3540243e-05   8.6452264e-06
 -1.6810680e-05   8.6956043e-06
 -4.5515306e-02   7.8738027e-05
 -9.1156289e-05   3.7904092e-06
  1.0307990e-05   9.1933371e-06
 -1.4587426e-05   1.2849822e-05
  8.9045090e-05   3.9876054e-06
 -4.7131816e-05   8.3065464e-07
 -1.6420431e-04   2.8493645e-07
 -2.5002967e-04   1.3386079e-06
  1.8081448e-05   3.4010470e-06
 -7.2940718e-05   2.0961612e-05
 -2.5719586e-05   4.7069893e-06
 -5.9648930e-05   4.1683757e-06
 -3.0047415e-05   8.0149530e-06
 -2.7286185e-05   5.5998362e-06
 -1.9086809e-04   1.1328156e-05
  6.1244958e-05   6.0357365e-06
 -2.1751437e-05   1.6593691e-05
 -1.0898775e-04   2.3537625e-06
 -9.1940092e-06   8.7546096e-06
  3.4535801e-06   8.7457802e-06
  4.8034549e-06   9.4022816e-06
 -3.0574873e-05   1.5383756e-06
 -5.7331457e-05   2.3747425e-06
  6.3832485e-05   4.1277617e-06
  1.8561092e-04   5.4593835e-07
  2.6219121e-05   9.4535920e-07
  4.6831905e-05   2.3676704e-07
 -1.2817075e-05   1.8338437e-06
 -3.9551123e-05   1.4327558e-06
  1.0713941e-04   4.4682397e-06
 -3.7879752e-05   9.2299706e-06
  8.9841327e-05   2.6978728e-06
  1.7906890e-05   2.7424667e-06
  2.6511872e-05   5.5170276e-06
  3.5201607e-05   2.0796444e-06
  3.1426887e-05   1.6690169e-06
  3.6467155e-04   2.6136027e-07
  3.2682858e-06   4.6814712e-06
  6.1249521e-05   1.3094749e-06
  9.2801507e-05   4.1233561e-06
  2.3868526e-05   5.0859026e-06
  1.3949438e-05   2.4480394e-06
  1.8685903e-04   1.7637605e-05
  4.8287193e-06   1.8739396e-05
  5.0167182e-05   6.9685143e-06
  1.3427100e-05   4.6116670e-06
 -1.0472062e-04   3.5184237e-06
 -3.7586989e-05   2.1635733e-06
 -3.8190432e-05   1.1473907e-06
  5.6158435e-05   9.8114251e-06
  1.9403491e-05   2.3854195e-06
 -9.1737558e-05   3.7448703e-07
  4.6400328e-05   1.0801467e-05
 -6.4794294e-06   4.9941168e-06
 -1.4323569e-05   3.7506800e-06
 -8.2959968e-06   3.4599389e-06
  6.2311025e-05   3.4453803e-06
 -3.9180875e-05   4.6196183e-06
 -1.0677327e-04   4.1377452e-06
 -3.9695009e-05   5.9127074e-06
 -6.2491432e-05   2.7443159e-06
 -1.8135550e-05   7.6324795e-06
 -5.7661878e-06   1.0132723e-05
  2.8332857e-05   3.1913009e-05
 -2.8028833e-05   1.1292634e-05
  5.2120018e+00   3.5586772e-06
 -1.0101012e+00   8.1394974e-06
  1.2603999e+00   7.5642774e-06
  4.3271456e+00   7.4653595e-05
 -1.3462060e-04   4.9343516e-06
  8.4419453e-06   4.2096840e-06
  4.9734185e-04   1.3172114e-05
 -1.0179554e-04   2.3986099e-06
 -2.8703403e-01   1.6573191e-04
 -3.0368421e-04   1.4466615e-06
  2.1780196e-04   1.5733591e-05
 -8.8814265e-01   3.9034617e-06
 -5.5409861e-01   5.8755486e-05
  8.4184623e-01   3.6629808e-06
 -2.2983807e-06   1.3650149e-05
 -3.9125940e-01   5.5191249e-05
  6.2474608e-02   9.7433094e-06
  1.9244371e-05   1.3010089e-06
  4.7524005e-01   4.9019013e-06
 -3.6427213e-04   1.2682800e-05
 -3.3364352e-02   2.3517732e-05
 -1.6291369e-05   1.5323689e-05
  2.2167561e-04   1.0749299e-05
  2.5533358e-05   5.8385945e-06
  2.1863982e-05   2.3258557e-05
 -1.4304899e-05   1.2244582e-06
 -4.4497228e-01   2.5057830e-05
  5.0403705e-05   2.9229341e-06
  2.4903680e-05   1.0091985e-05
  6.7642057e-01   1.6383119e-05
  1.1671513e+00   2.4961787e-06
 -1.7054510e+00   2.7538586e-06
  1.1998591e+00   1.6661563e-05
 -2.9028067e-01   1.5948366e-05
  4.1085538e-02   6.7987065e-05
 -2.0693771e-03   1.5741323e-05
 -6.6477885e-05   3.9717102e-06
  4.1432469e-04   1.2804431e-06
  1.0629389e-01   1.9963056e-05
 -1.4136986e-05   6.3320322e-06
  6.1471772e-01   2.5364950e-06
  3.5006559e-01   6.2799995e-06
 -2.5865507e-01   1.3867646e-05
 -3.6855945e-01   7.2948337e-06
 -4.6880576e-01   9.8461719e-08
  2.3282108e-01   7.5104963e-06
 -1.0411353e-04   6.0835418e-07
 -3.4668494e-04   1.9142371e-05
 -1.5077205e-01   4.4356380e-05
  6.8229199e-03   5.4384396e-05
 -3.5075024e-02   1.9328018e-06
 -6.2530913e-04   5.1254915e-06
 -4.2969259e-06   2.9550888e-06
  9.3037434e-02   6.9858525e-06
 -9.2637665e-06   8.5325573e-06
  4.5689173e-02   3.2672400e-05
  2.0677672e-01   2.7306687e-06
 -5.3018616e-06   9.6764743e-06
 -1.1025882e-05   6.8159356e-06
 -8.5809939e-02   6.3981366e-05
 -1.4131194e+00   2.4186435e-05
  2.1094638e-01   1.0066574e-07
  8.0109876e-01   1.7012777e-05
 -2.2137263e+00   1.2886363e-05
  1.4789473e-01   3.7599264e-05
 -9.5718016e-05   2.8217851e-06
  7.2399139e-01   3.8189037e-06
  3.1379893e-06   2.2792650e-05
  3.1585924e-02   3.0578718e-05
  1.3433776e+00   3.3046221e-05
 -5.6850421e-01   3.2842268e-05
  8.1786746e-01   1.2122539e-05
 -1.5932797e-01   1.6822609e-07
 -1.9630114e-02   2.8096881e-06
  1.7368758e-01   3.2991823e-06
  6.2110454e-01   7.3784163e-06
  8.8320124e-01   2.2716181e-06
  5.8070760e-05   4.3763362e-06
  8.4343326e-01   2.1709145e-06
  2.9288348e-02   1.7363218e-05
  2.2264880e-01   3.0718741e-06
  8.7970577e-05   1.9084455e-05
 -2.0728879e-05   5.2532391e-06
  8.9392707e-02   2.7380684e-05
 -2.9479134e-01   5.3114440e-05
  1.8163119e-05   1.2280530e-05
  1.7602624e-05   3.0233048e-06
  2.9986018e-01   4.1375417e-05
 -1.5555990e-05   2.9638736e-06
 -1.7312619e-05   1.3793736e-05
 -1.7949291e-06   1.3515965e-05
  3.0021806e-06   2.9892753e-06
  8.1453320e-05   6.6940174e-06
 -7.7868870e-05   2.0327632e-06
 -1.3123929e-05   4.0132968e-06
  1.4315379e-05   4.0819659e-06
 -5.9272064e-05   4.1771286e-06
  2.9049685e-05   5.3501303e-06
 -2.1053980e-05   1.5570994e-06
 -4.0990773e-05   1.3954411e-06
  4.5130886e-07   9.7947009e-07
  4.9887702e-05   4.7345316e-06
 -5.0312516e-05   1.6345090e-06
 -3.3653330e-05   9.8705523e-06
  3.8402864e-05   1.0474189e-05
  1.1121789e-04   1.5543606e-05
  1.2589604e-04   3.5330320e-06
 -4.2980678e-06   7.7094921e-07
  3.4807254e-05   2.7985843e-06
  4.2263528e-05   2.2284066e-06
  1.7883888e-04   5.6054255e-06
  1.4575005e-05   9.7798020e-06
 -3.4195004e-05   6.6432858e-06
 -5.4837252e-05   8.3320015e-07
  1.7150169e-05   8.7078351e-06
 -1.8599574e-05   3.5746746e-06
  3.8970895e-05   1.9942006e-05
 -4.8010777e-05   3.8982671e-06
  4.1700150e-05   9.8005157e-06
 -8.1567152e-05   2.6452744e-06
 -3.2496467e-04   1.5605053e-06
 -2.4238727e-05   9.4449382e-07
  3.3149120e-06   8.5883821e-06
  7.0906513e-05   2.9719974e-06
  8.6350563e-05   1.0472771e-05
 -1.5289598e-04   3.3740506e-07
 -4.9000213e-05   1.0033087e-05
  3.2425698e-05   4.7777730e-06
  9.2664712e-05   2.4739450e-06
  6.3735451e-06   6.6725747e-06
 -4.3552282e-05   3.6140716e-06
 -5.7435030e-04   2.3091927e-06
 -3.6811060e-05   2.4596513e-06
  1.4634461e-04   1.0957950e-07
  5.7537745e-06   4.8752281e-06
  2.5828278e-05   2.4253757e-06
  2.4261995e-05   1.0682340e-05
  8.2775769e-06   1.1435772e-05
  2.2028165e-05   1.4987628e-06
 -5.5066892e-05   1.0466628e-05
 -2.5376884e-04   7.8118401e-06
 -9.7968594e-05   6.6051739e-06
  4.8162317e-05   1.4194051e-06
  1.3357024e-04   1.4566675e-05
 -3.3955177e-05   2.8009838e-06
  3.4445715e-05   1.8354256e-05
  9.0477588e-06   1.7769580e-05
 -8.4442312e-05   1.5925936e-05
 -5.3132157e-05   2.4964838e-06
  6.8469805e-01   1.5549729e-05
 -2.1425553e-01   5.5597690e-07
 -1.6090912e+00   2.7138385e-05
  1.4210878e-01   4.9630039e-06
 -6.3983940e-02   1.1329932e-05
  2.3768074e-04   2.4842695e-05
 -7.1696681e-04   7.5843755e-06
  2.9220959e-05   1.6962933e-05
  4.8066824e-05   8.1748740e-06
  3.7573864e-06   4.3531859e-06
 -2.9767621e-01   4.3596723e-05
  1.0349583e-02   1.2245989e-05
 -2.9922981e-04   2.3524879e-06
 -1.5790786e-01   8.2494789e-06
 -4.6787597e-03   4.8238712e-06
  3.6989215e-03   1.2942273e-05
 -1.1434300e-05   4.2366655e-06
 -4.7715465e-03   1.7325830e-05
  1.0703625e-04   2.6024463e-07
 -7.9999550e-04   1.8515391e-05
  3.4556139e-04   2.9494906e-06
  1.3404778e-04   1.7281278e-05
 -2.1200480e-05   2.6845767e-06
 -8.3806852e-05   5.4320767e-06
  2.1437704e-06   1.1103052e-05
 -6.2256317e-05   1.3871044e-05
  1.5750468e-04   4.7339900e-06
  1.8556717e-04   1.9204772e-05
 -5.0163701e-05   1.4893056e-05
 -2.9784749e-05   1.5375730e-05
  1.0069975e-04   2.0349871e-06
 -7.6953962e-05   4.8287584e-06
 -2.6393314e-05   6.1311903e-06
 -1.1893625e-04   3.9282145e-06
 -7.6226875e-06   3.6623132e-06
  6.6495850e-06   1.4819125e-06
  2.8475173e-04   1.8725414e-07
  4.6166904e-05   1.0052795e-05
  2.2544020e-05   1.0945221e-06
  2.5337761e-06   1.8198034e-05
  8.1369428e-05   5.3150666e-07
  1.1402515e-05   1.1392314e-07
  2.1421078e-05   2.1327758e-06
  1.5184455e-04   1.7011509e-05
  1.0401235e-05   1.1593024e-05
  1.1678584e-04   2.1948772e-06
  6.5805965e-05   4.6656905e-06
 -6.1491606e-05   9.8535502e-06
  1.1963970e-04   6.4493079e-06
  1.2567018e-04   5.3772492e-06
 -1.3759735e-05   2.7809888e-06
  6.9130788e-06   4.3657774e-06
 -3.6800902e-05   1.3780864e-06
  9.5312116e-06   1.7960801e-05
  3.6867892e-05   1.8017822e-06
 -3.4257584e-05   3.7195969e-07
 -1.9055309e-05   3.0550832e-06
  9.1701298e-07   3.0715903e-06
 -4.7835751e-05   6.6656621e-06
 -1.3350115e-05   1.2480290e-05
  2.0488691e-05   1.2215517e-05
  1.2706320e-05   9.7845068e-06
  4.5150216e-05   2.2113316e-05
  7.7736251e-05   4.5663842e-06
  4.1495205e-05   1.5921522e-06
 -6.3279828e-07   1.0329519e-05
  2.5063186e-05   1.3380672e-05
  6.6708628e-05   8.8744500e-06
  1.5779995e-06   3.4590195e-07
  8.5508429e-05   2.8690721e-07
  3.2949058e-05   8.5162787e-07
  6.0372336e-06   5.7823786e-06
 -4.1472067e-05   4.4711505e-06
 -5.1786451e-06   8.0957952e-06
  4.4951033e-05   1.5090238e-05
  1.7133942e-05   8.0740492e-06
  2.6998066e-06   3.5095275e-06
 -3.3167402e-05   3.1139232e-05
 -9.8275137e-05   7.7590676e-06
  5.4008840e-05   1.0132930e-05
  3.2814678e-05   1.4176770e-05
 -3.8769952e-04   1.5617105e-06
  2.0150335e-05   1.0143866e-06
  4.6886889e-05   6.7235014e-06
 -4.8019097e-05   8.2254496e-07
  8.1980806e-06   1.2735681e-05
  6.8927393e-06   5.7831912e-06
  4.9666920e-05   1.6565137e-06
 -1.3077947e-05   4.9657046e-06
  4.9505579e-05   4.2275906e-06
 -5.7578781e-03   1.1987450e-05
  1.7921736e+00   2.1417334e-06
 -1.9955406e+00   5.7777970e-07
  2.6465647e+00   2.2287493e-05
 -1.8681999e-01   2.5000088e-06
 -1.4713016e-01   2.7933923e-04
 -4.8905895e-06   1.5724302e-06
 -1.6639507e-01   2.2482915e-05
 -2.9323447e-01   1.3516033e-05
 -1.4419399e-03   1.4700490e-05
  5.4758246e-04   7.3908850e-06
 -2.6599428e-02   2.9051018e-06
 -4.8394628e-02   4.9736508e-07
  8.5093332e-03   1.8759305e-07
 -4.0321380e-01   2.0886846e-05
  1.8995762e-04   5.8494825e-06
 -7.0842421e-01   1.7307942e-05
 -6.3450532e-03   1.3134222e-05
  3.7080717e-05   1.0908246e-05
 -8.4123886e-01   3.7597601e-05
  8.5366692e-06   6.1033661e-06
 -1.7165999e+00   1.3679833e-05
  7.5220314e-06   8.2603974e-06
 -4.3866390e-04   3.2287866e-07
 -2.4509093e-01   1.1044140e-04
  2.6905788e-02   4.7411701e-05
 -7.5304408e-05   2.7796959e-06
  2.9081005e-01   1.4180340e-05
 -5.2188132e-02   7.0496558e-06
 -1.3480045e-01   5.4933247e-05
  2.7836274e-04   7.2371145e-06
 -8.9049238e-01   4.9896626e-06
 -1.9664156e-01   2.1901537e-06
  2.9485729e-01   1.4042930e-06
  1.3759292e+00   2.2694170e-05
 -4.5224842e-02   1.0816789e-05
 -1.1293105e-01   1.6879574e-05
 -1.1063905e-03   5.4047605e-06
 -5.4634941e-01   8.1696307e-05
 -2.5351141e-02   7.4242843e-07
  1.2520233e-01   9.2331123e-07
 -2.8038628e-05   1.3054050e-06
 -1.7076276e-01   6.1924475e-06
 -1.3088496e-01   2.1589152e-05
  4.5262507e-01   3.2739074e-06
 -4.3445241e-02   9.5789637e-06
  1.9688673e-02   5.2150745e-06
  8.1253325e-04   5.9125168e-06
 -5.4133934e-01   4.1914686e-06
  1.5743567e-01   2.6843600e-06
  6.4663984e-02   9.7139164e-06
 -1.7633107e-03   3.7451657e-06
 -9.7524261e-01   6.1420542e-05
  5.3881782e-01   3.5023879e-06
 -3.4102846e-02   1.2286170e-06
  3.0631749e-02   8.5014552e-05
 -4.5641009e-02   1.1534895e-05
 -2.5462767e-01   7.0799420e-06
 -3.4127630e-02   7.5503551e-05
 -1.5062549e-04   6.2246136e-06
  1.6332110e+00   1.4904063e-04
 -1.8034633e+00   6.3574471e-06
  8.2534802e-01   2.2162110e-06
 -3.1329885e-01   6.4820388e-06
  6.1986208e-01   4.6568370e-05
  1.4791894e-01   2.1153844e-04
 -6.0419686e-04   1.1115415e-05
  7.8218478e-01   2.5111409e-05
  3.6779780e-02   1.2340437e-05
  3.1921503e-04   1.1012760e-05
 -4.2460939e-01   2.3076587e-05
  6.4681923e-01   1.2440844e-05
  5.5224467e-02   3.4403856e-06
 -9.0372568e-01   5.4321440e-06
 -1.2705595e+00   3.7128531e-05
 -7.9370235e-05   8.4369321e-06
  7.9677641e-01   7.3688429e-06
  6.0980003e-02   2.6395874e-05
  8.7712479e-01   4.5268075e-06
  1.2752867e+00   3.3202406e-05
  9.4999364e-03   2.3237411e-05
  3.4591910e-01   1.5567781e-05
  3.2313001e-01   9.2677800e-07
 -1.8876698e-04   1.4456773e-05
  2.1914349e-05   1.1840966e-05
 -6.9258014e-05   7.0065127e-08
  4.5094965e-04   6.1910059e-06
  1.9195688e-05   3.5636524e-06
 -5.7108086e-01   3.2526143e-06
  1.0414840e-04   3.2850783e-06
 -3.4957298e-05   8.6916943e-06
  6.8789941e-06   4.2871857e-06
 -9.7686949e-05   2.6804441e-06
 -6.4298879e-06   1.8918595e-06
 -5.6453780e-05   1.4772630e-05
 -3.8149472e-05   1.6467027e-05
 -2.0957541e-05   3.4258430e-06
 -1.7247353e-06   8.1797691e-07
  1.5003473e-04   3.2530677e-06
  1.5284782e-04   6.9738462e-06
  2.1519485e-05   8.1534718e-06
  4.5024975e-05   7.0493124e-06
  5.4022705e-05   1.0993523e-06
  3.4733672e-05   1.4960664e-06
 -5.8106689e-06   2.1276589e-06
 -5.6728650e-06   9.9319113e-06
 -4.9722974e-05   1.5043642e-05
 -2.1070708e-05   1.3855794e-05
 -2.7264812e-05   6.6905800e-06
 -2.0411688e-05   1.3044307e-05
  2.3846784e-04   8.0124473e-06
  1.1289613e-05   6.5403606e-06
 -1.2388121e-05   6.1074434e-06
  3.5859586e-05   2.3293227e-05
 -1.4163513e-04   1.7779330e-05
  3.2052482e-04   8.9455921e-07
 -2.3696652e-05   2.2628651e-06
 -3.9979986e-05   1.3754486e-06
  6.7241956e-05   3.7069215e-06
  4.4930232e-05   2.0736600e-06
  5.9522327e-02   8.2777588e-06
 -5.9462219e-01   9.8564660e-06
  3.3810937e-01   3.1353602e-06
 -3.7088726e-02   7.4544246e-06
  1.5783726e-01   5.5082972e-07
  9.5977873e-01   9.2683404e-06
 -1.0728783e-04   3.4533612e-06
  3.0170926e-01   1.5223434e-05
  7.1388829e-01   9.9307508e-06
  1.3827501e-01   8.8596762e-06
  1.0691929e-01   1.2542761e-05
  6.6976503e-02   2.4076828e-06
 -3.3880150e-01   5.4656302e-06
  1.1782966e-02   6.6465425e-08
 -7.4837888e-03   6.1775463e-06
  1.1497299e-01   4.9124651e-06
  5.2632727e-03   8.6781638e-06
  6.6394806e-02   9.9421923e-06
  2.7297256e-03   3.2380947e-07
  1.2410074e-01   2.7517801e-06
  3.3591321e-01   2.1783306e-05
  4.0333107e-02   1.2137138e-05
  1.4813198e-01   6.3678553e-06
 -1.5088507e-03   4.2369236e-05
  2.5948530e-01   5.9245100e-05
 -5.0290849e-04   3.6446134e-05
 -1.6743693e-01   1.9056579e-05
 -1.4254600e-02   1.0732126e-05
  7.8776226e-05   2.9549781e-06
 -4.0563446e-02   3.8125199e-06
  3.5679528e-05   3.9853162e-06
  6.2843370e-05   1.5807584e-05
 -3.3166969e-05   1.1581677e-05
  1.0189075e-04   1.5071577e-05
 -1.5706868e-05   5.1471570e-06
 -9.4953839e-06   1.1367612e-05
  2.1946858e-05   2.6624023e-06
  3.1449141e-05   5.5884352e-06
 -1.5279720e-05   5.1922793e-06
 -5.8109443e-05   1.4704960e-06
 -2.1513598e-04   3.5130142e-06
 -5.0589483e-06   5.3531544e-06
 -3.1644176e-05   5.4499897e-06
  7.7660234e-06   9.5058340e-06
 -3.0985236e-04   2.1815184e-07
  6.8718691e-05   1.2788296e-05
  7.7413904e-05   3.1057798e-06
  1.9396910e-05   6.7575447e-06
 -1.0289811e-05   8.9522355e-06
 -6.2042222e-05   9.7994662e-06
  8.8522262e-05   1.0358879e-05
 -6.0373113e-05   3.4033690e-06
 -6.4255342e-05   4.7112917e-06
  8.5660058e-06   4.6463624e-06
 -1.1619442e-04   6.7712631e-06
 -3.5616296e-05   1.0143482e-05
 -9.7886441e-05   1.5006227e-06
 -4.7739501e-05   1.1709847e-06
 -1.3151404e-05   2.0136004e-06
 -1.2086856e-05   7.8197502e-07
  2.5169984e-05   1.3136852e-05
  2.6745072e-05   8.8255747e-06
  5.5243228e-05   4.1412873e-06
 -5.2892688e-06   5.9338781e-06
 -3.3960918e-05   2.9170212e-06
  7.3263625e-05   6.0501878e-07
 -1.3397800e-04   7.4600580e-06
  1.1633797e-04   2.7787696e-06
  1.6891889e-04   1.7457733e-05
 -5.6651195e-05   1.3669318e-06
  6.5373963e-05   4.6132527e-06
  7.1189228e-05   1.7922201e-05
 -2.6301364e-05   1.2652589e-05
  2.0613877e-06   2.5206782e-06
 -5.3417647e-05   2.6543630e-06
  3.9133491e-05   2.5769779e-07
 -9.0135494e-05   5.7832826e-06
  3.7036756e-05   8.4978028e-06
  2.1976692e-05   1.5540027e-05
 -3.3186952e-05   6.5313957e-06
  3.4881108e-05   2.5458594e-06
 -1.4934870e-06   2.2098659e-06
 -4.2493807e-06   1.3742801e-05
  2.4113862e-05   1.2324712e-05
  1.5219873e-04   4.8744878e-06
 -2.0576819e-05   9.1355651e-06
 -4.0496456e-05   6.0919938e-06
  5.7301564e-05   9.2210530e-06
  1.0358428e-05   7.2697003e-06
 -2.4002273e-05   9.3508243e-06
  5.3706368e-05   2.2167776e-06
  8.2757733e-06   1.1786578e-06
 -5.9236678e-05   2.8711713e-06
  3.2853908e-04   8.0668178e-07
 -1.2819987e-04   4.4527401e-06
  3.4995330e-05   4.7103094e-06
  3.9143975e-05   9.6431688e-07
 -2.4615701e-06   6.8355175e-06
  7.6014198e-06   3.5588273e-06
 -8.2299062e-05   2.0596265e-06
  8.1999669e-06   1.5642630e-05
 -2.9128831e-05   3.0008537e-06
  3.7768762e-06   1.0345221e-05
  7.0398637e-05   1.5599149e-05
 -7.7737004e-06   6.1112341e-06
 -2.9535386e-05   8.6964574e-06
  4.8829323e-05   5.2561463e-06
  4.6586927e-05   4.2202782e-06
 -1.9176316e-04   6.3315333e-06
  1.1116849e-04   9.2309865e-06
 -5.6474905e-06   2.6671137e-06
 -4.4935173e-06   4.0217715e-06
  1.0440901e-05   2.2436514e-06
 -3.2309494e-05   1.7909879e-05
  4.0053236e-04   1.5836893e-07
 -3.5363624e-05   2.0837339e-05
 -2.8304337e-06   6.9717003e-06
 -9.1310438e-05   7.7201839e-06
  2.8631666e-05   8.2481865e-06
  4.0044006e-06   1.9295803e-06
  5.2363725e-05   6.4786122e-06
  6.0979332e-06   8.3874547e-06
  5.0455685e-05   3.0705523e-06
 -2.8358114e-05   3.3627650e-06
 -7.2641298e-05   3.9993388e-06
  2.5382265e-05   6.9668490e-06
  5.1637671e-05   4.4570597e-06
  4.6343983e-05   2.0364732e-06
 -8.3153345e-06   9.3713370e-06
 -4.4833705e-05   6.5182558e-06
 -5.7103927e-07   2.9031485e-06
  1.7358485e-05   1.4790167e-05
 -4.2797574e-06   7.9239962e-06
  6.6622917e-05   1.0365844e-06
 -2.2398293e-05   9.8752680e-06
 -2.3926979e-05   5.6729000e-06
  1.3234296e-05   2.5282961e-06
 -3.3894990e-05   4.8275479e-06
  8.0022539e-05   5.5555133e-06
 -3.3014963e-05   2.3401508e-06
  2.9025916e-05   1.0496700e-05
 -2.5908066e-05   3.7098205e-06
  1.6354408e-05   2.6791338e-06
 -5.1776809e-05   8.0116633e-06
 -9.9782221e-05   1.9259287e-06
  3.4529941e-05   2.1123190e-06
 -3.1042215e-05   1.1309638e-05
  3.4306649e-05   7.9528654e-06
 -9.5675321e-05   2.1583410e-06
  3.7620368e-05   4.0649161e-06
  1.0999298e-04   1.7675326e-06
 -5.2156538e-06   5.5445112e-06
 -4.8285000e-02   3.5920007e-07
 -3.4764940e-05   4.3175810e-06
  8.7367087e-05   1.6839526e-07
  2.2642729e-05   9.5475762e-06
 -1.6613293e-04   7.5259386e-06
  3.0475703e-05   3.6319580e-06
 -1.4580181e-05   1.2863649e-06
  2.2479830e-05   1.2724659e-05
  3.0573785e-05   9.3006001e-06
 -3.3395238e-05   1.2532338e-05
  2.7500542e-05   1.5236725e-05
 -1.9771081e-05   3.2668045e-06
  1.4826276e-04   4.3868699e-06
  6.2367226e-06   4.1260118e-06
 -6.0315291e-05   1.5617830e-05
  5.3864234e-05   1.7185179e-06
 -1.1000590e-05   7.7218592e-06
 -1.5299352e-06   9.1125312e-06
  6.7219364e-05   7.1790505e-06
  7.6686731e-05   1.0993602e-05
 -5.2997373e-05   1.4787627e-05
 -1.8964980e-05   1.0368710e-05
 -4.5022691e-05   7.1254422e-06
  2.4598741e-04   3.5413535e-07
 -8.4743406e-05   3.7540669e-06
 -1.4495927e-05   6.2982645e-06
  8.0286241e-05   9.1090669e-06
  3.6096048e-05   1.9578897e-06
 -4.5961158e-05   2.0836752e-07
 -3.5211215e-05   8.3938476e-06
 -1.2109836e-05   1.2260087e-05
 -1.6919861e-04   8.4156645e-06
 -6.4309133e-05   5.3624326e-06
  6.5792490e-05   1.5447338e-05
  6.4323707e-05   4.2321471e-06
  4.3276061e-05   4.8736224e-06
 -8.8999550e-06   2.3651614e-06
 -1.3313464e-05   7.5978187e-06
 -3.9348750e-05   4.3749451e-06
  8.2800449e-05   6.9393564e-06
  5.4072698e-05   1.2797024e-06
 -8.5486299e-06   9.8697556e-06
  9.8489363e-07   2.2741083e-06
  4.4233784e-05   1.2438808e-06
 -1.1232476e-04   2.8017146e-05
  1.2865055e-02   1.2489005e-07
 -9.1204143e-05   3.6906727e-07
  3.8253249e-05   8.9460636e-06
 -3.8669027e-06   2.3600112e-06
 -1.5978283e-05   2.2381109e-06
  3.4393379e-05   8.3670620e-06
  2.5929842e-06   5.7802049e-06
  2.1372867e-05   3.4794382e-06
  1.1133795e-04   1.3444690e-06
  1.9877551e-05   2.6374557e-06
 -1.2993092e-04   9.5305768e-06
  1.1118895e-04   4.0621417e-06
  4.8933973e-05   8.7846074e-06
  4.9864040e-05   2.0328594e-06
 -1.8510163e-05   5.3931908e-06
 -2.6101401e-04   2.2289731e-07
  5.9770726e-05   6.8184395e-06
  1.4109032e-05   8.3891609e-06
 -8.1053186e-05   4.5606892e-05
  1.4239055e-05   6.8936815e-06
  1.1785291e-04   2.7220501e-06
 -6.6424705e-05   6.6359316e-06
  2.6733331e-05   2.2380750e-06
 -5.6897847e-05   1.5907066e-06
 -2.6497422e-05   6.1961541e-06
 -2.6945134e-05   1.1464473e-05
 -8.8914821e-05   3.2890694e-06
  7.6677330e-05   5.6484610e-06
 -2.7714137e-05   4.3411928e-06
  1.7235801e-06   1.3016153e-05
  7.7279146e-05   3.0107023e-07
  5.5541636e-07   2.7256024e-06
  4.4302840e-05   1.6637688e-06
 -1.9658308e-05   3.0930232e-06
 -6.0635408e-05   3.9242750e-06
 -1.3588840e-05   5.8741243e-06
  4.2139152e-05   6.3921193e-06
 -3.4459626e-05   8.0191212e-06
 -6.3171174e-05   1.1168419e-05
  5.4891789e-05   2.5565505e-06
  4.3493237e-05   3.6101553e-06
  7.9931044e-05   2.2978931e-05
 -9.6652358e-05   5.3416306e-06
  2.3095336e+00   1.5795270e-06
 -1.9525177e+00   4.9832147e-06
  1.3849013e+00   1.0272927e-06
 -1.8495251e+00   1.4948080e-06
  1.5632032e+00   7.3235269e-06
  5.8185276e-02   6.8919580e-05
 -3.5219803e-02   1.6585442e-04
 -1.3606254e+00   2.2370961e-05
  4.2012716e-03   6.0953396e-05
  1.0227329e-01   1.3276735e-05
 -1.1926100e-01   4.9051496e-06
 -8.4044635e-03   1.8421206e-05
 -1.5615965e-01   1.9963272e-06
 -9.9808699e-01   3.2502996e-06
  1.4367810e+00   1.1036223e-05
  1.1712896e+00   4.1870671e-06
 -1.6581638e+00   2.2505924e-06
 -7.8304958e-01   1.5168308e-05
 -2.2321129e-01   3.1328771e-05
  1.2076414e+00   1.4095471e-05
 -1.5533936e+00   3.3474971e-05
 -8.3207446e-01   3.5343703e-05
 -1.6115951e-05   1.2505674e-05
 -2.0903713e-01   1.1882977e-05
  2.6751501e-05   2.8751499e-05
  1.3614868e-01   1.0898651e-05
  1.8071014e-01   5.6191933e-05
  8.9574496e-05   1.3489121e-05
  1.3674119e-01   1.5123790e-05
  3.1666061e-01   5.5646138e-05
  4.3182176e-06   2.3450909e-06
 -1.0532462e-01   1.4176696e-04
  7.6594907e-01   1.2900397e-05
  4.0071391e-05   1.2722920e-05
 -2.8514826e-06   3.6579758e-07
 -3.4379300e-05   2.1694573e-06
 -5.2503859e-05   1.2148934e-05
 -2.9227314e-05   7.0919627e-06
 -7.8661460e-06   1.2269629e-05
 -4.6702269e-05   2.4833473e-06
 -3.6649770e-05   3.7503628e-06
 -7.1712362e-05   5.7941584e-06
 -2.3774288e-04   1.0572888e-05
 -3.5431009e-04   4.5083234e-06
 -1.7030162e-04   1.2813771e-05
 -1.1487464e-05   1.8211236e-05
  8.8009183e-05   2.7774115e-06
  5.4392378e-05   1.7229632e-07
 -4.0368439e-05   1.5086804e-05
 -1.8375770e-06   1.9308747e-05
  2.0861256e-04   1.2181399e-05
 -5.8863738e-05   2.6675900e-05
 -9.7163010e-04   1.1916505e-06
 -1.6208029e-05   1.1623805e-05
  8.6780783e-05   5.5089040e-06
 -1.4752544e-05   8.5820720e-06
  8.3766085e-05   3.5624544e-06
 -4.4945577e-06   8.0644058e-06
 -4.2133594e-05   8.7739872e-06
 -3.9918446e-05   8.6132859e-06
  3.4444070e-06   7.1333020e-06
 -6.8186426e-05   5.3860635e-06
 -5.6991692e-05   3.0656788e-06
  1.0882558e-05   6.7186198e-07
  1.4885237e-05   1.4616544e-05
 -1.6369765e-04   7.1275522e-06
  2.4941059e-05   7.4060213e-06
 -1.4439785e-05   8.1183616e-06
  3.4191122e-05   4.4329752e-07
  3.0060904e-05   2.7791532e-06
 -3.8753155e-05   6.9243006e-06
  1.5822972e-06   9.3297585e-06
 -1.2358643e-04   1.1500390e-05
  1.0043835e-04   1.2768815e-05
  1.2014460e-04   1.9711426e-06
  1.1425914e-05   6.3013772e-06
 -3.7068225e-05   6.7986934e-06
  1.3668360e-05   8.4578151e-06
 -9.7052844e-06   8.1744856e-06
  6.6080851e-05   4.8955685e-06
 -1.6221755e-04   1.7036541e-06
  7.5304662e-05   8.4806879e-06
  8.7071530e-06   1.0294244e-05
  8.0922910e-05   1.7202325e-05
 -7.9399841e-05   7.0963838e-06
 -5.7191690e-05   6.6452531e-06
 -9.3600502e-05   3.2276032e-06
 -1.7318316e-05   3.5709938e-06
 -3.3973083e-05   8.4386880e-07
 -1.5129366e-05   1.0881498e-05
  1.0423371e-05   3.3223489e-06
 -1.8223988e-01   4.1557587e-06
 -1.1233803e+00   8.1546050e-06
 -4.8914433e-01   7.4594063e-06
  5.7536983e-01   9.7823635e-05
 -5.2372776e-05   1.0560841e-05
  4.6484577e-04   1.1988147e-05