80
Lattice="13.128623 0.0 0.0 -6.564312 11.369721 0.0 0.0 0.0 26.828094" Properties=species:S:1:pos:R:3:forces:R:3 virial="5.34539276695378 -0.6651797961952853 3.096564853537972 -0.6651797961952853 4.193804167088378 -9.060082491800564 3.096564853537972 -9.060082491800564 -8.321945384209124" energy=-597.4517994 pbc="T T T"
Sc      -0.06119378       1.88195874      12.04027877       0.33198146       0.15599357       0.83679772
Sc      -1.68788996       4.70802353      12.24900831      -0.01091275       0.13862229      -0.63060917
Sc      -3.25094895       7.49080129      12.16305781      -0.42928374       0.78433452       0.33644230
Sc      -4.90333247      10.38412411      12.06283529      -0.21446826      -0.16484605       1.00392410
Sc       3.25213405       1.82800282      12.10223959       0.31972697       0.79895225       0.19473292
Sc       1.77376229       4.76832194      12.00064965      -0.77686931      -0.73777405       0.26594994
Sc       0.00431630       7.50280282      12.07056259       0.17538462       0.73769804       0.18056137
Sc      -1.62513473      10.36282908      12.12945535      -0.22577701       0.45705356      -0.49600386
Sc       6.53803461       1.79448852      12.16955155       0.11478393       1.08120670      -0.04731044
Sc       4.95407853       4.68352951      12.20557980       0.18650329      -0.07639882      -0.44672378
Sc       3.35252405       7.55563417      12.08629673       0.04538541       0.77276900      -0.03327453
Sc       1.67508298      10.39410264      12.09955490      -0.47375556       0.29296018       0.05214505
Sc       9.81218623       1.84649545      12.28446003      -0.05705469       0.91516257      -0.54339417
Sc       8.17287068       4.73862013      12.19315973      -0.21386215      -0.72011697       0.38439140
Sc       6.64253623       7.47997800      12.15592475      -0.43906133       0.56299976       0.36184040
Sc       5.00286214      10.38688264      12.20282455      -0.25908148       0.38678010      -0.34244118
Sc       1.60988928       1.00224625      14.59093646      -0.24339225      -0.17855454       0.41571198
Sc      -0.00450001       3.86382413      14.58919237       0.61448775      -0.56276078       0.47902723
Sc      -1.63134205       6.64682656      14.72858685      -0.05473531       0.14662170       0.38579918
Sc      -3.24887695       9.49835906      14.74252083      -0.96952012      -0.39463296      -0.44573616
Sc       4.83515037       0.93261046      14.70319460       0.21093417       0.54904799      -0.11917470
Sc       3.24585980       3.83090879      14.60596771       0.17478338      -0.44922027       0.36896813
Sc       1.65774949       6.65366692      14.55344903      -0.11719951       0.24356584       0.57585623
Sc      -0.09078839       9.41516068      14.58037156       1.12748311       0.46569614       0.50871657
Sc       8.18964792       0.87890524      14.74823119      -0.13475065       1.12248360      -0.42395808
Sc       6.55286954       3.73189819      14.79308213      -0.02628286       0.34880594      -0.15625328
Sc       4.88594358       6.70980469      14.70523675       0.38073385      -0.45116393       0.22161131
Sc       3.32089494       9.52545732      14.62796755      -0.03644151      -0.35574071       0.57229501
Sc      11.50626689       1.01750930      14.77277219      -0.05094965      -0.62819781      -0.68190682
Sc       9.85900879       3.86608841      14.80011404      -0.48830198      -0.66674304       0.02818647
Sc       8.18200261       6.65340621      14.70385510       0.29791173      -0.19123170       1.03743593
Sc       6.64210468       9.39690034      14.80329129      -0.27467031       1.43976826      -0.88520567
F       -0.07050197       1.94713158      15.77010792       0.49555908       0.13441710       0.31588312
F       -1.50037305       4.77197389      15.85459335      -0.34145490       0.06451359       0.16127308
F       -3.34603544       7.64542097      16.01210833       0.19615388      -0.00379703      -0.74926558
F       -4.86609996      10.48092274      15.81559093      -0.11803201       0.00834452       0.17440597
F        3.10432709       1.96813952      15.72660563       0.55522666      -0.00756716       0.64149760
F        1.70071614       4.77015439      15.67845376      -0.45649799       0.34579409       0.48453238
F       -0.12847107       7.72086270      15.89070959       0.29563111      -0.23921844      -0.39715119
F       -1.68945101      10.43077306      15.76752008       0.44249255      -0.02505539       0.55050700
F        6.59166437       1.98362156      16.00087460      -0.18588966      -0.50746801      -0.53648751
F        4.78629846       4.83155862      15.88868300       0.14622630      -0.06796312      -0.41474213
F        3.34695994       7.66670395      15.86489131      -0.39557637      -0.06891070      -0.47407232
F        1.58884191      10.48395766      15.73046861      -0.01303626      -0.82081452       0.57222286
F        9.87038457       1.82617241      15.86308444      -0.13491797       0.24417308       0.21116515
F        8.19695410       4.66197002      15.95713274      -0.04645109       0.28830597      -0.21445047
F        6.46567509       7.72139617      15.93822966       0.14847687      -0.85572120       0.07694803
F        5.03624560      10.45299552      15.81475255      -0.46921941       0.12449227       0.22432587
F        1.65457517       0.98230762      10.92821322      -0.27073474      -0.33555602       0.04816303
F       -0.08317591       3.92486203      11.03475510       0.17729744      -0.33238281      -0.23251344
F       -1.64389051       6.62700117      11.06177233      -0.15592843      -0.19509322      -0.41913073
F       -3.36083404       9.49318630      10.85884489       0.23456447      -0.03920777       0.75323989
F        4.94292336       1.05157208      10.96479574      -0.11694957      -0.45707159       0.06258498
F        3.29423064       3.70182130      10.87790035      -0.05086322       0.33633677       0.49586137
F        1.88242618       6.63331580      10.86036336      -0.73112259      -0.03888710       0.11388003
F       -0.00423407       9.52142948      10.86636856      -0.04048016      -0.13618204       0.52331703
F        8.29365031       1.03215305      11.00975507      -0.37054354      -0.21633612       0.16851632
F        6.47420841       3.89195328      10.92790067       0.38771974      -0.12135571       0.68240157
F        4.93238011       6.54250277      11.04674698       0.30713920       0.20615594      -0.15006240
F        3.27667899       9.53601422      11.06376700       0.37390367      -0.17262459      -0.45768193
F       11.40728010       0.92127871      10.96627317       0.21450773       0.17193445       0.36291347
F        9.76040384       3.85209263      11.15935603       0.36384569      -0.15697349      -0.44822493
F        8.35451337       6.58238412      10.92198159      -0.33024510      -0.07235037       0.65218695
F        6.61148152       9.07160125      10.85265243       0.05536223       1.23750788       0.38975952
C        0.01825568       0.02074622      13.38834676      -0.04395488       0.21790104      -0.84035692
C       11.44219000       2.90630114      13.48883702       0.27793111      -0.52214602      -0.47639209
C       -3.27435340       5.74478075      13.58032619      -0.25459415      -0.18742223      -0.91683592
C        8.17414314       8.50263915      13.51102117       0.77076771      -0.05278894      -1.08309571
C        3.26106396       0.04457113      13.50672358      -0.03682117      -0.99040615      -1.69074470
C        1.66461947       2.89253388      13.35127919      -0.67819165       0.12306778      -0.77769958
C       -0.07012771       5.72617852      13.40499547       0.87726263       0.41155741      -0.20997344
C       -1.65285108       8.54645282      13.38088399      -0.15390220      -0.27111614      -0.24768074
C        6.50601798       0.00742636      13.34061743       0.22299082      -0.27407999       0.60678485
C        4.79379736       2.79156917      13.45050021       1.33862910       0.39218028      -0.21986814
C        3.28538658       5.79086860      13.31003877      -0.06279440      -0.68644679       0.63674069
C        1.61588052       8.53325144      13.32015591       0.17786014      -0.13697239       0.31026104
C        9.81917238       0.03444036      13.47466508       0.23787494      -0.48346052      -0.15406593
C        8.19255858       2.90510254      13.51808206      -0.21624859      -0.50598004      -0.27477821
C        6.55647130       5.65776475      13.51783953      -0.15919239       0.17110432      -0.45444300
C        5.04239092       8.64334979      13.45914261      -0.94750984      -1.31957126      -0.33805619
80
Lattice="13.128623 0.0 0.0 -6.564312 11.369721 0.0 0.0 0.0 26.828094" Properties=species:S:1:pos:R:3:forces:R:3 virial="7.8415791060124524 -0.5471310957516287 -5.729275246105453 -0.5471310957516287 6.008770043347604 9.622563949759593 -5.729275246105453 9.622563949759593 -0.18692454772726752" energy=-597.49833714 pbc="T T T"
Sc      -0.02868704       1.89328367      12.17123447      -0.14312580       0.51744194      -0.79508811
Sc      -1.71203547       4.69705789      12.29234722       0.58745048       0.09445956      -1.06169516
Sc      -3.28256234       7.49850507      12.10366980       0.03313896       0.51789663       0.05319917
Sc      -4.87412778      10.48155296      12.10906439      -0.27672529      -0.63582132      -0.50193245
Sc       3.33927351       1.93688166      12.04278639      -0.56134136      -0.04441979       0.20052233
Sc       1.65263925       4.81377001      12.00331904       0.03371566      -0.87204950       0.29907784
Sc      -0.01059579       7.58297880      12.06030835       0.05106692      -0.48824168      -0.06632911
Sc      -1.61322307      10.41642515      12.10782976      -0.87740546       0.48602166       0.28506251
Sc       6.50209224       1.93603746      12.15146753       0.70407377       0.14303593       0.80485764
Sc       5.04191301       4.81132506      12.18104014      -1.04320144      -0.18227519      -0.12927846
Sc       3.28974665       7.61818560      12.06895692       0.60677149      -0.19080059       0.24069114
Sc       1.51871136      10.42587873      12.11168040       1.13384368       1.08070793       0.75550643
Sc       9.81231673       1.97831008      12.33478578      -0.23371081      -0.58019318      -0.83263044
Sc       8.15018842       4.78882711      12.25813255       0.38069946      -0.90096582       0.73875789
Sc       6.57587020       7.54177868      12.14608099      -0.14303447       0.69617892       0.48460908
Sc       4.86514209      10.45322860      12.10254167       0.54000052      -0.24387357       0.65267993
Sc       1.55313523       0.93289266      14.62229824       0.84669250      -0.08198949       0.20907927
Sc       0.07755415       3.84366675      14.70274898      -0.61447195      -0.41980938      -0.32584090
Sc      -1.55704520       6.65883094      14.63607339      -0.79200812       0.00309839       0.85638997
Sc      -3.22543139       9.44089161      14.58429490      -0.22140435       0.12968349       0.64307789
Sc       4.92281675       0.90900442      14.72601109      -0.00950764      -0.23018460      -0.51028378
Sc       3.23294459       3.70083793      14.54348025       0.49194694       0.80529490       0.39154127
Sc       1.67054156       6.60696727      14.57721094      -0.01208549       0.04084880       0.23195617
Sc       0.06803605       9.34278217      14.56923146      -0.70841302       1.58648522       1.21730045
Sc       8.21401891       0.89902499      14.73245600      -0.32150860       0.14166991       0.32020351
Sc       6.48065713       3.75125946      14.85287766       1.14102921       0.01973579      -1.11101448
Sc       4.84536990       6.62222430      14.73620120       1.09312095       0.29311553      -0.85393736
Sc       3.23796406       9.42586993      14.64174431       0.90079758       0.67026392       0.35027102
Sc      11.47902743       0.88328122      14.75320029       0.16631818      -0.03695153       0.15594242
Sc       9.88776579       3.76192096      14.80661797      -0.45415901       0.23219870       0.18898107
Sc       8.24434138       6.61807549      14.75716602      -0.04882914       0.26730259       0.09482094
Sc       6.65741705       9.43260592      14.64484403      -0.77522559      -0.03028167       0.25311616
F        0.01643636       1.93133210      15.83992187       0.20251319      -0.09656009      -0.12616740
F       -1.56681505       4.79066253      15.83722215       0.07693591      -0.05244510      -0.02555663
F       -3.25456510       7.60668922      15.94886056       0.02568978       0.11589672      -0.86272438
F       -4.94007981      10.37421324      15.89350615       0.17487437       0.20382027      -0.80768269
F        3.25315940       1.87940192      15.70357022      -0.12876260       0.11245059       0.32907225
F        1.67090918       4.68185418      15.78272678       0.23009701       0.38575102       0.04657477
F       -0.03356793       7.62328230      15.81889159       0.37748823      -0.08828735      -0.10467249
F       -1.58223880      10.48041337      15.79818567      -0.27533077      -0.51029356      -0.07994149
F        6.59169130       1.80856265      15.89846345      -0.40671852       0.32170803      -0.01228472
F        4.79306247       4.66503518      15.75793575       0.04355108       0.22232714       0.58745101
F        3.26862296       7.56498349      15.75889029      -0.35700132      -0.07878448       0.45805142
F        1.65399441      10.39174763      15.90428568      -0.03472898      -0.29337288      -0.53876810
F        9.87656263       1.92674601      15.83899952       0.09542194      -0.34779421       0.49064552
F        8.36392629       4.54265321      16.05625181      -0.58997258       0.61052745      -0.52682846
F        6.52747370       7.52267539      15.85814163       0.20591828       0.13392965      -0.12413964
F        5.04673997      10.32302210      15.89135347      -0.12700013       0.21510936      -0.44701534
F        1.55639605       0.95989245      10.93818898       0.31317156       0.04099411       0.18157315
F       -0.08583071       3.84473267      10.92137286       0.10821296       0.06199321       0.67150986
F       -1.56686974       6.50476394      11.02678688      -0.34438158       0.20156082      -0.24459839
F       -3.34995488       9.58352987      10.85223177       0.33962931      -0.24062827       0.44538554
F        4.96827565       1.05071662      10.93018375      -0.03422827      -0.26486397       0.07439157
F        3.30706833       3.72319888      10.89367849      -0.11297085       0.40061212       0.14565261
F        1.66841859       6.70731495      10.92449029      -0.00420054      -0.06346001      -0.24408432
F       -0.01871921       9.57268520      11.05729365       0.04966235      -0.36876567      -1.21975872
F        8.12221970       1.10602611      11.13325900       0.54453441      -0.53437070      -0.50106402
F        6.56715787       4.00263296      11.05826107       0.37055999      -0.74318746      -0.49518486
F        5.08470726       6.60958106      10.97611934      -0.59781718       0.09019657      -0.18843419
F        3.17140489       9.67423660      10.97965904       0.27630239      -0.36488649      -0.12642183
F       11.40935914       1.00366485      11.07263905      -0.08328358      -0.09676425      -0.10361156
F        9.71656756       3.87874701      11.15624424       0.56739446      -0.34958282      -0.26867887
F        8.13610245       6.54643965      11.14238458       0.58407407       0.24384784      -1.12247218
F        6.45878237       9.27760809      10.96874081       0.05393515       0.85197498      -0.07436099
C       -0.00303403       0.06094079      13.32667836       0.14697472      -0.72266735       0.78042830
C       11.49874575       2.79681072      13.49720792       0.13303431       0.85895515      -0.03052632
C       -3.28273865       5.77733408      13.46334577       0.17933742      -0.63548112       0.23222292
C       -4.86917236       8.47814638      13.32678272       0.26868405       0.53213002       0.99493875
C       -3.27308791      11.33660009      13.36687838      -0.16081795       0.26434003       0.04353755
C        1.67870661       2.93485926      13.31959789      -0.67385334      -0.70030700      -0.04282856
C        0.00866503       5.78788268      13.44746810       0.35165303      -1.13412845      -0.72680036
C       -1.50070990       8.51111482      13.29083308      -1.45363592       0.25368318       0.51254694
C        6.49357842       0.04619245      13.46180342       0.65454381      -0.40372793      -0.92188778
C        4.94662398       2.90517474      13.34808772      -0.33106116      -0.50126802       0.73391531
C        3.30821818       5.75424900      13.28684910      -0.65863365      -0.03182032       0.39858080
C        1.62399237       8.55908879      13.30535325       0.64735834      -0.36437986       0.26410270
C        3.30519907      11.34861232      13.58876577      -0.25040088       0.01804978      -1.34894829
C        8.22296178       2.85510544      13.54825561      -0.45793368       0.18687372      -0.04231188
C        6.57330075       5.70723986      13.47554880      -0.14013852      -0.48755975       1.02961961
C        5.01811164       8.50440271      13.42814811      -1.27318890       0.36107285      -0.30205996
80
Lattice="13.128623 0.0 0.0 -6.564312 11.369721 0.0 0.0 0.0 26.828094" Properties=species:S:1:pos:R:3:forces:R:3 virial="5.867088177756173 1.655378062500269 4.290091332608527 1.655378062500269 8.001430514172462 -9.696492106379113 4.290091332608527 -9.696492106379113 4.723246993758271" energy=-598.08497767 pbc="T T T"
Sc       0.02340333       1.93832857      12.16042168      -0.71253073      -0.80495935      -0.53351730
Sc      -1.62609498       4.72308000      12.21074877      -0.41083818      -0.39014920      -0.50429683
Sc      -3.31721528       7.47846469      12.10416155       0.42382736       0.44204919       0.42328577
Sc      -4.91340764      10.41913626      12.10418168      -0.10322103      -0.09990771       0.08826491
Sc       3.29599468       1.87866857      12.06357709       0.27332638       0.28890565      -0.05910098
Sc       1.61081836       4.77471877      12.12848873       0.69689573      -0.49701178      -0.71225033
Sc       0.04818762       7.57547160      12.18074798      -0.59060774      -0.03135783      -0.83460852
Sc      -1.64065021      10.47249652      12.05439785      -0.07673728      -0.37518418       0.23516894
Sc       6.70122241       1.87351093      12.24988747      -1.20535536       0.59749686      -1.19761620
Sc       5.03269587       4.65736369      12.09948891      -1.03430462       0.50364903       0.24712417
Sc       3.22931383       7.52064351      12.04963238       0.69254544       0.15936836       0.16581880
Sc       1.59676359      10.44664155      12.24472682       0.84365872       0.35550425      -0.77822500
Sc       9.84887522       1.88515272      12.29879428       0.32583997      -0.00023210      -1.26855638
Sc       8.16578248       4.70479828      12.23895717       1.13295477       0.24931240      -0.07907288
Sc       6.56721535       7.56985541      12.18040995      -0.14636916      -0.10648077      -0.59690016
Sc       4.84422380      10.35731420      12.13927255       0.29693157       0.46749177      -0.25284874
Sc       1.64655949       1.00423481      14.61847013       0.04342790      -0.73941349       0.31417874
Sc       0.05712247       3.75394056      14.71583009      -0.37952523      -0.07102039      -0.17494595
Sc      -1.58563271       6.60653443      14.65324578      -0.84785343       0.06814480      -0.04783344
Sc      -3.21142492       9.48431837      14.67827559      -0.55143206       0.21433228      -0.77802282
Sc       4.93272013       0.90908321      14.63499168      -0.51764309       0.86346339       0.35822437
Sc       3.30486278       3.80909610      14.61277936       0.08903563      -0.18935594      -0.10543150
Sc       1.64703187       6.63978188      14.73069956       0.14922044      -0.49079758      -0.98891852
Sc      -0.00274423       9.42061052      14.58745579      -0.29019147       0.75808229       0.74579637
Sc       8.16567420       1.02192394      14.80440465      -0.25171954      -0.81820971      -0.32450805
Sc       6.54887982       3.86602213      14.76135978      -0.20323031      -0.26016794      -0.21595333
Sc       4.87490359       6.72194119      14.64872793       0.16189856      -0.78036501      -0.24295529
Sc       3.22304975       9.43760223      14.69360650       0.18580549       0.44146525      -0.23192033
Sc      11.40867245       0.89415408      14.73327721       1.12152970       0.34324640      -0.54849096
Sc       9.89024061       3.74074543      14.76916864      -0.15962710       1.38511478      -0.59702826
Sc       8.21108835       6.73040299      14.75012901       0.34840477      -0.67922560      -0.51371013
Sc       6.56712632       9.54735995      14.60231909      -0.15964609      -0.24995736       0.02219724
F        0.06788750       1.87927344      15.90837697      -0.06185301       0.12532507      -0.40755885
F       -1.73927848       4.73203649      15.85548645       0.86597249       0.16140801       0.15890565
F       -3.22422781       7.69524126      15.77148930       0.02058008      -0.48861661       0.51569945
F       -5.02157692      10.44225966      15.66223645       0.55430411       0.07476613       0.86183361
F        3.31050614       1.98389852      15.78807443      -0.26778876      -0.31275937      -0.04761270
F        1.66431342       4.78280992      15.82784949      -0.12294728      -0.21128156       0.02857047
F       -0.02106199       7.61368626      15.70503209       0.17186910      -0.15554090       0.87573199
F       -1.68344460      10.51234523      15.80889839       0.25350355      -0.45455848       0.12960648
F        6.47059326       1.98183196      15.88293025       0.33464236      -0.17157930       0.00134816
F        4.71035555       4.85251961      15.77082638       0.76537893      -0.12689490       0.44484013
F        3.18086789       7.61592836      15.81241905       0.42059217      -0.14870122       0.45656589
F        1.52980000      10.36350433      15.88578905       0.18225960       0.15159995      -0.27897407
F        9.81282605       2.00068603      15.83392284       0.05639545      -1.00970365       0.81993516
F        8.38200144       4.78609292      15.93704037      -0.68208148       0.00793165      -0.25452359
F        6.55583368       7.62740746      15.72320168      -0.15703591       0.12969186       0.72731411
F        4.89706231      10.44128527      15.77193170       0.02130456      -0.36225670       0.46214097
F        1.69560048       0.89994707      10.94673319      -0.12300258       0.07768269       0.11331319
F       -0.07143149       3.77949616      10.95622148       0.14831432       0.03558405       0.32036200
F       -1.62990282       6.52968898      11.04767470      -0.04735968       0.33742763      -0.18812942
F       -3.24488650       9.43456106      10.91588383      -0.12712555       0.01289157       0.32306401
F        4.97142035       0.98808765      10.93418462      -0.09323860      -0.09896158       0.25777084
F        3.20691308       3.74980812      10.82436865       0.26550157      -0.07294243       0.86237972
F        1.55595323       6.68374154      10.86928424       0.18290010      -0.13196705       0.51975192
F        0.13604979       9.60075864      11.07459911      -0.61236906      -0.53698226      -0.59056918
F        8.29330259       1.04558422      11.07190476      -0.19802340      -0.42331497      -0.00150811
F        6.68014472       3.76814532      11.06533403      -0.25013099      -0.09705880      -0.23584102
F        5.03112292       6.38887885      10.91640296      -0.12975473       0.76522420       0.19623582
F        3.32955052       9.46567032      10.88425941      -0.28204628      -0.07262760       0.59325064
F       11.41446749       0.87585645      11.13580070       0.10051302       0.35983298      -0.40582663
F        9.77512996       3.68981260      11.05329894       0.22341009       0.25766306       0.34649348
F        8.13327251       6.49931500      11.00136592       0.29337331       0.34449913       0.16883542
F        6.47950983       9.44349277      11.03889306       0.29140601      -0.01441923      -0.16737576
C       13.10182899       0.01127910      13.37251577       0.14233361      -0.12126816       0.20538555
C       -1.60196396       2.82268411      13.48044090       0.05646891       0.11627285       0.30094501
C       -3.22798251       5.63773812      13.46078127      -0.44623382       0.48960386      -0.37082960
C       -4.90162416       8.53548968      13.42370270      -0.03649670      -0.18183733      -0.58617573
C       -3.24236326      11.31605501      13.38880418      -0.23050881       0.62191331      -0.52884105
C        1.65743260       2.76108490      13.33358096      -0.11655938       1.11682186       0.52448390
C        0.06712285       5.68739754      13.38550620      -0.38648309      -0.26239614       0.71545316
C       -1.60896544       8.51293341      13.37927913      -0.10283484       0.00789628      -0.18573555
C        6.50804058       0.10522643      13.37148181       0.82237015      -1.45085562       0.84385401
C        4.94011310       2.85984002      13.45290025       0.18546816       0.28496627      -0.53310356
C        3.28698263       5.69303033      13.33114792      -0.39014536      -0.03241335       0.04467813
C        1.66817248       8.49640604      13.43028256      -0.42177165       0.30239773      -0.36465204
C        3.24089304      11.33519480      13.45137802      -0.02202224       0.16078288       0.92021633
C        8.21097305       2.77683458      13.48486753      -0.07601636       0.92552505       1.02650153
C        6.60419613       5.76941507      13.45366271      -0.22142861      -1.13627970       0.42490473
C        4.84929902       8.45567788      13.37501346       0.10192650       0.65367811      -0.05646201
80
Lattice="13.128623 0.0 0.0 -6.564312 11.369721 0.0 0.0 0.0 26.828094" Properties=species:S:1:pos:R:3:forces:R:3 virial="5.531792325415005 0.8319842877682704 0.9675319722188318 0.8319842877682704 6.274628191915379 5.355480614163139 0.9675319722188318 5.355480614163139 3.1654460496933665" energy=-598.14364186 pbc="T T T"
Sc      -0.04309242       1.87831270      12.03099115       0.42438666      -0.20669178       0.85423722
Sc      -1.58475097       4.74514681      12.14892208      -0.81697979      -0.21665055      -0.14259713
Sc      -3.27468806       7.57858747      12.15505633       0.02115480       0.93372398      -0.92999070
Sc      -4.95789837      10.42424979      12.11491828       0.58491248       0.09392622      -0.25180331
Sc       3.29808010       1.90647448      12.17746342      -0.17368014       0.11882714      -0.42991827
Sc       1.54593467       4.77047411      12.17849254       0.95975206      -0.66944059      -0.28056832
Sc       0.01080675       7.58587762      12.13079166      -0.07702482       0.32280854       0.06725570
Sc      -1.56143669      10.44793338      12.14332843      -0.89875400       0.03058177      -0.88095296
Sc       6.64072223       1.96696628      12.15887477      -0.48371028      -0.33126121      -0.29243230
Sc       4.86281267       4.69322993      12.16788606       0.61627409       0.09507024      -0.39587487
Sc       3.30674277       7.55821566      12.13065832      -0.79949228       0.15913082       0.26169482
Sc       1.65289383      10.46524560      12.17641337      -0.30879029      -0.47559971      -0.24095331
Sc       9.81613605       1.84523443      12.24105593       0.31944616       0.56382164      -0.83958336
Sc       8.23507725       4.79670326      12.18199173      -0.15000771      -0.70457534      -1.04945651
Sc       6.54271839       7.59584500      12.03929713       0.19424452       0.04456803       0.50398527
Sc       4.76754345      10.43490845      12.22411184       1.49829644      -0.05805953      -0.55738768
Sc       1.76391953       0.97263336      14.64578570      -1.36104034      -0.44024114      -0.05452518
Sc       0.02525905       3.69483642      14.69569078      -0.05013842       0.24984792       0.07797742
Sc      -1.68867999       6.57571646      14.66537423       0.15290686       0.53890421       0.22862571
Sc      -3.27383479       9.50354695      14.71804395      -0.36855367      -0.40094955      -0.99849540
Sc       4.97538855       0.92366056      14.67501410      -0.10170538       0.36459595      -0.14760650
Sc       3.33703493       3.81805623      14.73632863      -0.82863201      -0.46104157      -0.19993505
Sc       1.62177693       6.61558313      14.73994077      -0.37492950       0.10975123      -0.12707145
Sc      -0.03887434       9.47891173      14.61119543       0.33965773      -0.33593706       0.36910326
Sc       8.24926191       0.87580529      14.79925017      -0.48993199       0.45617063      -0.47891607
Sc       6.59108999       3.73222655      14.67118868       0.05191565       0.66394719       0.42682767
Sc       4.91635919       6.61946748      14.60234994       0.33670159      -0.26291321       0.91520672
Sc       3.33230911       9.39445994      14.75308734      -0.65510576       0.22768506      -0.26737755
Sc      11.55017439       0.93106463      14.70236910       0.37456572      -0.19080091       0.03182851
Sc       9.90827546       3.67194463      14.70522387      -0.30836413       1.00031293       0.12615837
Sc       8.15927703       6.59368550      14.58133335       0.18649114       0.67719983       0.64117601
Sc       6.60302647       9.49077501      14.55751295      -0.09079801      -0.29328015       0.71804498
F        0.11827870       1.87864947      15.88431592      -0.36597592      -0.15880218      -0.29023272