 running on   52 total cores
 distrk:  each k-point on   52 cores,    1 groups
 distr:  one band on   13 cores,    4 groups
 using from now: INCAR     
 vasp.5.4.4.18Apr17-6-g9f103f2a35 (build Oct 31 2019 15:01:46) complex          
  
 POSCAR found type information on POSCAR  Ca Si O 
 POSCAR found :  3 types and     135 ions
 scaLAPACK is switched off
 LDA part: xc-table for Pade appr. of Perdew
 generate k-points for:    2    2    2
 POSCAR, INCAR and KPOINTS ok, starting setup
 FFT: planning ...
 WAVECAR not read
 entering main loop
       N       E                     dE             d eps       ncg     rms          rms(c)
DAV:   1     0.977279393056E+04    0.97728E+04   -0.48374E+05  8320   0.184E+03
DAV:   2     0.940796127814E+02   -0.96787E+04   -0.93646E+04  9728   0.500E+02
DAV:   3    -0.982397374815E+03   -0.10765E+04   -0.10680E+04 10336   0.168E+02
DAV:   4    -0.103457783826E+04   -0.52180E+02   -0.52003E+02 11664   0.334E+01
DAV:   5    -0.103952155377E+04   -0.49437E+01   -0.49411E+01 14232   0.771E+00    0.865E+01
DAV:   6    -0.888499492083E+03    0.15102E+03   -0.67545E+02  9824   0.408E+01    0.379E+01
DAV:   7    -0.892539578713E+03   -0.40401E+01   -0.78892E+01 10616   0.156E+01    0.207E+01
DAV:   8    -0.888327634267E+03    0.42119E+01   -0.15122E+01 12256   0.891E+00    0.114E+01
DAV:   9    -0.888671018882E+03   -0.34338E+00   -0.55092E+00 10040   0.452E+00    0.546E+00
DAV:  10    -0.888119158806E+03    0.55186E+00   -0.12999E+00 10496   0.267E+00    0.490E+00
DAV:  11    -0.888372906874E+03   -0.25375E+00   -0.24138E+00 10440   0.179E+00    0.351E+00
DAV:  12    -0.888288360815E+03    0.84546E-01   -0.30253E-01  9880   0.124E+00    0.697E+00
DAV:  13    -0.888188855305E+03    0.99506E-01   -0.11335E-01 10488   0.603E-01    0.242E+00
DAV:  14    -0.888141646068E+03    0.47209E-01   -0.94394E-02 10976   0.719E-01    0.185E+00
DAV:  15    -0.888152649272E+03   -0.11003E-01   -0.42573E-02  9896   0.331E-01    0.193E+00
DAV:  16    -0.888161328799E+03   -0.86795E-02   -0.24394E-02 10952   0.400E-01    0.350E+00
DAV:  17    -0.888136419180E+03    0.24910E-01   -0.21896E-02 10448   0.183E-01    0.585E-01
DAV:  18    -0.888139914285E+03   -0.34951E-02   -0.84359E-03  9512   0.167E-01    0.111E+00
DAV:  19    -0.888137229993E+03    0.26843E-02   -0.56312E-03 11240   0.123E-01    0.623E-01
DAV:  20    -0.888136575578E+03    0.65441E-03   -0.35803E-03  9880   0.766E-02    0.287E-01
DAV:  21    -0.888136834279E+03   -0.25870E-03   -0.73751E-04  9456   0.356E-02    0.431E-01
DAV:  22    -0.888136211816E+03    0.62246E-03   -0.34746E-04 10200   0.292E-02    0.179E-01
DAV:  23    -0.888136091965E+03    0.11985E-03   -0.18841E-04 11296   0.192E-02    0.606E-02
DAV:  24    -0.888136093461E+03   -0.14958E-05   -0.23429E-05  9568   0.730E-03    0.564E-02
DAV:  25    -0.888136084548E+03    0.89127E-05   -0.52558E-06  7824   0.313E-03    0.499E-02
DAV:  26    -0.888136061085E+03    0.23464E-04   -0.54078E-05  9072   0.103E-02    0.289E-02
DAV:  27    -0.888136058902E+03    0.21830E-05   -0.72772E-06  8960   0.431E-03    0.243E-02
DAV:  28    -0.888136056578E+03    0.23241E-05   -0.58615E-06  5632   0.239E-03    0.148E-02
DAV:  29    -0.888136055274E+03    0.13034E-05   -0.33305E-06  6352   0.236E-03    0.120E-02
DAV:  30    -0.888136054653E+03    0.62122E-06   -0.14077E-06  5024   0.175E-03
   1 F= -.88813605E+03 E0= -.88811580E+03  d E =-.405047E-01
