135
Config_type=9 Weight=1.0 Lattice="14.012776000 0.000000000 0.000000000 0.000000000 14.012776000 0.000000000 0.000000000 0.000000000 14.012776000" Energy=-847.977628 Virial="14.87774 -8.31083 30.58699 -8.31083 -8.50393 5.87697 30.58699 5.87697 -27.67295" Properties=species:S:1:pos:R:3:forces:R:3
Ca	     11.24195      9.37901      5.14572        -0.552398     -0.695737      1.768083
Ca	     11.40603      1.39163      9.62175        -1.574520      3.933622      0.232577
Ca	      2.52041     13.65669      8.70047         0.880674     -0.937845     -0.772772
Ca	      7.58040      7.46530      7.07891        -0.058933      0.275224      1.421042
Ca	      9.33799      5.33949      4.34713        -0.773565      1.397633      1.677259
Ca	      2.67951     10.55576      1.40678        -0.527095     -5.646007     -1.907602
Ca	      0.22367      5.38500     10.25138        -1.286352      2.885456      3.374625
Ca	      7.67079      0.55761      0.24138        -2.122327      1.845257     -2.780391
Ca	     10.57512     12.42880      8.46441        -1.700152     -1.696787     -0.146157
Ca	      0.75969     12.42580      1.84026         0.734767     -0.384184      1.218044
Ca	      6.51982      5.06474      9.94726        -0.243035      0.748147     -1.190333
Ca	      8.52396     11.06570      0.11816        -0.293407      0.616415     -1.991832
Ca	      8.40358      2.69977      7.74309         0.311380      1.190553     -0.012501
Ca	      7.02734      5.41109      0.87244        -0.717635      1.228828     -1.160828
Ca	      2.00715      5.62214      2.50863         1.080721      1.182455     -0.626540
Ca	     10.68032      1.81632      0.97478        -0.600982     -0.430531      0.333953
Ca	     12.94378      2.80666      4.48139        -0.211158      0.779580      0.663362
Ca	     12.02689     10.53219     12.67877        -0.650781      2.112205     -3.164651
Ca	      6.64391     13.30644      5.70033        -4.180586     -1.046049     -0.693757
Ca	      4.33637      2.86054      7.06472         0.191565      1.602259     -1.855805
Ca	     11.11125     11.81508      2.49224         0.987637      1.147390      0.871642
Ca	      4.02555      2.67042      1.16863         5.546122     -1.378796      5.393922
Ca	      2.81109      7.75050      9.69569         0.138364     -0.189187     -0.500981
Ca	      1.67241      0.23465      5.10124         2.942137     -3.363083      1.120158
Ca	      1.14821     10.40901     11.16520         1.298895      1.823961      6.771531
Ca	     11.81880      7.27988     12.05365         0.274370     -1.237197      0.962826
Ca	      4.83285     13.29473     12.06626         2.291269      0.618907      1.934025
Si	     11.18602      5.68522      6.57333        -0.403705      1.051070      1.626286
Si	     12.42366      9.59144      8.90328        -4.820135     -2.636088     -0.823388
Si	      1.04838     10.73568      8.33734         5.686252      5.715418     -7.668141
Si	     13.24080      7.00771      7.93644        -5.732214      7.796284      1.664344
Si	      6.59041     10.52146      9.12166         2.424608      1.637994     -1.417358
Si	      8.48277     13.64257      2.97842         1.158025      1.642075     -0.908915
Si	     11.48429      3.84741     12.19556        -4.626290     -3.826255     -3.208912
Si	     13.24406     12.36387      9.60525       -10.802172      0.236458      1.279945
Si	      1.83172      2.97027      4.67129         6.321738     -0.614320     -2.549491
Si	      4.14531      9.96539      9.25810        -2.088033     -1.861660      2.861244
Si	     11.21215      8.39482      1.33011         4.062543     -1.077933     -5.439823
Si	      5.97133     13.49141      8.92737        -3.156075      2.875025      0.801028
Si	     13.42825      3.02108      8.94892        -1.793567      0.188601     -3.432083
Si	      4.23764      6.56742      0.79524         5.424545     -7.324901     -6.857055
Si	      3.67131     12.27233      2.78102         8.336818      2.413893     -1.260020
Si	      7.84929      3.31001      2.55042        -0.050566     -0.670840      1.580778
Si	      9.50433      9.68558     10.34764         1.514028      0.404329      2.996780
Si	      1.85379      3.12935     12.64653         3.938645      0.641182      1.815643
Si	      9.44461     11.87688      6.06121         0.635672      1.031913     -8.859090
Si	     13.29355      2.49148     13.13238         0.705352     -8.366317     -3.058435
Si	      5.89408     11.33723      1.51166         0.429058      1.460695      2.450632
Si	     13.29204      9.93576      2.93036         3.067349     -1.961242      2.700161
Si	      8.29777      9.34144      2.85592       -11.417130      1.394189     -4.453677
Si	      7.23091      2.06907     10.55150         1.508191      1.101261      2.468102
Si	      9.09454      0.20405      5.79063        -1.767418      1.511950     -2.475734
Si	     12.72289     13.14956      0.24317         1.568813     -4.958417      0.910161
Si	      1.19253      7.58380     13.31949        -1.063805     -7.225622      5.326173
O	      1.84251      3.63219     11.20001        -0.090074      1.289281     -0.224966
O	      8.76265      2.38221      9.87747        -0.899002     -0.723176     -0.110448
O	      0.60532      4.12144      8.99215        -0.550552     -3.861126     -2.789431
O	     12.50841      2.87469     11.11706        -0.066305     -0.458809      2.658879
O	      4.20252      4.94871      1.04114        -0.225405     -0.350753      1.419252
O	      7.86415      9.59734      9.77398         0.548799     -0.286281     -0.675737
O	     11.82108      5.10025      5.17262         0.559150      0.572169     -1.328660
O	      6.42664      1.30870      9.22433        -0.665636     -0.965392      0.202760
O	      5.72097     12.82880      3.34832        -1.477303      1.226517     -1.777180
O	      4.41037      8.54243      8.64857         1.118506     -3.583567     -1.029369
O	     12.60662      7.99281      9.57591         2.097106     -0.214168      1.225782
O	     10.38467      7.35568      6.60606         0.734401     -3.310981     -1.271677
O	      5.39160      6.60707     13.67576         0.410025      1.094111      0.465152
O	      6.55259     12.34241     13.74966        -0.799493     -1.920698      2.014902
O	      1.32826     11.94494      6.85429        -1.074878     -2.255952      4.024750
O	      4.46784     10.88119      3.08776        -1.594913     -0.856103     -2.759409
O	      1.84616      8.78948     13.82739         3.164354      5.428221      0.863641
O	     10.64985     12.37515      4.85619        -2.362314      0.277436      1.239641
O	     10.45418      9.78680      9.04193         2.433706      0.085335      0.011723
O	      7.71142      8.63638      1.61665         0.497400     -0.761233     -1.452316
O	     13.98860     11.97274     12.98877        -0.119228      1.680599      2.227651
O	      0.88212      2.02155     13.21459        -5.307610     -0.654735     -0.025865
O	      5.10993     13.60147      7.52221         0.554560      0.662814     -0.209335
O	      3.61215      3.55894      4.71438        -2.264217     -0.981275      0.079763
O	     12.97282     10.92143      1.85796        -0.807558      3.583766     -4.060050
O	      9.45922      0.97626      2.84519         0.383878     -1.281986     -0.747631
O	      9.41642     10.85148     11.46142        -0.500354      0.975345      0.794706
O	      7.07031     12.52855      9.53473         1.382420     -2.732481     -0.901952
O	     12.22353      9.32165      0.17603        -2.607842     -4.217490      4.151313
O	     12.58268     10.80662      4.22863         1.503741     -2.474982     -0.672380
O	     12.33740      5.75810      7.92726        -6.105740     -2.248625     -1.241796
O	      1.26348      6.12225      0.51659        -0.209243      2.602836     -3.740467
O	      0.97033      9.66508      2.45774        -2.335184      0.359815      1.970703
O	      9.45374      9.41206      3.64544         8.915156      0.989059      5.466847
O	      7.24543      2.12918      3.53314         0.794836      1.825092     -2.127975
O	      2.85452      2.93199     13.87967        -4.179158      1.978979     -6.610906
O	     11.96593      3.10461      8.00603         3.040911     -0.578420      2.508665
O	      1.56226      1.61069      3.45006         0.867430      0.675744      1.599572
O	     13.67105      1.54115      9.35947         1.587830     -1.712078     -0.129327
O	     10.30464      2.53327     13.02554         3.325540      3.209004     -1.950407
O	     12.01806      8.62778      2.73072         0.256546     -0.313249      1.043070
O	     11.61534     12.00425      0.10303        -2.506467      2.214680      0.762643
O	      2.60017     12.75558      3.62781        -6.021041      1.998203      5.565073
O	      9.02327      3.50901      1.27272        -2.639291     -0.654503      2.680350
O	     10.86435      7.05611      0.39966        -0.467607      1.496824      2.558564
O	      3.02008     10.36867      8.18538        -3.986139      2.747297      0.462823
O	      0.70669     12.60292      9.48590         5.203517     -0.347495     -0.130562
O	      2.04300      2.30232      6.19120        -0.578393     -0.052055      0.454771
O	     13.98179      1.02234      4.84004        -4.040950      2.096964     -0.703304
O	      0.41550      6.24793      7.52113         7.990026      0.188005     -0.462668
O	      8.09688     11.89503      5.15769         0.265298      0.020405      1.865095
O	      3.58562      7.39192      1.74366        -4.345065      6.038419      6.342077
O	      6.91528      3.64825     11.32755        -0.523643     -2.020660     -1.842341
O	     10.69400      8.80243     11.52153        -3.331037      1.415867     -2.352018
O	      7.88740      0.73775      6.80346        -0.739112      0.076636     -1.682810
O	      5.69050      1.17490      0.02513        -1.853050      0.735997      0.626842
O	      7.30617      4.85700      3.01097         1.645768     -1.811553     -1.099848
O	     12.71028      3.90106     13.20638         2.055096      3.604884      5.497619
O	      6.39440     10.63200      7.41737         0.182259     -0.613002      4.529200
O	      3.38045      9.48538     10.84403        -3.557032      0.417193     -1.229082
O	     11.79757     13.52638      9.59742         4.734585     -3.843426      0.303726
O	      3.08133     12.77160      1.30282         1.103614     -1.681652     -0.806318
O	      9.99075     10.69037      6.77173         1.107723     -2.451322      2.801464
O	     10.21590      0.23279      6.79417         4.610490     -0.685162      3.655898
O	      0.67187      9.73605      9.45993        -2.118644     -2.935837     -3.513399
O	      7.71987      7.24988      5.21176         1.243450     -0.844910     -2.912888
O	     12.31843      8.50692      7.42419         2.844658      1.559118     -0.840552
O	      6.96547      1.15945     11.91258         0.246547     -1.204864     -0.847406
O	     13.04196     13.43374      1.96307        -1.977381      1.013807     -2.714194
O	     12.55480     11.34201     10.64468         2.033028     -1.586060      1.427488
O	      5.36539     10.17791     10.28438         4.345219      3.154784     -1.853037
O	     12.70109      0.58138     13.72604        -0.287593      7.313395     -2.511410
O	     11.39805      5.15355     11.33844        -0.610991      1.234860      0.528545
O	      8.82270     13.09233      0.95916         1.798028     -1.783417      3.912367
O	      0.06989      7.56240     12.29328        -1.236552     -0.611986     -3.313083
O	     12.50302     11.26175      8.40086         2.856019     -0.940563     -2.061812
O	      4.66989     13.07343      9.97601        -1.435289      1.221217     -0.391760
O	     10.08027      4.52315      6.69340        -3.048840     -0.391626      0.262523
O	      6.16154      4.76618      7.66485         0.090880     -1.195312      1.620483
O	      6.91983     10.98067      2.86084         3.149466     -2.359579     -2.223449
O	      1.21682      3.92845      3.47169        -2.381351      0.732634      2.494847
135
Config_type=19 Weight=1.0 Lattice="14.012776000 0.000000000 0.000000000 0.000000000 14.012776000 0.000000000 0.000000000 0.000000000 14.012776000" Energy=-853.802908 Virial="-20.89441 -9.24475 14.57860 -9.24475 -20.15015 14.06448 14.57860 14.06448 -41.18832" Properties=species:S:1:pos:R:3:forces:R:3
Ca	      5.84531      2.81406      3.55183         0.651734     -1.055713      0.399707
Ca	      9.97705      3.96032      4.53121         1.881779     -0.356980      0.174287
Ca	      9.67223      0.23036      2.19659        -0.757555     -0.677422      3.309865
Ca	     11.18796      5.02931     11.47204        -0.314981     -1.041277     -3.377097
Ca	     13.60823      1.62471      4.12144        -0.648750      0.205863      0.593861
Ca	     12.17412     11.00827      8.60530        -0.661628      0.333741      2.160332
Ca	     11.36741      7.61040      0.82680        -1.214144      2.090961     -2.111591
Ca	      2.44421      6.11692     10.98328         1.340273      1.307429     -0.293683
Ca	      1.06233      0.05804      1.15815         2.126220      1.048921      0.264093
Ca	     12.99750      5.88107      3.01003        -0.475320     -0.984481     -1.462759
Ca	      7.19733     12.30779      4.71982         0.202595      0.873903      0.343237
Ca	     11.47524      0.05883      6.29488        -1.317791      1.132910     -2.104277
Ca	      0.51008     13.17548     11.64437        -3.065531     -0.448609     -5.124526
Ca	      1.97057     10.19859      0.06192         1.185015     -1.996754      2.043125
Ca	      2.68770      3.12894      7.29101         0.180374      0.223745      0.653935
Ca	     10.50709      8.23291     10.77191         0.189797      1.887272      0.211799
Ca	      8.12698      5.67859      7.49062        -0.164190     -0.774719      0.465635
Ca	      6.14744      8.64256      6.37999         0.820582     -0.720968     -0.179254
Ca	      6.73255      9.76433     10.80917        -2.861021     -2.720756      1.829838
Ca	     10.28379      8.03402      5.42722        -2.377131      0.913146     -0.663294
Ca	      0.07274      5.89311     13.02532        -0.198908      1.181599      2.261765
Ca	      2.40801      9.04111      4.45944        -2.038334     -3.172852      3.147289
Ca	     12.01639      2.64808      8.48164        -1.188426      2.574555      0.287420
Ca	      7.82135      9.00258      0.78546         0.174054      2.145627     -0.034952
Ca	      7.03238      4.16115      0.64279        -1.227811      0.655415     -1.749319
Ca	     10.72159     12.58671     13.65759         1.675327     -2.378394     -1.812288
Ca	      3.15862      6.78582      2.46937         1.460880      0.434453     -1.143462
Si	      5.02149      0.44555      5.07685         1.003023     -4.760603     -2.444677
Si	      8.54030     11.75773      8.83718       -10.508705     -0.935925      0.624487
Si	     13.86055      6.35298      9.71595         2.033840     -4.725609     -3.828564
Si	     12.91051      9.72926     11.40566         6.684124     -7.599915      5.993114
Si	      9.78540      6.02354      2.40590        -2.762614      2.718766     -1.211280
Si	      9.47981      3.59174     13.57919         1.950883      8.848706      6.411625
Si	     12.80099      9.81500      3.90798         0.178204     -0.713465      0.018533
Si	      2.55897      2.62800      4.14643        -8.658000      2.878615      0.310186
Si	      4.19248     10.46685      8.56192        -4.148384     -0.540450      2.250115
Si	     12.78423     12.60735      2.67997        -0.494183     -1.417951      5.410340
Si	      3.01109     13.09124     12.68586         2.058323      1.749589     -0.616457
Si	     11.16259      6.13925      7.93834         1.439543     -5.940550     -2.489261
Si	      8.22831      7.47458     12.68491         1.625077     -2.425921     -2.496045
Si	      1.67244      4.28777      1.69340        -1.026929     -0.772659     -3.389831
Si	     11.60251      0.92899     10.78250        -0.870892      1.874160     -0.667399
Si	      7.23804      6.92859      3.54485        -1.357364      6.637285      1.679246
Si	      3.09897     11.21053      2.64521        -0.104115     -4.579917      5.748693
Si	      8.80291      1.05938     13.74064         4.507590      2.723696     -0.553655
Si	      8.64771      1.51587      5.46210         1.692605    -12.656222      6.456980
Si	      6.54543      0.72277     11.32770        -2.211553      1.363280      1.925209
Si	      5.13369      1.30992     13.33295        -2.013861      2.292985     -4.805928
Si	      3.81668      5.25291      0.01660        -2.655877      1.010238      3.122055
Si	      7.10846     12.28354      0.42625         2.232058     -2.893558      2.691392
Si	      1.57921      9.79357     11.28989         3.572709     -2.919325     -1.008201
Si	     13.02269      0.03557      8.76598         3.421636      2.734773      0.849409
Si	      5.35678     10.62892     13.69909        -3.820874     -1.178477     -7.701790
Si	      3.95522      6.17562      6.73285         0.138429      4.079338      4.206546
O	      7.58798      0.83284     10.23249         0.706640     -0.203352     -0.804518
O	      9.04654      1.44317      7.07719         0.931054     -0.696539     -0.925990
O	      8.20294      4.13106     12.80192        -2.163151      2.582226      2.268846
O	      2.01735      5.90961      0.36051        -0.156664      0.260711      2.639727
O	      4.37581      9.41858     13.01784         1.575624      2.469361      2.494754
O	      8.95494      7.01639      1.02602         1.349521     -2.458950      1.277881
O	      4.91128      6.22142      1.16570        -2.253082     -3.780989     -1.662529
O	      8.63976     12.21583     13.92245        -0.787031      0.926278      0.520740
O	     12.68142      9.26954     12.91803         0.481596     -1.905986      0.627800
O	     11.37961      0.57957      8.84624        -1.060658     -1.991083     -2.523799
O	      4.92317      2.42941     11.95446         2.311890     -3.352392      0.118851
O	     13.08019      1.12943     10.08285         3.921822      1.201368      1.421424
O	      2.98104     10.82617      4.28387         2.085026      5.465470     -3.059858
O	      0.07440      3.84800      2.15197         2.684898      1.433553     -1.183384
O	      3.39900      6.00868      8.41129         0.944602     -1.794887     -3.429491
O	      2.96174      9.53256     10.07414        -0.523019      2.032784      0.055080
O	     13.09391     12.74216      9.62017         0.422512     -3.074224     -1.452749
O	     11.85550     10.58847     11.08505       -11.064303      6.416224     -5.491980
O	      1.22879     10.91383     12.43611         1.028044      0.742099     -1.751427
O	      2.89077      9.06669      2.45173         0.571799      2.403697     -2.735393
O	      8.32108      2.88484      5.37977        -2.600502     12.019454     -4.141841
O	      5.33262      5.31020      6.66500        -1.337507      0.552773     -0.361287
O	      7.94255     11.09683     10.29092         2.974483      3.872356     -3.789216
O	     13.51674     12.76750      1.36632         1.188877      1.264802     -2.835855
O	      1.44034     13.10505     13.27965         3.624744      1.073728      4.898952
O	     12.82900     13.51280      4.28509         2.267549     -1.451720     -1.401830
O	     10.52403      7.30361      3.06187         2.275472      0.142030      0.298489
O	      2.84705      3.76301      0.46160         0.266732     -0.299366      1.566304
O	      5.44491      9.57456      8.43255         1.533596     -0.854176      0.298980
O	      6.84973     10.88676     12.84356        -2.731893      0.742292      1.975912
O	      8.98047      0.00231      4.97923        -0.388851      0.638954     -1.834146
O	      8.80160      8.95629     12.87215         1.017073      0.224248     -0.482730
O	     10.84984      7.09235      9.06797        -2.393192      3.444846      1.984324
O	      3.49516     11.63933      7.85409         0.018381     -0.099094      0.019557
O	     10.09644      4.60721      7.96268         1.626148      2.953585     -0.788917
O	     11.63383     13.63052     11.78868        -0.632826      2.556222     -1.032950
O	      2.29247     12.27789      1.92047        -0.127665      0.228592     -1.511721
O	     11.25439      9.93701      4.76157         4.916295     -0.157503     -1.943041
O	      1.59529      1.80189      3.24860         0.562764     -1.360379     -1.526451
O	      5.59751      2.31229      0.36451         3.236535      2.660428      4.467372
O	     13.21659      7.53082     10.36105        -3.297088      6.773289      3.004200
O	     13.98552      5.29115     10.98907         1.034156     -0.941646      0.267462
O	      1.63300      3.09172      5.55455         1.284818     -0.614314     -1.748700
O	      2.68688     13.31097     11.09583         0.762124     -0.179441      1.681884
O	     11.09624      2.63643     10.52623         0.831055     -2.619548      1.074427
O	      9.93085     11.54208      8.61227        11.100708     -1.178601     -1.383130
O	      9.62571      2.43008     12.78163         1.994460    -13.257516     -7.526203
O	      5.89641      6.95402      4.52386        -0.563169     -2.461131     -0.977041
O	     10.70023      0.33195      0.50026        -1.944324      2.357071     -1.787219
O	      5.94776     10.96161      1.09464         0.815523      1.469982      2.667635
O	     11.27206     12.88205      2.72120        -3.507332     -1.064018     -1.296657
O	     11.40485      6.56306      6.33295         0.392304     -1.209336      1.623736
O	      3.47249      8.06554      6.42563         1.801297     -4.315095     -0.793750
O	     10.83135      5.36990     13.38533        -1.333849     -2.492335      2.024476
O	      8.60259      5.73946      3.69680        -2.625648      0.902944     -1.379691
O	      0.25428      0.53638      7.64995        -4.229770     -0.547279      1.309540
O	      4.66093      0.09641      3.37018         1.181478      1.846237      3.547574
O	      3.99538      2.63880      4.40599         6.090715     -0.135800      2.082464
O	     13.50337     10.59774      2.65313        -3.884992      4.611430      0.490692
O	     11.67256      1.97211      4.91196        -1.382547      0.851178      1.059043
O	     12.59913      6.07460      0.84079         2.596715     -0.021596      0.812128
O	      9.69577      2.69250      1.02475        -3.239199      0.797089      0.435125
O	      3.69012      0.76358     13.61756        -2.301884     -4.041100     -0.528222
O	      1.79466      8.31524     12.15109        -1.022013      1.287280     -1.179591
O	      4.37451     12.14117     13.14649        -1.218391     -0.160700      0.633253
O	      3.94007      5.51707     12.53115         0.444728     -0.255185     -2.076983
O	     10.52617      4.64671      2.29736         0.682091     -0.057431      1.433997
O	     12.61400      5.53774      8.78387         1.122482     -0.615731     -1.095684
O	      9.47110      6.74748     11.76437        -2.014469     -0.420654      0.834201
O	      0.17565      8.88443      3.74838        -1.890470     -2.751575      3.025411
O	      1.45752      6.65075      9.02757        -3.888483     -0.158236      1.421953
O	      6.81231      8.23640      2.29175        -0.312840     -4.351040      3.719209
O	      6.34648      1.38964      5.45484        -1.580267     -0.353534     -1.433219
O	      7.68703     12.33801      2.47611        -0.707231      1.155748     -2.134577
O	      4.89549     12.95948      5.86330         0.755876      2.992815     -1.342753
O	      8.45075      7.74580      7.28718        -0.600394     -0.036769     -1.016476
O	      6.64441      7.35131     12.56712         1.610391      0.015330      0.250280
O	      2.51749      4.55839      3.00387         0.980904      0.125718      2.407830
O	      7.67289     11.84512      7.45324         0.134992      0.169058      0.994235
O	      7.72073      8.31519      4.57595         1.884752     -0.525811     -0.173236
O	      0.12449     10.24450     10.60798         2.457654     -0.948691     -3.766046
135
Config_type=29 Weight=1.0 Lattice="14.012776000 0.000000000 0.000000000 0.000000000 14.012776000 0.000000000 0.000000000 0.000000000 14.012776000" Energy=-862.113227 Virial="-22.64954 19.29085 -35.36893 19.29085 -22.62382 28.83379 -35.36893 28.83379 2.54107" Properties=species:S:1:pos:R:3:forces:R:3
Ca	      2.38474     11.00099     11.17374         0.117796     -0.524876      0.637912
Ca	      9.91871      1.43814      9.38630        -1.518734     -1.179143     -0.738926
Ca	     10.36006      3.81398     10.29357         1.122995      1.876981      1.185830
Ca	      7.02012      2.83010      1.81028         1.665833      2.892883      0.350204
Ca	      4.16700     12.15262      4.49336        -0.077526     -2.082538     -0.344374
Ca	      6.14770      6.19572      6.19906         2.251260      3.929249      3.536695
Ca	      6.37835     12.90194      1.48917        -1.335699     -2.175025     -0.145023
Ca	     13.51690      0.24299      8.02333         0.561957      0.083442     -0.228408
Ca	     12.43579     12.29488     11.69792        -0.102060      0.258073     -2.166655
Ca	      2.98036      3.04760      7.89003        -0.076135      0.530897     -0.527100
Ca	      8.73359     11.16532     10.51257        -1.118048      0.293382      0.864605
Ca	      3.62804     13.20987      8.65682         0.072575     -0.749335     -1.088227
Ca	     10.45811      3.54430      3.53708        -5.582837      6.127425      7.456256
Ca	     10.22543      7.79318      3.86235         0.153602     -0.986248     -0.013163
Ca	      9.68333      7.32719     10.28585         1.851177      1.900298     -0.420165
Ca	      9.13908     10.47028      6.97194        -0.453617      0.054827     -2.739038
Ca	      0.74781      0.31770     13.57287         1.373967      3.050966     -1.122822
Ca	      1.64352      9.11249      3.95008         2.273643      0.145265     -0.886204
Ca	     12.37022      9.90037      0.19824         0.190050     -2.954541      0.269596
Ca	      7.53203      1.09493      6.31994         2.291603     -2.872430     -5.017499
Ca	      8.40458      6.00461      0.00782         0.617046      3.772101      3.883953
Ca	     13.09335      6.59295     12.99748        -2.514617      2.387910     -0.891192
Ca	      8.46013      0.13469     13.71588         0.773467      1.187253     -1.591974
Ca	      3.58630      9.47188      1.16201         0.297760      0.094337      0.663182
Ca	      0.27875     13.30613      2.92555         1.328360     -0.867903      0.311576
Ca	      1.39193      7.39248      9.00572        -5.510351     -1.823915      1.056031
Ca	      4.17670      3.57725      1.41403        -2.068359      0.682762     -0.254348
Si	      7.12627      5.93946      2.93829         4.299512     -2.068350     -3.188057
Si	     13.27772      4.34474      8.79857        -3.384806     -0.807063     -0.728603
Si	      6.35428      0.85525      3.39609       -13.942566     -4.186436     -7.582266
Si	      6.95772     13.84306     10.11210         2.884345     -2.067515     -4.303963
Si	      2.40014      6.23479      2.37186         0.183726      0.117738     -7.501214
Si	      9.05444      3.95037      7.05154        -1.082852      3.513771      1.388493
Si	      5.70433     12.26304     12.44558        -1.600970     -1.029777     -1.130723
Si	      6.19206      2.47504      8.79450         2.291174      2.423171      2.640043
Si	      3.95307      8.99739      7.87620         6.855345      2.662680     -2.263233
Si	      1.78039     12.02078      6.07336         0.273436      2.711098      1.017239
Si	     11.74537      2.81621      0.83754        -0.705107      4.552075     -2.510170
Si	      2.78340      3.69831      4.64065        -2.251501      0.308450     -3.609689
Si	      9.77029     11.11006      2.08674         1.368612     -2.544863      1.483438
Si	      6.29690      9.23104      8.97775         0.035906      0.548105      4.347892
Si	     12.79596     10.83107      7.09224        -1.287934     -1.810006      2.496680
Si	     11.73235      1.02895     12.28423         1.749397      6.200652      2.347963
Si	      1.01556     11.61717     13.56117        -4.431035      1.557949      1.914947
Si	      5.61866      4.52466      4.58682         1.470191     -6.019633     -6.826223
Si	     13.09971      7.58969      2.57788        -4.215811     -4.801359     -2.974745
Si	      7.35547      9.72031     13.69030        -2.042101      1.184368     -0.980214
Si	      9.51763      7.67567      6.67575         0.069328     -3.663146      1.428249
Si	      4.64653      1.48699     10.99703         0.929761     -2.314928      4.611026
Si	      0.83767      4.21902      0.40452        -1.204979      6.251160     -1.569316
Si	     10.44645     12.61591      8.61010        -3.553462      2.334445     -1.959173
Si	      8.66032      3.32170     12.91549         5.375003     -0.495124     -1.104163
Si	      1.09285     10.74627      8.45933        -1.903563     -0.125205      2.665877
Si	      1.66108      5.50009     11.48721        -8.431731      2.788673      2.092674
O	     10.16071     10.12537      3.56885        -1.398859      2.799887     -3.865568
O	      1.34330     13.55258      6.58846        -0.732016     -1.066178      0.066116
O	      0.54909      6.80367     10.89275         2.039436     -2.214855      0.543358
O	      4.44087      3.85121      5.43743        -2.753558      1.316131      2.129573
O	     11.70365     11.65120      6.27025         0.967061     -0.670862      1.010973
O	     11.41934      2.69232      2.39553         5.419527     -4.694275     -5.305887
O	      5.76741      1.15938      1.74598         1.740283     -1.633423      2.481646
O	      7.20443      4.68860      4.97666        -1.794131     -0.824109     -0.088944