 vasp.5.4.4.18Apr17-6-g9f103f2a35 (build Mar 16 2023 09:39:13) complex          
  
 executed on             LinuxIFC date 2024.04.29  18:12:51
 running on   48 total cores
 distrk:  each k-point on   48 cores,    1 groups
 distr:  one band on NCORES_PER_BAND=  12 cores,    4 groups


--------------------------------------------------------------------------------------------------------


 INCAR:
 POTCAR:    PAW_PBE Ca_sv 06Sep2000               
 POTCAR:    PAW_PBE Si 05Jan2001                  
 POTCAR:    PAW_PBE O 08Apr2002                   
 POTCAR:    PAW_PBE Ca_sv 06Sep2000               
   SHA256 =  a47365830e737f14e0e6c5cf1ed81b94e081eecf0a33df105380881bc9da05d5 Ca
   COPYR  = (c) Copyright 06Sep2000 Georg Kresse                                
   COPYR  = This file is part of the software VASP. Any use, copying, and all ot
   COPYR  = If you do not have a valid VASP license, you may not use, copy or di
   VRHFIN =Ca: 3s3p4s                                                           
   LEXCH  = PE                                                                  
   EATOM  =  1006.0909 eV,   73.9456 Ry                                         
                                                                                
   TITEL  = PAW_PBE Ca_sv 06Sep2000                                             
   LULTRA =        F    use ultrasoft PP ?                                      
   IUNSCR =        1    unscreen: 0-lin 1-nonlin 2-no                           
   RPACOR =    2.000    partial core radius                                     
   POMASS =   40.078; ZVAL   =   10.000    mass and valenz                      
   RCORE  =    2.300    outmost cutoff radius                                   
   RWIGS  =    2.500; RWIGS  =    1.323    wigner-seitz radius (au A)           
   ENMAX  =  266.622; ENMIN  =  199.967 eV                                      
   RCLOC  =    1.808    cutoff for local pot                                    
   LCOR   =        T    correct aug charges                                     
   LPAW   =        T    paw PP                                                  
   EAUG   =  420.852                                                            
   RMAX   =    2.359    core radius for proj-oper                               
   RAUG   =    1.300    factor for augmentation sphere                          
   RDEP   =    2.392    radius for radial grids                                 
   RDEPT  =    1.987    core radius for aug-charge                              
                                                                                
   Atomic configuration                                                         
    7 entries                                                                   
     n  l   j            E        occ.                                          
     1  0  0.50     -3949.1705   2.0000                                         
     2  0  0.50      -414.3434   2.0000                                         
     2  1  1.50      -334.7047   6.0000                                         
     3  0  0.50       -47.0896   2.0000                                         
     4  0  0.50        -3.7663   2.0000                                         
     3  1  1.50       -28.0061   6.0000                                         
     3  2  1.50        -4.0817   0.0000                                         
   Description                                                                  
     l       E           TYP  RCUT    TYP  RCUT                                 
     0    -47.0896403     23  2.300                                             
     0     -3.7663320     23  2.300                                             
     1    -28.0060855     23  2.300                                             
     1      6.8029130     23  2.300                                             
     2     -4.0817478     23  2.300                                             
     2      0.4464412     23  2.300                                             
  local pseudopotential read in
  partial core-charges read in
  partial kinetic energy density read in
  atomic valenz-charges read in
  non local Contribution for L=           0  read in
    real space projection operators read in
  non local Contribution for L=           0  read in
    real space projection operators read in
  non local Contribution for L=           1  read in
    real space projection operators read in
  non local Contribution for L=           1  read in
    real space projection operators read in
  non local Contribution for L=           2  read in
    real space projection operators read in
  non local Contribution for L=           2  read in
    real space projection operators read in
    PAW grid and wavefunctions read in
 
   number of l-projection  operators is LMAX  =           6
   number of lm-projection operators is LMMAX =          18
 
 POTCAR:    PAW_PBE Si 05Jan2001                  
   SHA256 =  79d9987ad8750f624c4d6acb2a16d13abf6a777132adc04dc6c8399be72b42bb Si
   COPYR  = (c) Copyright 05Jan2001 Georg Kresse                                
   COPYR  = This file is part of the software VASP. Any use, copying, and all ot
   COPYR  = If you do not have a valid VASP license, you may not use, copy or di
   VRHFIN =Si: s2p2                                                             
   LEXCH  = PE                                                                  
   EATOM  =   103.0669 eV,    7.5752 Ry                                         
                                                                                
   TITEL  = PAW_PBE Si 05Jan2001                                                
   LULTRA =        F    use ultrasoft PP ?                                      
   IUNSCR =        1    unscreen: 0-lin 1-nonlin 2-no                           
   RPACOR =    1.500    partial core radius                                     
   POMASS =   28.085; ZVAL   =    4.000    mass and valenz                      
   RCORE  =    1.900    outmost cutoff radius                                   
   RWIGS  =    2.480; RWIGS  =    1.312    wigner-seitz radius (au A)           
   ENMAX  =  245.345; ENMIN  =  184.009 eV                                      
   ICORE  =        2    local potential                                         
   LCOR   =        T    correct aug charges                                     
   LPAW   =        T    paw PP                                                  
   EAUG   =  322.069                                                            
   DEXC   =    0.000                                                            
   RMAX   =    1.950    core radius for proj-oper                               
   RAUG   =    1.300    factor for augmentation sphere                          
   RDEP   =    1.993    radius for radial grids                                 
   RDEPT  =    1.837    core radius for aug-charge                              
                                                                                
   Atomic configuration                                                         
    6 entries                                                                   
     n  l   j            E        occ.                                          
     1  0  0.50     -1785.8828   2.0000                                         
     2  0  0.50      -139.4969   2.0000                                         
     2  1  1.50       -95.5546   6.0000                                         
     3  0  0.50       -10.8127   2.0000                                         
     3  1  0.50        -4.0811   2.0000                                         
     3  2  1.50        -4.0817   0.0000                                         
   Description                                                                  
     l       E           TYP  RCUT    TYP  RCUT                                 
     0    -10.8127223     23  1.900                                             
     0     -7.6451159     23  1.900                                             
     1     -4.0811372     23  1.900                                             
     1      2.4879257     23  1.900                                             
     2     -4.0817478      7  1.900                                             
  local pseudopotential read in
  partial core-charges read in
  partial kinetic energy density read in
  atomic valenz-charges read in
  non local Contribution for L=           0  read in
    real space projection operators read in
  non local Contribution for L=           0  read in
    real space projection operators read in
  non local Contribution for L=           1  read in
    real space projection operators read in
  non local Contribution for L=           1  read in
    real space projection operators read in
    PAW grid and wavefunctions read in
 
   number of l-projection  operators is LMAX  =           4
   number of lm-projection operators is LMMAX =           8
 
 POTCAR:    PAW_PBE O 08Apr2002                   
   SHA256 =  818f92134a0a090dccd8ba1447fa70422a3b330e708bb4f08108d8ae51209ddf O/
   COPYR  = (c) Copyright 08Apr2002 Georg Kresse                                
   COPYR  = This file is part of the software VASP. Any use, copying, and all ot
   COPYR  = If you do not have a valid VASP license, you may not use, copy or di
   VRHFIN =O: s2p4                                                              
   LEXCH  = PE                                                                  
   EATOM  =   432.3788 eV,   31.7789 Ry                                         
                                                                                
   TITEL  = PAW_PBE O 08Apr2002                                                 
   LULTRA =        F    use ultrasoft PP ?                                      
   IUNSCR =        1    unscreen: 0-lin 1-nonlin 2-no                           
   RPACOR =    1.200    partial core radius                                     
   POMASS =   16.000; ZVAL   =    6.000    mass and valenz                      
   RCORE  =    1.520    outmost cutoff radius                                   
   RWIGS  =    1.550; RWIGS  =    0.820    wigner-seitz radius (au A)           
   ENMAX  =  400.000; ENMIN  =  300.000 eV                                      
   ICORE  =        2    local potential                                         
   LCOR   =        T    correct aug charges                                     
   LPAW   =        T    paw PP                                                  
   EAUG   =  605.392                                                            
   DEXC   =    0.000                                                            
   RMAX   =    1.553    core radius for proj-oper                               
   RAUG   =    1.300    factor for augmentation sphere                          
   RDEP   =    1.550    radius for radial grids                                 
   RDEPT  =    1.329    core radius for aug-charge                              
                                                                                
   Atomic configuration                                                         
    4 entries                                                                   
     n  l   j            E        occ.                                          
     1  0  0.50      -514.6923   2.0000                                         
     2  0  0.50       -23.9615   2.0000                                         
     2  1  0.50        -9.0305   4.0000                                         
     3  2  1.50        -9.5241   0.0000                                         
   Description                                                                  
     l       E           TYP  RCUT    TYP  RCUT                                 
     0    -23.9615318     23  1.200                                             
     0     -9.5240782     23  1.200                                             
     1     -9.0304911     23  1.520                                             
     1      8.1634956     23  1.520                                             
     2     -9.5240782      7  1.500                                             
  local pseudopotential read in
  partial core-charges read in
  partial kinetic energy density read in
  kinetic energy density of atom read in
  atomic valenz-charges read in
  non local Contribution for L=           0  read in
    real space projection operators read in
  non local Contribution for L=           0  read in
    real space projection operators read in
  non local Contribution for L=           1  read in
    real space projection operators read in
  non local Contribution for L=           1  read in
    real space projection operators read in
    PAW grid and wavefunctions read in
 
   number of l-projection  operators is LMAX  =           4
   number of lm-projection operators is LMMAX =           8
 
 Optimization of the real space projectors (new method)

 maximal supplied QI-value         = 16.25
 optimisation between [QCUT,QGAM] = [ 12.51, 25.03] = [ 43.85,175.40] Ry 
 Optimized for a Real-space Cutoff    1.47 Angstroem

   l    n(q)    QCUT    max X(q) W(low)/X(q) W(high)/X(q)  e(spline) 
   0     11    12.514    11.817    0.25E-04    0.32E-05    0.87E-07
   0     11    12.514     8.461    0.39E-04    0.59E-05    0.18E-06
   1     11    12.514     3.957    0.97E-05    0.57E-05    0.28E-07
   1     11    12.514     4.314    0.42E-04    0.14E-04    0.23E-06
   2     10    12.514    14.565    0.79E-04    0.50E-03    0.16E-05
   2     10    12.514    14.552    0.75E-04    0.48E-03    0.15E-05
 Optimization of the real space projectors (new method)

 maximal supplied QI-value         = 19.84
 optimisation between [QCUT,QGAM] = [ 12.50, 25.00] = [ 43.76,175.03] Ry 
 Optimized for a Real-space Cutoff    1.16 Angstroem

   l    n(q)    QCUT    max X(q) W(low)/X(q) W(high)/X(q)  e(spline) 
   0      9    12.501   159.560    0.10E-03    0.83E-04    0.71E-07
   0      9    12.501   115.863    0.99E-04    0.81E-04    0.70E-07
   1      8    12.501    88.339    0.20E-03    0.25E-03    0.76E-07
   1      8    12.501    48.592    0.20E-03    0.24E-03    0.75E-07
 Optimization of the real space projectors (new method)

 maximal supplied QI-value         = 24.76
 optimisation between [QCUT,QGAM] = [ 12.38, 25.00] = [ 42.90,175.06] Ry 
 Optimized for a Real-space Cutoff    1.16 Angstroem

   l    n(q)    QCUT    max X(q) W(low)/X(q) W(high)/X(q)  e(spline) 
   0      9    12.378    20.381    0.16E-03    0.67E-05    0.31E-06
   0      9    12.378    15.268    0.17E-03    0.81E-05    0.33E-06
   1      8    12.378     5.964    0.20E-03    0.16E-03    0.30E-06
   1      8    12.378     5.382    0.18E-03    0.14E-03    0.26E-06
  PAW_PBE Ca_sv 06Sep2000               :
 energy of atom  1       EATOM=-1006.0909
 kinetic energy error for atom=    0.0012 (will be added to EATOM!!)
  PAW_PBE Si 05Jan2001                  :
 energy of atom  2       EATOM= -103.0669
 kinetic energy error for atom=    0.0003 (will be added to EATOM!!)
  PAW_PBE O 08Apr2002                   :
 energy of atom  3       EATOM= -432.3788
 kinetic energy error for atom=    0.0168 (will be added to EATOM!!)
 
 
 POSCAR: Ca Si  O                                
  positions in direct lattice
  No initial velocities read in
 exchange correlation table for  LEXCH =        8
   RHO(1)=    0.500       N(1)  =     2000
   RHO(2)=  100.500       N(2)  =     4000
 


--------------------------------------------------------------------------------------------------------


 ion  position               nearest neighbor table
   1  0.689  0.365  0.399-  83 2.17  89 2.29  79 2.40  42 2.81
   2  0.852  0.110  0.376-  75 2.37  72 2.42 101 2.53  36 2.91
   3  0.716  0.363  0.730- 112 2.28  98 2.43 127 2.48  48 2.86  47 3.08  30 3.13
   4  0.203  0.455  0.171- 129 2.21  56 2.25
   5  0.304  0.409  0.855-  73 2.08 115 2.22  81 2.23  56 2.48  59 2.51  30 2.70  51 2.79
   6  0.908  0.867  0.703- 122 2.04 102 2.06 118 2.36  45 2.92  49 3.13
   7  0.887  0.458  0.193-  94 2.08 107 2.14
   8  0.376  0.717  0.344-  80 2.34  66 2.43  52 2.94  34 3.14
   9  0.567  0.709  0.144-  82 2.22  80 2.37
  10  0.487  0.140  0.435- 132 2.17 108 2.19  70 2.32  57 2.51  46 2.80  34 2.94
  11  0.135  0.002  0.658- 124 2.00  74 2.26  33 2.94  45 3.03  39 3.06
  12  0.910  0.777  0.426- 121 2.25 122 2.32 100 2.38  60 2.49  50 3.08
  13  0.318  0.316  0.577-  71 2.37  32 2.80  39 2.95
  14  0.672  0.823  0.789-  95 1.98 111 2.18 116 2.23 102 2.54  31 3.05  22 3.15
  15  0.906  0.965  0.028-  97 2.28 104 2.30  58 2.38  31 2.89  36 3.10
  16  0.962  0.191  0.091- 101 1.90 117 2.24 123 2.30 104 2.35
  17  0.502  0.261  0.990- 131 2.28  65 2.33  67 2.34  90 2.44 112 2.49 115 2.54  27 3.12
  18  0.894  0.547  0.657-  92 2.13  60 2.38 126 2.50  50 3.01
  19  0.166  0.915  0.395- 130 2.13
  20  0.197  0.837  0.966-  99 2.30  87 2.52
  21  0.834  0.652  0.908- 119 1.99 126 2.22 135 2.24
  22  0.745  0.044  0.831-  95 2.06 102 2.34 109 2.35  53 2.89  14 3.15
  23  0.330  0.734  0.706-  86 2.48  54 3.15
  24  0.624  0.645  0.528- 116 2.25  68 2.32  98 2.37  83 2.39  48 2.89
  25  0.080  0.384  0.463-  93 2.14  91 2.45 133 2.46  39 3.14
  26  0.548  0.174  0.726-  57 2.18 109 2.23 112 2.30  55 2.56  47 2.91
  27  0.501  0.042  0.076-  90 2.03 131 2.44  46 2.86  53 2.99  17 3.12
  28  0.054  0.677  0.808- 135 1.55  92 1.61 114 1.64 103 2.04  45 2.90
  29  0.730  0.615  0.304-  63 1.59 107 1.71 105 1.80  83 2.12  50 2.39
  30  0.501  0.417  0.809- 128 1.50 115 1.56  59 1.61 112 1.95   5 2.70  48 2.93   3 3.13
  31  0.716  0.861  0.011-  97 1.59  82 1.62  95 1.68 110 2.17  15 2.89  14 3.05
  32  0.161  0.270  0.709-  73 1.57 120 1.60 113 1.67  71 1.78  13 2.80  39 3.04
  33  0.060  0.097  0.842- 117 1.64 118 1.79 120 1.88  76 2.05  11 2.94
  34  0.435  0.945  0.344- 130 1.56 134 1.64 108 1.78 132 1.88  10 2.94  37 2.98  46 3.10   8 3.14

  35  0.461  0.370  0.293-  62 1.57  70 1.66  61 1.72  89 1.83  46 3.07
  36  0.987  0.002  0.243-  58 1.60  75 1.69  84 1.71 101 1.79   2 2.91  15 3.10
  37  0.506  0.888  0.549-  96 1.65 125 1.65  68 1.70 108 1.80  34 2.98
  38  0.218  0.603  0.522-  86 1.50 106 1.79  77 1.81  93 1.91
  39  0.169  0.170  0.505- 113 1.64  88 1.64  91 1.80 124 1.82  13 2.95  43 2.99  32 3.04  11 3.06
                            25 3.14
  40  0.923  0.415  0.931- 123 1.52 127 1.73 119 1.82
  41  0.126  0.653  0.299- 100 1.62  77 1.65 129 1.71  66 1.77
  42  0.687  0.279  0.206-  94 1.59  78 1.62  89 1.68  67 1.79   1 2.81  53 3.14
  43  0.187  0.180  0.281-  64 1.58  85 1.70  91 1.77  84 2.01  39 2.99  46 3.08
  44  0.314  0.118  0.816-  76 1.57  55 1.60  65 1.64  71 1.93  54 3.09
  45  0.092  0.781  0.621- 106 1.59 122 1.68  74 1.71 103 2.08  28 2.90   6 2.92  11 3.03
  46  0.412  0.151  0.238-  90 1.41 132 1.62  70 1.67  85 1.76  10 2.80  27 2.86  35 3.07  43 3.08
                            34 3.10
  47  0.709  0.187  0.579- 109 1.57  79 1.64  57 1.73  72 1.82  26 2.91   3 3.08
  48  0.643  0.565  0.729- 128 1.63  98 1.68 126 1.72 116 1.77   3 2.86  24 2.89  30 2.93
  49  0.735  0.948  0.565- 121 1.53 125 1.61 102 1.73  72 1.78   6 3.13
  50  0.834  0.559  0.439- 105 1.60  83 1.67 133 1.67  60 1.70  29 2.39  18 3.01  12 3.08
  51  0.214  0.572  0.951-  56 1.54  81 1.61  69 1.64 114 1.83   5 2.79
  52  0.320  0.698  0.131-  69 1.60  99 1.64  80 1.65  66 1.86   8 2.94
  53  0.704  0.125  0.028- 131 1.67 104 1.72 110 1.72  67 1.79  22 2.89  27 2.99  42 3.14
  54  0.441  0.926  0.788- 111 1.63  87 1.67  96 1.78  55 1.78  44 3.09  23 3.15
  55  0.404  0.053  0.769-  44 1.60  54 1.78  26 2.56
  56  0.205  0.469  0.002-  51 1.54   4 2.25   5 2.48
  57  0.584  0.223  0.573-  47 1.73  26 2.18  10 2.51
  58  0.971  0.900  0.182-  36 1.60  15 2.38
  59  0.435  0.346  0.735-  30 1.61   5 2.51
  60  0.821  0.649  0.529-  50 1.70  18 2.38  12 2.49
  61  0.494  0.430  0.403-  35 1.72
  62  0.396  0.409  0.202-  35 1.57
  63  0.630  0.672  0.333-  29 1.59
  64  0.146  0.249  0.193-  43 1.58
  65  0.372  0.192  0.896-  44 1.64  17 2.33
  66  0.228  0.711  0.236-  41 1.77  52 1.86   8 2.43
  67  0.638  0.222  0.095-  42 1.79  53 1.79  17 2.34
  68  0.510  0.772  0.494-  37 1.70  24 2.32
  69  0.269  0.635  0.042-  52 1.60  51 1.64
  70  0.430  0.251  0.313-  35 1.66  46 1.67  10 2.32
  71  0.273  0.198  0.702-  32 1.78  44 1.93  13 2.37
  72  0.739  0.071  0.513-  49 1.78  47 1.82   2 2.42
  73  0.195  0.377  0.748-  32 1.57   5 2.08
  74  0.198  0.852  0.609-  45 1.71  11 2.26
  75  0.973  0.981  0.368-  36 1.69   2 2.37
  76  0.212  0.096  0.869-  44 1.57  33 2.05
  77  0.192  0.599  0.389-  41 1.65  38 1.81
  78  0.703  0.170  0.258-  42 1.62
  79  0.782  0.263  0.516-  47 1.64   1 2.40
  80  0.410  0.638  0.190-  52 1.65   8 2.34   9 2.37
  81  0.262  0.571  0.840-  51 1.61   5 2.23
  82  0.615  0.793  0.008-  31 1.62   9 2.22
  83  0.714  0.523  0.432-  50 1.67  29 2.12   1 2.17  24 2.39
  84  0.100  0.057  0.267-  36 1.71  43 2.01
  85  0.302  0.134  0.309-  43 1.70  46 1.76
  86  0.323  0.635  0.548-  38 1.50  23 2.48
  87  0.349  0.893  0.868-  54 1.67  20 2.52
  88  0.279  0.116  0.522-  39 1.64
  89  0.591  0.342  0.260-  42 1.68  35 1.83   1 2.29
  90  0.444  0.170  0.139-  46 1.41  27 2.03  17 2.44
  91  0.120  0.220  0.389-  43 1.77  39 1.80  25 2.45
  92  0.032  0.611  0.709-  28 1.61  18 2.13
  93  0.192  0.465  0.545-  38 1.91  25 2.14
  94  0.787  0.339  0.179-  42 1.59   7 2.08
  95  0.741  0.902  0.894-  31 1.68  14 1.98  22 2.06
  96  0.452  0.889  0.660-  37 1.65  54 1.78
  97  0.823  0.815  0.032-  31 1.59  15 2.28
  98  0.653  0.497  0.623-  48 1.68  24 2.37   3 2.43
  99  0.330  0.804  0.070-  52 1.64  20 2.30
 100  0.065  0.750  0.341-  41 1.62  12 2.38
 101  0.918  0.108  0.199-  36 1.79  16 1.90   2 2.53
 102  0.776  0.946  0.689-  49 1.73   6 2.06  22 2.34  14 2.54
 103  0.116  0.812  0.772-  28 2.04  45 2.08
 104  0.830  0.117  1.000-  53 1.72  15 2.30  16 2.35
 105  0.862  0.597  0.329-  50 1.60  29 1.80
 106  0.116  0.680  0.561-  45 1.59  38 1.79
 107  0.747  0.537  0.203-  29 1.71   7 2.14
 108  0.513  0.978  0.448-  34 1.78  37 1.80  10 2.19
 109  0.706  0.138  0.686-  47 1.57  26 2.23  22 2.35
 110  0.710  0.008  0.081-  53 1.72  31 2.17
 111  0.560  0.939  0.815-  54 1.63  14 2.18
 112  0.591  0.303  0.832-  30 1.95   3 2.28  26 2.30  17 2.49
 113  0.124  0.243  0.593-  39 1.64  32 1.67
 114  0.110  0.654  0.916-  28 1.64  51 1.83
 115  0.457  0.431  0.917-  30 1.56   5 2.22  17 2.54
 116  0.657  0.691  0.687-  48 1.77  14 2.23  24 2.25
 117  0.044  0.120  0.962-  33 1.64  16 2.24
 118  0.991  0.990  0.801-  33 1.79   6 2.36
 119  0.891  0.536  0.984-  40 1.82  21 1.99
 120  0.070  0.215  0.766-  32 1.60  33 1.88
 121  0.819  0.883  0.521-  49 1.53  12 2.25
 122  0.984  0.827  0.576-  45 1.68   6 2.04  12 2.32
 123  0.953  0.310  0.966-  40 1.52  16 2.30
 124  0.087  0.062  0.528-  39 1.82  11 2.00
 125  0.618  0.928  0.583-  49 1.61  37 1.65
 126  0.760  0.567  0.786-  48 1.72  21 2.22  18 2.50
 127  0.881  0.389  0.811-  40 1.73   3 2.48
 128  0.541  0.517  0.776-  30 1.50  48 1.63
 129  0.087  0.540  0.253-  41 1.71   4 2.21
 130  0.319  0.928  0.352-  34 1.56  19 2.13
 131  0.604  0.129  0.952-  53 1.67  17 2.28  27 2.44
 132  0.482  0.066  0.289-  46 1.62  34 1.88  10 2.17
 133  0.913  0.464  0.463-  50 1.67  25 2.46
 134  0.486  0.861  0.271-  34 1.64
 135  0.961  0.739  0.839-  28 1.55  21 2.24
 

IMPORTANT INFORMATION: All symmetrisations will be switched off!
NOSYMM: (Re-)initialisation of all symmetry stuff for point group C_1.

 
 

Automatic generation of k-mesh.
 generate k-points for:    2    2    2
Space group operators:
 irot       det(A)        alpha          n_x          n_y          n_z        tau_x        tau_y        tau_z
    1     1.000000     0.000001     1.000000     0.000000     0.000000     0.000000     0.000000     0.000000
 
 Subroutine IBZKPT returns following result:
 ===========================================
 
 Found      8 irreducible k-points:
 
 Following reciprocal coordinates:
            Coordinates               Weight
  0.000000  0.000000  0.000000      1.000000
  0.500000  0.000000  0.000000      1.000000
  0.000000  0.500000  0.000000      1.000000
  0.500000  0.500000  0.000000      1.000000
  0.000000  0.000000  0.500000      1.000000
  0.500000  0.000000  0.500000      1.000000
  0.000000  0.500000  0.500000      1.000000
  0.500000  0.500000  0.500000      1.000000
 
 Following cartesian coordinates:
            Coordinates               Weight
  0.000000  0.000000  0.000000      1.000000
  0.037563  0.000000  0.000000      1.000000
  0.000000  0.037563  0.000000      1.000000
  0.037563  0.037563  0.000000      1.000000
  0.000000  0.000000  0.037563      1.000000
  0.037563  0.000000  0.037563      1.000000
  0.000000  0.037563  0.037563      1.000000
  0.037563  0.037563  0.037563      1.000000
 


--------------------------------------------------------------------------------------------------------




 Dimension of arrays:
   k-points           NKPTS =      8   k-points in BZ     NKDIM =      8   number of bands    NBANDS=    520
   number of dos      NEDOS =    301   number of ions     NIONS =    135
   non local maximal  LDIM  =      6   non local SUM 2l+1 LMDIM =     18
   total plane-waves  NPLWV = ******
   max r-space proj   IRMAX =   7167   max aug-charges    IRDMAX= 204049
   dimension x,y,z NGX =   108 NGY =  108 NGZ =  108
   dimension x,y,z NGXF=   216 NGYF=  216 NGZF=  216
   support grid    NGXF=   432 NGYF=  432 NGZF=  432
   ions per type =              27  27  81
   NGX,Y,Z   is equivalent  to a cutoff of  13.49, 13.49, 13.49 a.u.
   NGXF,Y,Z  is equivalent  to a cutoff of  26.98, 26.98, 26.98 a.u.

 SYSTEM =  unknown system                          
 POSCAR =  Ca Si  O                                

 Startparameter for this run:
   NWRITE =      2    write-flag & timer
   PREC   = a         normal or accurate (medium, high low for compatibility)
   ISTART =      0    job   : 0-new  1-cont  2-samecut
   ICHARG =      2    charge: 1-file 2-atom 10-const
   ISPIN  =      1    spin polarized calculation?
   LNONCOLLINEAR =      F non collinear calculations
   LSORBIT =      F    spin-orbit coupling
   INIWAV =      1    electr: 0-lowe 1-rand  2-diag
   LASPH  =      F    aspherical Exc in radial PAW
   METAGGA=      F    non-selfconsistent MetaGGA calc.

 Electronic Relaxation 1
   ENCUT  =  600.0 eV  44.10 Ry    6.64 a.u.  26.59 26.59 26.59*2*pi/ulx,y,z
   ENINI  =  600.0     initial cutoff
   ENAUG  =  605.4 eV  augmentation charge cutoff
   NELM   =     60;   NELMIN=  2; NELMDL= -5     # of ELM steps 
   EDIFF  = 0.1E-05   stopping-criterion for ELM
   LREAL  =      T    real-space projection
   NLSPLINE    = F    spline interpolate recip. space projectors
   LCOMPAT=      F    compatible to vasp.4.4
   GGA_COMPAT  = T    GGA compatible to vasp.4.4-vasp.4.6
   LMAXPAW     = -100 max onsite density
   LMAXMIX     =    2 max onsite mixed and CHGCAR
   VOSKOWN=      0    Vosko Wilk Nusair interpolation
   ROPT   =   -0.00025  -0.00025  -0.00025
 Ionic relaxation
   EDIFFG = -.1E-01   stopping-criterion for IOM
   NSW    =      1    number of steps for IOM
   NBLOCK =      1;   KBLOCK =      1    inner block; outer block 
   IBRION =     -1    ionic relax: 0-MD 1-quasi-New 2-CG
   NFREE  =      0    steps in history (QN), initial steepest desc. (CG)
   ISIF   =      2    stress and relaxation
   IWAVPR =     10    prediction:  0-non 1-charg 2-wave 3-comb
   ISYM   =      0    0-nonsym 1-usesym 2-fastsym
   LCORR  =      T    Harris-Foulkes like correction to forces

   POTIM  = 1.0000    time-step for ionic-motion
   TEIN   =    0.0    initial temperature
   TEBEG  =    0.0;   TEEND  =   0.0 temperature during run
   SMASS  =  -3.00    Nose mass-parameter (am)
   estimated Nose-frequenzy (Omega)   =  0.10E-29 period in steps =****** mass=  -0.405E-26a.u.
   SCALEE = 1.0000    scale energy and forces
   NPACO  =    256;   APACO  = 16.0  distance and # of slots for P.C.
   PSTRESS=    0.0 pullay stress

  Mass of Ions in am
   POMASS =  40.08 28.09 16.00
  Ionic Valenz
   ZVAL   =  10.00  4.00  6.00
  Atomic Wigner-Seitz radii
   RWIGS  =  -1.00 -1.00 -1.00
  virtual crystal weights 
   VCA    =   1.00  1.00  1.00
   NELECT =     864.0000    total number of electrons
   NUPDOWN=      -1.0000    fix difference up-down

 DOS related values:
   EMIN   =  10.00;   EMAX   =-10.00  energy-range for DOS
   EFERMI =   0.00
   ISMEAR =     0;   SIGMA  =   0.05  broadening in eV -4-tet -1-fermi 0-gaus

 Electronic relaxation 2 (details)
   IALGO  =     38    algorithm
   LDIAG  =      T    sub-space diagonalisation (order eigenvalues)
   LSUBROT=      F    optimize rotation matrix (better conditioning)
   TURBO    =      0    0=normal 1=particle mesh
   IRESTART =      0    0=no restart 2=restart with 2 vectors
   NREBOOT  =      0    no. of reboots
   NMIN     =      0    reboot dimension
   EREF     =   0.00    reference energy to select bands
   IMIX   =      4    mixing-type and parameters
     AMIX     =   0.40;   BMIX     =  1.00
     AMIX_MAG =   1.60;   BMIX_MAG =  1.00
     AMIN     =   0.10
     WC   =   100.;   INIMIX=   1;  MIXPRE=   1;  MAXMIX= -45

 Intra band minimization:
   WEIMIN = 0.0000     energy-eigenvalue tresh-hold
   EBREAK =  0.48E-09  absolut break condition
   DEPER  =   0.30     relativ break condition  

   TIME   =   0.40     timestep for ELM

  volume/ion in A,a.u.               =      17.47       117.89
  Fermi-wavevector in a.u.,A,eV,Ry     =   1.171397  2.213620 18.669524  1.372171
  Thomas-Fermi vector in A             =   2.307841
 
 Write flags
   LWAVE        =      F    write WAVECAR
   LDOWNSAMPLE  =      F    k-point downsampling of WAVECAR
   LCHARG       =      F    write CHGCAR
   LVTOT        =      F    write LOCPOT, total local potential
   LVHAR        =      F    write LOCPOT, Hartree potential only
   LELF         =      F    write electronic localiz. function (ELF)
   LORBIT       =      0    0 simple, 1 ext, 2 COOP (PROOUT), +10 PAW based schemes


 Dipole corrections
   LMONO  =      F    monopole corrections only (constant potential shift)
   LDIPOL =      F    correct potential (dipole corrections)
   IDIPOL =      0    1-x, 2-y, 3-z, 4-all directions 
   EPSILON=  1.0000000 bulk dielectric constant

 Exchange correlation treatment:
   GGA     =    --    GGA type
   LEXCH   =     8    internal setting for exchange type
   VOSKOWN=      0    Vosko Wilk Nusair interpolation
   LHFCALC =     F    Hartree Fock is set to
   LHFONE  =     F    Hartree Fock one center treatment
   AEXX    =    0.0000 exact exchange contribution

 Linear response parameters
   LEPSILON=     F    determine dielectric tensor
   LRPA    =     F    only Hartree local field effects (RPA)
   LNABLA  =     F    use nabla operator in PAW spheres
   LVEL    =     F    velocity operator in full k-point grid
   LINTERFAST=   F  fast interpolation
   KINTER  =     0    interpolate to denser k-point grid
   CSHIFT  =0.1000    complex shift for real part using Kramers Kronig
   OMEGAMAX=  -1.0    maximum frequency
   DEG_THRESHOLD= 0.2000000E-02 threshold for treating states as degnerate
   RTIME   =   -0.100 relaxation time in fs
  (WPLASMAI=    0.000 imaginary part of plasma frequency in eV, 0.658/RTIME)
   DFIELD  = 0.0000000 0.0000000 0.0000000 field for delta impulse in time
 
 Orbital magnetization related:
   ORBITALMAG=     F  switch on orbital magnetization
   LCHIMAG   =     F  perturbation theory with respect to B field
   DQ        =  0.001000  dq finite difference perturbation B field
   LLRAUG    =     F  two centre corrections for induced B field



--------------------------------------------------------------------------------------------------------


 Static calculation
 charge density and potential will be updated during run
 non-spin polarized calculation
 Variant of blocked Davidson
 Davidson routine will perform the subspace rotation
 perform sub-space diagonalisation
    after iterative eigenvector-optimisation
 modified Broyden-mixing scheme, WC =      100.0
 initial mixing is a Kerker type mixing with AMIX =  0.4000 and BMIX =      1.0000
 Hartree-type preconditioning will be used
 using additional bands           88
 real space projection scheme for non local part
 use partial core corrections
 calculate Harris-corrections to forces 
   (improved forces if not selfconsistent)
 use gradient corrections 
 use of overlap-Matrix (Vanderbilt PP)
 Gauss-broadening in eV      SIGMA  =   0.05


--------------------------------------------------------------------------------------------------------


  energy-cutoff  :      600.00
  volume of cell :     2358.44
      direct lattice vectors                 reciprocal lattice vectors
    13.310935620  0.000000000  0.000000000     0.075126199  0.000000000  0.000000000
     0.000000000 13.310935620  0.000000000     0.000000000  0.075126199  0.000000000
     0.000000000  0.000000000 13.310935620     0.000000000  0.000000000  0.075126199

  length of vectors
    13.310935620 13.310935620 13.310935620     0.075126199  0.075126199  0.075126199


 
 k-points in units of 2pi/SCALE and weight: read from INCAR                         
   0.00000000  0.00000000  0.00000000       0.125
   0.03756310  0.00000000  0.00000000       0.125
   0.00000000  0.03756310  0.00000000       0.125
   0.03756310  0.03756310  0.00000000       0.125
   0.00000000  0.00000000  0.03756310       0.125
   0.03756310  0.00000000  0.03756310       0.125
   0.00000000  0.03756310  0.03756310       0.125
   0.03756310  0.03756310  0.03756310       0.125
 
 k-points in reciprocal lattice and weights: read from INCAR                         
   0.00000000  0.00000000  0.00000000       0.125
   0.50000000  0.00000000  0.00000000       0.125
   0.00000000  0.50000000  0.00000000       0.125
   0.50000000  0.50000000  0.00000000       0.125
   0.00000000  0.00000000  0.50000000       0.125
   0.50000000  0.00000000  0.50000000       0.125
   0.00000000  0.50000000  0.50000000       0.125
   0.50000000  0.50000000  0.50000000       0.125
 
 position of ions in fractional coordinates (direct lattice) 
   0.68920800  0.36487079  0.39917848
   0.85155606  0.11030751  0.37619386
   0.71557970  0.36253774  0.72990264
   0.20335969  0.45451779  0.17072607
   0.30384570  0.40948045  0.85544637
   0.90781949  0.86660216  0.70283915
   0.88711825  0.45815804  0.19291463
   0.37564231  0.71691253  0.34387096
   0.56699710  0.70871476  0.14389982
   0.48687972  0.13970821  0.43463723
   0.13495420  0.00195455  0.65758088
   0.90980232  0.77732401  0.42615677
   0.31821725  0.31629600  0.57734538
   0.67174736  0.82274724  0.78904005
   0.90581203  0.96457428  0.02818648
   0.96163869  0.19146052  0.09078866
   0.50175320  0.26077278  0.99039002
   0.89439072  0.54747762  0.65659386
   0.16552529  0.91451785  0.39513082
   0.19695974  0.83681356  0.96573546
   0.83437190  0.65205243  0.90795947
   0.74472665  0.04418950  0.83102327
   0.33048545  0.73350086  0.70581014
   0.62377273  0.64468716  0.52823635
   0.07988295  0.38397233  0.46336806
   0.54761679  0.17408404  0.72568118
   0.50105097  0.04245557  0.07608965
   0.05410478  0.67736703  0.80814160
   0.73030751  0.61471420  0.30375181
   0.50077899  0.41668181  0.80854372
   0.71564216  0.86082420  0.01056009
   0.16123432  0.27021678  0.70916606
   0.05963113  0.09720884  0.84227418
   0.43468070  0.94549091  0.34415826
   0.46078812  0.37035054  0.29263209
   0.98714072  0.00162468  0.24332238
   0.50593114  0.88764382  0.54864761
   0.21820168  0.60338070  0.52181497
   0.16862311  0.16970836  0.50454980
   0.92303931  0.41456188  0.93115257
   0.12569497  0.65340750  0.29882268
   0.68685121  0.27930672  0.20594776
   0.18656215  0.18027297  0.28106922
   0.31443728  0.11839276  0.81554401
   0.09211583  0.78118108  0.62082346
   0.41205213  0.15134106  0.23828426
   0.70893155  0.18675699  0.57904453
   0.64335942  0.56478750  0.72921922
   0.73520257  0.94800295  0.56494412
   0.83414150  0.55881068  0.43906178
   0.21401796  0.57240040  0.95125378
   0.31964035  0.69825723  0.13097041
   0.70418634  0.12524070  0.02825474
   0.44062483  0.92592586  0.78790808
   0.40404452  0.05326660  0.76931495
   0.20476826  0.46861625  0.00206496
   0.58399423  0.22307026  0.57349655
   0.97077896  0.90016954  0.18168369
   0.43487913  0.34637898  0.73538160
   0.82092849  0.64890819  0.52898548
   0.49397363  0.43029587  0.40251456
   0.39552196  0.40948181  0.20206360
   0.62960279  0.67248662  0.33256771
   0.14592269  0.24887316  0.19326044
   0.37151036  0.19210731  0.89622536
   0.22832902  0.71074526  0.23596207
   0.63756455  0.22151658  0.09499521
   0.51007744  0.77212314  0.49412292
   0.26899020  0.63467178  0.04238555
   0.43013838  0.25099661  0.31273788
   0.27318524  0.19777749  0.70182127
   0.73868232  0.07081345  0.51294224
   0.19457081  0.37679078  0.74818859
   0.19846479  0.85211108  0.60935215
   0.97289719  0.98057033  0.36763761
   0.21156055  0.09614185  0.86857238
   0.19202454  0.59893138  0.38868752
   0.70262075  0.17033414  0.25843632
   0.78191548  0.26321118  0.51568165
   0.41002802  0.63772922  0.19032159
   0.26197115  0.57087195  0.84028297
   0.61477553  0.79293036  0.00834999
   0.71394459  0.52268417  0.43227262
   0.10035481  0.05738517  0.26655078
   0.30186271  0.13362049  0.30864252
   0.32349640  0.63468940  0.54819712
   0.34935649  0.89316006  0.86791333
   0.27856800  0.11643051  0.52227727
   0.59146386  0.34184068  0.25954716
   0.44443457  0.16958364  0.13917125
   0.11983053  0.22028191  0.38914619
   0.03181563  0.61092976  0.70930277
   0.19166053  0.46464718  0.54546816
   0.78691925  0.33901664  0.17859764
   0.74061686  0.90249222  0.89393795
   0.45235161  0.88850009  0.66003566
   0.82323923  0.81451426  0.03209552
   0.65309583  0.49716496  0.62307694
   0.33046662  0.80445542  0.06996330
   0.06462113  0.74972633  0.34142352
   0.91837715  0.10829289  0.19862465
   0.77607475  0.94635812  0.68850105
   0.11610075  0.81241221  0.77214690
   0.82970511  0.11705606  0.99982230
   0.86166240  0.59667156  0.32861967
   0.11567147  0.68024358  0.56136616
   0.74731475  0.53651370  0.20333031
   0.51273900  0.97808844  0.44794679
   0.70621646  0.13785188  0.68600383
   0.71031199  0.00759886  0.08141168
   0.55951999  0.93889256  0.81464485
   0.59121481  0.30346810  0.83177317
   0.12417757  0.24330853  0.59258669
   0.10969314  0.65391164  0.91553687
   0.45722235  0.43087303  0.91661099
   0.65709294  0.69054564  0.68726566
   0.04384092  0.12040266  0.96243424
   0.99070982  0.98950738  0.80060109
   0.89077798  0.53643912  0.98448834
   0.07006465  0.21537774  0.76559568
   0.81919917  0.88331449  0.52105019
   0.98351028  0.82745327  0.57568740
   0.95312416  0.31006738  0.96560066
   0.08717081  0.06210925  0.52813669
   0.61753355  0.92817629  0.58311230
   0.75960560  0.56667940  0.78584573
   0.88124095  0.38944326  0.81105410
   0.54121453  0.51709081  0.77645511
   0.08723759  0.53994332  0.25306614
   0.31885805  0.92829528  0.35184709
   0.60438040  0.12922886  0.95209351
   0.48247270  0.06640599  0.28907804
   0.91338243  0.46420581  0.46335181
   0.48587208  0.86094583  0.27077942
   0.96054755  0.73905030  0.83871287
 
 position of ions in cartesian coordinates  (Angst):
   9.17400327  4.85677162  5.31343907
  11.33500790  1.46829613  5.00749219
   9.52503529  4.82571657  9.71568710
   2.70690778  6.05005699  2.27252372
   4.04447053  5.45056785 11.38679156
  12.08392672 11.53528553  9.35544666
  11.80837385  6.09851215  2.56787418
   5.00015065  9.54277653  4.57724424
   7.54726193  9.43365657  1.91544130
   6.48082460  1.85964698  5.78542816
   1.79636672  0.02601694  8.75301679
  12.11032017 10.34690984  5.67254537
   4.23576928  4.21019571  7.68500714
   8.94158584 10.95153559 10.50286137
  12.05720566 12.83938619  0.37518836
  12.80031067  2.54851861  1.20848206
   6.67880454  3.47112973 13.18301773
  11.90517724  7.28743937  8.73987864
   2.20329652 12.17308820  5.25956092
   2.62171840 11.13877136 12.85484248
  11.10627068  8.67942788 12.08579008
   9.91300854  0.58820363 11.06169728
   4.39907055  9.76358272  9.39499333
   8.30299870  8.58138934  7.03132003
   1.06331684  5.11103096  6.16786244
   7.28929181  2.31722148  9.65949553
   6.66945719  0.56512338  1.01282443
   0.72018523  9.01638896 10.75712080
   9.72107630  8.18242116  4.04322075
   6.66583694  5.54642478 10.76247344
   9.52586672 11.45837545  0.14056467
   2.14617962  3.59683822  9.43966375
   0.79374619  1.29394056 11.21145739
   5.78600675 12.58536867  4.58106846
   6.13352102  4.92971217  3.89520697
  13.13976659  0.02162597  3.23884858
   6.73441679 11.81536971  7.30301304
   2.90446851  8.03156162  6.94584551
   2.24453140  2.25897699  6.71602996
  12.28651687  5.51820647 12.39451193
   1.67311767  8.69746521  3.97760939
   9.14263218  3.71783373  2.74135732
   2.48331680  2.39960191  3.74129423
   4.18545445  1.57591841 10.85565380
   1.22614782 10.39825102  8.26374115
   5.48479931  2.01449105  3.17178651
   9.43654217  2.48591027  7.70762446
   8.56371587  7.51785003  9.70659012
   9.78623411 12.61880622  7.51993484
  11.10320387  7.43829302  5.84432308
   2.84877923  7.61918481 12.66207778
   4.25471211  9.29445701  1.74333863
   9.37337905  1.66707086  0.37609704
   5.86512880 12.32493949 10.48779372
   5.37821063  0.70902822 10.24030175
   2.72565713  6.23772070  0.02748649
   7.77350957  2.96927383  7.63377570
  12.92197622 11.98209880  2.41837990
   5.78864812  4.61062833  9.78861713
  10.92732622  8.63757518  7.04129163
   6.57525113  5.72764057  5.35784541
   5.26476735  5.45058604  2.68965554
   8.38060216  8.95142616  4.42678742
   1.94236747  3.31273461  2.57247721
   4.94515044  2.55712810 11.92959806
   3.03927286  9.46068436  3.14087598
   8.48658072  2.94859289  1.26447509
   6.78960793 10.27768145  6.57723844
   3.58051128  8.44807518  0.56419137
   5.72554426  3.34099972  4.16283383
   3.63635117  2.63260338  9.34189777
   9.83255279  0.94259329  6.82774116
   2.58991958  5.01543779  9.95909017
   2.64175206 11.34239574  8.11104724
  12.95017186 13.05230856  4.89360056
   2.81606891  1.27973797 11.56151103
   2.55602632  7.97233708  5.17379456
   9.35253954  2.26730676  3.44002919
  10.40802668  3.50358704  6.86420522
   5.45785656  8.48877264  2.53335842
   3.48708111  7.59883971 11.18495257
   8.18323747 10.55464498  0.11114617
   9.50327044  6.95741535  5.75395297
   1.33581639  0.76385036  3.54804028
   4.01807513  1.77861372  4.10832070
   4.30603969  8.44830980  7.29701660
   4.65026178 11.88879608 11.55273846
   3.70800073  1.54979898  6.95199911
   7.87293738  4.55021926  3.45481554
   5.91583991  2.25731695  1.85249959
   1.59505650  2.93215831  5.17989988
   0.42349583  8.13204668  9.44148349
   2.55118096  6.18488865  7.26069152
  10.47463152  4.51262872  2.37730170
   9.85830331 12.01301589 11.89915052
   6.02122319 11.82676750  8.78569224
  10.95808439 10.84194682  0.42722144
   8.69331661  6.61773076  8.29373708
   4.39881995 10.70805434  0.93127704
   0.86016767  9.97955893  4.54466644
  12.22445906  1.44147973  2.64387995
  10.33028102 12.59691203  9.16459309
   1.54540963 10.81396660 10.27799764
  11.04415132  1.55812566 13.30857033
  11.46953268  7.94225673  4.37423530
   1.53969555  9.05467846  7.47230887
   9.94745846  7.14149931  2.70651660
   6.82503581 13.01927219  5.96259090
   9.40040185  1.83493756  9.13135281
   9.45491714  0.10114798  1.08366558
   7.44773452 12.49753848 10.84368516
   7.86962234  4.03944440 11.07167915
   1.65291962  3.23866416  7.88788327
   1.46011828  8.70417578 12.18665227
   6.08605728  5.73532316 12.20094985
   8.74652180  9.19180859  9.14814900
   0.58356360  1.60267211 12.81090024
  13.18727467 13.17126908 10.65674951
  11.85708832  7.14050662 13.10446088
   0.93262600  2.86687924 10.19079484
  10.90430743 11.75774227  6.93566552
  13.09144197 11.01417722  7.66293788
  12.68697431  4.12728693 12.85304822
   1.16032507  0.82673225  7.02999347
   8.21994938 12.35489480  7.76177034
  10.11106129  7.54303297 10.46034193
  11.73014151  5.18385413 10.79588886
   7.20407173  6.88296244 10.33534400
   1.16121388  7.18715079  3.36854711
   4.24429899 12.35647865  4.68341392
   8.04486856  1.72015700 12.67325544
   6.42216299  0.88392586  3.84789923
  12.15797474  6.17901366  6.16764607
   6.46741198 11.45999445  3.60432748
  12.78578665  9.83745093 11.16405297
 


--------------------------------------------------------------------------------------------------------


 k-point  1 :   0.0000 0.0000 0.0000  plane waves:   78805
 k-point  2 :   0.5000 0.0000 0.0000  plane waves:   78774
 k-point  3 :   0.0000 0.5000 0.0000  plane waves:   78774
 k-point  4 :   0.5000 0.5000 0.0000  plane waves:   78724
 k-point  5 :   0.0000 0.0000 0.5000  plane waves:   78774
 k-point  6 :   0.5000 0.0000 0.5000  plane waves:   78724
 k-point  7 :   0.0000 0.5000 0.5000  plane waves:   78724
 k-point  8 :   0.5000 0.5000 0.5000  plane waves:   78792

 maximum and minimum number of plane-waves per node :      6631     6484

 maximum number of plane-waves:     78805
 maximum index in each direction: 
   IXMAX=   26   IYMAX=   26   IZMAX=   26
   IXMIN=  -27   IYMIN=  -27   IZMIN=  -27


 real space projection operators:
  total allocation   :      49158.28 KBytes
  max/ min on nodes  :       4151.23       4041.55


 parallel 3D FFT for wavefunctions:
    minimum data exchange during FFTs selected (reduces bandwidth)
 parallel 3D FFT for charge:
    minimum data exchange during FFTs selected (reduces bandwidth)


 total amount of memory used by VASP MPI-rank0   216874. kBytes
=======================================================================

   base      :      30000. kBytes
   nonlr-proj:      21511. kBytes
   fftplans  :      34308. kBytes
   grid      :      19248. kBytes
   one-center:        186. kBytes
   wavefun   :     111621. kBytes
 
     INWAV:  cpu time    0.0000: real time    0.0000
 Broyden mixing: mesh for mixing (old mesh)
   NGX = 53   NGY = 53   NGZ = 53
  (NGX  =216   NGY  =216   NGZ  =216)
  gives a total of 148877 points

 initial charge density was supplied:
 charge density of overlapping atoms calculated
 number of electron     864.0000000 magnetization 
 keeping initial charge density in first step


--------------------------------------------------------------------------------------------------------


 Maximum index for non-local projection operator          654
 Maximum index for augmentation-charges         4592 (set IRDMAX)


--------------------------------------------------------------------------------------------------------


 First call to EWALD:  gamma=   0.133
 Maximum number of real-space cells 3x 3x 3
 Maximum number of reciprocal cells 3x 3x 3

    FEWALD:  cpu time    0.0056: real time    0.0057


--------------------------------------- Iteration      1(   1)  ---------------------------------------


    POTLOK:  cpu time    0.1740: real time    0.1758
    SETDIJ:  cpu time    0.3207: real time    0.3215
     EDDAV:  cpu time   49.9570: real time   50.1582
       DOS:  cpu time    0.0025: real time    0.0025
    --------------------------------------------
      LOOP:  cpu time   50.4543: real time   50.6581

 eigenvalue-minimisations  :  8320
 total energy-change (2. order) : 0.9276815E+04  (-0.4627879E+05)
 number of electron     864.0000000 magnetization 
 augmentation part      864.0000000 magnetization 

 Free energy of the ion-electron system (eV)
  ---------------------------------------------------
  alpha Z        PSCENC =      2026.14881195
  Ewald energy   TEWEN  =    -35358.41026922
  -Hartree energ DENC   =    -25300.32274652
  -exchange      EXHF   =         0.00000000
  -V(xc)+E(xc)   XCENC  =      3131.39739918
  PAW double counting   =     50594.51003143   -49994.65612350
  entropy T*S    EENTRO =        -0.03912237
  eigenvalues    EBANDS =      -790.35336043
  atomic energy  EATOM  =     64968.54023382
  Solvation  Ediel_sol  =         0.00000000
  ---------------------------------------------------
  free energy    TOTEN  =      9276.81485434 eV

  energy without entropy =     9276.85397671  energy(sigma->0) =     9276.83441552


--------------------------------------------------------------------------------------------------------




--------------------------------------- Iteration      1(   2)  ---------------------------------------


     EDDAV:  cpu time   58.3909: real time   58.6013
       DOS:  cpu time    0.0009: real time    0.0009
    --------------------------------------------
      LOOP:  cpu time   58.3919: real time   58.6022

 eigenvalue-minimisations  : 10192
 total energy-change (2. order) :-0.9287306E+04  (-0.9020613E+04)
 number of electron     864.0000000 magnetization 
 augmentation part      864.0000000 magnetization 

 Free energy of the ion-electron system (eV)
  ---------------------------------------------------
  alpha Z        PSCENC =      2026.14881195
  Ewald energy   TEWEN  =    -35358.41026922
  -Hartree energ DENC   =    -25300.32274652
  -exchange      EXHF   =         0.00000000
  -V(xc)+E(xc)   XCENC  =      3131.39739918
  PAW double counting   =     50594.51003143   -49994.65612350
  entropy T*S    EENTRO =        -0.00000000
  eigenvalues    EBANDS =    -10077.69859192
  atomic energy  EATOM  =     64968.54023382
  Solvation  Ediel_sol  =         0.00000000
  ---------------------------------------------------
  free energy    TOTEN  =       -10.49125478 eV

  energy without entropy =      -10.49125478  energy(sigma->0) =      -10.49125478


--------------------------------------------------------------------------------------------------------




--------------------------------------- Iteration      1(   3)  ---------------------------------------


     EDDAV:  cpu time   58.7020: real time   58.9369
       DOS:  cpu time    0.0011: real time    0.0011
    --------------------------------------------
      LOOP:  cpu time   58.7032: real time   58.9380

 eigenvalue-minimisations  : 10280
 total energy-change (2. order) :-0.1026097E+04  (-0.1020264E+04)
 number of electron     864.0000000 magnetization 
 augmentation part      864.0000000 magnetization 

 Free energy of the ion-electron system (eV)
  ---------------------------------------------------
  alpha Z        PSCENC =      2026.14881195
  Ewald energy   TEWEN  =    -35358.41026922
  -Hartree energ DENC   =    -25300.32274652
  -exchange      EXHF   =         0.00000000
  -V(xc)+E(xc)   XCENC  =      3131.39739918
  PAW double counting   =     50594.51003143   -49994.65612350
  entropy T*S    EENTRO =        -0.00000000
  eigenvalues    EBANDS =    -11103.79558799
  atomic energy  EATOM  =     64968.54023382
  Solvation  Ediel_sol  =         0.00000000
  ---------------------------------------------------
  free energy    TOTEN  =     -1036.58825085 eV

  energy without entropy =    -1036.58825085  energy(sigma->0) =    -1036.58825085


--------------------------------------------------------------------------------------------------------




--------------------------------------- Iteration      1(   4)  ---------------------------------------


     EDDAV:  cpu time   61.5057: real time   61.7356
       DOS:  cpu time    0.0010: real time    0.0010
    --------------------------------------------
      LOOP:  cpu time   61.5067: real time   61.7367

 eigenvalue-minimisations  : 10952
 total energy-change (2. order) :-0.4642405E+02  (-0.4626200E+02)
 number of electron     864.0000000 magnetization 
 augmentation part      864.0000000 magnetization 

 Free energy of the ion-electron system (eV)
  ---------------------------------------------------
  alpha Z        PSCENC =      2026.14881195
  Ewald energy   TEWEN  =    -35358.41026922
  -Hartree energ DENC   =    -25300.32274652
  -exchange      EXHF   =         0.00000000
  -V(xc)+E(xc)   XCENC  =      3131.39739918
  PAW double counting   =     50594.51003143   -49994.65612350
  entropy T*S    EENTRO =        -0.00000000
  eigenvalues    EBANDS =    -11150.21963466
  atomic energy  EATOM  =     64968.54023382
  Solvation  Ediel_sol  =         0.00000000
  ---------------------------------------------------
  free energy    TOTEN  =     -1083.01229752 eV

  energy without entropy =    -1083.01229752  energy(sigma->0) =    -1083.01229752


--------------------------------------------------------------------------------------------------------




--------------------------------------- Iteration      1(   5)  ---------------------------------------


     EDDAV:  cpu time   80.9263: real time   81.3822
       DOS:  cpu time    0.0010: real time    0.0010
    CHARGE:  cpu time    2.3942: real time    2.4070
    MIXING:  cpu time    0.0104: real time    0.0105
    --------------------------------------------
      LOOP:  cpu time   83.3320: real time   83.8007

 eigenvalue-minimisations  : 15304
 total energy-change (2. order) :-0.6522768E+01  (-0.6519770E+01)
 number of electron     864.0000007 magnetization 
 augmentation part      133.7085079 magnetization 

 Broyden mixing:
  rms(total) = 0.84812E+01    rms(broyden)= 0.84803E+01
  rms(prec ) = 0.99059E+01
  weight for this iteration     100.00

 Free energy of the ion-electron system (eV)
  ---------------------------------------------------
  alpha Z        PSCENC =      2026.14881195
  Ewald energy   TEWEN  =    -35358.41026922
  -Hartree energ DENC   =    -25300.32274652
  -exchange      EXHF   =         0.00000000
  -V(xc)+E(xc)   XCENC  =      3131.39739918
  PAW double counting   =     50594.51003143   -49994.65612350
  entropy T*S    EENTRO =        -0.00000000
  eigenvalues    EBANDS =    -11156.74240217
  atomic energy  EATOM  =     64968.54023382
  Solvation  Ediel_sol  =         0.00000000
  ---------------------------------------------------
  free energy    TOTEN  =     -1089.53506503 eV

  energy without entropy =    -1089.53506503  energy(sigma->0) =    -1089.53506503


--------------------------------------------------------------------------------------------------------




--------------------------------------- Iteration      1(   6)  ---------------------------------------


    POTLOK:  cpu time    0.1666: real time    0.1747
    SETDIJ:  cpu time    0.3175: real time    0.3183
     EDDAV:  cpu time   59.4475: real time   59.6809
       DOS:  cpu time    0.0011: real time    0.0011
    CHARGE:  cpu time    2.3903: real time    2.3962
    MIXING:  cpu time    0.0096: real time    0.0097
    --------------------------------------------
      LOOP:  cpu time   62.3327: real time   62.5809

 eigenvalue-minimisations  : 10472
 total energy-change (2. order) : 0.1592068E+03  (-0.7790235E+02)
 number of electron     864.0000006 magnetization 
 augmentation part      119.2200950 magnetization 

 Broyden mixing:
  rms(total) = 0.36273E+01    rms(broyden)= 0.36259E+01
  rms(prec ) = 0.38486E+01
  weight for this iteration     100.00

 eigenvalues of (default mixing * dielectric matrix)
  average eigenvalue GAMMA=   0.9655
  0.9655

 Free energy of the ion-electron system (eV)
  ---------------------------------------------------
  alpha Z        PSCENC =      2026.14881195
  Ewald energy   TEWEN  =    -35358.41026922
  -Hartree energ DENC   =    -26875.87432387
  -exchange      EXHF   =         0.00000000
  -V(xc)+E(xc)   XCENC  =      3231.18612232
  PAW double counting   =     64498.33175909   -64042.56196238
  entropy T*S    EENTRO =        -0.00000000
  eigenvalues    EBANDS =     -9377.68859508
  atomic energy  EATOM  =     64968.54023382
  Solvation  Ediel_sol  =         0.00000000
  ---------------------------------------------------
  free energy    TOTEN  =      -930.32822337 eV

  energy without entropy =     -930.32822337  energy(sigma->0) =     -930.32822337


--------------------------------------------------------------------------------------------------------




--------------------------------------- Iteration      1(   7)  ---------------------------------------


    POTLOK:  cpu time    0.1682: real time    0.1742
    SETDIJ:  cpu time    0.3173: real time    0.3182
     EDDAV:  cpu time   62.5906: real time   62.8590
       DOS:  cpu time    0.0012: real time    0.0011
    CHARGE:  cpu time    2.3577: real time    2.3980
    MIXING:  cpu time    0.0105: real time    0.0105
    --------------------------------------------
      LOOP:  cpu time   65.4454: real time   65.7610

 eigenvalue-minimisations  : 11168
 total energy-change (2. order) :-0.1331241E+01  (-0.7959590E+01)
 number of electron     864.0000006 magnetization 
 augmentation part      118.7642731 magnetization 

 Broyden mixing:
  rms(total) = 0.18720E+01    rms(broyden)= 0.18719E+01
  rms(prec ) = 0.20525E+01
  weight for this iteration     100.00

 eigenvalues of (default mixing * dielectric matrix)
  average eigenvalue GAMMA=   1.2156
  1.2156  1.2156

 Free energy of the ion-electron system (eV)
  ---------------------------------------------------
  alpha Z        PSCENC =      2026.14881195
  Ewald energy   TEWEN  =    -35358.41026922
  -Hartree energ DENC   =    -26955.03663427
  -exchange      EXHF   =         0.00000000
  -V(xc)+E(xc)   XCENC  =      3232.44932396
  PAW double counting   =     75437.77369168   -75036.51657723
  entropy T*S    EENTRO =        -0.00000000
  eigenvalues    EBANDS =     -9246.60804519
  atomic energy  EATOM  =     64968.54023382
  Solvation  Ediel_sol  =         0.00000000
  ---------------------------------------------------
  free energy    TOTEN  =      -931.65946449 eV

  energy without entropy =     -931.65946449  energy(sigma->0) =     -931.65946449


--------------------------------------------------------------------------------------------------------




--------------------------------------- Iteration      1(   8)  ---------------------------------------


    POTLOK:  cpu time    0.1688: real time    0.1761
    SETDIJ:  cpu time    0.3173: real time    0.3219
     EDDAV:  cpu time   58.3465: real time   58.5765
       DOS:  cpu time    0.0010: real time    0.0010
    CHARGE:  cpu time    2.3809: real time    2.3993
    MIXING:  cpu time    0.0098: real time    0.0098
    --------------------------------------------
      LOOP:  cpu time   61.2242: real time   61.4846

 eigenvalue-minimisations  : 10232
 total energy-change (2. order) : 0.1987955E+01  (-0.1375134E+01)
 number of electron     864.0000006 magnetization 
 augmentation part      119.3176006 magnetization 

 Broyden mixing:
  rms(total) = 0.76141E+00    rms(broyden)= 0.76128E+00
  rms(prec ) = 0.89895E+00
  weight for this iteration     100.00

 eigenvalues of (default mixing * dielectric matrix)
  average eigenvalue GAMMA=   1.3274
  2.1195  0.9313  0.9313

 Free energy of the ion-electron system (eV)
  ---------------------------------------------------
  alpha Z        PSCENC =      2026.14881195
  Ewald energy   TEWEN  =    -35358.41026922
  -Hartree energ DENC   =    -26995.06083236
  -exchange      EXHF   =         0.00000000
  -V(xc)+E(xc)   XCENC  =      3231.28682679
  PAW double counting   =     82637.53438459   -82280.59244504
  entropy T*S    EENTRO =        -0.00000000
  eigenvalues    EBANDS =     -9159.11821997
  atomic energy  EATOM  =     64968.54023382
  Solvation  Ediel_sol  =         0.00000000
  ---------------------------------------------------
  free energy    TOTEN  =      -929.67150943 eV

  energy without entropy =     -929.67150943  energy(sigma->0) =     -929.67150943


--------------------------------------------------------------------------------------------------------




--------------------------------------- Iteration      1(   9)  ---------------------------------------


    POTLOK:  cpu time    0.1683: real time    0.1756
    SETDIJ:  cpu time    0.3176: real time    0.3186
     EDDAV:  cpu time   63.9929: real time   64.3652
       DOS:  cpu time    0.0011: real time    0.0011
    CHARGE:  cpu time    2.3979: real time    2.4040
    MIXING:  cpu time    0.0097: real time    0.0098
    --------------------------------------------
      LOOP:  cpu time   66.8876: real time   67.2742

 eigenvalue-minimisations  : 11488
 total energy-change (2. order) : 0.5337366E+00  (-0.3074162E+00)
 number of electron     864.0000006 magnetization 
 augmentation part      118.4984439 magnetization 

 Broyden mixing:
  rms(total) = 0.23424E+00    rms(broyden)= 0.23422E+00
  rms(prec ) = 0.29704E+00
  weight for this iteration     100.00

 eigenvalues of (default mixing * dielectric matrix)
  average eigenvalue GAMMA=   1.3506
  2.3667  1.2116  0.9120  0.9120

 Free energy of the ion-electron system (eV)
  ---------------------------------------------------
  alpha Z        PSCENC =      2026.14881195
  Ewald energy   TEWEN  =    -35358.41026922
  -Hartree energ DENC   =    -27122.41247692
  -exchange      EXHF   =         0.00000000
  -V(xc)+E(xc)   XCENC  =      3237.57711882
  PAW double counting   =     88137.30151760   -87807.39877767
  entropy T*S    EENTRO =        -0.00000000
  eigenvalues    EBANDS =     -9010.48393121
  atomic energy  EATOM  =     64968.54023382
  Solvation  Ediel_sol  =         0.00000000
  ---------------------------------------------------
  free energy    TOTEN  =      -929.13777282 eV

  energy without entropy =     -929.13777282  energy(sigma->0) =     -929.13777282


--------------------------------------------------------------------------------------------------------




--------------------------------------- Iteration      1(  10)  ---------------------------------------


    POTLOK:  cpu time    0.1692: real time    0.1743
    SETDIJ:  cpu time    0.3173: real time    0.3181
     EDDAV:  cpu time   65.2947: real time   65.6749
       DOS:  cpu time    0.0011: real time    0.0011
    CHARGE:  cpu time    2.3989: real time    2.4142
    MIXING:  cpu time    0.0096: real time    0.0096
    --------------------------------------------
      LOOP:  cpu time   68.1909: real time   68.5922

 eigenvalue-minimisations  : 11856
 total energy-change (2. order) :-0.1402434E+00  (-0.1273223E+00)
 number of electron     864.0000006 magnetization 
 augmentation part      118.4073200 magnetization 

 Broyden mixing:
  rms(total) = 0.14049E+00    rms(broyden)= 0.14044E+00
  rms(prec ) = 0.17611E+00
  weight for this iteration     100.00

 eigenvalues of (default mixing * dielectric matrix)
  average eigenvalue GAMMA=   1.2695
  2.4564  1.1041  1.1041  0.8413  0.8413

 Free energy of the ion-electron system (eV)
  ---------------------------------------------------
  alpha Z        PSCENC =      2026.14881195
  Ewald energy   TEWEN  =    -35358.41026922
  -Hartree energ DENC   =    -27156.50668314
  -exchange      EXHF   =         0.00000000
  -V(xc)+E(xc)   XCENC  =      3238.74660043
  PAW double counting   =     89272.94383493   -88945.85455432
  entropy T*S    EENTRO =        -0.00000000
  eigenvalues    EBANDS =     -8974.88599072
  atomic energy  EATOM  =     64968.54023382
  Solvation  Ediel_sol  =         0.00000000
  ---------------------------------------------------
  free energy    TOTEN  =      -929.27801626 eV

  energy without entropy =     -929.27801626  energy(sigma->0) =     -929.27801626


--------------------------------------------------------------------------------------------------------




--------------------------------------- Iteration      1(  11)  ---------------------------------------


    POTLOK:  cpu time    0.1674: real time    0.1754
    SETDIJ:  cpu time    0.3171: real time    0.3180
     EDDAV:  cpu time   63.8132: real time   64.0616
       DOS:  cpu time    0.0010: real time    0.0010
    CHARGE:  cpu time    2.3802: real time    2.3962
    MIXING:  cpu time    0.0102: real time    0.0102
    --------------------------------------------
      LOOP:  cpu time   66.6891: real time   66.9624

 eigenvalue-minimisations  : 11400
 total energy-change (2. order) :-0.2692176E-01  (-0.2144782E-01)
 number of electron     864.0000006 magnetization 
 augmentation part      118.3297109 magnetization 

 Broyden mixing:
  rms(total) = 0.79758E-01    rms(broyden)= 0.79750E-01
  rms(prec ) = 0.10479E+00
  weight for this iteration     100.00

 eigenvalues of (default mixing * dielectric matrix)
  average eigenvalue GAMMA=   1.3350
  2.4758  1.7652  0.9864  0.9864  0.8982  0.8982

 Free energy of the ion-electron system (eV)
  ---------------------------------------------------
  alpha Z        PSCENC =      2026.14881195
  Ewald energy   TEWEN  =    -35358.41026922
  -Hartree energ DENC   =    -27176.30991800
  -exchange      EXHF   =         0.00000000
  -V(xc)+E(xc)   XCENC  =      3239.62691102
  PAW double counting   =     89387.56638326   -89059.76380208
  entropy T*S    EENTRO =        -0.00000000
  eigenvalues    EBANDS =     -8956.70328879
  atomic energy  EATOM  =     64968.54023382
  Solvation  Ediel_sol  =         0.00000000
  ---------------------------------------------------
  free energy    TOTEN  =      -929.30493802 eV

  energy without entropy =     -929.30493802  energy(sigma->0) =     -929.30493802


--------------------------------------------------------------------------------------------------------




--------------------------------------- Iteration      1(  12)  ---------------------------------------


    POTLOK:  cpu time    0.1689: real time    0.1756
    SETDIJ:  cpu time    0.3178: real time    0.3186
     EDDAV:  cpu time   56.5748: real time   56.7583
       DOS:  cpu time    0.0011: real time    0.0011
    CHARGE:  cpu time    2.3744: real time    2.3892
    MIXING:  cpu time    0.0114: real time    0.0114
    --------------------------------------------
      LOOP:  cpu time   59.4484: real time   59.6543

 eigenvalue-minimisations  :  9832
 total energy-change (2. order) :-0.3334036E-01  (-0.8171928E-02)
 number of electron     864.0000006 magnetization 
 augmentation part      118.3567088 magnetization 

 Broyden mixing:
  rms(total) = 0.34766E-01    rms(broyden)= 0.34756E-01
  rms(prec ) = 0.51785E-01
  weight for this iteration     100.00

 eigenvalues of (default mixing * dielectric matrix)
  average eigenvalue GAMMA=   1.3773
  2.5496  2.5496  0.9481  0.9498  0.9498  0.8471  0.8471

 Free energy of the ion-electron system (eV)
  ---------------------------------------------------
  alpha Z        PSCENC =      2026.14881195
  Ewald energy   TEWEN  =    -35358.41026922
  -Hartree energ DENC   =    -27186.51613995
  -exchange      EXHF   =         0.00000000
  -V(xc)+E(xc)   XCENC  =      3239.74298358
  PAW double counting   =     89242.17030808   -88911.79310485
  entropy T*S    EENTRO =        -0.00000000
  eigenvalues    EBANDS =     -8949.22110180
  atomic energy  EATOM  =     64968.54023382
  Solvation  Ediel_sol  =         0.00000000
  ---------------------------------------------------
  free energy    TOTEN  =      -929.33827839 eV

  energy without entropy =     -929.33827839  energy(sigma->0) =     -929.33827839


--------------------------------------------------------------------------------------------------------




--------------------------------------- Iteration      1(  13)  ---------------------------------------


    POTLOK:  cpu time    0.1694: real time    0.1755
    SETDIJ:  cpu time    0.3209: real time    0.3217
     EDDAV:  cpu time   63.5713: real time   63.8282
       DOS:  cpu time    0.0012: real time    0.0012
    CHARGE:  cpu time    2.3836: real time    2.4017
    MIXING:  cpu time    0.0102: real time    0.0102
    --------------------------------------------
      LOOP:  cpu time   66.4565: real time   66.7385

 eigenvalue-minimisations  : 11384
 total energy-change (2. order) :-0.1039056E-01  (-0.2209843E-02)
 number of electron     864.0000006 magnetization 
 augmentation part      118.3487016 magnetization 

 Broyden mixing:
  rms(total) = 0.23379E-01    rms(broyden)= 0.23378E-01
  rms(prec ) = 0.30970E-01
  weight for this iteration     100.00

 eigenvalues of (default mixing * dielectric matrix)
  average eigenvalue GAMMA=   1.3606
  2.8649  2.4777  0.9028  0.9028  1.0192  1.0192  0.8492  0.8492

 Free energy of the ion-electron system (eV)
  ---------------------------------------------------
  alpha Z        PSCENC =      2026.14881195
  Ewald energy   TEWEN  =    -35358.41026922
  -Hartree energ DENC   =    -27196.99964800
  -exchange      EXHF   =         0.00000000
  -V(xc)+E(xc)   XCENC  =      3240.06899064
  PAW double counting   =     89134.49420589   -88802.68170998
  entropy T*S    EENTRO =        -0.00000000
  eigenvalues    EBANDS =     -8940.50928405
  atomic energy  EATOM  =     64968.54023382
  Solvation  Ediel_sol  =         0.00000000
  ---------------------------------------------------
  free energy    TOTEN  =      -929.34866894 eV

  energy without entropy =     -929.34866894  energy(sigma->0) =     -929.34866894


--------------------------------------------------------------------------------------------------------




--------------------------------------- Iteration      1(  14)  ---------------------------------------


    POTLOK:  cpu time    0.1673: real time    0.1759
    SETDIJ:  cpu time    0.3182: real time    0.3190
     EDDAV:  cpu time   63.7069: real time   64.1179
       DOS:  cpu time    0.0010: real time    0.0010
    CHARGE:  cpu time    2.3990: real time    2.4050
    MIXING:  cpu time    0.0101: real time    0.0101
    --------------------------------------------
      LOOP:  cpu time   66.6026: real time   67.0290

 eigenvalue-minimisations  : 11480
 total energy-change (2. order) :-0.1822361E-02  (-0.1360290E-02)
 number of electron     864.0000006 magnetization 
 augmentation part      118.3452821 magnetization 

 Broyden mixing:
  rms(total) = 0.13588E-01    rms(broyden)= 0.13584E-01
  rms(prec ) = 0.17627E-01
  weight for this iteration     100.00

 eigenvalues of (default mixing * dielectric matrix)
  average eigenvalue GAMMA=   1.3177
  2.9563  2.4822  1.0289  0.9602  0.9602  0.9044  0.9044  0.8313  0.8313

 Free energy of the ion-electron system (eV)
  ---------------------------------------------------
  alpha Z        PSCENC =      2026.14881195
  Ewald energy   TEWEN  =    -35358.41026922
  -Hartree energ DENC   =    -27200.29657189
  -exchange      EXHF   =         0.00000000
  -V(xc)+E(xc)   XCENC  =      3240.16402763
  PAW double counting   =     89106.32388873   -88774.37737476
  entropy T*S    EENTRO =        -0.00000000
  eigenvalues    EBANDS =     -8937.44323756
  atomic energy  EATOM  =     64968.54023382
  Solvation  Ediel_sol  =         0.00000000
  ---------------------------------------------------
  free energy    TOTEN  =      -929.35049131 eV

  energy without entropy =     -929.35049131  energy(sigma->0) =     -929.35049131


--------------------------------------------------------------------------------------------------------




--------------------------------------- Iteration      1(  15)  ---------------------------------------


    POTLOK:  cpu time    0.1677: real time    0.1753
    SETDIJ:  cpu time    0.3170: real time    0.3177
     EDDAV:  cpu time   61.3524: real time   61.5464
       DOS:  cpu time    0.0010: real time    0.0010
    CHARGE:  cpu time    2.4019: real time    2.4079
    MIXING:  cpu time    0.0111: real time    0.0112
    --------------------------------------------
      LOOP:  cpu time   64.2511: real time   64.4595

 eigenvalue-minimisations  : 10920
 total energy-change (2. order) :-0.4467618E-03  (-0.2352538E-03)
 number of electron     864.0000006 magnetization 
 augmentation part      118.3473480 magnetization 

 Broyden mixing:
  rms(total) = 0.75342E-02    rms(broyden)= 0.75330E-02
  rms(prec ) = 0.10597E-01
  weight for this iteration     100.00

 eigenvalues of (default mixing * dielectric matrix)
  average eigenvalue GAMMA=   1.4120
  3.3221  2.2829  2.2829  0.8775  0.8775  0.9694  0.9694  0.8820  0.8283  0.8283

 Free energy of the ion-electron system (eV)
  ---------------------------------------------------
  alpha Z        PSCENC =      2026.14881195
  Ewald energy   TEWEN  =    -35358.41026922
  -Hartree energ DENC   =    -27201.48338738
  -exchange      EXHF   =         0.00000000
  -V(xc)+E(xc)   XCENC  =      3240.18634313
  PAW double counting   =     89095.32818557   -88763.42873387
  entropy T*S    EENTRO =        -0.00000000
  eigenvalues    EBANDS =     -8936.23212207
  atomic energy  EATOM  =     64968.54023382
  Solvation  Ediel_sol  =         0.00000000
  ---------------------------------------------------
  free energy    TOTEN  =      -929.35093807 eV

  energy without entropy =     -929.35093807  energy(sigma->0) =     -929.35093807


--------------------------------------------------------------------------------------------------------




--------------------------------------- Iteration      1(  16)  ---------------------------------------


    POTLOK:  cpu time    0.1752: real time    0.1762
    SETDIJ:  cpu time    0.3171: real time    0.3183
     EDDAV:  cpu time   64.4052: real time   65.5688
       DOS:  cpu time    0.0009: real time    0.0009
    CHARGE:  cpu time    2.3462: real time    2.3553
    MIXING:  cpu time    0.0115: real time    0.0115
    --------------------------------------------
      LOOP:  cpu time   67.2562: real time   68.4310

 eigenvalue-minimisations  :  9424
 total energy-change (2. order) :-0.2009353E-03  (-0.8643128E-04)
 number of electron     864.0000006 magnetization 
 augmentation part      118.3452392 magnetization 

 Broyden mixing:
  rms(total) = 0.41616E-02    rms(broyden)= 0.41609E-02
  rms(prec ) = 0.55751E-02
  weight for this iteration     100.00

 eigenvalues of (default mixing * dielectric matrix)
  average eigenvalue GAMMA=   1.4249
  3.5833  2.4499  2.4499  0.8938  0.8938  0.9668  0.9668  0.8853  0.8853  0.8493
  0.8493

 Free energy of the ion-electron system (eV)
  ---------------------------------------------------
  alpha Z        PSCENC =      2026.14881195
  Ewald energy   TEWEN  =    -35358.41026922
  -Hartree energ DENC   =    -27203.15046916
  -exchange      EXHF   =         0.00000000
  -V(xc)+E(xc)   XCENC  =      3240.21917767
  PAW double counting   =     89100.18489072   -88768.50401631
  entropy T*S    EENTRO =        -0.00000000
  eigenvalues    EBANDS =     -8934.37949848
  atomic energy  EATOM  =     64968.54023382
  Solvation  Ediel_sol  =         0.00000000
  ---------------------------------------------------
  free energy    TOTEN  =      -929.35113900 eV

  energy without entropy =     -929.35113900  energy(sigma->0) =     -929.35113900


--------------------------------------------------------------------------------------------------------




--------------------------------------- Iteration      1(  17)  ---------------------------------------


    POTLOK:  cpu time    0.1674: real time    0.1730
    SETDIJ:  cpu time    0.3199: real time    0.3208
     EDDAV:  cpu time   65.8974: real time   66.1430
       DOS:  cpu time    0.0011: real time    0.0011
    CHARGE:  cpu time    2.3392: real time    2.3830
    MIXING:  cpu time    0.0113: real time    0.0113
    --------------------------------------------
      LOOP:  cpu time   68.7363: real time   69.0322

 eigenvalue-minimisations  : 11952
 total energy-change (2. order) :-0.2069413E-04  (-0.5415897E-04)
 number of electron     864.0000006 magnetization 
 augmentation part      118.3477578 magnetization 

 Broyden mixing:
  rms(total) = 0.29644E-02    rms(broyden)= 0.29637E-02
  rms(prec ) = 0.35485E-02
  weight for this iteration     100.00

 eigenvalues of (default mixing * dielectric matrix)
  average eigenvalue GAMMA=   1.3698
  3.7378  2.4328  2.4328  0.9877  0.9877  0.9338  0.9338  0.8929  0.8929  0.8250
  0.8250  0.5556

 Free energy of the ion-electron system (eV)
  ---------------------------------------------------
  alpha Z        PSCENC =      2026.14881195
  Ewald energy   TEWEN  =    -35358.41026922
  -Hartree energ DENC   =    -27203.18535856
  -exchange      EXHF   =         0.00000000
  -V(xc)+E(xc)   XCENC  =      3240.20523408
  PAW double counting   =     89098.44635258   -88766.80387809
  entropy T*S    EENTRO =        -0.00000000
  eigenvalues    EBANDS =     -8934.29228625
  atomic energy  EATOM  =     64968.54023382
  Solvation  Ediel_sol  =         0.00000000
  ---------------------------------------------------
  free energy    TOTEN  =      -929.35115970 eV

  energy without entropy =     -929.35115970  energy(sigma->0) =     -929.35115970


--------------------------------------------------------------------------------------------------------




--------------------------------------- Iteration      1(  18)  ---------------------------------------


    POTLOK:  cpu time    0.1672: real time    0.1749
    SETDIJ:  cpu time    0.3163: real time    0.3172
     EDDAV:  cpu time   59.6619: real time   59.9215
       DOS:  cpu time    0.0011: real time    0.0011
    CHARGE:  cpu time    2.3743: real time    2.3839
    MIXING:  cpu time    0.0109: real time    0.0109
    --------------------------------------------
      LOOP:  cpu time   62.5317: real time   62.8095

 eigenvalue-minimisations  : 10592
 total energy-change (2. order) :-0.2668414E-05  (-0.1143691E-04)
 number of electron     864.0000006 magnetization 
 augmentation part      118.3483765 magnetization 

 Broyden mixing:
  rms(total) = 0.18029E-02    rms(broyden)= 0.18021E-02
  rms(prec ) = 0.22478E-02
  weight for this iteration     100.00

 eigenvalues of (default mixing * dielectric matrix)
  average eigenvalue GAMMA=   1.3949
  3.8728  2.5748  2.3868  1.3154  0.9854  0.9854  0.8945  0.9285  0.9285  0.8241
  0.8241  0.8069  0.8069

 Free energy of the ion-electron system (eV)
  ---------------------------------------------------
  alpha Z        PSCENC =      2026.14881195
  Ewald energy   TEWEN  =    -35358.41026922
  -Hartree energ DENC   =    -27203.11533895
  -exchange      EXHF   =         0.00000000
  -V(xc)+E(xc)   XCENC  =      3240.19938147
  PAW double counting   =     89102.89730048   -88771.26733071
  entropy T*S    EENTRO =        -0.00000000
  eigenvalues    EBANDS =     -8934.34395120
  atomic energy  EATOM  =     64968.54023382
  Solvation  Ediel_sol  =         0.00000000
  ---------------------------------------------------
  free energy    TOTEN  =      -929.35116237 eV

  energy without entropy =     -929.35116237  energy(sigma->0) =     -929.35116237


--------------------------------------------------------------------------------------------------------




--------------------------------------- Iteration      1(  19)  ---------------------------------------


    POTLOK:  cpu time    0.1670: real time    0.1744
    SETDIJ:  cpu time    0.3163: real time    0.3174
     EDDAV:  cpu time   52.9935: real time   53.2353
       DOS:  cpu time    0.0011: real time    0.0011
    CHARGE:  cpu time    2.3750: real time    2.3821
    MIXING:  cpu time    0.0125: real time    0.0126
    --------------------------------------------
      LOOP:  cpu time   55.8655: real time   56.1229

 eigenvalue-minimisations  :  9088
 total energy-change (2. order) :-0.1562628E-05  (-0.2707711E-05)
 number of electron     864.0000006 magnetization 
 augmentation part      118.3485693 magnetization 

 Broyden mixing:
  rms(total) = 0.78783E-03    rms(broyden)= 0.78640E-03
  rms(prec ) = 0.10510E-02
  weight for this iteration     100.00

 eigenvalues of (default mixing * dielectric matrix)
  average eigenvalue GAMMA=   1.4443
  4.1448  2.6723  2.4183  2.0979  0.8061  0.8061  0.9394  0.9394  0.9730  0.9730
[...]
   -.109E+03 0.642E+02 0.322E+02   0.132E+03 -.816E+02 -.267E+02   -.224E+02 0.200E+02 -.677E+01   -.452E-04 -.431E-03 -.207E-03
   0.386E+02 -.150E+03 0.116E+03   -.445E+02 0.159E+03 -.112E+03   0.649E+01 -.852E+01 -.453E+01   0.207E-03 0.583E-03 -.666E-03
   0.181E+03 -.813E+02 0.945E+02   -.168E+03 0.976E+02 -.131E+03   -.112E+02 -.142E+02 0.264E+02   0.556E-03 -.269E-03 -.487E-03
   0.101E+03 -.104E+03 0.944E+02   -.122E+03 0.111E+03 -.982E+02   0.239E+02 -.760E+01 0.546E+01   -.149E-03 -.566E-03 -.638E-04
   -.984E+02 0.175E+03 -.245E+02   0.100E+03 -.190E+03 0.970E+00   -.122E+01 0.155E+02 0.250E+02   -.173E-03 -.263E-04 -.461E-03
   -.585E+02 -.352E+02 -.241E+02   0.577E+02 0.247E+02 0.330E+02   0.175E+01 0.129E+02 -.969E+01   -.613E-03 0.150E-03 0.164E-03
   -.761E+02 -.478E+02 0.101E+03   0.953E+02 0.571E+02 -.111E+03   -.186E+02 -.924E+01 0.105E+02   0.688E-04 0.366E-03 -.111E-03
   -.561E+02 0.823E+02 -.139E+03   0.636E+02 -.767E+02 0.125E+03   -.620E+01 -.529E+01 0.165E+02   -.255E-03 -.220E-03 0.594E-03
   0.115E+03 0.789E+02 -.169E+01   -.120E+03 -.817E+02 0.680E+01   0.298E+01 0.212E+01 -.415E+01   0.142E-03 -.388E-04 0.294E-03
   -.955E+02 0.220E+03 -.217E+03   0.124E+03 -.235E+03 0.224E+03   -.284E+02 0.141E+02 -.611E+01   -.558E-03 -.401E-03 0.237E-03
   0.864E+02 0.984E+02 0.707E+02   -.866E+02 -.113E+03 -.940E+02   0.610E+00 0.141E+02 0.252E+02   0.820E-03 0.264E-04 -.470E-03
   -.718E+02 -.129E+03 0.125E+02   0.797E+02 0.153E+03 -.250E+02   -.808E+01 -.233E+02 0.135E+02   0.773E-03 0.412E-03 0.275E-03
   0.504E+02 -.158E+02 0.159E+03   -.630E+02 0.380E+02 -.152E+03   0.124E+02 -.228E+02 -.650E+01   -.317E-04 0.496E-03 -.191E-03
   0.354E+02 -.916E+01 -.805E+02   -.486E+02 0.200E+02 0.788E+02   0.130E+02 -.156E+02 0.596E+01   -.399E-03 -.318E-03 0.308E-03
   -.326E+02 -.731E+02 0.187E+02   0.362E+02 0.771E+02 -.510E+01   -.560E+01 -.344E+01 -.134E+02   -.415E-03 -.235E-03 0.245E-03
   -.110E+03 -.276E+02 -.146E+03   0.114E+03 0.414E+02 0.154E+03   -.451E+01 -.175E+02 -.930E+01   0.186E-03 -.209E-03 0.409E-04
   -.628E+02 -.141E+03 0.527E+02   0.841E+02 0.143E+03 -.577E+02   -.242E+02 -.255E+00 0.373E+01   -.371E-03 -.236E-03 0.218E-03
   -.136E+03 -.978E+02 0.208E+03   0.162E+03 0.102E+03 -.233E+03   -.265E+02 -.155E+01 0.243E+02   -.208E-04 0.495E-03 -.220E-03
   -.249E+02 0.122E+03 0.594E+02   0.114E+02 -.137E+03 -.702E+02   0.159E+02 0.117E+02 0.936E+01   -.632E-03 -.375E-05 -.513E-03
   0.115E+03 -.794E+02 0.230E+03   -.118E+03 0.645E+02 -.251E+03   0.103E+01 0.179E+02 0.219E+02   -.733E-03 0.496E-03 -.330E-03
   -.612E+02 0.682E+02 0.440E+02   0.812E+02 -.572E+02 -.439E+02   -.235E+02 -.133E+02 0.537E+00   -.380E-03 -.632E-03 -.265E-03
   -.178E+03 -.633E+02 -.498E+02   0.181E+03 0.470E+02 0.718E+02   -.261E+01 0.173E+02 -.185E+02   -.101E-03 -.393E-03 0.549E-03
   0.377E+02 0.155E+03 -.223E+03   -.322E+02 -.165E+03 0.241E+03   -.730E+01 0.808E+01 -.190E+02   -.418E-03 -.635E-03 -.217E-03
   0.106E+03 0.401E+02 -.128E+03   -.820E+02 -.325E+02 0.136E+03   -.252E+02 -.804E+01 -.797E+01   0.718E-04 -.158E-03 0.823E-03
   -.124E+03 -.102E+03 -.138E+03   0.130E+03 0.921E+02 0.146E+03   -.521E+01 0.126E+02 -.873E+01   0.177E-04 0.262E-04 0.370E-03
   0.208E+03 -.942E+02 0.168E+02   -.230E+03 0.984E+02 -.168E+02   0.224E+02 -.140E+01 -.184E+01   0.763E-05 0.880E-04 0.227E-04
   0.417E+02 0.401E+02 -.183E+03   -.465E+02 -.346E+02 0.203E+03   0.632E+01 -.664E+01 -.185E+02   0.559E-03 0.115E-04 0.301E-03
   -.520E+02 -.214E+03 -.271E+03   0.446E+02 0.223E+03 0.303E+03   0.670E+01 -.926E+01 -.298E+02   0.317E-03 0.869E-03 0.125E-02
   0.100E+03 -.110E+02 -.638E+02   -.939E+02 0.276E+02 0.576E+02   -.842E+01 -.186E+02 0.729E+01   0.388E-03 0.142E-03 0.170E-03
   -.143E+03 -.164E+02 -.730E+02   0.145E+03 0.240E+02 0.970E+02   -.265E+01 -.930E+01 -.258E+02   -.221E-03 -.135E-03 0.428E-03
   -.221E+02 -.663E+02 -.952E+02   0.116E+02 0.497E+02 0.934E+02   0.130E+02 0.202E+02 0.202E+01   -.310E-04 0.160E-04 0.152E-03
   -.375E+02 0.514E+02 -.177E+03   0.354E+02 -.381E+02 0.188E+03   0.439E+01 -.192E+02 -.111E+02   -.433E-03 -.426E-05 0.426E-03
   0.196E+03 -.840E+02 -.843E+02   -.221E+03 0.896E+02 0.903E+02   0.235E+02 -.936E+01 -.378E+01   0.138E-03 -.130E-03 0.233E-03
   0.333E+02 0.658E+00 0.195E+03   -.765E+01 -.163E+02 -.205E+03   -.254E+02 0.138E+02 0.744E+01   0.568E-03 -.684E-03 -.302E-03
   -.383E+02 -.119E+02 0.105E+03   0.189E+02 0.220E+02 -.118E+03   0.234E+02 -.115E+02 0.140E+02   -.706E-04 -.277E-03 -.900E-03
   -.709E+02 -.601E+02 -.181E+01   0.804E+02 0.253E+02 0.470E+01   -.840E+01 0.344E+02 0.595E-01   -.563E-04 -.184E-03 0.177E-03
   0.166E+03 -.437E+02 0.856E+02   -.184E+03 0.326E+02 -.900E+02   0.194E+02 0.138E+02 0.255E+01   -.171E-03 -.481E-03 -.828E-03
   0.290E+02 0.358E+02 0.599E+02   -.328E+02 -.302E+02 -.461E+02   0.319E+01 -.671E+01 -.135E+02   -.675E-04 -.312E-03 0.154E-03
   0.204E+02 0.618E+02 -.169E+03   -.284E+01 -.631E+02 0.177E+03   -.197E+02 0.245E+00 -.804E+01   -.579E-04 0.169E-03 0.138E-03
   -.775E+02 0.651E+02 0.566E+00   0.746E+02 -.746E+02 -.195E+02   0.308E+01 0.114E+02 0.201E+02   -.139E-03 0.556E-03 -.212E-03
   0.973E+02 -.190E+03 -.993E+02   -.110E+03 0.211E+03 0.100E+03   0.156E+02 -.151E+02 -.239E+01   0.460E-03 0.630E-03 0.863E-03
   0.118E+03 0.552E+02 0.985E+02   -.127E+03 -.730E+02 -.102E+03   0.862E+01 0.192E+02 0.278E+01   -.314E-03 0.628E-03 0.118E-03
   0.539E+02 0.442E+02 0.979E+02   -.812E+02 -.463E+02 -.100E+03   0.269E+02 0.170E+01 0.317E+01   -.473E-03 -.585E-03 -.882E-03
   0.178E+02 0.175E+02 0.575E+02   -.352E+02 -.156E+02 -.748E+02   0.187E+02 -.402E+01 0.163E+02   -.104E-03 -.492E-03 -.469E-04
   -.106E+03 0.136E+03 0.119E+03   0.132E+03 -.145E+03 -.118E+03   -.275E+02 0.601E+01 -.114E+01   -.200E-03 -.976E-03 -.616E-03
   -.102E+03 0.149E+03 0.194E+02   0.114E+03 -.169E+03 -.160E+02   -.131E+02 0.202E+02 -.308E+01   -.200E-03 0.415E-03 -.117E-03
   -.120E+03 0.596E+02 0.154E+03   0.134E+03 -.758E+02 -.171E+03   -.143E+02 0.163E+02 0.170E+02   -.301E-03 -.797E-03 -.116E-02
   0.169E+02 -.242E+02 -.179E+03   -.358E+02 0.450E+02 0.189E+03   0.144E+02 -.198E+02 -.899E+01   -.592E-03 0.142E-03 -.320E-04
 -----------------------------------------------------------------------------------------------
   0.576E+02 -.835E+02 -.475E+01   0.185E-12 0.711E-13 0.483E-12   -.576E+02 0.835E+02 0.477E+01   0.437E-03 -.428E-02 -.602E-02
 
 
 POSITION                                       TOTAL-FORCE (eV/Angst)
 -----------------------------------------------------------------------------------
      9.17400      4.85677      5.31344        -1.203536     -0.225771      1.341638
     11.33501      1.46830      5.00749        -0.554732     -0.442298     -0.290489
      9.52504      4.82572      9.71569         1.056478     -0.297231      0.731629
      2.70691      6.05006      2.27252         1.450784     -0.960384     -0.489571
      4.04447      5.45057     11.38679        -0.305931     -1.046559      0.978604
     12.08393     11.53529      9.35545         0.287119      0.026326      1.942480
     11.80837      6.09851      2.56787         0.501308      1.467824     -0.624463
      5.00015      9.54278      4.57724         0.655408     -0.053326      0.427445
      7.54726      9.43366      1.91544        -0.991704     -0.022602      1.234888
      6.48082      1.85965      5.78543         0.772989      1.702587      2.018547
      1.79637      0.02602      8.75302         0.782867     -0.740760      0.994884
     12.11032     10.34691      5.67255         0.744786      1.365571      0.128491
      4.23577      4.21020      7.68501         1.395835      1.581236      1.445390
      8.94159     10.95154     10.50286        -1.952866     -0.799436     -2.750447
     12.05721     12.83939      0.37519         0.251201     -0.092247      0.820887
     12.80031      2.54852      1.20848         1.647294      3.003505     -3.256977
      6.67880      3.47113     13.18302        -0.333393      1.603596     -1.113471
     11.90518      7.28744      8.73988        -0.540429     -0.372492      0.315505
      2.20330     12.17309      5.25956        -2.300943      0.800259      0.000174
      2.62172     11.13877     12.85484         1.422180     -0.394366     -0.536891
     11.10627      8.67943     12.08579        -0.366641      1.828217      0.265682
      9.91301      0.58820     11.06170         0.058005      1.669112     -1.448677
      4.39907      9.76358      9.39499        -1.199561     -0.095935     -0.766689
      8.30300      8.58139      7.03132         0.196360     -0.027652     -0.752044
      1.06332      5.11103      6.16786        -0.997350      1.121666      0.061836
      7.28929      2.31722      9.65950        -1.681171      0.428597      1.718832
      6.66946      0.56512      1.01282         1.803185     -2.457710     -1.223197
      0.72019      9.01639     10.75712         1.858864      1.996715     -0.703975
      9.72108      8.18242      4.04322        -0.573236     -4.959195     -2.561080
      6.66584      5.54642     10.76247         0.299504     -8.843976      1.854692
      9.52587     11.45838      0.14056         0.074071      2.101152     -1.167206
      2.14618      3.59684      9.43966         1.427149     -1.628149      1.993757
      0.79375      1.29394     11.21146         0.378756      1.441158      2.544735
      5.78601     12.58537      4.58107         4.037219     -0.467949     -2.361632
      6.13352      4.92971      3.89521         3.019866      1.899263      1.863162
     13.13977      0.02163      3.23885         0.451388      1.891955      2.439564
      6.73442     11.81537      7.30301         3.137796     -2.020794     -2.038488
      2.90447      8.03156      6.94585        -6.769110     -4.223935     -2.921745
      2.24453      2.25898      6.71603        -2.932768     -6.764155     -0.612228
     12.28652      5.51821     12.39451        -3.576119      3.130899     -4.037923
      1.67312      8.69747      3.97761         0.872688     -0.229652     -0.003913
      9.14263      3.71783      2.74136        -1.912758     -3.730510     -1.950610
      2.48332      2.39960      3.74129        -3.586326     -3.544178     -0.343548
      4.18545      1.57592     10.85565         1.037844      5.246504      0.292826
      1.22615     10.39825      8.26374         2.008057      2.416577      0.950596
      5.48480      2.01449      3.17179        -4.687605      1.227859     11.777448
      9.43654      2.48591      7.70762        -0.789728     -2.028945     -4.203449
      8.56372      7.51785      9.70659         4.039809      3.022596     -3.002824
      9.78623     12.61881      7.51993         0.350303      3.822151      2.675286
     11.10320      7.43829      5.84432         1.166920     -2.400728      5.599496
      2.84878      7.61918     12.66208        -0.803391      3.460039     -1.909623
      4.25471      9.29446      1.74334        -1.025860      1.315417      0.967722
      9.37338      1.66707      0.37610         0.369996     -0.058132      1.876867
      5.86513     12.32494     10.48779         0.079995      3.415544      0.521308
      5.37821      0.70903     10.24030         0.911514     -2.372368     -1.510450
      2.72566      6.23772      0.02749        -1.185244     -2.832020      0.662068
      7.77351      2.96927      7.63378         0.968769     -0.408410     -1.739084
     12.92198     11.98210      2.41838         0.333092      0.898329     -1.811491
      5.78865      4.61063      9.78862        -1.435624      0.927232     -1.844162
     10.92733      8.63758      7.04129         1.283861     -1.137121     -1.738704
      6.57525      5.72764      5.35785        -1.165401     -1.871457     -2.009715
      5.26477      5.45059      2.68966        -1.143766      0.262403     -0.026325
      8.38060      8.95143      4.42679         1.308786      0.830717     -1.235224
      1.94237      3.31273      2.57248         0.837088      1.325735     -0.002313
      4.94515      2.55713     11.92960         0.319615     -0.173127     -0.172816
      3.03927      9.46068      3.14088         0.560933     -0.723111     -1.416115
      8.48658      2.94859      1.26448         2.383985      0.372369      0.140603
      6.78961     10.27768      6.57724        -1.339279      2.562268      1.243965
      3.58051      8.44808      0.56419        -1.013092     -0.565459     -0.532855
      5.72554      3.34100      4.16283         0.593221     -0.345807      0.945134
      3.63635      2.63260      9.34190        -0.890544     -0.553307      1.960170
      9.83255      0.94259      6.82774        -0.307342     -0.263783      0.370603
      2.58992      5.01544      9.95909        -1.197426     -0.701087     -1.854988
      2.64175     11.34240      8.11105        -0.799777     -0.484488     -1.185883
     12.95017     13.05231      4.89360        -1.871106     -0.247772     -1.041024
      2.81607      1.27974     11.56151        -4.089783     -2.574249     -1.055457
      2.55603      7.97234      5.17379         1.881255      0.312448      3.651717
      9.35254      2.26731      3.44003         0.961828      0.997055      2.521421
     10.40803      3.50359      6.86421        -0.807129     -0.065827      0.850386
      5.45786      8.48877      2.53336         0.099080      1.900215     -0.544051
      3.48708      7.59884     11.18495         1.212300      0.905651     -0.324307
      8.18324     10.55464      0.11115         0.501774      0.314218      0.762689
      9.50327      6.95742      5.75395         1.266613      1.163379     -2.450054
      1.33582      0.76385      3.54804         3.316010      1.357023     -0.540979
      4.01808      1.77861      4.10832        -1.825810      0.329079     -2.514866
      4.30604      8.44831      7.29702         3.406583      2.041640      1.776166
      4.65026     11.88880     11.55274         1.360882     -1.232274     -2.470226
      3.70800      1.54980      6.95200        -0.078677      2.646695     -1.203159
      7.87294      4.55022      3.45482         0.605029      0.269107     -0.801190
      5.91584      2.25732      1.85250         1.164790      2.151938    -10.498594
      1.59506      2.93216      5.17990         2.834769      0.013227      1.634028
      0.42350      8.13205      9.44148         0.524128      0.015139      1.465556
      2.55118      6.18489      7.26069         0.900998      2.463477     -0.864569
     10.47463      4.51263      2.37730         0.650166      0.068040      0.544194
      9.85830     12.01302     11.89915         1.273040      0.349955      2.787977
      6.02122     11.82677      8.78569        -2.349863     -0.755117      0.957851
     10.95808     10.84195      0.42722        -0.115576     -0.885135      1.208011
      8.69332      6.61773      8.29374         0.475145      0.029038      1.813784
      4.39882     10.70805      0.93128        -0.232445      0.233187      0.963884
      0.86017      9.97956      4.54467        -0.202307     -0.589924     -0.020538
     12.22446      1.44148      2.64388        -0.154697     -4.805348      4.270475
     10.33028     12.59691      9.16459        -2.005731      0.492084      0.240873
      1.54541     10.81397     10.27800        -0.351729     -3.675080     -1.945338
     11.04415      1.55813     13.30857        -2.869859      1.396993     -1.231178
     11.46953      7.94226      4.37424        -0.586247      3.116216     -0.800155
      1.53970      9.05468      7.47231         2.471367     -2.746593     -1.497873
      9.94746      7.14150      2.70652        -2.221145      3.017059      1.505793
      6.82504     13.01927      5.96259        -3.505765     -2.243404      0.614858
      9.40040      1.83494      9.13135         1.009795      0.981777      3.401450
      9.45492      0.10115      1.08367        -1.857260     -2.288854     -0.709687
      7.44773     12.49754     10.84369        -1.689683     -0.421199      0.153424
      7.86962      4.03944     11.07168         0.363288      2.633988     -1.025743
      1.65292      3.23866      7.88788         0.399419      2.810800     -1.803537
      1.46012      8.70418     12.18665         1.558248     -1.129865      1.432347
      6.08606      5.73532     12.20095        -0.703321     -0.282160      1.982218
      8.74652      9.19181      9.14815        -2.249851     -2.026348      1.116006
      0.58356      1.60267     12.81090        -0.518390     -1.674436     -1.891304
     13.18727     13.17127     10.65675         2.458851      3.664363      0.288893
     11.85709      7.14051     13.10446         2.275469     -5.858446      0.217571
      0.93263      2.86688     10.19079        -1.349771     -3.814044      2.225482
     10.90431     11.75774      6.93567         0.268598     -1.863514     -2.530958
     13.09144     11.01418      7.66294         4.035261     -1.392209      0.395067
     12.68697      4.12729     12.85305         1.145384     -0.475488      2.945699
      1.16033      0.82673      7.02999         1.807921      2.731824     -1.822957
      8.21995     12.35489      7.76177        -0.577024     -1.024781      0.346733
     10.11106      7.54303     10.46034        -2.129928     -1.034055     -0.155736
     11.73014      5.18385     10.79589         0.149964      1.912021      1.222058
      7.20407      6.88296     10.33534         2.601990      5.925841     -1.327703
      1.16121      7.18715      3.36855        -0.598169      1.422605     -0.768449
      4.24430     12.35648      4.68341        -0.360092     -0.428740      1.005312
      8.04487      1.72016     12.67326         1.219600     -2.072773     -1.020306
      6.42216      0.88393      3.84790        -0.995846     -2.951862     -0.052021
     12.15797      6.17901      6.16765        -0.375890      0.995312      0.379001
      6.46741     11.45999      3.60433        -0.577257      0.082814      0.573453
     12.78579      9.83745     11.16405        -4.523429      1.010526      0.701951
 -----------------------------------------------------------------------------------
    total drift:                               -0.026172     -0.018510      0.010025


--------------------------------------------------------------------------------------------------------



  FREE ENERGIE OF THE ION-ELECTRON SYSTEM (eV)
  ---------------------------------------------------
  free  energy   TOTEN  =      -929.35116735 eV

  energy  without entropy=     -929.35116735  energy(sigma->0) =     -929.35116735
 


--------------------------------------------------------------------------------------------------------


    POTLOK:  cpu time    0.4745: real time    0.4841


--------------------------------------------------------------------------------------------------------


     LOOP+:  cpu time 1429.8410: real time 1437.4440
    4ORBIT:  cpu time    0.0000: real time    0.0000

 total amount of memory used by VASP MPI-rank0   216874. kBytes
=======================================================================

   base      :      30000. kBytes
   nonlr-proj:      21511. kBytes
   fftplans  :      34308. kBytes
   grid      :      19248. kBytes
   one-center:        186. kBytes
   wavefun   :     111621. kBytes
 
  
  
 General timing and accounting informations for this job:
 ========================================================
  
                  Total CPU time used (sec):     1457.877
                            User time (sec):     1452.952
                          System time (sec):        4.926
                         Elapsed time (sec):     1465.738
  
                   Maximum memory used (kb):      356568.
                   Average memory used (kb):           0.
  
                          Minor page faults:       104310
                          Major page faults:            0
                 Voluntary context switches:          413
