 vasp.5.4.4.18Apr17-6-g9f103f2a35 (build Mar 16 2023 09:39:13) complex          
  
 executed on             LinuxIFC date 2024.04.30  06:14:15
 running on   48 total cores
 distrk:  each k-point on   48 cores,    1 groups
 distr:  one band on NCORES_PER_BAND=  12 cores,    4 groups


--------------------------------------------------------------------------------------------------------


 INCAR:
 POTCAR:    PAW_PBE Ca_sv 06Sep2000               
 POTCAR:    PAW_PBE Si 05Jan2001                  
 POTCAR:    PAW_PBE O 08Apr2002                   
 POTCAR:    PAW_PBE Ca_sv 06Sep2000               
   SHA256 =  a47365830e737f14e0e6c5cf1ed81b94e081eecf0a33df105380881bc9da05d5 Ca
   COPYR  = (c) Copyright 06Sep2000 Georg Kresse                                
   COPYR  = This file is part of the software VASP. Any use, copying, and all ot
   COPYR  = If you do not have a valid VASP license, you may not use, copy or di
   VRHFIN =Ca: 3s3p4s                                                           
   LEXCH  = PE                                                                  
   EATOM  =  1006.0909 eV,   73.9456 Ry                                         
                                                                                
   TITEL  = PAW_PBE Ca_sv 06Sep2000                                             
   LULTRA =        F    use ultrasoft PP ?                                      
   IUNSCR =        1    unscreen: 0-lin 1-nonlin 2-no                           
   RPACOR =    2.000    partial core radius                                     
   POMASS =   40.078; ZVAL   =   10.000    mass and valenz                      
   RCORE  =    2.300    outmost cutoff radius                                   
   RWIGS  =    2.500; RWIGS  =    1.323    wigner-seitz radius (au A)           
   ENMAX  =  266.622; ENMIN  =  199.967 eV                                      
   RCLOC  =    1.808    cutoff for local pot                                    
   LCOR   =        T    correct aug charges                                     
   LPAW   =        T    paw PP                                                  
   EAUG   =  420.852                                                            
   RMAX   =    2.359    core radius for proj-oper                               
   RAUG   =    1.300    factor for augmentation sphere                          
   RDEP   =    2.392    radius for radial grids                                 
   RDEPT  =    1.987    core radius for aug-charge                              
                                                                                
   Atomic configuration                                                         
    7 entries                                                                   
     n  l   j            E        occ.                                          
     1  0  0.50     -3949.1705   2.0000                                         
     2  0  0.50      -414.3434   2.0000                                         
     2  1  1.50      -334.7047   6.0000                                         
     3  0  0.50       -47.0896   2.0000                                         
     4  0  0.50        -3.7663   2.0000                                         
     3  1  1.50       -28.0061   6.0000                                         
     3  2  1.50        -4.0817   0.0000                                         
   Description                                                                  
     l       E           TYP  RCUT    TYP  RCUT                                 
     0    -47.0896403     23  2.300                                             
     0     -3.7663320     23  2.300                                             
     1    -28.0060855     23  2.300                                             
     1      6.8029130     23  2.300                                             
     2     -4.0817478     23  2.300                                             
     2      0.4464412     23  2.300                                             
  local pseudopotential read in
  partial core-charges read in
  partial kinetic energy density read in
  atomic valenz-charges read in
  non local Contribution for L=           0  read in
    real space projection operators read in
  non local Contribution for L=           0  read in
    real space projection operators read in
  non local Contribution for L=           1  read in
    real space projection operators read in
  non local Contribution for L=           1  read in
    real space projection operators read in
  non local Contribution for L=           2  read in
    real space projection operators read in
  non local Contribution for L=           2  read in
    real space projection operators read in
    PAW grid and wavefunctions read in
 
   number of l-projection  operators is LMAX  =           6
   number of lm-projection operators is LMMAX =          18
 
 POTCAR:    PAW_PBE Si 05Jan2001                  
   SHA256 =  79d9987ad8750f624c4d6acb2a16d13abf6a777132adc04dc6c8399be72b42bb Si
   COPYR  = (c) Copyright 05Jan2001 Georg Kresse                                
   COPYR  = This file is part of the software VASP. Any use, copying, and all ot
   COPYR  = If you do not have a valid VASP license, you may not use, copy or di
   VRHFIN =Si: s2p2                                                             
   LEXCH  = PE                                                                  
   EATOM  =   103.0669 eV,    7.5752 Ry                                         
                                                                                
   TITEL  = PAW_PBE Si 05Jan2001                                                
   LULTRA =        F    use ultrasoft PP ?                                      
   IUNSCR =        1    unscreen: 0-lin 1-nonlin 2-no                           
   RPACOR =    1.500    partial core radius                                     
   POMASS =   28.085; ZVAL   =    4.000    mass and valenz                      
   RCORE  =    1.900    outmost cutoff radius                                   
   RWIGS  =    2.480; RWIGS  =    1.312    wigner-seitz radius (au A)           
   ENMAX  =  245.345; ENMIN  =  184.009 eV                                      
   ICORE  =        2    local potential                                         
   LCOR   =        T    correct aug charges                                     
   LPAW   =        T    paw PP                                                  
   EAUG   =  322.069                                                            
   DEXC   =    0.000                                                            
   RMAX   =    1.950    core radius for proj-oper                               
   RAUG   =    1.300    factor for augmentation sphere                          
   RDEP   =    1.993    radius for radial grids                                 
   RDEPT  =    1.837    core radius for aug-charge                              
                                                                                
   Atomic configuration                                                         
    6 entries                                                                   
     n  l   j            E        occ.                                          
     1  0  0.50     -1785.8828   2.0000                                         
     2  0  0.50      -139.4969   2.0000                                         
     2  1  1.50       -95.5546   6.0000                                         
     3  0  0.50       -10.8127   2.0000                                         
     3  1  0.50        -4.0811   2.0000                                         
     3  2  1.50        -4.0817   0.0000                                         
   Description                                                                  
     l       E           TYP  RCUT    TYP  RCUT                                 
     0    -10.8127223     23  1.900                                             
     0     -7.6451159     23  1.900                                             
     1     -4.0811372     23  1.900                                             
     1      2.4879257     23  1.900                                             
     2     -4.0817478      7  1.900                                             
  local pseudopotential read in
  partial core-charges read in
  partial kinetic energy density read in
  atomic valenz-charges read in
  non local Contribution for L=           0  read in
    real space projection operators read in
  non local Contribution for L=           0  read in
    real space projection operators read in
  non local Contribution for L=           1  read in
    real space projection operators read in
  non local Contribution for L=           1  read in
    real space projection operators read in
    PAW grid and wavefunctions read in
 
   number of l-projection  operators is LMAX  =           4
   number of lm-projection operators is LMMAX =           8
 
 POTCAR:    PAW_PBE O 08Apr2002                   
   SHA256 =  818f92134a0a090dccd8ba1447fa70422a3b330e708bb4f08108d8ae51209ddf O/
   COPYR  = (c) Copyright 08Apr2002 Georg Kresse                                
   COPYR  = This file is part of the software VASP. Any use, copying, and all ot
   COPYR  = If you do not have a valid VASP license, you may not use, copy or di
   VRHFIN =O: s2p4                                                              
   LEXCH  = PE                                                                  
   EATOM  =   432.3788 eV,   31.7789 Ry                                         
                                                                                
   TITEL  = PAW_PBE O 08Apr2002                                                 
   LULTRA =        F    use ultrasoft PP ?                                      
   IUNSCR =        1    unscreen: 0-lin 1-nonlin 2-no                           
   RPACOR =    1.200    partial core radius                                     
   POMASS =   16.000; ZVAL   =    6.000    mass and valenz                      
   RCORE  =    1.520    outmost cutoff radius                                   
   RWIGS  =    1.550; RWIGS  =    0.820    wigner-seitz radius (au A)           
   ENMAX  =  400.000; ENMIN  =  300.000 eV                                      
   ICORE  =        2    local potential                                         
   LCOR   =        T    correct aug charges                                     
   LPAW   =        T    paw PP                                                  
   EAUG   =  605.392                                                            
   DEXC   =    0.000                                                            
   RMAX   =    1.553    core radius for proj-oper                               
   RAUG   =    1.300    factor for augmentation sphere                          
   RDEP   =    1.550    radius for radial grids                                 
   RDEPT  =    1.329    core radius for aug-charge                              
                                                                                
   Atomic configuration                                                         
    4 entries                                                                   
     n  l   j            E        occ.                                          
     1  0  0.50      -514.6923   2.0000                                         
     2  0  0.50       -23.9615   2.0000                                         
     2  1  0.50        -9.0305   4.0000                                         
     3  2  1.50        -9.5241   0.0000                                         
   Description                                                                  
     l       E           TYP  RCUT    TYP  RCUT                                 
     0    -23.9615318     23  1.200                                             
     0     -9.5240782     23  1.200                                             
     1     -9.0304911     23  1.520                                             
     1      8.1634956     23  1.520                                             
     2     -9.5240782      7  1.500                                             
  local pseudopotential read in
  partial core-charges read in
  partial kinetic energy density read in
  kinetic energy density of atom read in
  atomic valenz-charges read in
  non local Contribution for L=           0  read in
    real space projection operators read in
  non local Contribution for L=           0  read in
    real space projection operators read in
  non local Contribution for L=           1  read in
    real space projection operators read in
  non local Contribution for L=           1  read in
    real space projection operators read in
    PAW grid and wavefunctions read in
 
   number of l-projection  operators is LMAX  =           4
   number of lm-projection operators is LMMAX =           8
 
 Optimization of the real space projectors (new method)

 maximal supplied QI-value         = 16.25
 optimisation between [QCUT,QGAM] = [ 12.51, 25.03] = [ 43.85,175.40] Ry 
 Optimized for a Real-space Cutoff    1.47 Angstroem

   l    n(q)    QCUT    max X(q) W(low)/X(q) W(high)/X(q)  e(spline) 
   0     11    12.514    11.817    0.25E-04    0.32E-05    0.87E-07
   0     11    12.514     8.461    0.39E-04    0.59E-05    0.18E-06
   1     11    12.514     3.957    0.97E-05    0.57E-05    0.28E-07
   1     11    12.514     4.314    0.42E-04    0.14E-04    0.23E-06
   2     10    12.514    14.565    0.79E-04    0.50E-03    0.16E-05
   2     10    12.514    14.552    0.75E-04    0.48E-03    0.15E-05
 Optimization of the real space projectors (new method)

 maximal supplied QI-value         = 19.84
 optimisation between [QCUT,QGAM] = [ 12.50, 25.00] = [ 43.76,175.03] Ry 
 Optimized for a Real-space Cutoff    1.16 Angstroem

   l    n(q)    QCUT    max X(q) W(low)/X(q) W(high)/X(q)  e(spline) 
   0      9    12.501   159.560    0.10E-03    0.83E-04    0.71E-07
   0      9    12.501   115.863    0.99E-04    0.81E-04    0.70E-07
   1      8    12.501    88.339    0.20E-03    0.25E-03    0.76E-07
   1      8    12.501    48.592    0.20E-03    0.24E-03    0.75E-07
 Optimization of the real space projectors (new method)

 maximal supplied QI-value         = 24.76
 optimisation between [QCUT,QGAM] = [ 12.38, 25.00] = [ 42.90,175.06] Ry 
 Optimized for a Real-space Cutoff    1.16 Angstroem

   l    n(q)    QCUT    max X(q) W(low)/X(q) W(high)/X(q)  e(spline) 
   0      9    12.378    20.381    0.16E-03    0.67E-05    0.31E-06
   0      9    12.378    15.268    0.17E-03    0.81E-05    0.33E-06
   1      8    12.378     5.964    0.20E-03    0.16E-03    0.30E-06
   1      8    12.378     5.382    0.18E-03    0.14E-03    0.26E-06
  PAW_PBE Ca_sv 06Sep2000               :
 energy of atom  1       EATOM=-1006.0909
 kinetic energy error for atom=    0.0012 (will be added to EATOM!!)
  PAW_PBE Si 05Jan2001                  :
 energy of atom  2       EATOM= -103.0669
 kinetic energy error for atom=    0.0003 (will be added to EATOM!!)
  PAW_PBE O 08Apr2002                   :
 energy of atom  3       EATOM= -432.3788
 kinetic energy error for atom=    0.0168 (will be added to EATOM!!)
 
 
 POSCAR: Ca Si  O                                
  positions in direct lattice
  No initial velocities read in
 exchange correlation table for  LEXCH =        8
   RHO(1)=    0.500       N(1)  =     2000
   RHO(2)=  100.500       N(2)  =     4000
 


--------------------------------------------------------------------------------------------------------


 ion  position               nearest neighbor table
   1  0.211  0.289  0.102-  60 2.02  97 2.14  71 2.20  11 2.72
   2  0.709  0.963  0.026-  93 1.98 115 2.47 116 2.53  43 2.61  35 3.05
   3  0.098  0.398  0.798-  91 2.14  70 2.53  48 2.89
   4  0.435  0.815  0.684- 132 2.06  95 2.13 124 2.30  80 2.40 131 2.55  33 2.79  53 2.83  44 2.90
                            30 3.00
   5  0.402  0.762  0.343-  98 2.03 124 2.24  65 2.30 129 2.37 121 2.39  49 2.93
   6  0.913  0.870  0.563-  64 2.34  84 2.40 126 2.46  13 2.63  54 3.02  41 3.06
   7  0.129  0.896  0.808- 109 2.01  84 2.20  95 2.47  67 2.52  30 2.91  38 2.97
   8  0.789  0.390  0.243- 112 2.21 120 2.29  62 2.35  88 2.45  50 2.79  45 2.95
   9  0.708  0.287  0.987-  62 2.23  76 2.30 107 2.40  88 2.49  48 2.75  29 3.01
  10  0.174  0.296  0.476-  78 1.97  75 2.12  72 2.41  68 2.52  45 2.91  46 3.03
  11  0.430  0.245  0.110-  90 2.16  82 2.22 123 2.35  88 2.51   1 2.72  50 2.94
  12  0.931  0.868  0.228-  77 2.26  74 2.31 105 2.31  64 2.36 134 2.45  81 2.52  54 2.70  15 2.98

  13  0.793  0.982  0.705- 103 2.10 126 2.14 117 2.20 135 2.47  69 2.48   6 2.63  31 3.07  29 3.16

  14  0.958  0.556  0.062- 122 2.20  91 2.25  62 2.37  81 2.45  48 2.79
  15  0.121  0.980  0.117-  56 2.09  77 2.26 114 2.47  60 2.56  12 2.98  32 3.05  28 3.15
  16  0.804  0.546  0.633-  61 2.13  99 2.18 119 2.19  83 2.23  66 2.38  36 2.83  44 2.94
  17  0.518  0.548  0.828-  61 2.41 125 2.48  44 3.08  18 3.08
  18  0.712  0.667  0.942- 127 2.14 115 2.22  61 2.42  80 2.56  35 2.81  44 3.02  17 3.08
  19  0.746  0.228  0.464-  96 1.90 106 2.05 108 2.34 100 2.44 118 2.44  36 3.01  27 3.11
  20  0.296  0.523  0.281- 121 2.07 111 2.32 104 2.43
  21  0.620  0.080  0.250-  96 2.23  74 2.36  90 2.44  58 2.55 116 2.56  54 2.86  49 2.90
  22  0.140  0.993  0.424-  86 2.17 105 2.24  63 2.39  92 2.49
  23  0.417  0.823  0.080-  93 2.12  56 2.22  98 2.24  65 2.29  42 2.98
  24  0.658  0.768  0.214- 134 2.23  74 2.40  98 2.49  42 3.11  41 3.16
  25  0.477  0.379  0.484- 108 2.17 104 2.29  68 2.50  50 2.80  37 2.97  51 3.04
  26  0.244  0.106  0.649- 130 2.04  63 2.15 109 2.36  68 2.49  85 2.52  31 2.97  40 3.01
  27  0.678  0.272  0.708- 110 2.27 118 2.45  19 3.11
  28  0.168  0.725  0.134- 122 1.51  89 1.78 121 1.79  56 1.82  52 3.08  15 3.15
  29  0.885  0.140  0.891- 135 1.55  69 1.58 133 1.72 113 1.73   9 3.01  32 3.03  31 3.13  13 3.16

  30  0.267  0.700  0.826- 102 1.48  67 1.63  79 1.72  95 1.79   7 2.91  47 2.91  53 3.00   4 3.00

  31  1.000  0.122  0.659- 117 1.56  70 1.58  63 1.67 135 1.73  26 2.97  13 3.07  29 3.13
  32  0.922  0.135  0.139-  77 1.55 116 1.67 113 1.72 112 1.85  45 3.02  29 3.03  15 3.05
  33  0.519  0.029  0.704- 103 1.49  87 1.58 130 1.87 110 1.92  51 2.79   4 2.79  43 3.00
  34  0.424  0.292  0.811- 125 1.59 123 1.66  85 1.68 110 1.92  40 3.02
  35  0.897  0.806  0.967- 115 1.52  59 1.56 114 1.83  81 1.92  18 2.81  38 2.99   2 3.05
  36  0.929  0.389  0.511- 100 1.60  72 1.65  99 1.69 118 1.70  16 2.83  45 2.91  19 3.01
  37  0.531  0.615  0.524- 132 1.81  83 1.87 104 1.89 129 1.91 131 2.37  41 2.79  44 2.96  25 2.97

  38  0.003  0.688  0.778-  66 1.60  67 1.62  59 1.64  84 1.67   7 2.97  35 2.99
  39  0.861  0.620  0.381-  55 1.60  99 1.73 120 1.74 134 1.76 119 2.03  41 2.74  52 3.13
  40  0.271  0.114  0.897- 128 1.55 109 1.63  85 1.67  60 1.69  26 3.01  34 3.02
  41  0.705  0.758  0.471- 119 1.59 129 1.68 131 1.73  73 1.80 134 2.17  39 2.74  37 2.79  44 2.93
                            54 2.98   6 3.06  24 3.16
  42  0.495  0.593  0.120-  57 1.49  98 1.62 127 1.63 101 1.87  23 2.98  24 3.11
  43  0.519  0.035  0.953- 107 1.51  93 1.63 128 1.78  87 1.82   2 2.61  33 3.00
  44  0.655  0.724  0.705-  61 1.53 131 1.73 126 1.79  80 1.82   4 2.90  41 2.93  16 2.94  37 2.96
                            18 3.02  17 3.08
  45  0.010  0.303  0.301- 112 1.58  71 1.63 100 1.68  78 1.77  10 2.91  36 2.91   8 2.95  32 3.02

  46  0.195  0.539  0.536-  94 1.58 111 1.62  75 1.75  72 2.12  53 2.67  52 2.97  10 3.03
  47  0.276  0.515  0.980-  97 1.58  79 1.64  89 1.65  57 1.89  30 2.91
  48  0.885  0.405  0.905-  76 1.65 133 1.69  91 1.76  62 1.94   9 2.75  14 2.79   3 2.89
  49  0.399  0.999  0.295-  86 1.52  90 1.63  65 1.74  58 1.95  21 2.90   5 2.93  51 3.07
  50  0.561  0.374  0.269- 108 1.56  88 1.60 101 1.63  82 1.79   8 2.79  25 2.80  11 2.94
  51  0.465  0.129  0.504-  68 1.61  58 1.66 106 1.73 130 1.78  33 2.79  25 3.04  49 3.07
  52  0.105  0.706  0.380-  55 1.63 111 1.68 105 1.77  92 1.97 121 2.27  46 2.97  53 2.97  28 3.08
                            39 3.13
  53  0.233  0.750  0.586-  95 1.51 124 1.63  92 1.67  94 1.70  46 2.67   4 2.83  52 2.97  30 3.00

  54  0.789  0.966  0.369-  73 1.52  64 1.56  96 1.64  74 1.68  12 2.70  21 2.86  41 2.98   6 3.02

  55  0.982  0.662  0.414-  39 1.60  52 1.63
  56  0.238  0.854  0.103-  28 1.82  15 2.09  23 2.22
  57  0.418  0.537  0.041-  42 1.49  47 1.89
  58  0.501  0.029  0.417-  51 1.66  49 1.95  21 2.55
  59  0.973  0.722  0.906-  35 1.56  38 1.64
  60  0.205  0.146  0.016-  40 1.69   1 2.02  15 2.56
  61  0.691  0.611  0.751-  44 1.53  16 2.13  17 2.41  18 2.42
  62  0.824  0.414  0.054-  48 1.94   9 2.23   8 2.35  14 2.37
  63  0.089  0.028  0.612-  31 1.67  26 2.15  22 2.39
  64  0.915  0.967  0.395-  54 1.56   6 2.34  12 2.36
  65  0.485  0.899  0.240-  49 1.74  23 2.29   5 2.30
  66  0.984  0.578  0.705-  38 1.60  16 2.38
  67  0.136  0.688  0.798-  38 1.62  30 1.63   7 2.52
  68  0.360  0.211  0.516-  51 1.61  26 2.49  25 2.50  10 2.52
  69  0.762  0.124  0.850-  29 1.58  13 2.48
  70  0.070  0.231  0.675-  31 1.58   3 2.53
  71  0.106  0.366  0.230-  45 1.63   1 2.20
  72  0.050  0.451  0.492-  36 1.65  46 2.12  10 2.41
  73  0.714  0.905  0.449-  54 1.52  41 1.80
  74  0.755  0.939  0.237-  54 1.68  12 2.31  21 2.36  24 2.40
  75  0.276  0.420  0.547-  46 1.75  10 2.12
  76  0.756  0.422  0.862-  48 1.65   9 2.30
  77  0.978  0.049  0.217-  32 1.55  15 2.26  12 2.26
  78  0.117  0.215  0.348-  45 1.77  10 1.97
  79  0.276  0.561  0.853-  47 1.64  30 1.72
  80  0.569  0.766  0.821-  44 1.82   4 2.40  18 2.56
  81  0.853  0.726  0.097-  35 1.92  14 2.45  12 2.52
  82  0.416  0.340  0.266-  50 1.79  11 2.22
  83  0.635  0.510  0.569-  37 1.87  16 2.23
  84  0.978  0.818  0.743-  38 1.67   7 2.20   6 2.40
  85  0.306  0.219  0.814-  40 1.67  34 1.68  26 2.52
  86  0.301  0.950  0.359-  49 1.52  22 2.17
  87  0.487  0.974  0.819-  33 1.58  43 1.82
  88  0.619  0.305  0.172-  50 1.60   8 2.45   9 2.49  11 2.51
  89  0.238  0.622  0.055-  47 1.65  28 1.78
  90  0.425  0.090  0.199-  49 1.63  11 2.16  21 2.44
  91  0.989  0.505  0.886-  48 1.76   3 2.14  14 2.25
  92  0.134  0.804  0.506-  53 1.67  52 1.97  22 2.49
  93  0.548  0.928  0.030-  43 1.63   2 1.98  23 2.12
  94  0.160  0.634  0.618-  46 1.58  53 1.70
  95  0.263  0.782  0.703-  53 1.51  30 1.79   4 2.13   7 2.47
  96  0.736  0.088  0.392-  54 1.64  19 1.90  21 2.23
  97  0.270  0.385  0.966-  47 1.58   1 2.14
  98  0.466  0.694  0.203-  42 1.62   5 2.03  23 2.24  24 2.49
  99  0.869  0.508  0.469-  36 1.69  39 1.73  16 2.18
 100  0.915  0.318  0.401-  36 1.60  45 1.68  19 2.44
 101  0.564  0.501  0.224-  50 1.63  42 1.87
 102  0.320  0.796  0.880-  30 1.48
 103  0.626  0.991  0.657-  33 1.49  13 2.10
 104  0.450  0.550  0.408-  37 1.89  25 2.29  20 2.43
 105  0.093  0.842  0.327-  52 1.77  22 2.24  12 2.31
 106  0.593  0.189  0.527-  51 1.73  19 2.05
 107  0.582  0.134  0.995-  43 1.51   9 2.40
 108  0.620  0.348  0.380-  50 1.56  25 2.17  19 2.34
 109  0.174  0.055  0.825-  40 1.63   7 2.01  26 2.36
 110  0.521  0.180  0.754-  33 1.92  34 1.92  27 2.27
 111  0.193  0.605  0.420-  46 1.62  52 1.68  20 2.32
 112  0.925  0.272  0.207-  45 1.58  32 1.85   8 2.21
 113  0.971  0.132  0.006-  32 1.72  29 1.73
 114  0.978  0.933  0.979-  35 1.83  15 2.47
 115  0.793  0.826  0.899-  35 1.52  18 2.22   2 2.47
 116  0.785  0.129  0.126-  32 1.67   2 2.53  21 2.56
 117  0.888  0.096  0.600-  31 1.56  13 2.20
 118  0.843  0.333  0.607-  36 1.70  19 2.44  27 2.45
 119  0.804  0.689  0.522-  41 1.59  39 2.03  16 2.19
 120  0.908  0.533  0.276-  39 1.74   8 2.29
 121  0.244  0.683  0.255-  28 1.79  20 2.07  52 2.27   5 2.39
 122  0.046  0.700  0.131-  28 1.51  14 2.20
 123  0.492  0.289  0.930-  34 1.66  11 2.35
 124  0.349  0.769  0.520-  53 1.63   5 2.24   4 2.30
 125  0.383  0.408  0.763-  34 1.59  17 2.48
 126  0.779  0.805  0.702-  44 1.79  13 2.14   6 2.46
 127  0.557  0.667  0.025-  42 1.63  18 2.14
 128  0.375  0.067  0.954-  40 1.55  43 1.78
 129  0.578  0.727  0.423-  41 1.68  37 1.91   5 2.37
 130  0.399  0.051  0.610-  51 1.78  33 1.87  26 2.04
 131  0.616  0.783  0.581-  44 1.73  41 1.73  37 2.37   4 2.55
 132  0.449  0.650  0.644-  37 1.81   4 2.06
 133  0.920  0.275  0.866-  48 1.69  29 1.72
 134  0.804  0.741  0.323-  39 1.76  41 2.17  24 2.23  12 2.45
 135  0.943  0.093  0.788-  29 1.55  31 1.73  13 2.47
 

IMPORTANT INFORMATION: All symmetrisations will be switched off!
NOSYMM: (Re-)initialisation of all symmetry stuff for point group C_1.

 
 

Automatic generation of k-mesh.
 generate k-points for:    2    2    2
Space group operators:
 irot       det(A)        alpha          n_x          n_y          n_z        tau_x        tau_y        tau_z
    1     1.000000     0.000000     1.000000     0.000000     0.000000     0.000000     0.000000     0.000000
 
 Subroutine IBZKPT returns following result:
 ===========================================
 
 Found      8 irreducible k-points:
 
 Following reciprocal coordinates:
            Coordinates               Weight
  0.000000  0.000000  0.000000      1.000000
  0.500000  0.000000  0.000000      1.000000
  0.000000  0.500000  0.000000      1.000000
  0.500000  0.500000  0.000000      1.000000
  0.000000  0.000000  0.500000      1.000000
  0.500000  0.000000  0.500000      1.000000
  0.000000  0.500000  0.500000      1.000000
  0.500000  0.500000  0.500000      1.000000
 
 Following cartesian coordinates:
            Coordinates               Weight
  0.000000  0.000000  0.000000      1.000000
  0.041344  0.000000  0.000000      1.000000
  0.000000  0.041344  0.000000      1.000000
  0.041344  0.041344  0.000000      1.000000
  0.000000  0.000000  0.041344      1.000000
  0.041344  0.000000  0.041344      1.000000
  0.000000  0.041344  0.041344      1.000000
  0.041344  0.041344  0.041344      1.000000
 


--------------------------------------------------------------------------------------------------------




 Dimension of arrays:
   k-points           NKPTS =      8   k-points in BZ     NKDIM =      8   number of bands    NBANDS=    520
   number of dos      NEDOS =    301   number of ions     NIONS =    135
   non local maximal  LDIM  =      6   non local SUM 2l+1 LMDIM =     18
   total plane-waves  NPLWV = 941192
   max r-space proj   IRMAX =   7140   max aug-charges    IRDMAX= 203274
   dimension x,y,z NGX =    98 NGY =   98 NGZ =   98
   dimension x,y,z NGXF=   196 NGYF=  196 NGZF=  196
   support grid    NGXF=   392 NGYF=  392 NGZF=  392
   ions per type =              27  27  81
   NGX,Y,Z   is equivalent  to a cutoff of  13.47, 13.47, 13.47 a.u.
   NGXF,Y,Z  is equivalent  to a cutoff of  26.94, 26.94, 26.94 a.u.

 SYSTEM =  unknown system                          
 POSCAR =  Ca Si  O                                

 Startparameter for this run:
   NWRITE =      2    write-flag & timer
   PREC   = a         normal or accurate (medium, high low for compatibility)
   ISTART =      0    job   : 0-new  1-cont  2-samecut
   ICHARG =      2    charge: 1-file 2-atom 10-const
   ISPIN  =      1    spin polarized calculation?
   LNONCOLLINEAR =      F non collinear calculations
   LSORBIT =      F    spin-orbit coupling
   INIWAV =      1    electr: 0-lowe 1-rand  2-diag
   LASPH  =      F    aspherical Exc in radial PAW
   METAGGA=      F    non-selfconsistent MetaGGA calc.

 Electronic Relaxation 1
   ENCUT  =  600.0 eV  44.10 Ry    6.64 a.u.  24.15 24.15 24.15*2*pi/ulx,y,z
   ENINI  =  600.0     initial cutoff
   ENAUG  =  605.4 eV  augmentation charge cutoff
   NELM   =     60;   NELMIN=  2; NELMDL= -5     # of ELM steps 
   EDIFF  = 0.1E-05   stopping-criterion for ELM
   LREAL  =      T    real-space projection
   NLSPLINE    = F    spline interpolate recip. space projectors
   LCOMPAT=      F    compatible to vasp.4.4
   GGA_COMPAT  = T    GGA compatible to vasp.4.4-vasp.4.6
   LMAXPAW     = -100 max onsite density
   LMAXMIX     =    2 max onsite mixed and CHGCAR
   VOSKOWN=      0    Vosko Wilk Nusair interpolation
   ROPT   =   -0.00025  -0.00025  -0.00025
 Ionic relaxation
   EDIFFG = -.1E-01   stopping-criterion for IOM
   NSW    =      1    number of steps for IOM
   NBLOCK =      1;   KBLOCK =      1    inner block; outer block 
   IBRION =     -1    ionic relax: 0-MD 1-quasi-New 2-CG
   NFREE  =      0    steps in history (QN), initial steepest desc. (CG)
   ISIF   =      2    stress and relaxation
   IWAVPR =     10    prediction:  0-non 1-charg 2-wave 3-comb
   ISYM   =      0    0-nonsym 1-usesym 2-fastsym
   LCORR  =      T    Harris-Foulkes like correction to forces

   POTIM  = 1.0000    time-step for ionic-motion
   TEIN   =    0.0    initial temperature
   TEBEG  =    0.0;   TEEND  =   0.0 temperature during run
   SMASS  =  -3.00    Nose mass-parameter (am)
   estimated Nose-frequenzy (Omega)   =  0.10E-29 period in steps =****** mass=  -0.334E-26a.u.
   SCALEE = 1.0000    scale energy and forces
   NPACO  =    256;   APACO  = 16.0  distance and # of slots for P.C.
   PSTRESS=    0.0 pullay stress

  Mass of Ions in am
   POMASS =  40.08 28.09 16.00
  Ionic Valenz
   ZVAL   =  10.00  4.00  6.00
  Atomic Wigner-Seitz radii
   RWIGS  =  -1.00 -1.00 -1.00
  virtual crystal weights 
   VCA    =   1.00  1.00  1.00
   NELECT =     864.0000    total number of electrons
   NUPDOWN=      -1.0000    fix difference up-down

 DOS related values:
   EMIN   =  10.00;   EMAX   =-10.00  energy-range for DOS
   EFERMI =   0.00
   ISMEAR =     0;   SIGMA  =   0.05  broadening in eV -4-tet -1-fermi 0-gaus

 Electronic relaxation 2 (details)
   IALGO  =     38    algorithm
   LDIAG  =      T    sub-space diagonalisation (order eigenvalues)
   LSUBROT=      F    optimize rotation matrix (better conditioning)
   TURBO    =      0    0=normal 1=particle mesh
   IRESTART =      0    0=no restart 2=restart with 2 vectors
   NREBOOT  =      0    no. of reboots
   NMIN     =      0    reboot dimension
   EREF     =   0.00    reference energy to select bands
   IMIX   =      4    mixing-type and parameters
     AMIX     =   0.40;   BMIX     =  1.00
     AMIX_MAG =   1.60;   BMIX_MAG =  1.00
     AMIN     =   0.10
     WC   =   100.;   INIMIX=   1;  MIXPRE=   1;  MAXMIX= -45

 Intra band minimization:
   WEIMIN = 0.0000     energy-eigenvalue tresh-hold
   EBREAK =  0.48E-09  absolut break condition
   DEPER  =   0.30     relativ break condition  

   TIME   =   0.40     timestep for ELM

  volume/ion in A,a.u.               =      13.10        88.42
  Fermi-wavevector in a.u.,A,eV,Ry     =   1.289289  2.436404 22.616517  1.662267
  Thomas-Fermi vector in A             =   2.421191
 
 Write flags
   LWAVE        =      F    write WAVECAR
   LDOWNSAMPLE  =      F    k-point downsampling of WAVECAR
   LCHARG       =      F    write CHGCAR
   LVTOT        =      F    write LOCPOT, total local potential
   LVHAR        =      F    write LOCPOT, Hartree potential only
   LELF         =      F    write electronic localiz. function (ELF)
   LORBIT       =      0    0 simple, 1 ext, 2 COOP (PROOUT), +10 PAW based schemes


 Dipole corrections
   LMONO  =      F    monopole corrections only (constant potential shift)
   LDIPOL =      F    correct potential (dipole corrections)
   IDIPOL =      0    1-x, 2-y, 3-z, 4-all directions 
   EPSILON=  1.0000000 bulk dielectric constant

 Exchange correlation treatment:
   GGA     =    --    GGA type
   LEXCH   =     8    internal setting for exchange type
   VOSKOWN=      0    Vosko Wilk Nusair interpolation
   LHFCALC =     F    Hartree Fock is set to
   LHFONE  =     F    Hartree Fock one center treatment
   AEXX    =    0.0000 exact exchange contribution

 Linear response parameters
   LEPSILON=     F    determine dielectric tensor
   LRPA    =     F    only Hartree local field effects (RPA)
   LNABLA  =     F    use nabla operator in PAW spheres
   LVEL    =     F    velocity operator in full k-point grid
   LINTERFAST=   F  fast interpolation
   KINTER  =     0    interpolate to denser k-point grid
   CSHIFT  =0.1000    complex shift for real part using Kramers Kronig
   OMEGAMAX=  -1.0    maximum frequency
   DEG_THRESHOLD= 0.2000000E-02 threshold for treating states as degnerate
   RTIME   =   -0.100 relaxation time in fs
  (WPLASMAI=    0.000 imaginary part of plasma frequency in eV, 0.658/RTIME)
   DFIELD  = 0.0000000 0.0000000 0.0000000 field for delta impulse in time
 
 Orbital magnetization related:
   ORBITALMAG=     F  switch on orbital magnetization
   LCHIMAG   =     F  perturbation theory with respect to B field
   DQ        =  0.001000  dq finite difference perturbation B field
   LLRAUG    =     F  two centre corrections for induced B field



--------------------------------------------------------------------------------------------------------


 Static calculation
 charge density and potential will be updated during run
 non-spin polarized calculation
 Variant of blocked Davidson
 Davidson routine will perform the subspace rotation
 perform sub-space diagonalisation
    after iterative eigenvector-optimisation
 modified Broyden-mixing scheme, WC =      100.0
 initial mixing is a Kerker type mixing with AMIX =  0.4000 and BMIX =      1.0000
 Hartree-type preconditioning will be used
 using additional bands           88
 real space projection scheme for non local part
 use partial core corrections
 calculate Harris-corrections to forces 
   (improved forces if not selfconsistent)
 use gradient corrections 
 use of overlap-Matrix (Vanderbilt PP)
 Gauss-broadening in eV      SIGMA  =   0.05


--------------------------------------------------------------------------------------------------------


  energy-cutoff  :      600.00
  volume of cell :     1768.83
      direct lattice vectors                 reciprocal lattice vectors
    12.093787620  0.000000000  0.000000000     0.082687081  0.000000000  0.000000000
     0.000000000 12.093787620  0.000000000     0.000000000  0.082687081  0.000000000
     0.000000000  0.000000000 12.093787620     0.000000000  0.000000000  0.082687081

  length of vectors
    12.093787620 12.093787620 12.093787620     0.082687081  0.082687081  0.082687081


 
 k-points in units of 2pi/SCALE and weight: read from INCAR                         
   0.00000000  0.00000000  0.00000000       0.125
   0.04134354  0.00000000  0.00000000       0.125
   0.00000000  0.04134354  0.00000000       0.125
   0.04134354  0.04134354  0.00000000       0.125
   0.00000000  0.00000000  0.04134354       0.125
   0.04134354  0.00000000  0.04134354       0.125
   0.00000000  0.04134354  0.04134354       0.125
   0.04134354  0.04134354  0.04134354       0.125
 
 k-points in reciprocal lattice and weights: read from INCAR                         
   0.00000000  0.00000000  0.00000000       0.125
   0.50000000  0.00000000  0.00000000       0.125
   0.00000000  0.50000000  0.00000000       0.125
   0.50000000  0.50000000  0.00000000       0.125
   0.00000000  0.00000000  0.50000000       0.125
   0.50000000  0.00000000  0.50000000       0.125
   0.00000000  0.50000000  0.50000000       0.125
   0.50000000  0.50000000  0.50000000       0.125
 
 position of ions in fractional coordinates (direct lattice) 
   0.21052305  0.28904731  0.10227444
   0.70859829  0.96252735  0.02622732
   0.09816583  0.39781485  0.79820521
   0.43481351  0.81496526  0.68374946
   0.40243702  0.76199876  0.34300560
   0.91270651  0.86978533  0.56253225
   0.12915238  0.89600851  0.80759920
   0.78894659  0.38953389  0.24279783
   0.70827720  0.28670041  0.98734799
   0.17417743  0.29617419  0.47622048
   0.43046949  0.24466275  0.10951076
   0.93145180  0.86787787  0.22768548
   0.79291825  0.98155235  0.70512419
   0.95831444  0.55633871  0.06242273
   0.12055654  0.98034358  0.11699550
   0.80416411  0.54553769  0.63277535
   0.51782110  0.54838116  0.82791848
   0.71241670  0.66699032  0.94158667
   0.74571203  0.22791838  0.46448549
   0.29641132  0.52257944  0.28144409
   0.61959403  0.08023851  0.24967159
   0.14006697  0.99252705  0.42399240
   0.41731432  0.82336774  0.08022808
   0.65754387  0.76764084  0.21433065
   0.47691066  0.37934961  0.48444775
   0.24429245  0.10570841  0.64947187
   0.67834445  0.27211118  0.70843534
   0.16834567  0.72506424  0.13403418
   0.88504094  0.13969019  0.89124947
   0.26725353  0.69998551  0.82596834
   0.99958747  0.12181750  0.65945855
   0.92235768  0.13507247  0.13933679
   0.51906440  0.02906851  0.70430840
   0.42422762  0.29205048  0.81074440
   0.89702891  0.80551297  0.96720043
   0.92945471  0.38933782  0.51131926
   0.53148370  0.61524058  0.52434429
   0.00330786  0.68750452  0.77804217
   0.86139022  0.62022882  0.38076264
   0.27115970  0.11435918  0.89696584
   0.70489423  0.75775263  0.47072280
   0.49471345  0.59250970  0.11958344
   0.51926572  0.03461033  0.95250716
   0.65533751  0.72367887  0.70501695
   0.00994871  0.30341828  0.30107662
   0.19475247  0.53882382  0.53612005
   0.27623859  0.51510614  0.98023942
   0.88453724  0.40506225  0.90519485
   0.39860089  0.99941352  0.29546706
   0.56054043  0.37439677  0.26866749
   0.46474978  0.12909509  0.50351100
   0.10540645  0.70585479  0.38010841
   0.23272191  0.75029813  0.58567985
   0.78893592  0.96603924  0.36862594
   0.98223541  0.66228611  0.41376549
   0.23814084  0.85434483  0.10267537
   0.41838626  0.53665579  0.04102234
   0.50098898  0.02872564  0.41662409
   0.97331519  0.72210641  0.90561695
   0.20520901  0.14587092  0.01608265
   0.69079188  0.61124777  0.75093391
   0.82363806  0.41440540  0.05353431
   0.08913424  0.02831322  0.61177643
   0.91479248  0.96660359  0.39528588
   0.48544344  0.89875913  0.23991094
   0.98437714  0.57834343  0.70532025
   0.13577803  0.68807298  0.79815967
   0.36034001  0.21110968  0.51622014
   0.76215004  0.12377841  0.84973924
   0.06957722  0.23138269  0.67470773
   0.10612337  0.36556721  0.22980700
   0.04993877  0.45082688  0.49209145
   0.71440496  0.90464307  0.44865599
   0.75458618  0.93936642  0.23659470
   0.27647161  0.41977971  0.54672618
   0.75628776  0.42165187  0.86204447
   0.97804172  0.04867976  0.21656230
   0.11691310  0.21456001  0.34774557
   0.27579619  0.56099870  0.85290257
   0.56942923  0.76606695  0.82113150
   0.85338637  0.72591821  0.09703626
   0.41648768  0.33997057  0.26564526
   0.63493851  0.50972359  0.56916704
   0.97823208  0.81844394  0.74277417
   0.30600679  0.21873349  0.81363398
   0.30129726  0.95046074  0.35854590
   0.48740196  0.97373834  0.81869158
   0.61883996  0.30463953  0.17209797
   0.23817938  0.62222074  0.05535090
   0.42452081  0.09026155  0.19877709
   0.98854980  0.50521092  0.88605833
   0.13363561  0.80436689  0.50631345
   0.54825259  0.92791498  0.02960985
   0.16001136  0.63431892  0.61833392
   0.26255956  0.78228848  0.70303249
   0.73639748  0.08832664  0.39244973
   0.26977102  0.38515493  0.96619874
   0.46558444  0.69357729  0.20318265
   0.86851130  0.50775991  0.46912124
   0.91459921  0.31803560  0.40097236
   0.56369730  0.50120715  0.22360158
   0.32004060  0.79586620  0.88042326
   0.62616154  0.99078769  0.65746148
   0.44980833  0.55010373  0.40781241
   0.09275393  0.84169973  0.32734104
   0.59254165  0.18914991  0.52683309
   0.58200422  0.13415843  0.99472724
   0.61955203  0.34760212  0.37994648
   0.17384491  0.05495493  0.82453312
   0.52137129  0.17981135  0.75380902
   0.19276997  0.60524858  0.42015585
   0.92466603  0.27195358  0.20722595
   0.97072483  0.13169983  0.00557476
   0.97752946  0.93309060  0.97889777
   0.79346237  0.82646943  0.89924033
   0.78471747  0.12933850  0.12629578
   0.88771883  0.09600262  0.59976085
   0.84330254  0.33269847  0.60693895
   0.80403793  0.68914142  0.52228538
   0.90783363  0.53342867  0.27584836
   0.24370896  0.68322116  0.25485506
   0.04581511  0.70021036  0.13076244
   0.49200680  0.28936207  0.93047164
   0.34888101  0.76904346  0.52042525
   0.38323611  0.40761202  0.76300985
   0.77888280  0.80513757  0.70158948
   0.55653170  0.66707440  0.02533655
   0.37522108  0.06658242  0.95387402
   0.57786435  0.72726362  0.42290001
   0.39862813  0.05111699  0.60954341
   0.61631912  0.78274167  0.58072667
   0.44868708  0.65013414  0.64378037
   0.91967315  0.27507510  0.86640460
   0.80448336  0.74116996  0.32254497
   0.94335605  0.09255625  0.78759311
 
 position of ions in cartesian coordinates  (Angst):
   2.54602102  3.49567680  1.23688537
   8.56963728 11.64060138  0.31718769
   1.18719664  4.81108827  9.65332424
   5.25854220  9.85601674  8.26912080
   4.86698784  9.21545122  4.14823682
  11.03807874 10.51899906  6.80314553
   1.56194147 10.83613658  9.76693322
   9.54135247  4.71094008  2.93634541
   8.56575403  3.46729391 11.94077686
   2.10646483  3.58186779  5.75930936
   5.20600653  2.95889929  1.32439992
  11.26478020 10.49593067  2.75357984
   9.58938490 11.87068571  8.52762217
  11.58965127  6.72824219  0.75492719
   1.45798519 11.85606706  1.41491875
   9.72538992  6.59761696  7.65265066
   6.26241836  6.63200529 10.01267027
   8.61581628  8.06643927 11.38734924
   9.01848292  2.75639649  5.61738887
   3.58473555  6.31996472  3.40372501
   7.49323863  0.97038745  3.01947514
   1.69394016 12.00341134  5.12767401
   5.04691073  9.95763453  0.97026139
   7.95219588  9.28368534  2.59206937
   5.76765625  4.58777363  5.85880824
   2.95442100  1.27841502  7.85457485
   8.20375374  3.29085482  8.56766649
   2.03593674  8.76877297  1.62098090
  10.70349716  1.68938348 10.77858185
   3.23210741  8.46547604  9.98908574
  12.08879854  1.47323493  7.97535162
  11.15479791  1.63353776  1.68510949
   6.27745463  0.35154843  8.51775615
   5.13051869  3.53199644  9.80497064
  10.84847713  9.74170280 11.69711653
  11.24062784  4.70856889  6.18378655
   6.42765094  7.44058889  6.34130854
   0.04000460  8.31453370  9.40947682
  10.41747035  7.50091558  4.60486253
   3.27934777  1.38303565 10.84771442
   8.52484113  9.16409941  5.69282155
   5.98295938  7.16568649  1.44621668
   6.27988931  0.41857000 11.51941928
   7.92551266  8.75201856  8.52632530
   0.12031762  3.66947628  3.64115671
   2.35529501  6.51642081  6.48372204
   3.34077081  6.22958424 11.85480732
  10.69740549  4.89873678 10.94723431
   4.82059453 12.08669490  3.57331590
   6.77905695  4.52787498  3.24920757
   5.62058512  1.56124861  6.08935510
   1.27476324  8.53645790  4.59695033
   2.81448936  9.07394618  7.08308776
   9.54122352 11.68307338  4.45808377
  11.87894643  8.00954753  5.00399195
   2.88002475 10.33226494  1.24173413
   5.05987456  6.49020109  0.49611551
   6.05885428  0.34740173  5.03856327
  11.77106721  8.73300152 10.95233904
   2.48175423  1.76413191  0.19450013
   8.35429033  7.39230066  9.08163517
   9.96090374  5.01173085  0.64743258
   1.07797054  0.34241411  7.39869418
  11.06330597 11.68989855  4.78050354
   5.87084991 10.86940198  2.90143200
  11.90484808  6.99436267  8.52999335
   1.64207064  8.32140844  9.65277353
   4.35787558  2.55311560  6.24305675
   9.21728069  1.49694985 10.27656595
   0.84145207  2.79829311  8.15977205
   1.28343354  4.42109223  2.77923703
   0.60394884  5.45220457  5.95124950
   8.63986188 10.94056115  5.42595029
   9.12580504 11.36049793  2.86132609
   3.34358893  5.07672668  6.61199034
   9.14638351  5.09936813 10.42538277
  11.82822880  0.58872272  2.61905842
   1.41392216  2.59484325  4.20556103
   3.33542050  6.78459915 10.31482252
   6.88655617  9.26465095  9.93058999
  10.32067350  8.77910066  1.17353591
   5.03691349  4.11153185  3.21265740
   7.67881144  6.16448885  6.88338534
  11.83053102  9.89808714  8.98295306
   3.70078110  2.64531642  9.83991653
   3.64382508 11.49467030  4.33617801
   5.89453574 11.77618472  9.90108212
   7.48411904  3.68424579  2.08131625
   2.88049086  7.52500546  0.66940201
   5.13406454  1.09160397  2.40396788
  11.95531131  6.10991358 10.71580130
   1.61616068  9.72784235  6.12324736
   6.63045041 11.22200665  0.35809521
   1.93514340  7.67131835  7.47799910
   3.17533954  9.46083079  8.50232561
   8.90583476  1.06820366  4.74620371
   3.26255347  4.65798187 11.68500237
   5.63067931  8.38797642  2.45724777
  10.50359117  6.14074050  5.67345260
  11.06096862  3.84625502  4.84927452
   6.81723541  6.06149279  2.70419007
   3.87050306  9.62503679 10.64765192
   7.57266463 11.98237594  7.95119956
   5.43988647  6.65283762  4.93199663
   1.12174637 10.17933778  3.95879296
   7.16607292  2.28753879  6.37140751
   7.03863548  1.62248354 12.03001996
   7.49273071  4.20382617  4.59499209
   2.10244337  0.66461326  9.97172848
   6.30535368  2.17460033  9.11640614
   2.33131905  7.31974778  5.08127556
  11.18271453  3.28894881  2.50614657
  11.73973994  1.59274974  0.06741999
  11.82203368 11.28459956 11.83858174
   9.59596544  9.99514575 10.87522163
   9.49020643  1.56419237  1.52739430
  10.73588301  1.16103530  7.25338037
  10.19872187  4.02358464  7.34019074
   9.72386395  8.33432996  6.31640843
  10.97914711  6.45117303  3.33605154
   2.94736444  8.26273156  3.08216296
   0.55407819  8.46819539  1.58141320
   5.95022571  3.49948342 11.25292644
   4.21929283  9.30064832  6.29391240
   4.63477618  4.92957315  9.22767902
   9.41964314  9.73716278  8.48487416
   6.73057614  8.06745617  0.30641489
   4.53784404  0.80523367 11.53594986
   6.98856875  8.79537181  5.11446288
   4.82092393  0.61819806  7.37168856
   7.45363254  9.46631157  7.02318500
   5.42632621  7.86258425  7.78574310
  11.12233180  3.32669983 10.47811328
   9.72925092  8.96355214  3.90079039
  11.40874767  1.11935557  9.52498379
 


--------------------------------------------------------------------------------------------------------


 k-point  1 :   0.0000 0.0000 0.0000  plane waves:   58893
 k-point  2 :   0.5000 0.0000 0.0000  plane waves:   59080
 k-point  3 :   0.0000 0.5000 0.0000  plane waves:   59080
 k-point  4 :   0.5000 0.5000 0.0000  plane waves:   58996
 k-point  5 :   0.0000 0.0000 0.5000  plane waves:   59080
 k-point  6 :   0.5000 0.0000 0.5000  plane waves:   58996
 k-point  7 :   0.0000 0.5000 0.5000  plane waves:   58996
 k-point  8 :   0.5000 0.5000 0.5000  plane waves:   59152

 maximum and minimum number of plane-waves per node :      4978     4834

 maximum number of plane-waves:     59152
 maximum index in each direction: 
   IXMAX=   24   IYMAX=   24   IZMAX=   24
   IXMIN=  -24   IYMIN=  -24   IZMIN=  -24


 real space projection operators:
  total allocation   :      48963.66 KBytes
  max/ min on nodes  :       4476.00       3934.75


 parallel 3D FFT for wavefunctions:
    minimum data exchange during FFTs selected (reduces bandwidth)
 parallel 3D FFT for charge:
    minimum data exchange during FFTs selected (reduces bandwidth)


 total amount of memory used by VASP MPI-rank0   179629. kBytes
=======================================================================

   base      :      30000. kBytes
   nonlr-proj:      21874. kBytes
   fftplans  :      27580. kBytes
   grid      :      15858. kBytes
   one-center:        186. kBytes
   wavefun   :      84131. kBytes
 
     INWAV:  cpu time    0.0001: real time    0.0000
 Broyden mixing: mesh for mixing (old mesh)
   NGX = 49   NGY = 49   NGZ = 49
  (NGX  =196   NGY  =196   NGZ  =196)
  gives a total of 117649 points

 initial charge density was supplied:
 charge density of overlapping atoms calculated
 number of electron     864.0000000 magnetization 
 keeping initial charge density in first step


--------------------------------------------------------------------------------------------------------


 Maximum index for non-local projection operator          937
 Maximum index for augmentation-charges         7131 (set IRDMAX)


--------------------------------------------------------------------------------------------------------


 First call to EWALD:  gamma=   0.147
 Maximum number of real-space cells 3x 3x 3
 Maximum number of reciprocal cells 3x 3x 3

    FEWALD:  cpu time    0.0051: real time    0.0051


--------------------------------------- Iteration      1(   1)  ---------------------------------------


    POTLOK:  cpu time    0.1247: real time    0.1284
    SETDIJ:  cpu time    0.3109: real time    0.3119
     EDDAV:  cpu time   39.6164: real time   39.9879
       DOS:  cpu time    0.0026: real time    0.0026
    --------------------------------------------
      LOOP:  cpu time   40.0546: real time   40.4309

 eigenvalue-minimisations  :  8320
 total energy-change (2. order) : 0.9541965E+04  (-0.4781163E+05)
 number of electron     864.0000000 magnetization 
 augmentation part      864.0000000 magnetization 

 Free energy of the ion-electron system (eV)
  ---------------------------------------------------
  alpha Z        PSCENC =      2701.53174423
  Ewald energy   TEWEN  =    -45550.50481644
  -Hartree energ DENC   =    -17869.70107705
  -exchange      EXHF   =         0.00000000
  -V(xc)+E(xc)   XCENC  =      3169.02628351
  PAW double counting   =     50594.51003143   -49994.65612350
  entropy T*S    EENTRO =        -0.03909903
  eigenvalues    EBANDS =      1523.25745981
  atomic energy  EATOM  =     64968.54023382
  Solvation  Ediel_sol  =         0.00000000
  ---------------------------------------------------
  free energy    TOTEN  =      9541.96463679 eV

  energy without entropy =     9542.00373582  energy(sigma->0) =     9541.98418631


--------------------------------------------------------------------------------------------------------




--------------------------------------- Iteration      1(   2)  ---------------------------------------


     EDDAV:  cpu time   45.0991: real time   45.5021
       DOS:  cpu time    0.0010: real time    0.0010
    --------------------------------------------
      LOOP:  cpu time   45.1002: real time   45.5031

 eigenvalue-minimisations  :  9856
 total energy-change (2. order) :-0.9527746E+04  (-0.9230919E+04)
 number of electron     864.0000000 magnetization 
 augmentation part      864.0000000 magnetization 

 Free energy of the ion-electron system (eV)
  ---------------------------------------------------
  alpha Z        PSCENC =      2701.53174423
  Ewald energy   TEWEN  =    -45550.50481644
  -Hartree energ DENC   =    -17869.70107705
  -exchange      EXHF   =         0.00000000
  -V(xc)+E(xc)   XCENC  =      3169.02628351
  PAW double counting   =     50594.51003143   -49994.65612350
  entropy T*S    EENTRO =        -0.00000000
  eigenvalues    EBANDS =     -8004.52805383
  atomic energy  EATOM  =     64968.54023382
  Solvation  Ediel_sol  =         0.00000000
  ---------------------------------------------------
  free energy    TOTEN  =        14.21822219 eV

  energy without entropy =       14.21822219  energy(sigma->0) =       14.21822219


--------------------------------------------------------------------------------------------------------




--------------------------------------- Iteration      1(   3)  ---------------------------------------


     EDDAV:  cpu time   46.4613: real time   46.8788
       DOS:  cpu time    0.0011: real time    0.0011
    --------------------------------------------
      LOOP:  cpu time   46.4623: real time   46.8799

 eigenvalue-minimisations  : 10264
 total energy-change (2. order) :-0.1031070E+04  (-0.1024158E+04)
 number of electron     864.0000000 magnetization 
 augmentation part      864.0000000 magnetization 

 Free energy of the ion-electron system (eV)
  ---------------------------------------------------
  alpha Z        PSCENC =      2701.53174423
  Ewald energy   TEWEN  =    -45550.50481644
  -Hartree energ DENC   =    -17869.70107705
  -exchange      EXHF   =         0.00000000
  -V(xc)+E(xc)   XCENC  =      3169.02628351
  PAW double counting   =     50594.51003143   -49994.65612350
  entropy T*S    EENTRO =        -0.00000000
  eigenvalues    EBANDS =     -9035.59852318
  atomic energy  EATOM  =     64968.54023382
  Solvation  Ediel_sol  =         0.00000000
  ---------------------------------------------------
  free energy    TOTEN  =     -1016.85224716 eV

  energy without entropy =    -1016.85224716  energy(sigma->0) =    -1016.85224716


--------------------------------------------------------------------------------------------------------




--------------------------------------- Iteration      1(   4)  ---------------------------------------


     EDDAV:  cpu time   50.0398: real time   50.5241
       DOS:  cpu time    0.0010: real time    0.0010
    --------------------------------------------
      LOOP:  cpu time   50.0407: real time   50.5250

 eigenvalue-minimisations  : 11288
 total energy-change (2. order) :-0.4998348E+02  (-0.4980672E+02)
 number of electron     864.0000000 magnetization 
 augmentation part      864.0000000 magnetization 

 Free energy of the ion-electron system (eV)
  ---------------------------------------------------
  alpha Z        PSCENC =      2701.53174423
  Ewald energy   TEWEN  =    -45550.50481644
  -Hartree energ DENC   =    -17869.70107705
  -exchange      EXHF   =         0.00000000
  -V(xc)+E(xc)   XCENC  =      3169.02628351
  PAW double counting   =     50594.51003143   -49994.65612350
  entropy T*S    EENTRO =        -0.00000000
  eigenvalues    EBANDS =     -9085.58200190
  atomic energy  EATOM  =     64968.54023382
  Solvation  Ediel_sol  =         0.00000000
  ---------------------------------------------------
  free energy    TOTEN  =     -1066.83572588 eV

  energy without entropy =    -1066.83572588  energy(sigma->0) =    -1066.83572588


--------------------------------------------------------------------------------------------------------




--------------------------------------- Iteration      1(   5)  ---------------------------------------


     EDDAV:  cpu time   61.7842: real time   62.3375
       DOS:  cpu time    0.0011: real time    0.0011
    CHARGE:  cpu time    1.7053: real time    1.7148
    MIXING:  cpu time    0.0057: real time    0.0059
    --------------------------------------------
      LOOP:  cpu time   63.4963: real time   64.0593

 eigenvalue-minimisations  : 14656
 total energy-change (2. order) :-0.5319785E+01  (-0.5316928E+01)
 number of electron     864.0000007 magnetization 
 augmentation part      133.7398617 magnetization 

 Broyden mixing:
  rms(total) = 0.85416E+01    rms(broyden)= 0.85409E+01
  rms(prec ) = 0.10102E+02
  weight for this iteration     100.00

 Free energy of the ion-electron system (eV)
  ---------------------------------------------------
  alpha Z        PSCENC =      2701.53174423
  Ewald energy   TEWEN  =    -45550.50481644
  -Hartree energ DENC   =    -17869.70107705
  -exchange      EXHF   =         0.00000000
  -V(xc)+E(xc)   XCENC  =      3169.02628351
  PAW double counting   =     50594.51003143   -49994.65612350
  entropy T*S    EENTRO =        -0.00000000
  eigenvalues    EBANDS =     -9090.90178662
  atomic energy  EATOM  =     64968.54023382
  Solvation  Ediel_sol  =         0.00000000
  ---------------------------------------------------
  free energy    TOTEN  =     -1072.15551060 eV

  energy without entropy =    -1072.15551060  energy(sigma->0) =    -1072.15551060


--------------------------------------------------------------------------------------------------------




--------------------------------------- Iteration      1(   6)  ---------------------------------------


    POTLOK:  cpu time    0.1226: real time    0.1343
    SETDIJ:  cpu time    0.3093: real time    0.3104
     EDDAV:  cpu time   46.2677: real time   46.6614
       DOS:  cpu time    0.0010: real time    0.0010
    CHARGE:  cpu time    1.6999: real time    1.7139
    MIXING:  cpu time    0.0050: real time    0.0050
    --------------------------------------------
      LOOP:  cpu time   48.4054: real time   48.8261

 eigenvalue-minimisations  : 10232
 total energy-change (2. order) : 0.1476614E+03  (-0.6961800E+02)
 number of electron     864.0000006 magnetization 
 augmentation part      119.9833066 magnetization 

 Broyden mixing:
  rms(total) = 0.36588E+01    rms(broyden)= 0.36578E+01
  rms(prec ) = 0.38687E+01
  weight for this iteration     100.00

 eigenvalues of (default mixing * dielectric matrix)
  average eigenvalue GAMMA=   1.0091
  1.0091

 Free energy of the ion-electron system (eV)
  ---------------------------------------------------
  alpha Z        PSCENC =      2701.53174423
  Ewald energy   TEWEN  =    -45550.50481644
  -Hartree energ DENC   =    -19273.05950764
  -exchange      EXHF   =         0.00000000
  -V(xc)+E(xc)   XCENC  =      3261.85795920
  PAW double counting   =     65594.93011217   -65137.43929643
  entropy T*S    EENTRO =        -0.00000000
  eigenvalues    EBANDS =     -7490.35049119
  atomic energy  EATOM  =     64968.54023382
  Solvation  Ediel_sol  =         0.00000000
  ---------------------------------------------------
  free energy    TOTEN  =      -924.49406226 eV

  energy without entropy =     -924.49406226  energy(sigma->0) =     -924.49406226


--------------------------------------------------------------------------------------------------------




--------------------------------------- Iteration      1(   7)  ---------------------------------------


    POTLOK:  cpu time    0.1203: real time    0.1290
    SETDIJ:  cpu time    0.3087: real time    0.3098
     EDDAV:  cpu time   50.1821: real time   50.6751
       DOS:  cpu time    0.0011: real time    0.0011
    CHARGE:  cpu time    1.7059: real time    1.7234
    MIXING:  cpu time    0.0052: real time    0.0052
    --------------------------------------------
      LOOP:  cpu time   52.3232: real time   52.8437

 eigenvalue-minimisations  : 11320
 total energy-change (2. order) :-0.1805567E+01  (-0.6953058E+01)
 number of electron     864.0000006 magnetization 
 augmentation part      119.0814665 magnetization 

 Broyden mixing:
  rms(total) = 0.18056E+01    rms(broyden)= 0.18056E+01
  rms(prec ) = 0.19722E+01
  weight for this iteration     100.00

 eigenvalues of (default mixing * dielectric matrix)
  average eigenvalue GAMMA=   1.2290
  1.2290  1.2290

 Free energy of the ion-electron system (eV)
  ---------------------------------------------------
  alpha Z        PSCENC =      2701.53174423
  Ewald energy   TEWEN  =    -45550.50481644
  -Hartree energ DENC   =    -19335.10409477
  -exchange      EXHF   =         0.00000000
  -V(xc)+E(xc)   XCENC  =      3264.22421127
  PAW double counting   =     78380.61657783   -77978.71724926
  entropy T*S    EENTRO =        -0.00000000
  eigenvalues    EBANDS =     -7376.88623593
  atomic energy  EATOM  =     64968.54023382
  Solvation  Ediel_sol  =         0.00000000
  ---------------------------------------------------
  free energy    TOTEN  =      -926.29962925 eV

  energy without entropy =     -926.29962925  energy(sigma->0) =     -926.29962925


--------------------------------------------------------------------------------------------------------




--------------------------------------- Iteration      1(   8)  ---------------------------------------


    POTLOK:  cpu time    0.1221: real time    0.1321
    SETDIJ:  cpu time    0.3098: real time    0.3107
     EDDAV:  cpu time   46.9205: real time   47.3307
       DOS:  cpu time    0.0010: real time    0.0010
    CHARGE:  cpu time    1.7442: real time    1.7600
    MIXING:  cpu time    0.0052: real time    0.0053
    --------------------------------------------
      LOOP:  cpu time   49.1027: real time   49.5397

 eigenvalue-minimisations  : 10376
 total energy-change (2. order) : 0.1251466E+01  (-0.1050857E+01)
 number of electron     864.0000006 magnetization 
 augmentation part      119.4749048 magnetization 

 Broyden mixing:
  rms(total) = 0.72620E+00    rms(broyden)= 0.72611E+00
  rms(prec ) = 0.84718E+00
  weight for this iteration     100.00

 eigenvalues of (default mixing * dielectric matrix)
  average eigenvalue GAMMA=   1.3564
  2.1467  0.9612  0.9612

 Free energy of the ion-electron system (eV)
  ---------------------------------------------------
  alpha Z        PSCENC =      2701.53174423
  Ewald energy   TEWEN  =    -45550.50481644
  -Hartree energ DENC   =    -19340.84448200
  -exchange      EXHF   =         0.00000000
  -V(xc)+E(xc)   XCENC  =      3263.07678870
  PAW double counting   =     86621.57066689   -86260.22437748
  entropy T*S    EENTRO =        -0.00000000
  eigenvalues    EBANDS =     -7328.19392113
  atomic energy  EATOM  =     64968.54023382
  Solvation  Ediel_sol  =         0.00000000
  ---------------------------------------------------
  free energy    TOTEN  =      -925.04816340 eV

  energy without entropy =     -925.04816340  energy(sigma->0) =     -925.04816340


--------------------------------------------------------------------------------------------------------




--------------------------------------- Iteration      1(   9)  ---------------------------------------


    POTLOK:  cpu time    0.1220: real time    0.1334
    SETDIJ:  cpu time    0.3075: real time    0.3133
     EDDAV:  cpu time   48.5175: real time   49.9390
       DOS:  cpu time    0.0009: real time    0.0009
    CHARGE:  cpu time    1.6920: real time    1.7477
    MIXING:  cpu time    0.0040: real time    0.0041
    --------------------------------------------
      LOOP:  cpu time   50.6439: real time   52.1385

 eigenvalue-minimisations  : 11040
 total energy-change (2. order) : 0.3058439E+00  (-0.2330729E+00)
 number of electron     864.0000006 magnetization 
 augmentation part      118.7958449 magnetization 

 Broyden mixing:
  rms(total) = 0.20800E+00    rms(broyden)= 0.20798E+00
  rms(prec ) = 0.25513E+00
  weight for this iteration     100.00

 eigenvalues of (default mixing * dielectric matrix)
  average eigenvalue GAMMA=   1.3635
  2.3640  1.2313  0.9295  0.9295

 Free energy of the ion-electron system (eV)
  ---------------------------------------------------
  alpha Z        PSCENC =      2701.53174423
  Ewald energy   TEWEN  =    -45550.50481644
  -Hartree energ DENC   =    -19430.91597142
  -exchange      EXHF   =         0.00000000
  -V(xc)+E(xc)   XCENC  =      3268.46458121
  PAW double counting   =     92571.98253605   -92235.43575350
  entropy T*S    EENTRO =        -0.00000000
  eigenvalues    EBANDS =     -7218.40487348
  atomic energy  EATOM  =     64968.54023382
  Solvation  Ediel_sol  =         0.00000000
  ---------------------------------------------------
  free energy    TOTEN  =      -924.74231953 eV

  energy without entropy =     -924.74231953  energy(sigma->0) =     -924.74231953


--------------------------------------------------------------------------------------------------------




--------------------------------------- Iteration      1(  10)  ---------------------------------------


    POTLOK:  cpu time    0.1211: real time    0.1293
    SETDIJ:  cpu time    0.3096: real time    0.3104
     EDDAV:  cpu time   51.5012: real time   51.9306
       DOS:  cpu time    0.0012: real time    0.0012
    CHARGE:  cpu time    1.7331: real time    1.7594
    MIXING:  cpu time    0.0071: real time    0.0075
    --------------------------------------------
      LOOP:  cpu time   53.6732: real time   54.1383

 eigenvalue-minimisations  : 11800
 total energy-change (2. order) :-0.9383162E-01  (-0.9500552E-01)
 number of electron     864.0000006 magnetization 
 augmentation part      118.7096686 magnetization 

 Broyden mixing:
  rms(total) = 0.13102E+00    rms(broyden)= 0.13100E+00
  rms(prec ) = 0.15641E+00
  weight for this iteration     100.00

 eigenvalues of (default mixing * dielectric matrix)
  average eigenvalue GAMMA=   1.2855
  2.4449  1.1482  1.1482  0.8432  0.8432

 Free energy of the ion-electron system (eV)
  ---------------------------------------------------
  alpha Z        PSCENC =      2701.53174423
  Ewald energy   TEWEN  =    -45550.50481644
  -Hartree energ DENC   =    -19447.01497816
  -exchange      EXHF   =         0.00000000
  -V(xc)+E(xc)   XCENC  =      3269.18244982
  PAW double counting   =     93602.06553005   -93268.18081045
  entropy T*S    EENTRO =        -0.00000000
  eigenvalues    EBANDS =     -7200.45550403
  atomic energy  EATOM  =     64968.54023382
  Solvation  Ediel_sol  =         0.00000000
  ---------------------------------------------------
  free energy    TOTEN  =      -924.83615115 eV

  energy without entropy =     -924.83615115  energy(sigma->0) =     -924.83615115


--------------------------------------------------------------------------------------------------------




--------------------------------------- Iteration      1(  11)  ---------------------------------------


    POTLOK:  cpu time    0.1243: real time    0.1312
    SETDIJ:  cpu time    0.3077: real time    0.3094
     EDDAV:  cpu time   50.1117: real time   50.5469
       DOS:  cpu time    0.0010: real time    0.0010
    CHARGE:  cpu time    1.6972: real time    1.7071
    MIXING:  cpu time    0.0054: real time    0.0054
    --------------------------------------------
      LOOP:  cpu time   52.2473: real time   52.7009

 eigenvalue-minimisations  : 11344
 total energy-change (2. order) :-0.8245862E-02  (-0.1560162E-01)
 number of electron     864.0000006 magnetization 
 augmentation part      118.6570567 magnetization 

 Broyden mixing:
  rms(total) = 0.73474E-01    rms(broyden)= 0.73468E-01
  rms(prec ) = 0.89129E-01
  weight for this iteration     100.00

 eigenvalues of (default mixing * dielectric matrix)
  average eigenvalue GAMMA=   1.3675
  2.4635  1.9445  0.9880  0.9880  0.9104  0.9104

 Free energy of the ion-electron system (eV)
  ---------------------------------------------------
  alpha Z        PSCENC =      2701.53174423
  Ewald energy   TEWEN  =    -45550.50481644
  -Hartree energ DENC   =    -19458.22252898
  -exchange      EXHF   =         0.00000000
  -V(xc)+E(xc)   XCENC  =      3269.76695967
  PAW double counting   =     93626.28781802   -93291.73414581
  entropy T*S    EENTRO =        -0.00000000
  eigenvalues    EBANDS =     -7190.50966153
  atomic energy  EATOM  =     64968.54023382
  Solvation  Ediel_sol  =         0.00000000
  ---------------------------------------------------
  free energy    TOTEN  =      -924.84439701 eV

  energy without entropy =     -924.84439701  energy(sigma->0) =     -924.84439701


--------------------------------------------------------------------------------------------------------




--------------------------------------- Iteration      1(  12)  ---------------------------------------


    POTLOK:  cpu time    0.1217: real time    0.1334
    SETDIJ:  cpu time    0.3074: real time    0.3087
     EDDAV:  cpu time   45.6037: real time   46.0202
       DOS:  cpu time    0.0010: real time    0.0010
    CHARGE:  cpu time    1.7598: real time    1.7713
    MIXING:  cpu time    0.0053: real time    0.0053
    --------------------------------------------
      LOOP:  cpu time   47.7990: real time   48.2399

 eigenvalue-minimisations  :  9952
 total energy-change (2. order) :-0.8456367E-02  (-0.5010292E-02)
 number of electron     864.0000006 magnetization 
 augmentation part      118.6852222 magnetization 

 Broyden mixing:
  rms(total) = 0.24754E-01    rms(broyden)= 0.24746E-01
  rms(prec ) = 0.35896E-01
  weight for this iteration     100.00

 eigenvalues of (default mixing * dielectric matrix)
  average eigenvalue GAMMA=   1.3715
  2.5745  2.4257  0.9829  0.9829  0.9072  0.8635  0.8635

 Free energy of the ion-electron system (eV)
  ---------------------------------------------------
  alpha Z        PSCENC =      2701.53174423
  Ewald energy   TEWEN  =    -45550.50481644
  -Hartree energ DENC   =    -19461.57290713
  -exchange      EXHF   =         0.00000000
  -V(xc)+E(xc)   XCENC  =      3269.76301416
  PAW double counting   =     93410.42174047   -93073.71864519
  entropy T*S    EENTRO =        -0.00000000
  eigenvalues    EBANDS =     -7189.31321730
  atomic energy  EATOM  =     64968.54023382
  Solvation  Ediel_sol  =         0.00000000
  ---------------------------------------------------
  free energy    TOTEN  =      -924.85285338 eV

  energy without entropy =     -924.85285338  energy(sigma->0) =     -924.85285338


--------------------------------------------------------------------------------------------------------




--------------------------------------- Iteration      1(  13)  ---------------------------------------


    POTLOK:  cpu time    0.1261: real time    0.1324
    SETDIJ:  cpu time    0.3076: real time    0.3086
     EDDAV:  cpu time   55.5322: real time   55.8081
       DOS:  cpu time    0.0010: real time    0.0010
    CHARGE:  cpu time    1.7558: real time    1.7619
    MIXING:  cpu time    0.0051: real time    0.0051
    --------------------------------------------
      LOOP:  cpu time   57.7277: real time   58.0171

 eigenvalue-minimisations  : 12648
 total energy-change (2. order) :-0.1960535E-02  (-0.1347789E-02)
 number of electron     864.0000006 magnetization 
 augmentation part      118.6835334 magnetization 

 Broyden mixing:
  rms(total) = 0.17338E-01    rms(broyden)= 0.17337E-01
  rms(prec ) = 0.22372E-01
  weight for this iteration     100.00

 eigenvalues of (default mixing * dielectric matrix)
  average eigenvalue GAMMA=   1.3424
  2.7275  2.4657  1.0448  1.0448  0.8903  0.8903  0.8378  0.8378

 Free energy of the ion-electron system (eV)
  ---------------------------------------------------
  alpha Z        PSCENC =      2701.53174423
  Ewald energy   TEWEN  =    -45550.50481644
  -Hartree energ DENC   =    -19465.82748108
  -exchange      EXHF   =         0.00000000
  -V(xc)+E(xc)   XCENC  =      3269.92691589
  PAW double counting   =     93319.73127097   -92982.13526930
  entropy T*S    EENTRO =        -0.00000000
  eigenvalues    EBANDS =     -7186.11741201
  atomic energy  EATOM  =     64968.54023382
  Solvation  Ediel_sol  =         0.00000000
  ---------------------------------------------------
  free energy    TOTEN  =      -924.85481391 eV

  energy without entropy =     -924.85481391  energy(sigma->0) =     -924.85481391


--------------------------------------------------------------------------------------------------------




--------------------------------------- Iteration      1(  14)  ---------------------------------------


    POTLOK:  cpu time    0.1283: real time    0.1367
    SETDIJ:  cpu time    0.3258: real time    0.3279
     EDDAV:  cpu time   49.1050: real time   49.7371
       DOS:  cpu time    0.0010: real time    0.0010
    CHARGE:  cpu time    1.6683: real time    1.7099
    MIXING:  cpu time    0.0046: real time    0.0047
    --------------------------------------------
      LOOP:  cpu time   51.2331: real time   51.9172

 eigenvalue-minimisations  : 10896
 total energy-change (2. order) :-0.4131722E-03  (-0.6903464E-03)
 number of electron     864.0000006 magnetization 
 augmentation part      118.6774054 magnetization 

 Broyden mixing:
  rms(total) = 0.10893E-01    rms(broyden)= 0.10891E-01
  rms(prec ) = 0.13648E-01
  weight for this iteration     100.00

 eigenvalues of (default mixing * dielectric matrix)
  average eigenvalue GAMMA=   1.3102
  2.8434  2.4522  1.1121  0.9858  0.9858  0.8723  0.8723  0.8340  0.8340

 Free energy of the ion-electron system (eV)
  ---------------------------------------------------
  alpha Z        PSCENC =      2701.53174423
  Ewald energy   TEWEN  =    -45550.50481644
  -Hartree energ DENC   =    -19467.57925010
  -exchange      EXHF   =         0.00000000
  -V(xc)+E(xc)   XCENC  =      3269.99940437
  PAW double counting   =     93302.55276200   -92964.77293351
  entropy T*S    EENTRO =        -0.00000000
  eigenvalues    EBANDS =     -7184.62237147
  atomic energy  EATOM  =     64968.54023382
  Solvation  Ediel_sol  =         0.00000000
  ---------------------------------------------------
  free energy    TOTEN  =      -924.85522709 eV

  energy without entropy =     -924.85522709  energy(sigma->0) =     -924.85522709


--------------------------------------------------------------------------------------------------------




--------------------------------------- Iteration      1(  15)  ---------------------------------------


    POTLOK:  cpu time    0.1226: real time    0.1305
    SETDIJ:  cpu time    0.3090: real time    0.3097
     EDDAV:  cpu time   48.6146: real time   49.6415
       DOS:  cpu time    0.0011: real time    0.0011
    CHARGE:  cpu time    1.6996: real time    1.7057
    MIXING:  cpu time    0.0060: real time    0.0060
    --------------------------------------------
      LOOP:  cpu time   50.7528: real time   51.7945

 eigenvalue-minimisations  : 11040
 total energy-change (2. order) :-0.1298790E-04  (-0.1035131E-03)
 number of electron     864.0000006 magnetization 
 augmentation part      118.6783710 magnetization 

 Broyden mixing:
  rms(total) = 0.59293E-02    rms(broyden)= 0.59287E-02
  rms(prec ) = 0.76569E-02
  weight for this iteration     100.00

 eigenvalues of (default mixing * dielectric matrix)
  average eigenvalue GAMMA=   1.4027
  3.1431  2.3000  2.3000  0.9941  0.9941  0.8541  0.8686  0.8686  0.8522  0.8522

 Free energy of the ion-electron system (eV)
  ---------------------------------------------------
  alpha Z        PSCENC =      2701.53174423
  Ewald energy   TEWEN  =    -45550.50481644
  -Hartree energ DENC   =    -19468.24269698
  -exchange      EXHF   =         0.00000000
  -V(xc)+E(xc)   XCENC  =      3270.01836830
  PAW double counting   =     93305.68912573   -92967.89568550
  entropy T*S    EENTRO =        -0.00000000
  eigenvalues    EBANDS =     -7183.99151324
  atomic energy  EATOM  =     64968.54023382
  Solvation  Ediel_sol  =         0.00000000
  ---------------------------------------------------
  free energy    TOTEN  =      -924.85524007 eV

  energy without entropy =     -924.85524007  energy(sigma->0) =     -924.85524007


--------------------------------------------------------------------------------------------------------




--------------------------------------- Iteration      1(  16)  ---------------------------------------


    POTLOK:  cpu time    0.1211: real time    0.1291
    SETDIJ:  cpu time    0.3106: real time    0.3117
     EDDAV:  cpu time   45.6408: real time   45.9409
       DOS:  cpu time    0.0011: real time    0.0011
    CHARGE:  cpu time    1.7166: real time    1.7233
    MIXING:  cpu time    0.0058: real time    0.0058
    --------------------------------------------
      LOOP:  cpu time   47.7962: real time   48.1119

 eigenvalue-minimisations  :  9984
 total energy-change (2. order) :-0.7508061E-06  (-0.3774366E-04)
 number of electron     864.0000006 magnetization 
 augmentation part      118.6759060 magnetization 

 Broyden mixing:
  rms(total) = 0.21901E-02    rms(broyden)= 0.21891E-02
  rms(prec ) = 0.29988E-02
  weight for this iteration     100.00

 eigenvalues of (default mixing * dielectric matrix)
  average eigenvalue GAMMA=   1.3979
  3.2655  2.3988  2.3988  0.9873  0.9873  0.9203  0.9203  0.9110  0.9110  0.8382
  0.8382

 Free energy of the ion-electron system (eV)
  ---------------------------------------------------
  alpha Z        PSCENC =      2701.53174423
  Ewald energy   TEWEN  =    -45550.50481644
  -Hartree energ DENC   =    -19469.21087695
  -exchange      EXHF   =         0.00000000
  -V(xc)+E(xc)   XCENC  =      3270.05324122
  PAW double counting   =     93324.18668343   -92986.47724155
  entropy T*S    EENTRO =        -0.00000000
  eigenvalues    EBANDS =     -7182.97420858
  atomic energy  EATOM  =     64968.54023382
  Solvation  Ediel_sol  =         0.00000000
  ---------------------------------------------------
  free energy    TOTEN  =      -924.85524082 eV

  energy without entropy =     -924.85524082  energy(sigma->0) =     -924.85524082


--------------------------------------------------------------------------------------------------------




--------------------------------------- Iteration      1(  17)  ---------------------------------------


    POTLOK:  cpu time    0.1227: real time    0.1298
    SETDIJ:  cpu time    0.3112: real time    0.3125
     EDDAV:  cpu time   52.2761: real time   52.6044
       DOS:  cpu time    0.0011: real time    0.0011
    CHARGE:  cpu time    1.7068: real time    1.7279
    MIXING:  cpu time    0.0344: real time    0.0361
    --------------------------------------------
      LOOP:  cpu time   54.4522: real time   54.8118

 eigenvalue-minimisations  : 11912
 total energy-change (2. order) :-0.1218324E-04  (-0.2512866E-04)
 number of electron     864.0000006 magnetization 
 augmentation part      118.6773731 magnetization 

 Broyden mixing:
  rms(total) = 0.18481E-02    rms(broyden)= 0.18473E-02
  rms(prec ) = 0.21491E-02
  weight for this iteration     100.00

 eigenvalues of (default mixing * dielectric matrix)
  average eigenvalue GAMMA=   1.3330
  3.3956  2.3878  2.3878  0.9990  0.9990  0.9491  0.9491  0.9279  0.9279  0.8083
  0.8083  0.4568

 Free energy of the ion-electron system (eV)
  ---------------------------------------------------
  alpha Z        PSCENC =      2701.53174423
  Ewald energy   TEWEN  =    -45550.50481644
  -Hartree energ DENC   =    -19469.14962627
  -exchange      EXHF   =         0.00000000
  -V(xc)+E(xc)   XCENC  =      3270.04360090
  PAW double counting   =     93324.12364185   -92986.42594785
  entropy T*S    EENTRO =        -0.00000000
  eigenvalues    EBANDS =     -7183.01408326
  atomic energy  EATOM  =     64968.54023382
  Solvation  Ediel_sol  =         0.00000000
  ---------------------------------------------------
  free energy    TOTEN  =      -924.85525301 eV

  energy without entropy =     -924.85525301  energy(sigma->0) =     -924.85525301


--------------------------------------------------------------------------------------------------------




--------------------------------------- Iteration      1(  18)  ---------------------------------------


    POTLOK:  cpu time    0.1204: real time    0.1316
    SETDIJ:  cpu time    0.3033: real time    0.3092
     EDDAV:  cpu time   46.3101: real time   47.1773
       DOS:  cpu time    0.0012: real time    0.0012
    CHARGE:  cpu time    1.7164: real time    1.7221
    MIXING:  cpu time    0.0064: real time    0.0064
    --------------------------------------------
      LOOP:  cpu time   48.4578: real time   49.3478

 eigenvalue-minimisations  : 10392
 total energy-change (2. order) :-0.1236622E-06  (-0.4092482E-05)
 number of electron     864.0000006 magnetization 
 augmentation part      118.6780950 magnetization 

 Broyden mixing:
  rms(total) = 0.11416E-02    rms(broyden)= 0.11405E-02
  rms(prec ) = 0.13365E-02
  weight for this iteration     100.00

 eigenvalues of (default mixing * dielectric matrix)
  average eigenvalue GAMMA=   1.3700
  3.5735  2.5414  2.3649  1.2823  1.0110  1.0110  0.8721  0.9275  0.9275  0.8358
  0.8358  0.8138  0.8138

 Free energy of the ion-electron system (eV)
  ---------------------------------------------------
  alpha Z        PSCENC =      2701.53174423
  Ewald energy   TEWEN  =    -45550.50481644
  -Hartree energ DENC   =    -19469.09409753
  -exchange      EXHF   =         0.00000000
  -V(xc)+E(xc)   XCENC  =      3270.03855101
  PAW double counting   =     93325.05949366   -92987.36953516
  entropy T*S    EENTRO =        -0.00000000
  eigenvalues    EBANDS =     -7183.05682673
  atomic energy  EATOM  =     64968.54023382
  Solvation  Ediel_sol  =         0.00000000
  ---------------------------------------------------
  free energy    TOTEN  =      -924.85525313 eV

  energy without entropy =     -924.85525313  energy(sigma->0) =     -924.85525313


--------------------------------------------------------------------------------------------------------
[...]
   -.580E+01 -.172E+02 0.636E+02   0.178E+02 0.317E+01 -.831E+02   -.118E+02 0.128E+02 0.185E+02   -.217E-03 0.155E-03 -.581E-03
   0.679E+02 0.649E+02 0.172E+02   -.627E+02 -.550E+02 -.126E+02   -.686E+01 -.105E+02 -.465E+01   0.344E-03 -.160E-03 0.322E-03
   0.161E+03 -.664E+02 -.151E+02   -.158E+03 0.775E+02 -.425E+01   -.442E+01 -.107E+02 0.207E+02   0.831E-03 0.146E-02 -.163E-02
   -.414E+02 0.441E+02 -.414E+02   0.527E+02 -.236E+02 0.343E+02   -.137E+02 -.247E+02 0.942E+01   -.101E-02 -.154E-02 0.139E-02
   0.181E+02 -.567E+02 -.336E+02   -.342E+02 0.729E+02 0.270E+02   0.164E+02 -.170E+02 0.763E+01   -.542E-03 0.918E-03 -.182E-03
   0.497E+02 0.417E+02 0.271E+02   -.486E+02 -.617E+02 -.129E+02   -.206E+01 0.203E+02 -.152E+02   0.396E-03 0.244E-02 -.183E-03
   0.191E+02 0.144E+03 -.457E+02   -.435E+02 -.138E+03 0.731E+02   0.262E+02 -.741E+01 -.280E+02   -.318E-03 0.723E-03 -.299E-03
   0.415E+01 -.677E+02 -.169E+02   -.381E+00 0.843E+02 0.359E+02   -.302E+01 -.145E+02 -.156E+02   0.531E-04 0.356E-03 0.211E-03
   -.257E+02 -.591E+02 -.700E+01   0.177E+02 0.728E+02 0.141E+02   0.811E+01 -.152E+02 -.101E+02   0.429E-03 0.491E-03 -.116E-02
   0.511E+02 0.275E+02 0.282E+02   -.465E+02 -.565E+02 -.397E+02   -.616E+01 0.295E+02 0.125E+02   -.501E-04 -.237E-02 0.688E-03
   -.139E+02 0.113E+03 0.147E+02   0.103E+02 -.977E+02 0.586E+00   0.390E+01 -.179E+02 -.169E+02   0.177E-03 0.104E-02 -.836E-03
   0.416E+02 0.655E+02 0.469E+02   -.453E+02 -.617E+02 -.463E+02   0.139E+01 -.483E+01 -.226E+00   -.136E-03 -.725E-03 0.635E-03
   -.379E+02 0.795E+02 0.574E+01   0.199E+02 -.925E+02 -.122E+02   0.185E+02 0.112E+02 0.482E+01   -.468E-03 -.135E-03 -.104E-02
   -.798E+02 -.358E+02 0.439E+02   0.870E+02 0.534E+02 -.374E+02   -.748E+01 -.147E+02 -.931E+01   0.426E-03 -.313E-02 -.421E-03
   -.471E+02 -.685E+02 -.127E+03   0.652E+02 0.102E+03 0.144E+03   -.152E+02 -.306E+02 -.129E+02   -.109E-02 0.187E-04 -.826E-03
   0.269E+02 -.418E+02 0.500E+02   0.257E+01 0.278E+02 -.688E+02   -.275E+02 0.134E+02 0.168E+02   -.433E-03 0.858E-03 0.287E-02
   0.967E+01 0.585E+02 -.144E+02   -.135E+02 -.617E+02 0.579E+00   0.455E+01 0.429E+01 0.169E+02   0.774E-03 -.158E-02 -.132E-03
   -.618E+02 -.230E+02 0.782E+02   0.623E+02 0.386E+02 -.813E+02   -.815E+00 -.181E+02 0.957E+00   -.118E-02 0.919E-03 -.227E-03
   0.743E+02 -.382E+02 -.631E+02   -.583E+02 0.406E+02 0.645E+02   -.202E+02 -.230E+01 0.108E+00   0.644E-03 0.358E-03 -.716E-03
   -.180E+02 -.751E+02 0.178E+01   0.335E+02 0.106E+03 0.767E+01   -.128E+02 -.299E+02 -.796E+01   -.790E-03 -.102E-03 -.735E-04
   -.335E+02 -.413E+02 -.307E+02   0.485E+02 0.353E+02 0.570E+02   -.133E+02 0.632E+01 -.257E+02   -.144E-02 -.545E-03 -.204E-02
   0.274E+02 -.782E+02 -.646E+02   -.503E+02 0.747E+02 0.555E+02   0.257E+02 0.494E+01 0.920E+01   -.279E-03 0.404E-03 0.104E-02
   0.277E+02 -.776E+02 0.190E+02   -.210E+02 0.781E+02 -.148E+02   -.746E+01 -.180E+00 -.512E+01   0.241E-03 0.125E-03 0.191E-02
   -.564E+01 0.111E+03 0.299E+02   0.195E+02 -.112E+03 -.465E+02   -.137E+02 0.129E-01 0.159E+02   0.376E-03 -.547E-03 -.832E-03
   -.707E+02 0.379E+01 0.964E+02   0.533E+02 0.213E+01 -.113E+03   0.167E+02 -.925E+01 0.142E+02   0.891E-04 0.119E-02 -.710E-03
   -.123E+03 -.952E+02 -.764E+00   0.148E+03 0.912E+02 -.587E+01   -.270E+02 0.507E+01 0.778E+01   0.621E-03 0.231E-03 -.872E-04
   -.466E+02 -.467E+02 0.469E+00   0.532E+02 0.652E+02 -.369E+01   -.801E+01 -.224E+02 0.451E+01   -.469E-03 0.115E-02 0.390E-03
   0.483E+02 -.632E+02 0.190E+02   -.729E+02 0.705E+02 -.463E+02   0.204E+02 -.540E+01 0.276E+02   0.237E-02 -.115E-02 0.251E-02
   -.778E+01 -.716E+02 0.117E+02   -.149E+02 0.722E+02 -.111E+02   0.237E+02 -.450E+00 -.145E+01   0.424E-03 0.316E-03 -.781E-03
   0.695E+01 -.126E+03 0.110E+03   -.312E+02 0.124E+03 -.128E+03   0.224E+02 0.215E+01 0.152E+02   0.138E-02 -.799E-03 0.227E-02
   -.380E+02 0.180E+02 -.113E+03   0.280E+02 -.290E+02 0.131E+03   0.114E+02 0.126E+02 -.191E+02   -.386E-03 -.445E-03 -.211E-04
   -.444E+02 0.477E+02 -.358E+01   0.652E+02 -.576E+02 0.224E+02   -.202E+02 0.973E+01 -.206E+02   -.158E-02 0.589E-03 0.927E-03
   -.585E+02 0.311E+02 0.117E+03   0.716E+02 -.396E+02 -.128E+03   -.156E+02 0.905E+01 0.101E+02   -.634E-03 -.105E-02 -.975E-03
   0.652E+02 0.189E+01 0.485E+02   -.557E+02 -.134E+01 -.385E+02   -.126E+02 0.159E+01 -.117E+02   0.688E-03 -.920E-03 -.610E-03
   -.172E+02 0.576E+02 -.152E+01   -.191E+02 -.622E+02 0.212E+01   0.350E+02 0.492E+01 -.117E+00   -.886E-03 -.517E-04 -.103E-02
   -.155E+02 -.142E+03 0.417E+01   0.288E+02 0.138E+03 0.149E+02   -.141E+02 0.652E+01 -.203E+02   -.352E-03 -.137E-02 0.456E-03
   -.149E+02 -.409E+02 0.563E+02   0.368E+02 0.445E+02 -.687E+02   -.233E+02 -.342E+01 0.121E+02   -.306E-03 -.355E-03 0.658E-03
   0.327E+02 -.339E+02 0.100E+03   -.484E+02 0.603E+02 -.113E+03   0.180E+02 -.265E+02 0.119E+02   0.609E-03 -.225E-02 0.207E-02
   -.163E+02 0.465E+02 -.621E+02   0.321E+02 -.430E+02 0.681E+02   -.178E+02 -.521E+01 -.722E+01   -.275E-03 0.629E-03 0.555E-03
   -.301E+02 0.616E+02 0.441E+02   0.346E+02 -.458E+02 -.624E+02   -.251E+01 -.161E+02 0.189E+02   0.651E-03 -.466E-03 -.197E-03
   0.561E+02 0.355E+02 -.550E+02   -.502E+02 -.436E+02 0.716E+02   -.140E+01 0.629E+01 -.151E+02   -.137E-02 0.243E-02 0.266E-03
   0.286E+02 0.669E+02 0.761E+02   -.463E+02 -.596E+02 -.885E+02   0.184E+02 -.105E+02 0.955E+01   0.564E-03 0.393E-03 0.752E-03
   0.166E+02 0.523E+02 0.261E+02   -.322E+02 -.589E+02 -.264E+02   0.210E+02 0.356E+01 0.208E+01   -.835E-03 0.258E-02 0.154E-02
   0.795E+02 -.589E+02 -.118E+02   -.958E+02 0.778E+02 0.747E+01   0.163E+02 -.212E+02 0.844E+01   0.136E-02 -.105E-02 0.147E-02
   0.610E+02 0.225E+03 -.295E+02   -.738E+02 -.225E+03 0.396E+02   0.156E+02 -.289E+01 -.116E+02   0.191E-02 0.126E-02 0.389E-03
   -.105E+03 -.701E+02 0.836E+01   0.117E+03 0.651E+02 -.219E+02   -.121E+02 0.827E+01 0.145E+02   -.937E-04 -.823E-03 0.137E-02
   -.168E+01 0.108E+03 0.622E+02   0.254E+01 -.939E+02 -.731E+02   -.229E+01 -.164E+02 0.127E+02   0.437E-03 0.161E-02 -.133E-02
   -.970E+02 -.200E+02 -.483E+02   0.103E+03 0.583E+01 0.410E+02   -.308E+01 0.118E+02 0.512E+01   -.631E-03 0.881E-03 0.105E-02
 -----------------------------------------------------------------------------------------------
   -.257E+02 0.540E+02 -.127E+02   -.369E-12 0.348E-12 -.313E-12   0.257E+02 -.540E+02 0.127E+02   -.900E-03 0.965E-02 0.344E-02
 
 
 POSITION                                       TOTAL-FORCE (eV/Angst)
 -----------------------------------------------------------------------------------
      2.54602      3.49568      1.23689        -2.174426      0.320261      1.878974
      8.56964     11.64060      0.31719         4.565112      1.068277      0.043290
      1.18720      4.81109      9.65332         1.151663     -0.761030     -1.677968
      5.25854      9.85602      8.26912         2.119151      1.473295      0.409852
      4.86699      9.21545      4.14824        -0.924571      0.909515      2.489537
     11.03808     10.51900      6.80315         1.767237     -1.623070     -0.138319
      1.56194     10.83614      9.76693        -1.590412     -1.642297      0.444423
      9.54135      4.71094      2.93635         0.144978      1.086722     -0.673152
      8.56575      3.46729     11.94078        -2.485739     -1.444501      1.418702
      2.10646      3.58187      5.75931         1.192773      0.034269      2.386669
      5.20601      2.95890      1.32440         2.327511     -0.623033     -1.604445
     11.26478     10.49593      2.75358         0.229088     -1.923051     -0.198847
      9.58938     11.87069      8.52762        -0.693109      0.153866      2.563601
     11.58965      6.72824      0.75493        -0.310431      1.400103      2.531482
      1.45799     11.85607      1.41492         0.052050      1.497247     -1.619147
      9.72539      6.59762      7.65265         0.916502     -0.805425      1.318329
      6.26242      6.63201     10.01267        -0.892267      0.392424     -1.129838
      8.61582      8.06644     11.38735         0.325491      0.376146     -1.049578
      9.01848      2.75640      5.61739         1.485731      1.818919      1.107541
      3.58474      6.31996      3.40373         1.061612     -1.612092      0.756595
      7.49324      0.97039      3.01948         0.245404      0.405367     -0.296738
      1.69394     12.00341      5.12767        -1.813110     -0.754607     -0.433340
      5.04691      9.95763      0.97026        -0.916532     -0.151325     -1.425139
      7.95220      9.28369      2.59207        -0.244787      0.122037      0.454217
      5.76766      4.58777      5.85881        -1.207195      0.209321      1.508637
      2.95442      1.27842      7.85457        -1.052883      1.960517      1.741632
      8.20375      3.29085      8.56767         0.471210     -0.419782      0.204909
      2.03594      8.76877      1.62098         7.268080      1.361544      1.354459
     10.70350      1.68938     10.77858         3.562713      1.435454      1.268757
      3.23211      8.46548      9.98909        -5.199284     -3.714521     -2.945817
     12.08880      1.47323      7.97535        -0.149513     -1.293349      1.848701
     11.15480      1.63354      1.68511        -4.138215      2.189510     -1.518395
      6.27745      0.35155      8.51776        -3.549705      6.500380      1.084016
      5.13052      3.53200      9.80497         1.163637     -2.157429      1.915127
     10.84848      9.74170     11.69712         3.765267      2.949183      4.362362
     11.24063      4.70857      6.18379        -1.567470      3.576627      1.244957
      6.42765      7.44059      6.34131        -1.372100     -1.382918     -0.255055
      0.04000      8.31453      9.40948         0.023906      1.728911     -1.304882
     10.41747      7.50092      4.60486         2.005760     -1.953505     -1.167289
      3.27935      1.38304     10.84771        -3.864541      1.294290      0.993379
      8.52484      9.16410      5.69282        -2.685616      4.929891     -0.454917
      5.98296      7.16569      1.44622         5.299610      1.885275      4.767547
      6.27989      0.41857     11.51942        -7.074846     -2.333429     -2.931311
      7.92551      8.75202      8.52633         0.999327      8.943533      1.923679
      0.12032      3.66948      3.64116         4.894386     -1.872638      0.303570
      2.35530      6.51642      6.48372        -0.462478     -5.267847     -0.267865
      3.34077      6.22958     11.85481         3.620694      2.555571      0.763578
     10.69741      4.89874     10.94723        -2.046388      0.633705      1.482777
      4.82059     12.08669      3.57332         6.508828     -0.151947     -1.126105
      6.77906      4.52787      3.24921        -4.384784      0.007308     -2.806659
      5.62059      1.56125      6.08936         2.282543     -1.142489      1.115421
      1.27476      8.53646      4.59695        -0.181022      5.273424      0.741072
      2.81449      9.07395      7.08309        -1.263073     -0.494426     -6.379587
      9.54122     11.68307      4.45808         0.139504      4.804448     -2.577491
     11.87895      8.00955      5.00399         3.935524      2.240270      0.126836
      2.88002     10.33226      1.24173        -2.051729     -3.691476      0.423259
      5.05987      6.49020      0.49612        -6.147079     -5.085625     -3.960840
      6.05885      0.34740      5.03856        -2.355810      1.575924     -2.132944
     11.77107      8.73300     10.95234         0.528892     -4.045011      1.485522
      2.48175      1.76413      0.19450         0.084528     -0.386314     -0.353725
      8.35429      7.39230      9.08164         0.044404     -3.643903      2.206686
      9.96090      5.01173      0.64743         2.538912      0.460640     -2.015021
      1.07797      0.34241      7.39869        -0.135074     -0.702681     -0.571785
     11.06331     11.68990      4.78050         1.903653     -1.545597      0.887803
      5.87085     10.86940      2.90143        -0.879859      0.862629      1.359297
     11.90485      6.99436      8.52999        -1.662685      0.111546     -0.298363
      1.64207      8.32141      9.65277         0.843296      0.076277      2.883282
      4.35788      2.55312      6.24306        -0.633122      1.317666     -1.807688
      9.21728      1.49695     10.27657        -2.328655      0.296490      1.534682
      0.84145      2.79829      8.15977         1.518346      2.351002     -0.877135
      1.28343      4.42109      2.77924         0.462027      2.857608     -0.557261
      0.60395      5.45220      5.95125         3.108103     -1.346263      1.917077
      8.63986     10.94056      5.42595        -2.063766     -6.497560      3.904261
      9.12581     11.36050      2.86133        -0.723559     -0.923155     -0.472879
      3.34359      5.07673      6.61199        -1.767749      4.904907     -0.267362
      9.14638      5.09937     10.42538         0.238068     -0.221584     -1.658661
     11.82823      0.58872      2.61906         1.869251     -0.271207     -0.201656
      1.41392      2.59484      4.20556        -3.190632     -1.575799     -1.173507
      3.33542      6.78460     10.31482         1.398166      1.425874     -0.157772
      6.88656      9.26465      9.93059         1.126406     -1.861423     -3.009808
     10.32067      8.77910      1.17354        -1.515896      1.872811     -3.251168
      5.03691      4.11153      3.21266         1.341580      1.116875      0.434961
      7.67881      6.16449      6.88339        -4.010184      2.004769     -1.824594
     11.83053      9.89809      8.98295         0.967040     -0.046885     -2.703175
      3.70078      2.64532      9.83992        -0.197902     -0.546598     -0.222655
      3.64383     11.49467      4.33618        -2.378691     -0.143884      0.462862
      5.89454     11.77618      9.90108         0.335904      0.127481      1.787935
      7.48412      3.68425      2.08132         0.272131     -1.328993     -0.988764
      2.88049      7.52501      0.66940        -1.640173     -0.714918     -0.090785
      5.13406      1.09160      2.40397        -1.200073      0.439502      1.328590
     11.95531      6.10991     10.71580        -2.461534     -4.209429      2.228382
      1.61616      9.72784      6.12325         0.289870     -0.839114      1.002012
      6.63045     11.22201      0.35810        -0.957102      0.329982     -1.017478
      1.93514      7.67132      7.47800         1.842378     -1.389933     -0.562901
      3.17534      9.46083      8.50233         0.752035      2.070369      3.495976
      8.90583      1.06820      4.74620         0.053991     -1.518643     -2.950420
      3.26255      4.65798     11.68500        -1.603074      0.511647      0.979739
      5.63068      8.38798      2.45725         0.253791     -2.428045     -1.589738
     10.50359      6.14074      5.67345        -2.309569     -1.018869      0.407070
     11.06097      3.84626      4.84927         0.466213     -1.764164     -1.676450
      6.81724      6.06149      2.70419        -0.237558      2.826694     -2.719501
      3.87050      9.62504     10.64765         2.955767      2.848966      4.214915
      7.57266     11.98238      7.95120         1.948902     -0.520747     -1.884863
      5.43989      6.65284      4.93200         0.706487      1.131763      3.076781
      1.12175     10.17934      3.95879        -0.283991     -2.530930     -2.164994
      7.16607      2.28754      6.37141        -4.234439      0.139849      1.555630
      7.03864      1.62248     12.03002         2.705578      0.678207      1.485661
      7.49273      4.20383      4.59499         1.678933      0.271895      0.511616
      2.10244      0.66461      9.97173         2.697570      1.413280      0.075738
      6.30535      2.17460      9.11641        -0.760007      0.280596     -0.935554
      2.33132      7.31975      5.08128         0.163694     -1.077696     -0.667038
     11.18271      3.28895      2.50615        -0.741679     -3.323242     -2.500371
     11.73974      1.59275      0.06742        -1.763506      1.082519      1.147766
     11.82203     11.28460     11.83858        -1.411488     -3.913473      1.287826
      9.59597      9.99515     10.87522        -4.156770      1.885110      0.291890
      9.49021      1.56419      1.52739         0.958062      0.116803     -0.932040
     10.73588      1.16104      7.25338        -1.886845      0.052736     -2.370332
     10.19872      4.02358      7.34019         1.432324      1.625802     -1.223436
      9.72386      8.33433      6.31641         0.595547     -0.211005     -1.720870
     10.97915      6.45117      3.33605        -2.461949      0.532753     -0.942784
      2.94736      8.26273      3.08216        -3.099716      2.149709     -1.780943
      0.55408      8.46820      1.58141        -1.319452      0.349821      0.481506
      5.95023      3.49948     11.25293        -0.841654      2.484705     -1.252311
      4.21929      9.30065      6.29391        -1.447000      0.201860     -0.315406
      4.63478      4.92957      9.22768         2.348439     -0.087813     -0.795863
      9.41964      9.73716      8.48487        -2.118594     -1.660633     -1.195566
      6.73058      8.06746      0.30641         2.027125     -0.300944      0.555539
      4.53784      0.80523     11.53595         4.447293     -1.787007      1.607514
      6.98857      8.79537      5.11446         0.655252     -3.243686     -2.824296
      4.82092      0.61820      7.37169         5.381713     -2.998620      1.819965
      7.45363      9.46631      7.02318        -0.099133     -2.267715      4.123680
      5.42633      7.86258      7.78574         2.857884     -3.727865     -1.448750
     11.12233      3.32670     10.47811        -0.017731      3.255440      0.949120
      9.72925      8.96355      3.90079        -1.418368     -2.282926      1.792560
     11.40875      1.11936      9.52498         3.433444     -2.374028     -2.210392
 -----------------------------------------------------------------------------------
    total drift:                                0.009941     -0.001730      0.007967


--------------------------------------------------------------------------------------------------------



  FREE ENERGIE OF THE ION-ELECTRON SYSTEM (eV)
  ---------------------------------------------------
  free  energy   TOTEN  =      -924.85525226 eV

  energy  without entropy=     -924.85525226  energy(sigma->0) =     -924.85525226
 


--------------------------------------------------------------------------------------------------------


    POTLOK:  cpu time    0.4308: real time    0.4323


--------------------------------------------------------------------------------------------------------


     LOOP+:  cpu time 1009.6378: real time 1020.7335
    4ORBIT:  cpu time    0.0000: real time    0.0000

 total amount of memory used by VASP MPI-rank0   179629. kBytes
=======================================================================

   base      :      30000. kBytes
   nonlr-proj:      21874. kBytes
   fftplans  :      27580. kBytes
   grid      :      15858. kBytes
   one-center:        186. kBytes
   wavefun   :      84131. kBytes
 
  
  
 General timing and accounting informations for this job:
 ========================================================
  
                  Total CPU time used (sec):     1030.714
                            User time (sec):     1026.453
                          System time (sec):        4.261
                         Elapsed time (sec):     1042.080
  
                   Maximum memory used (kb):      321812.
                   Average memory used (kb):           0.
  
                          Minor page faults:       133315
                          Major page faults:            0
                 Voluntary context switches:          392
