135
Time=99999.99999996 pbc="T T T" Lattice="12.52607000 0.00000000 0.00000000 0.00000000 12.52607000 0.00000000 0.00000000 0.00000000 12.52607000" energy=-875.80484395 virial="44.81211909 -11.28289328 11.60856477 -11.28289328 26.47790430 -8.60562674 11.60856477 -8.60562674 67.10242996" stress="0.05239682 -0.00574085 0.00590655 -0.00574085 0.04306819 -0.00437863 0.00590655 -0.00437863 0.06373835" Properties=species:S:1:pos:R:3
Ca 0.41341031 2.66905090 11.73723278
Ca 9.76543725 0.72492893 8.02702520
Ca 5.92467956 8.75567989 9.66100544
Ca 8.41231450 6.62397075 2.10483111
Ca 4.23181759 4.62372066 5.38122685
Ca 3.07204555 10.60039543 8.70023409
Ca 3.33462870 2.80676092 0.85164304
Ca 11.40890350 5.97452629 10.59132198
Ca 6.30653995 11.84682463 12.08466770
Ca 0.11390137 10.73661953 3.69823583
Ca 9.14220699 9.44606826 10.79903105
Ca 4.77236588 0.10500068 2.79115975
Ca 12.33866472 5.58195282 4.34796198
Ca 6.15311812 11.67849595 5.29158717
Ca 7.02792165 2.52273630 6.93158883
Ca 9.55534033 5.34616346 7.37281119
Ca 7.11974105 3.51158437 10.85944365
Ca 3.70006551 1.37590333 7.69163941
Ca 10.45132350 8.50686678 1.19042260
Ca 0.92761721 1.98633605 3.01667138
Ca 3.35572179 6.88311673 7.93390365
Ca 12.03846537 8.13019160 7.83652784
Ca 9.87346519 0.54284363 11.22309703
Ca 7.71396395 5.32653950 4.97088961
Ca 12.52233258 4.19491535 7.14367945
Ca 8.37092788 9.50721625 6.05182651
Ca 1.57515557 8.43481693 1.30427879
Si 0.91265792 11.44370108 1.42227876
Si 6.23001742 4.74745925 8.13354731
Si 7.73680743 1.68751546 0.85840952
Si 2.48079601 5.33954166 2.78546344
Si 11.38013318 2.73732568 9.18730558
Si 0.59366046 9.26116715 10.66443415
Si 3.09735832 1.58669093 4.58540803
Si 10.03509110 3.97261545 12.38395824
Si 10.25977391 7.71224454 4.80160424
Si 2.38784360 5.43163983 10.53727334
Si 2.97507649 11.43459939 5.33364412
Si 7.36611101 7.35594822 12.17943792
Si 9.03372883 7.88335696 8.49520229
Si 9.82799705 0.74890862 4.65729335
Si 4.16359048 9.24092436 5.06534597
Si 10.94531367 3.37138482 4.69701862
Si 7.02709112 10.62733197 2.85715740
Si 2.69539698 7.97349908 10.60495307
Si 7.31528663 2.42428304 3.60291676
Si 3.71122666 11.10551108 0.18112006
Si 1.38073280 12.27658369 10.83778858
Si 9.81979583 11.58305870 2.10390047
Si 6.85122484 11.71324179 8.61105783
Si 5.19298812 6.34525586 1.23398329
Si 2.28056873 7.65198711 4.72462853
Si 5.99032475 7.88734930 4.66077961
Si 12.31263183 5.65082141 1.47790211
O 7.48193437 0.60975646 7.14703164
O 2.08212884 3.91339737 2.93010470
O 10.29346061 10.92430198 3.34722981
O 10.32430767 6.89621480 3.26900088
O 5.33787041 0.01507205 8.28450939
O 11.14344661 8.74636071 5.53527857
O 9.27821324 2.85275923 0.75753150
O 7.57063173 7.37385265 8.27735828
O 4.52409534 10.68357161 5.90962961
O 8.63602954 8.26833950 0.37778991
O 7.02602320 2.51630250 2.06953201
O 0.93960911 9.17814450 8.88665020
O 2.58064931 4.18254677 8.82301107
O 4.69037210 10.16230596 12.15295614
O 9.50254185 4.99373662 11.46584648
O 2.44587887 4.07429353 11.66768165
O 11.98395197 4.38892796 2.32188685
O 11.59186645 9.41478765 11.04206097
O 11.68785295 1.85109734 7.90442329
O 4.14046617 0.54487730 0.83007299
O 1.31216577 6.72437944 6.40159308
O 5.35301486 9.24432328 3.69783309
O 1.42207699 7.13145687 9.88060107
O 7.99582923 0.71400609 9.30153569
O 5.36427756 6.36020374 7.82107002
O 8.06922181 0.94199888 4.19995959
O 1.94286851 11.19870617 6.61639463
O 4.49720906 4.98987858 0.81923689
O 7.65697402 7.80270795 10.53754956
O 12.51778888 3.50468153 5.02682768
O 11.16643504 5.21991111 5.93230352
O 10.58986909 7.49477089 9.38811690
O 8.27463194 10.13646968 1.82119082
O 3.08358031 1.38397369 2.85874968
O 2.30995251 2.75637349 5.26776877
O 10.64602612 2.04123177 3.85480152
O 7.65978807 11.03743121 4.24660516
O 1.13124808 8.75731871 4.38014910
O 7.86429894 4.25758680 7.41534290
O 6.90142375 10.21609336 8.23125006
O 1.65209727 10.52745052 10.78627051
O 6.06688358 3.48614390 9.13956384
O 9.32325843 3.39826279 5.43468311
O 6.21019872 7.11152653 2.55556626
O 5.24436095 7.49153087 12.51394341
O 5.20413648 8.19941129 6.11626171
O 7.40526174 11.47254944 10.36487841
O 0.22158037 12.37678703 2.48207129
O 6.01354530 11.15587432 1.78192068
O 0.20108681 5.63728889 12.40620897
O 3.29739927 6.68093559 2.06985810
O 8.77237227 0.32333809 1.09098164
O 7.98520880 3.83448753 3.45430621
O 1.27415687 8.34368059 11.66757303
O 6.84910326 1.63882088 11.94626541
O 3.81766669 7.65749005 4.53935642
O 10.88638269 0.73045191 5.77554468
O 10.58239217 5.98790195 1.30653906
O 2.61486427 10.99445086 1.53522448
O 7.50276240 8.19795458 4.66990611
O 1.86868548 1.16046634 10.60541997
O 12.51076117 10.05991037 1.25097517
O 9.92672769 2.69491398 9.42938321
O 3.35813601 6.50032753 11.10578335
O 3.55299962 8.90058303 9.92459814
O 12.02258648 12.30108754 10.80826311
O 9.40757676 6.83949792 5.99124689
O 9.36937690 9.60578375 8.13632241
O 4.38304654 0.45647160 5.35075952
O 10.79459431 11.16921875 0.62704974
O 6.36091747 2.28722888 4.82688331
O 12.42834188 3.98485719 9.65487171
O 0.77806210 6.89651237 2.40166349
O 1.12600044 12.45809800 0.22595444
O 3.14005918 10.04566813 4.35189546
O 5.59302712 6.04544525 4.61503461
O 2.08590588 5.78585867 4.54321455
O 7.51793281 5.86608962 12.45532405
O 10.92845416 2.74705320 11.79650923
O 4.86098837 4.10763986 7.50591027
O 1.92653004 0.15238005 4.53936121
135
Time=199999.99999918 pbc="T T T" Lattice="12.52607000 0.00000000 0.00000000 0.00000000 12.52607000 0.00000000 0.00000000 0.00000000 12.52607000" energy=-880.72700189 virial="110.64504616 -27.41851967 28.87852003 -27.41851967 68.02055600 14.90820690 28.87852003 14.90820690 49.69726091" stress="0.08589326 -0.01395081 0.01469367 -0.01395081 0.06420550 0.00758544 0.01469367 0.00758544 0.05488243" Properties=species:S:1:pos:R:3
Ca 11.66680519 1.86630042 12.35385888
Ca 1.30112798 6.71646422 9.26189586
Ca 8.15626346 9.21527413 9.73725588
Ca 5.95208959 0.15821064 2.72387819
Ca 10.92883389 7.40200926 10.43486813
Ca 3.87876571 9.84858682 12.12362071
Ca 4.30438254 8.98645168 7.21435313
Ca 1.42248664 5.65230034 2.98276044
Ca 10.67191573 4.50953426 1.12065249
Ca 7.12044988 5.58054974 11.35213852
Ca 1.35271482 9.84443454 2.07377108
Ca 11.54159010 11.65380371 3.70943549
Ca 5.37036207 0.15826039 10.82703551
Ca 7.06677167 3.39768448 8.21232476
Ca 7.57508898 7.17178560 6.40978579
Ca 10.09751513 8.77696909 5.71204377
Ca 4.72757762 2.36037498 1.29546628
Ca 3.60546643 2.57334414 4.79842110
Ca 7.51288713 3.04504955 4.61293537
Ca 8.14707154 8.97843220 3.07941540
Ca 8.74130002 0.19553725 10.08388507
Ca 5.06514131 7.37628234 0.70109475
Ca 0.79616388 2.75556426 7.16657157
Ca 7.54028856 5.27162573 2.08421652
Ca 3.74156049 4.86734768 8.28312684
Ca 10.45239667 1.98115167 3.61161501
Ca 11.71454373 10.23724987 0.42683308
Si 1.37430399 7.96087294 5.35473284
Si 4.99506495 7.22407238 9.80058665
Si 2.12776947 6.97192632 0.03294658
Si 2.57638350 11.36733205 4.63612154
Si 9.95292416 5.52085583 4.99325120
Si 6.56147737 10.46040615 5.65352450
Si 10.26614752 3.26415126 9.95531988
Si 3.93015209 2.33442550 9.26645236
Si 9.73384621 0.09174333 1.53057390
Si 0.24299314 9.36272711 7.75077846
Si 3.69238093 4.53273089 0.39072024
Si 3.74690481 11.76051316 8.89286296
Si 4.48396114 9.96725676 3.78707719
Si 8.87075387 11.31551196 7.07640512
Si 2.69288398 5.38173042 5.91381953
Si 8.41608863 8.36375640 0.55334319
Si 11.84156218 11.96217220 10.42753590
Si 6.45024366 0.20557815 7.11563273
Si 7.96250983 2.60407191 0.56279580
Si 1.89679677 2.64303046 11.47340443
Si 1.29198399 1.86751939 2.93274047
Si 10.65257616 3.45915994 7.00279948
Si 1.31116422 11.58663379 7.53725665
Si 5.77049583 6.24017513 3.82542282
Si 2.60450170 0.18736110 0.29482309
Si 9.38993322 6.17729340 8.78852839
Si 11.26093838 7.53559749 1.32565517
O 5.54126862 11.84351578 8.51267722
O 3.23558587 2.85501887 10.57558103
O 5.38547578 9.55940358 5.04409856
O 11.10754204 5.28799663 6.13938511
O 2.55603222 9.63061241 5.06173387
O 1.66202759 8.23775328 7.08071549
O 6.31478299 1.89439745 6.59811081
O 1.39856243 1.80919691 4.73026545
O 7.42027442 7.11117905 0.04382193
O 7.96959881 0.48172029 7.79709232
O 6.93336470 7.41825646 3.08827237
O 9.53614278 4.82734303 9.33763629
O 7.30164853 2.66701336 2.08165616
O 2.54980192 3.66758810 0.28117332
O 7.22983510 9.75703236 7.21056885
O 12.19684914 8.03317037 8.62860116
O 3.25899105 2.62075264 7.83581786
O 10.45790186 3.65926639 11.51028484
O 5.12700271 4.88036264 12.12445674
O 12.39935098 7.76870098 5.32713807
O 3.13895328 10.98478267 7.76313078
O 12.25362151 1.24689442 3.35325705
O 8.00404997 10.81846029 4.81229140
O 6.65787722 1.90563759 11.84949838
O 9.29122977 6.94071818 4.93764852
O 11.40704150 9.28506503 2.36830436
O 3.72791789 0.74877089 9.46236456
O 1.06315259 10.19355844 8.90299403
O 2.04409657 5.71156178 7.41401390
O 5.95256578 11.91717040 5.96759718
O 9.84214179 10.97053175 6.07391938
O 4.02952387 0.41661839 12.38945509
O 11.15329779 8.26351076 12.17938945
O 4.70634247 1.33009601 3.45334752
O 5.97945691 4.66382513 3.83773528
O 10.58268408 2.55026646 1.54572425
O 1.29956414 7.01280204 11.29134864
O 9.10153036 3.31230147 7.10091357
O 7.96088364 4.39176307 0.15658340
O 2.22828752 8.47445203 0.75855250
O 5.18451669 8.37562089 8.77688987
O 0.98092756 0.42474236 8.23212985
O 9.46065825 11.90439022 2.76505949
O 6.10798711 6.55222401 5.56298107
O 8.92941855 9.48636741 1.35331161
O 4.25585370 4.30988242 1.91935183
O 2.65502769 11.23049778 1.02889690
O 4.71679455 8.05510959 11.34887956
O 11.75918106 0.89964865 9.75641071
O 5.35778551 10.24140264 2.50103687
O 9.67126319 1.97246348 9.72587584
O 1.50772735 11.59705854 3.47161681
O 0.31444533 3.61682928 2.88482824
O 11.45882882 2.11700104 6.61816269
O 4.30375837 11.59874768 3.83923784
O 5.08387849 3.31851953 9.17017332
O 3.61957264 6.39043524 9.74292972
O 12.49727176 10.56316430 6.56623651
O 1.76229539 0.96896133 11.69416351
O 1.01076560 3.24623264 10.55283253
O 11.77371509 3.51139332 8.97778852
O 11.25588232 12.33507608 1.72840601
O 9.01316365 1.12002274 12.52429046
O 2.60313656 7.10748510 5.22392628
O 0.56675689 11.49100502 11.36363026
O 3.95316299 10.61990257 10.12227227
O 2.48199679 1.40174130 1.83032837
O 9.11137627 7.67744860 8.62652414
O 8.70623634 5.45953290 7.20128814
O 5.86998923 5.92553021 9.33249992
O 2.59018914 4.52278238 4.58225743
O 4.56302117 7.02762389 3.44446511
O 8.93082135 8.62300619 11.48083393
O 9.62067301 6.94246467 1.48487667
O 2.12602771 12.19723256 5.86480085
O 4.29847067 5.30550163 6.26518347
O 3.17473637 6.05364836 0.66008599
O 9.46725985 10.77806196 8.87228267
O 9.31865837 4.89665296 3.78338303
O 12.41147491 6.50149323 1.41064805
O 10.82277556 12.44586710 11.89346630
135
Time=299999.99999840 pbc="T T T" Lattice="12.52607000 0.00000000 0.00000000 0.00000000 12.52607000 0.00000000 0.00000000 0.00000000 12.52607000" energy=-875.54998426 virial="26.18932148 -53.29460113 -41.34229641 -53.29460113 16.09649393 -5.73399048 -41.34229641 -5.73399048 24.45853677" stress="0.04292136 -0.02711682 -0.02103537 -0.02711682 0.03778603 -0.00291751 -0.02103537 -0.00291751 0.04204072" Properties=species:S:1:pos:R:3
Ca 2.83811228 8.88337005 4.47343573
Ca 11.18203838 11.54670856 3.70342110
Ca 8.01824040 6.23829964 9.26694304
Ca 11.43492615 3.18858536 0.58459188
Ca 5.54869755 3.67584395 7.13199615
Ca 1.36556124 11.27764668 7.59850630
Ca 8.96963228 10.36900878 0.33984169
Ca 11.35689716 5.71882898 9.25644499
Ca 4.34273891 12.45761124 4.31345978
Ca 1.68087360 8.34466776 7.71352268
Ca 0.96225953 1.08740327 1.98657400
Ca 7.73601959 9.20053528 6.81904447
Ca 11.09777082 11.78794981 11.53002701
Ca 12.08949275 6.74729847 0.61216451
Ca 3.60089980 4.61961547 3.80839233
Ca 4.33298267 3.12357921 11.05406751
Ca 6.01946039 2.57641601 2.23279300
Ca 10.56873997 10.67592521 8.95829926
Ca 0.46461969 2.07682559 8.37526962
Ca 7.35210625 0.16020399 9.83349885
Ca 4.18524868 9.42340365 0.43017836
Ca 8.87249619 4.80120702 6.76773204
Ca 6.40613234 0.74603723 6.37816804
Ca 0.99971802 4.88494299 5.88234742
Ca 8.59998048 7.75874182 11.78094461
Ca 3.05243981 11.81307422 10.82816254
Ca 8.57289574 5.47532661 3.09636025
Si 6.31993959 3.54698388 4.52609205
Si 0.69944157 1.60047756 11.24654380
Si 1.54399002 11.33333192 3.88822441
Si 7.24531091 4.09633591 10.91445195
Si 1.45307550 3.83606562 12.44803257
Si 10.66076089 7.66829011 4.62026382
Si 4.35113806 9.46308932 8.35101625
Si 11.51463744 5.69108791 3.34722681
Si 5.32519536 7.25911011 6.94786139
Si 5.27349935 7.40198746 10.61727835
Si 3.14842364 6.20244776 0.07971422
Si 10.66569878 2.00075588 6.15832196
Si 7.74518128 10.01523956 10.15515456
Si 11.68454517 8.89356328 10.73426675
Si 3.72260037 1.30799351 9.13550733
Si 11.18252957 7.65244609 7.34654540
Si 1.40536024 10.02460191 1.20262792
Si 8.92780882 0.17092626 6.95839345
Si 5.71704890 12.32062275 0.89632155
Si 8.42556016 8.82551114 2.96928596
Si 6.02267041 10.05840869 3.49726004
Si 10.39547393 2.55050254 3.52761546
Si 9.14854704 1.34050352 0.55250057
Si 2.00661833 1.67181382 4.67190133
Si 1.65420645 8.09480614 10.92134347
Si 9.80798481 2.23118975 9.72063435
Si 2.74188614 5.78033219 9.26183354
O 0.41077266 3.66623580 10.96473253
O 3.15294726 5.44467024 1.91828542
O 7.84549235 3.34747015 4.05822748
O 10.30632936 1.32441846 4.69728377
O 4.77201855 0.80700766 1.38803331
O 0.11562845 9.31691474 12.33410843
O 0.73874867 2.46806292 4.90053644
O 5.55352513 11.37882950 2.43260056
O 2.85213694 1.04451832 5.71628485
O 3.32569533 4.88895310 10.56498476
O 7.29928874 9.27353067 11.50178028
O 4.14369129 8.86220532 10.21892616
O 2.72647441 7.74144934 12.04010629
O 2.69626610 2.20425180 3.51634283
O 9.87476410 11.21272986 6.96064036
O 1.98405505 2.26614737 0.26373836
O 7.74373067 11.71263252 5.94393619
O 10.22239134 6.10042189 5.25406414
O 12.35130085 6.42878975 7.77796789
O 0.15518926 10.36045525 2.32209146
O 7.12507725 3.00293315 5.90511971
O 7.50352051 0.55986532 7.89015611
O 8.30154373 5.30450107 11.41598986
O 7.11931203 7.19165494 7.09193619
O 8.95028152 7.91680551 4.39394347
O 6.33897733 4.09949347 12.24050901
O 5.64717737 1.85933537 4.35753698
O 4.64572138 6.99228514 12.06359143
O 6.85571027 7.48907913 9.96564913
O 5.74186358 8.86809371 7.90891903
O 5.59953567 11.00374281 5.00812465
O 1.27913992 10.20234312 5.65022414
O 1.98675762 4.60197075 8.02803120
O 1.73740494 8.43960326 1.61090300
O 5.11529449 0.85709469 10.14033334
O 11.92150599 1.23678975 6.66369958
O 2.69068316 12.43203036 8.57649444
O 7.36009536 9.25575473 4.00720952
O 11.09738923 3.94204104 3.78377820
O 6.58231608 3.99842927 9.21334989
O 4.85440699 5.53296581 6.39394094
O 10.73724273 3.43380924 5.82631099
O 8.86758135 10.23259466 2.48488094
O 0.14125606 7.43961629 10.68324712
O 9.14258189 2.64243340 1.68856068
O 4.24506828 6.84434280 8.63678300
O 11.09713479 3.52687484 9.45403123
O 11.11497082 0.93165663 9.74924478
O 2.97377008 10.67515249 3.53737076
O 10.94024975 5.52880323 1.89309725
O 6.14175084 5.14146267 4.04768130
O 11.58866011 8.52380268 5.77204548
O 12.06928173 0.93613911 0.06458216
O 8.18676570 2.91125464 9.96497998
O 7.16809622 0.96786235 0.37949960
O 0.76549504 9.50218105 9.66385716
O 5.10029268 9.00012579 2.63740093
O 11.47119640 9.23145882 8.32414700
O 8.91331105 11.27770206 10.75390498
O 3.02603542 10.24689830 7.95807740
O 10.12186335 8.85050272 11.30717904
O 0.72317990 0.31452780 10.79411096
O 11.49606866 7.27025692 3.49866666
O 3.87843332 8.07478095 6.28731004
O 10.07422887 6.47253003 7.64652095
O 6.53398425 10.53682146 9.11882175
O 11.61858784 1.79110914 2.61432340
O 8.19218574 7.55241821 1.90270137
O 0.59156551 5.43777585 3.82722771
O 0.69725440 0.12340392 3.96737793
O 8.28875635 9.02570599 8.77669779
O 2.40809041 1.74482210 10.06763191
O 9.53520256 1.77370857 7.37425322
O 9.70595694 1.95122821 11.80019014
O 0.93034832 4.81836772 1.26163984
O 2.15220644 7.33307854 9.64349172
O 4.76477296 1.56636326 7.94708479
O 1.76751160 5.51866102 11.81049876
O 4.86237347 11.33058037 12.35855386
O 2.43997080 10.67822839 12.22384251
O 9.76064990 12.48671713 1.22872129
135
Time=400000.00000008 pbc="T T T" Lattice="12.52607000 0.00000000 0.00000000 0.00000000 12.52607000 0.00000000 0.00000000 0.00000000 12.52607000" energy=-872.94025471 virial="131.22797168 -6.23069489 -19.85166641 -6.23069489 51.10806880 -3.48953261 -19.85166641 -3.48953261 40.57173093" stress="0.09636606 -0.00317024 -0.01010072 -0.00317024 0.05560026 -0.00177551 -0.01010072 -0.00177551 0.05023927" Properties=species:S:1:pos:R:3
Ca 7.77503556 10.65873707 4.58396943
Ca 6.95720074 1.30303315 1.32742820
Ca 9.69404102 1.89533319 0.78060729
Ca 6.22775965 4.54955063 11.81460291
Ca 4.71244890 0.31641756 6.39179636
Ca 2.91330946 6.90375265 0.56158555
Ca 0.82924945 3.98886449 0.51973741
Ca 8.65920577 1.21900017 5.00720470
Ca 1.49759719 0.77197909 11.73569973
Ca 9.42109830 9.33773543 7.23553892
Ca 11.93021009 11.23598856 1.97045406
Ca 11.79434896 5.56546921 7.95221634
Ca 7.12647549 6.87543071 5.43757831
Ca 8.04198835 10.76153232 10.03716928
Ca 3.48016422 11.24961168 1.12564008
Ca 9.31185451 3.88892701 10.61784308
Ca 4.02965252 4.64148269 4.56542233
Ca 1.98613000 9.12360198 3.28084988
Ca 10.99751516 3.92663787 4.40877281
Ca 11.00582101 11.43288430 11.35524359
Ca 9.66182881 8.62516041 0.01073005
Ca 1.72488309 11.95186859 7.59885367
Ca 6.25819242 8.18295261 9.84707484
Ca 7.22319290 4.15925737 2.44398529
Ca 10.70595236 6.51710516 3.22016132
Ca 11.35200722 1.05155703 7.98738947
Ca 12.17729139 9.47260402 8.71373219
Si 8.79804388 4.55324551 5.41248497
Si 7.10296616 7.55605019 0.92120329
Si 8.23215186 0.99025583 7.71838640
Si 0.92240087 9.92752641 12.37409372
Si 4.02259112 2.38517962 0.46364626
Si 10.12475819 5.23806924 0.50899072
Si 1.71061089 6.11782002 2.62163911
Si 6.42106597 9.28269299 7.32371070
Si 7.62208214 1.28993898 10.22457461
Si 2.57650467 10.02072866 10.38654871
Si 0.66714322 3.85993966 10.28474556
Si 4.12749847 8.64571161 5.97085837
Si 1.05066117 7.98076996 6.22770667
Si 8.97918222 11.23906314 1.24701674
Si 3.73980860 4.71532730 10.61756721
Si 0.74829903 2.73198190 6.28717683
Si 5.88094849 4.21400309 8.77417807
Si 11.73215074 1.13678277 3.78643729
Si 4.27405632 10.53418702 8.81714137
Si 10.70023442 9.37333761 3.68536075
Si 7.93831283 6.09274833 8.64429155
Si 12.10204865 1.49247300 10.85539321
Si 4.62956003 8.20336364 2.90911442
Si 6.55160065 3.22701476 5.74280380
Si 1.79107509 2.19021062 2.88621038
Si 12.22547645 10.51886251 5.88297533
Si 5.07167596 10.37810375 3.40780768
O 2.90154236 5.02492010 2.08291551
O 6.98377623 5.54229781 9.81607612
O 10.64601006 2.00483038 10.22566637
O 12.28229300 8.92972954 5.68825921
O 10.39282999 6.77906005 0.59950950
O 0.69234984 3.36509803 2.86331545
O 4.36856605 4.72383750 9.16019869
O 8.85464859 3.07359623 5.75150640
O 4.37463377 9.72244956 10.79836563
O 5.70388998 4.07436988 6.90818349
O 5.03463923 0.90076333 0.54532105
O 7.11338465 1.58603903 8.44008266
O 9.38246624 1.86627251 7.62911476
O 1.20356427 4.24712584 6.01180351
O 0.65417767 2.68854200 11.42305329
O 9.89208016 8.04531544 4.10516582
O 11.91877269 8.41455442 3.15331470
O 5.99519850 2.97554984 10.02286012
O 3.82736031 7.02300418 6.24572996
O 3.50333700 3.19347520 11.52813389
O 12.36421227 2.40083925 4.73392105
O 8.68704624 11.84714013 7.53153211
O 10.99483421 4.81480542 11.85645455
O 0.11333277 10.97535981 10.34634349
O 2.10447288 9.52860471 8.92120086
O 7.11373501 1.31715561 6.10668733
O 6.32175477 11.31011517 4.44021770
O 0.32213629 1.04944874 2.18795943
O 11.46003740 11.32038026 7.13524540
O 1.43391050 11.42524350 0.71888765
O 10.07704120 10.36728496 2.22045587
O 8.63637216 4.50677740 0.01953574
O 4.64247057 3.64254151 1.41523458
O 3.79049934 11.35349641 7.23467830
O 10.62553697 1.75802730 3.26054078
O 0.75747925 6.55119084 4.18676548
O 7.53596562 7.88620297 8.20442533
O 9.61980064 4.26553803 2.34314345
O 2.33697116 8.89677061 5.60169452
O 7.34182522 4.70368664 4.71604636
O 3.94971515 11.65978115 2.88695606
O 0.10064945 7.28926307 7.32810132
O 6.37957955 10.86089243 6.72653558
O 12.01308747 0.68904983 12.13188473
O 8.35991060 5.58790198 7.18003028
O 1.73425572 5.08856444 10.41293906
O 8.21117256 12.02124777 2.54424795
O 5.46996389 3.14422291 4.63346642
O 11.88513337 2.75157575 6.84550612
O 4.01176858 9.65316554 4.73674214
O 8.57116361 7.34460933 1.68727023
O 9.25529776 5.71627254 9.23559471
O 1.93072812 1.63073301 7.01003610
O 3.91370702 6.15290830 11.31164953
O 5.19178776 7.68085031 4.38846340
O 5.63456037 7.01911423 1.45058605
O 9.97662800 12.32984609 0.62525179
O 2.49622631 2.19800387 1.41182548
O 7.69445168 9.05601728 5.82876520
O 1.97088402 9.02783459 11.76309053
O 3.76101239 9.20942133 2.15934264
O 0.36574561 1.24724259 9.51401905
O 5.95416904 10.57907399 8.81167653
O 1.03329536 6.65112117 1.44810381
O 3.16290052 6.94283122 3.37796379
O 8.63423544 0.05779423 10.26473062
O 10.21624370 9.37970004 9.23721783
O 2.68469218 3.21969381 3.83940044
O 12.03094003 4.10796517 9.24642533
O 5.94710708 9.51898457 2.42970781
O 8.34547279 10.39506349 0.05420708
O 7.05740811 7.92183445 11.89650910
O 7.51980200 2.07029246 11.56151595
O 8.29472354 2.31485280 2.38012877
O 11.88145085 9.44025365 0.03111521
O 11.51694410 12.30527096 4.48111138
O 10.49271105 10.27209208 5.13072335
O 1.07879746 11.50758261 5.44115991
O 2.48664554 11.71704600 10.69275808
O 4.77737194 8.82185372 7.77142076
O 9.76230708 6.05971924 5.22788150
135
Time=500000.00000301 pbc="T T T" Lattice="12.52607000 0.00000000 0.00000000 0.00000000 12.52607000 0.00000000 0.00000000 0.00000000 12.52607000" energy=-876.88339048 virial="163.79143117 -13.14756897 -0.67449568 -13.14756897 90.63162032 -10.36610639 -0.67449568 -10.36610639 52.87199730" stress="0.11293467 -0.00668961 -0.00034319 -0.00668961 0.07571023 -0.00527438 -0.00034319 -0.00527438 0.05649777" Properties=species:S:1:pos:R:3
Ca 3.88260421 10.59391418 3.21614535
Ca 11.51425073 3.65213605 1.11881167
Ca 5.78342334 1.30984582 0.41783681
Ca 2.70327767 0.69355677 5.92957963
Ca 7.08980584 8.61735196 6.43670766
Ca 12.42065604 9.87397175 6.61964952
Ca 6.63551268 5.28820668 10.90694826
Ca 3.38458841 12.30699421 9.12967934
Ca 6.67407012 9.36558916 0.34715234
Ca 0.67931971 0.11816694 0.30866070
Ca 2.94959934 7.56720616 4.76751068
Ca 3.94774363 8.35534904 12.50498443
Ca 11.34551323 1.14451749 5.05633445
Ca 12.49236221 8.24622505 3.96123827
Ca 7.13528207 3.01375497 3.27193676
Ca 10.54909488 11.64478367 8.60244504
Ca 8.57869578 6.40156241 0.79019620
Ca 10.73673361 12.15006287 2.30999995
Ca 10.96639226 5.31036195 7.22026278
Ca 7.72111653 5.03492960 7.49467108
Ca 11.39693551 7.62500125 0.98238774
Ca 2.17226799 7.43173060 8.53140373
Ca 2.14231857 6.07874332 0.37919566
Ca 2.67530893 3.76320239 6.65080312
Ca 3.25170552 2.80443525 3.15205185
Ca 9.05184673 0.64245342 0.68964711
Ca 9.83356119 2.21144857 8.06309793
Si 8.52572470 5.66040815 4.47717923
Si 7.65540135 1.34510920 10.32702624
Si 3.24146033 2.57203332 10.92058544
Si 10.24657748 8.66310370 9.47721586
Si 8.06138270 7.67986961 10.70467606
Si 8.87271292 8.21920926 3.31531356
Si 12.34584552 7.07812759 10.22811924
Si 4.44532678 6.12063687 9.07967538
Si 0.96400730 8.98768991 11.77631663
Si 9.87577638 4.07173138 11.15943688
Si 1.01304270 4.57390720 9.92401790
Si 3.02788511 9.93936583 7.60808548
Si 5.89464323 0.74571145 5.29141563
Si 12.19377378 2.24248195 10.22954924
Si 1.06219246 11.83239336 3.43541947
Si 8.80958349 0.70570538 4.71607081
Si 5.39232604 5.24547305 5.41999505
Si 0.68914723 3.54293983 4.92638673
Si 0.64728230 0.66888054 8.15191127
Si 5.33963052 9.28332701 9.45311235
Si 5.89351749 7.57505383 3.40025289
Si 7.40530250 11.53802794 7.79647167
Si 9.23236656 10.62381577 5.40541002
Si 5.08789894 4.52445706 0.82988647
Si 6.37351928 11.95479992 2.35149493
Si 5.27414091 2.73224057 8.89188189
Si 10.36937542 10.25577241 12.33486763
O 0.05569568 11.75669230 2.22089841
O 10.66583479 11.72880776 0.34531290
O 3.92329900 7.54509272 8.07412427
O 1.43487112 9.73859405 8.03892096
O 2.40606097 12.13373496 3.20354881
O 5.78996028 6.78031075 9.04338836
O 10.88782862 1.26317037 9.68684748
O 11.37040450 9.28871200 12.27314743
O 6.37865754 12.44343694 6.72350780
O 1.18184645 10.50099117 12.08869717
O 11.98387444 3.93857757 6.47050390
O 0.98186951 5.17845054 11.53227818
O 10.03795645 8.70124895 2.38174787
O 10.70056644 10.54322802 5.80580439
O 0.22174830 11.90936730 4.68459572
O 4.90847304 4.70309640 2.58774540
O 8.34756742 10.75638389 6.92294253
O 4.16342560 1.97636678 9.66927470
O 2.43316821 3.81730439 10.47094669
O 10.61567942 4.74858514 9.95013564
O 2.06577686 4.64996859 4.80648499
O 9.40958116 8.18380523 10.72719888
O 6.41136715 5.22119410 0.36515927
O 10.85587890 5.70576651 1.98778777
O 8.84185675 9.96895429 12.49766600
O 7.86260694 0.06662904 8.98769516
O 3.61258277 11.38202595 7.01261440
O 7.27022873 7.61142202 11.88575824
O 8.58629094 5.61089302 11.20587063
O 5.15726705 7.48193265 1.84843381
O 2.18581544 1.32647792 7.98636862
O 8.85383734 2.92165775 10.51754679
O 5.58630411 11.88886356 4.17966052
O 1.19759375 8.08095539 0.57529898
O 5.43191590 3.44967680 12.29901293
O 7.36964367 6.32930739 5.66264442
O 4.77805602 1.70099350 4.99262949
O 9.25773823 11.65156014 3.95073293
O 4.49424429 5.74345147 6.59480934
O 3.39089628 8.64488774 6.69010048
O 11.86518051 8.31585406 9.07936188
O 9.33098115 0.80215749 6.30303018
O 0.03690208 3.38192779 8.98850712
O 7.40247106 7.78004137 2.74840905
O 2.91894416 1.85928093 12.38883056
O 6.59917227 3.95938438 5.17988603
O 9.70598671 1.65069221 3.57996691
O 9.39614716 3.42747096 0.06999017
O 2.93714556 4.97532066 8.44876046
O 8.95023424 6.77403877 3.45970224
O 9.26909878 4.60679109 6.23471046
O 3.83750830 5.42597117 0.76514202
O 6.30943329 2.26988512 10.07474414
O 9.52803078 7.65566529 8.40265912
O 11.64829497 2.64575887 11.78091639
O 12.05378663 3.23170560 3.81386238
O 1.27718397 1.35695271 10.48433334
O 8.91898391 9.17772103 4.81056459
O 5.32958842 9.95156635 11.10638604
O 1.61096395 8.86603136 3.34966241
O 5.66265338 2.03494130 7.52152489
O 0.14626569 11.79505247 7.63937991
O 10.22657167 10.14482995 10.10335294
O 5.85874777 9.00808431 4.24749465
O 11.91874583 1.48945822 7.59632738
O 5.44750334 4.36529367 9.14276851
O 1.63642564 2.21375784 5.75658986
O 3.82372867 6.18435225 10.53308868
O 11.27747073 6.66070784 11.30641418
O 0.33368859 5.86338593 9.47998262
O 7.18416610 0.91231737 4.49358015
O 6.63754916 9.50515712 8.50793262
O 3.75144064 9.77211342 9.04894721
O 4.98789990 12.10379126 1.34148789
O 6.87306807 0.67993186 1.96928008
O 8.20811729 0.51956786 11.60724164
O 8.59684497 4.64773539 3.43097111
O 0.32950879 7.57384854 5.66916892
O 1.15547338 7.96557719 10.32667460
O 5.03397745 6.30881371 4.33751955
O 7.17550436 10.56762469 2.32695904
135
Time=600000.00000594 pbc="T T T" Lattice="12.52607000 0.00000000 0.00000000 0.00000000 12.52607000 0.00000000 0.00000000 0.00000000 12.52607000" energy=-881.64027311 virial="53.22769044 2.27737881 -5.77224585 2.27737881 11.55019665 -8.86587741 -5.77224585 -8.86587741 18.63436898" stress="0.05667875 0.00115875 -0.00293698 0.00115875 0.03547283 -0.00451105 -0.00293698 -0.00451105 0.03907733" Properties=species:S:1:pos:R:3
Ca 7.25527398 5.20911247 10.33537774
Ca 10.85787720 1.93633829 1.38368221
Ca 4.81185382 4.40166448 7.72529476
Ca 1.09975360 12.35887390 3.79584250
Ca 10.23105977 11.73649818 1.91092275
Ca 1.91354132 9.58162769 2.65765202
Ca 1.60336124 3.46950705 8.25652961
Ca 0.19716526 10.46749069 12.38227382
Ca 6.93762608 1.78406087 2.87012445
Ca 8.35285140 1.66472971 6.20995342
Ca 6.46218728 7.68500020 8.14441881
Ca 3.19589018 0.48606463 6.41338530
Ca 2.72172261 4.97361510 4.56213977
Ca 7.52427365 10.27900979 3.62014448
Ca 11.23207714 2.97949533 7.89797552
Ca 0.84246201 8.91809643 5.60083262
Ca 2.87943310 9.31623154 8.98600992
Ca 8.54714074 9.80105369 6.37640777
Ca 11.26181438 6.16904985 8.72125067
Ca 6.57516818 5.81553216 4.06873047
Ca 9.26786233 9.90446176 10.44354980
Ca 5.61419805 1.86549010 8.42926393
Ca 3.01205540 2.91535096 1.52389032
Ca 0.77338827 4.60928777 11.17015194
Ca 11.73086313 5.85993011 3.37900451
Ca 3.06662741 1.08566309 10.69848930
Ca 7.52661580 1.49133779 11.20077943
Si 5.50644491 11.81880133 1.13062099
Si 0.37479819 1.19472083 12.12512064
Si 4.78929488 3.87014223 11.42947468
Si 10.29068016 0.63318148 9.61198833
Si 9.67474401 6.30775830 6.40735073
Si 3.98169039 7.61044228 3.01596947
Si 5.35278483 10.94011026 7.25309203
Si 9.43374408 3.60032345 11.21776339
Si 11.75288574 10.65039363 9.20971891
Si 10.03954494 8.75053251 1.27593108
Si 0.20865828 2.83145581 4.42416968
Si 8.01465911 12.24384267 0.83356901
Si 2.68884146 8.84541321 12.28063121
Si 1.45432282 6.89580747 1.70076511
Si 0.67169272 1.26835993 9.30930748
Si 2.72213810 12.13842157 1.58703103
Si 9.61125300 5.19224607 1.00749933
Si 5.40846222 9.33009566 11.42863295
Si 7.17438263 4.70414609 6.90121658
Si 3.75937820 6.27697041 10.77040363
Si 3.81871585 10.56699180 4.42869580
Si 1.62667595 6.08721992 7.89275993
Si 10.50313636 7.41478227 11.36463010
Si 10.77649183 11.87221362 5.13460565
Si 9.38982362 3.74663906 3.73031385
Si 10.05330538 8.48584897 3.99702899
Si 4.12001992 2.14620613 4.74716766
O 8.52689206 11.72893419 4.88820551
O 0.17113101 2.84766791 12.37979550
O 8.51259793 9.19430335 1.43077827
O 8.62792419 0.06985194 11.74622726
O 10.62343718 5.10835634 6.93806270
O 10.34470132 9.81723686 4.72930367
O 4.12536101 11.25576113 0.46407410
O 10.49650580 9.14363838 11.89307189
O 5.63825551 7.57728950 2.79918634
O 8.65419166 5.25633684 5.56634407
O 4.12284265 3.38773593 3.57278110
O 1.12704508 7.56970202 7.27140608
O 0.78278127 4.40366377 4.27699981
O 3.78918949 5.10392987 12.05643389
O 1.02328752 0.42786186 10.54089706
O 10.86580278 0.34247044 3.34351163
O 8.59839694 4.95878870 12.01390584
O 5.25518656 0.96374889 4.45849005
O 8.14853747 2.86635623 4.26913191
O 5.98881907 3.60897727 12.27979897
O 2.43153199 7.85504081 10.95398209
O 10.84267267 3.34131189 3.57928900
O 10.49710056 7.66471184 5.44424430
O 1.92438806 1.01285059 0.27032241
O 3.84178715 2.71439725 12.19103743
O 4.04044361 2.81335694 6.17055906
O 12.33345023 11.28582804 5.41162277
O 3.33448132 11.68461764 3.09297688
O 5.76410499 7.69882498 11.76721235
O 2.53548046 10.44035836 5.37639463
O 4.87148833 0.65935707 1.87199912