 running on   52 total cores
 distrk:  each k-point on   52 cores,    1 groups
 distr:  one band on   13 cores,    4 groups
 using from now: INCAR     
 vasp.5.4.4.18Apr17-6-g9f103f2a35 (build Oct 31 2019 15:01:46) complex          
  
 POSCAR found type information on POSCAR  Sc Cl C 
 POSCAR found :  3 types and      80 ions
 scaLAPACK is switched off
 LDA part: xc-table for Pade appr. of Perdew
 generate k-points for:    3    3    1
 POSCAR, INCAR and KPOINTS ok, starting setup
 FFT: planning ...
 WAVECAR not read
 entering main loop
       N       E                     dE             d eps       ncg     rms          rms(c)
DAV:   1     0.122049862918E+05    0.12205E+05   -0.26802E+05  4416   0.152E+03
DAV:   2     0.173412274712E+04   -0.10471E+05   -0.10203E+05  5200   0.522E+02
DAV:   3    -0.406703494822E+03   -0.21408E+04   -0.20547E+04  6800   0.284E+02
DAV:   4    -0.642322562140E+03   -0.23562E+03   -0.23127E+03  6080   0.993E+01
DAV:   5    -0.652747383987E+03   -0.10425E+02   -0.10369E+02  6080   0.280E+01    0.705E+01
DAV:   6    -0.521705407626E+03    0.13104E+03   -0.69555E+02  5848   0.502E+01    0.308E+01
DAV:   7    -0.526808225233E+03   -0.51028E+01   -0.90792E+01  5896   0.232E+01    0.156E+01
DAV:   8    -0.524491572628E+03    0.23167E+01   -0.98116E+00  5728   0.771E+00    0.961E+00
DAV:   9    -0.524004083789E+03    0.48749E+00   -0.43057E+00  5432   0.399E+00    0.318E+00
DAV:  10    -0.523839029991E+03    0.16505E+00   -0.63695E-01  5744   0.207E+00    0.176E+00
DAV:  11    -0.523817858785E+03    0.21171E-01   -0.31472E-01  5720   0.976E-01    0.747E-01
DAV:  12    -0.523803452008E+03    0.14407E-01   -0.54345E-02  5928   0.593E-01    0.331E-01
DAV:  13    -0.523799339766E+03    0.41122E-02   -0.12065E-02  5616   0.281E-01    0.208E-01
DAV:  14    -0.523797782120E+03    0.15576E-02   -0.56192E-03  5456   0.151E-01    0.180E-01
DAV:  15    -0.523799068703E+03   -0.12866E-02   -0.22001E-03  5664   0.929E-02    0.994E-02
DAV:  16    -0.523800667795E+03   -0.15991E-02   -0.12774E-03  5768   0.637E-02    0.650E-02
DAV:  17    -0.523803946884E+03   -0.32791E-02   -0.80147E-04  5560   0.506E-02    0.359E-02
DAV:  18    -0.523806437437E+03   -0.24906E-02   -0.28718E-04  5056   0.330E-02    0.263E-02
DAV:  19    -0.523807611447E+03   -0.11740E-02   -0.13726E-04  5176   0.211E-02    0.163E-02
DAV:  20    -0.523808859709E+03   -0.12483E-02   -0.86220E-05  4296   0.151E-02    0.124E-02
DAV:  21    -0.523809554336E+03   -0.69463E-03   -0.28581E-05  4648   0.104E-02    0.805E-03
DAV:  22    -0.523809912506E+03   -0.35817E-03   -0.89246E-06  4120   0.533E-03    0.626E-03
DAV:  23    -0.523810438548E+03   -0.52604E-03   -0.90190E-06  3872   0.514E-03    0.406E-03
DAV:  24    -0.523810806709E+03   -0.36816E-03   -0.10373E-05  3392   0.414E-03    0.366E-03
DAV:  25    -0.523810886446E+03   -0.79737E-04   -0.18912E-06  3432   0.273E-03    0.266E-03
DAV:  26    -0.523810988986E+03   -0.10254E-03   -0.30916E-06  3304   0.255E-03    0.171E-03
DAV:  27    -0.523811035315E+03   -0.46329E-04   -0.99087E-07  2992   0.188E-03    0.170E-03
DAV:  28    -0.523811046487E+03   -0.11172E-04   -0.32003E-07  2616   0.179E-03    0.123E-03
DAV:  29    -0.523811057005E+03   -0.10518E-04   -0.33517E-07  2648   0.123E-03    0.539E-04
DAV:  30    -0.523811066498E+03   -0.94929E-05   -0.33473E-07  2704   0.151E-03    0.600E-04
DAV:  31    -0.523811072172E+03   -0.56739E-05   -0.31629E-07  2648   0.129E-03    0.629E-04
DAV:  32    -0.523811073943E+03   -0.17717E-05   -0.18622E-07  2416   0.124E-03    0.456E-04
DAV:  33    -0.523811074726E+03   -0.78305E-06   -0.12127E-07  2400   0.762E-04
   1 F= -.52381107E+03 E0= -.52381107E+03  d E =-.368896E-18
