 running on   52 total cores
 distrk:  each k-point on   52 cores,    1 groups
 distr:  one band on   13 cores,    4 groups
 using from now: INCAR     
 vasp.5.4.4.18Apr17-6-g9f103f2a35 (build Oct 31 2019 15:01:46) complex          
  
 POSCAR found type information on POSCAR  Ca Si O 
 POSCAR found :  3 types and     135 ions
 scaLAPACK is switched off
 LDA part: xc-table for Pade appr. of Perdew
 generate k-points for:    2    2    2
 POSCAR, INCAR and KPOINTS ok, starting setup
 FFT: planning ...
 WAVECAR not read
 entering main loop
       N       E                     dE             d eps       ncg     rms          rms(c)
DAV:   1     0.922314730092E+04    0.92231E+04   -0.45247E+05  8320   0.170E+03
DAV:   2     0.604634523939E+02   -0.91627E+04   -0.88946E+04 10440   0.437E+02
DAV:   3    -0.100980682485E+04   -0.10703E+04   -0.10626E+04 10320   0.150E+02
DAV:   4    -0.105806299379E+04   -0.48256E+02   -0.48056E+02 11152   0.319E+01
DAV:   5    -0.106461779606E+04   -0.65548E+01   -0.65515E+01 15112   0.668E+00    0.869E+01
DAV:   6    -0.891768014510E+03    0.17285E+03   -0.84596E+02 10552   0.432E+01    0.400E+01
DAV:   7    -0.891371040021E+03    0.39697E+00   -0.96646E+01 10488   0.159E+01    0.223E+01
DAV:   8    -0.884827251384E+03    0.65438E+01   -0.20144E+01 11760   0.754E+00    0.121E+01
DAV:   9    -0.889643125169E+03   -0.48159E+01   -0.16188E+01 10696   0.548E+00    0.216E+01
DAV:  10    -0.883478220057E+03    0.61649E+01   -0.21848E+00 11088   0.265E+00    0.653E+00
DAV:  11    -0.883678130659E+03   -0.19991E+00   -0.47894E+00 11544   0.235E+00    0.390E+00
DAV:  12    -0.883577790039E+03    0.10034E+00   -0.75261E-01 10544   0.149E+00    0.319E+00
DAV:  13    -0.883469213585E+03    0.10858E+00   -0.43652E-01 11488   0.951E-01    0.254E+00
DAV:  14    -0.883438327765E+03    0.30886E-01   -0.18387E-01 10528   0.775E-01    0.210E+00
DAV:  15    -0.883449279487E+03   -0.10952E-01   -0.31789E-01 10624   0.414E-01    0.328E+00
DAV:  16    -0.883444715863E+03    0.45636E-02   -0.55232E-02  9840   0.282E-01    0.748E-01
DAV:  17    -0.883514423776E+03   -0.69708E-01   -0.18399E-01 10928   0.281E-01    0.614E+00
DAV:  18    -0.883454522180E+03    0.59902E-01   -0.13414E-02  9216   0.200E-01    0.246E+00
DAV:  19    -0.883462818646E+03   -0.82965E-02   -0.58893E-02 10680   0.176E-01    0.965E-01
DAV:  20    -0.883470204785E+03   -0.73861E-02   -0.83330E-03  8952   0.143E-01    0.271E-01
DAV:  21    -0.883471297687E+03   -0.10929E-02   -0.28003E-03  9936   0.681E-02    0.346E-01
DAV:  22    -0.883471123354E+03    0.17433E-03   -0.11282E-03 10216   0.445E-02    0.153E-01
DAV:  23    -0.883471449851E+03   -0.32650E-03   -0.46699E-04 10232   0.339E-02    0.123E-01
DAV:  24    -0.883471696834E+03   -0.24698E-03   -0.57154E-04 10280   0.208E-02    0.320E-01
DAV:  25    -0.883471578360E+03    0.11847E-03   -0.13214E-04  8656   0.231E-02    0.288E-01
DAV:  26    -0.883471406005E+03    0.17236E-03   -0.16922E-04 10392   0.114E-02    0.484E-02
DAV:  27    -0.883471528190E+03   -0.12219E-03   -0.46504E-05  8256   0.121E-02    0.182E-02
DAV:  28    -0.883471550409E+03   -0.22219E-04   -0.15288E-05  8456   0.718E-03    0.197E-02
DAV:  29    -0.883471550316E+03    0.92768E-07   -0.20446E-06  6952   0.250E-03
   1 F= -.88347155E+03 E0= -.88344994E+03  d E =-.432115E-01
