 vasp.5.4.4.18Apr17-6-g9f103f2a35 (build Oct 31 2019 15:01:46) complex          
  
 executed on             LinuxIFC date 2024.04.19  20:12:07
 running on   52 total cores
 distrk:  each k-point on   52 cores,    1 groups
 distr:  one band on NCORES_PER_BAND=  13 cores,    4 groups


--------------------------------------------------------------------------------------------------------


 INCAR:
 POTCAR:    PAW_PBE Sc_sv 07Sep2000               
 POTCAR:    PAW_PBE F 08Apr2002                   
 POTCAR:    PAW_PBE C 08Apr2002                   
 POTCAR:    PAW_PBE Sc_sv 07Sep2000               
   VRHFIN =Sc: 3p4s3d                                                           
   LEXCH  = PE                                                                  
   EATOM  =  1273.2868 eV,   93.5839 Ry                                         
                                                                                
   TITEL  = PAW_PBE Sc_sv 07Sep2000                                             
   LULTRA =        F    use ultrasoft PP ?                                      
   IUNSCR =        1    unscreen: 0-lin 1-nonlin 2-no                           
   RPACOR =    2.200    partial core radius                                     
   POMASS =   44.956; ZVAL   =   11.000    mass and valenz                      
   RCORE  =    2.500    outmost cutoff radius                                   
   RWIGS  =    2.700; RWIGS  =    1.429    wigner-seitz radius (au A)           
   ENMAX  =  222.660; ENMIN  =  166.995 eV                                      
   RCLOC  =    1.805    cutoff for local pot                                    
   LCOR   =        T    correct aug charges                                     
   LPAW   =        T    paw PP                                                  
   EAUG   =  443.063                                                            
   RMAX   =    2.551    core radius for proj-oper                               
   RAUG   =    1.300    factor for augmentation sphere                          
   RDEP   =    2.650    radius for radial grids                                 
   RDEPT  =    2.038    core radius for aug-charge                              
                                                                                
   Atomic configuration                                                         
    8 entries                                                                   
     n  l   j            E        occ.                                          
     1  0  0.50     -4394.2533   2.0000                                         
     2  0  0.50      -471.0040   2.0000                                         
     2  1  1.50      -384.9788   6.0000                                         
     3  0  0.50       -52.1410   2.0000                                         
     4  0  0.50        -3.5584   1.0000                                         
     3  1  1.50       -30.8841   6.0000                                         
     3  2  2.50        -1.3655   2.0000                                         
     4  3  2.50        -1.3606   0.0000                                         
   Description                                                                  
     l       E           TYP  RCUT    TYP  RCUT                                 
     0    -52.1409870     23  1.800                                             
     0     -3.5583698     23  2.500                                             
     1    -30.8840697     23  2.300                                             
     1      4.0817478     23  2.300                                             
     2     -1.3655397     23  2.500                                             
     2      0.3564476     23  2.500                                             
  local pseudopotential read in
  partial core-charges read in
  partial kinetic energy density read in
  atomic valenz-charges read in
  non local Contribution for L=           0  read in
    real space projection operators read in
  non local Contribution for L=           0  read in
    real space projection operators read in
  non local Contribution for L=           1  read in
    real space projection operators read in
  non local Contribution for L=           1  read in
    real space projection operators read in
  non local Contribution for L=           2  read in
    real space projection operators read in
  non local Contribution for L=           2  read in
    real space projection operators read in
    PAW grid and wavefunctions read in
 
   number of l-projection  operators is LMAX  =           6
   number of lm-projection operators is LMMAX =          18
 
 POTCAR:    PAW_PBE F 08Apr2002                   
   VRHFIN =F: s2p5                                                              
   LEXCH  = PE                                                                  
   EATOM  =   659.6475 eV,   48.4827 Ry                                         
                                                                                
   TITEL  = PAW_PBE F 08Apr2002                                                 
   LULTRA =        F    use ultrasoft PP ?                                      
   IUNSCR =        1    unscreen: 0-lin 1-nonlin 2-no                           
   RPACOR =    1.200    partial core radius                                     
   POMASS =   18.998; ZVAL   =    7.000    mass and valenz                      
   RCORE  =    1.520    outmost cutoff radius                                   
   RWIGS  =    1.500; RWIGS  =    0.794    wigner-seitz radius (au A)           
   ENMAX  =  400.000; ENMIN  =  300.000 eV                                      
   ICORE  =        2    local potential                                         
   LCOR   =        T    correct aug charges                                     
   LPAW   =        T    paw PP                                                  
   EAUG   =  613.614                                                            
   RMAX   =    1.555    core radius for proj-oper                               
   RAUG   =    1.300    factor for augmentation sphere                          
   RDEP   =    1.539    radius for radial grids                                 
   RDEPT  =    1.299    core radius for aug-charge                              
                                                                                
   Atomic configuration                                                         
    4 entries                                                                   
     n  l   j            E        occ.                                          
     1  0  0.50      -663.3661   2.0000                                         
     2  0  0.50       -29.8995   2.0000                                         
     2  1  0.50       -11.1114   5.0000                                         
     3  2  1.50       -10.8847   0.0000                                         
   Description                                                                  
     l       E           TYP  RCUT    TYP  RCUT                                 
     0    -29.8995018     23  1.200                                             
     0     -9.5240782     23  1.200                                             
     1    -11.1113914     23  1.520                                             
     1      1.3605826     23  1.520                                             
     2    -10.8846608      7  1.500                                             
  local pseudopotential read in
  partial core-charges read in
  partial kinetic energy density read in
  atomic valenz-charges read in
  non local Contribution for L=           0  read in
    real space projection operators read in
  non local Contribution for L=           0  read in
    real space projection operators read in
  non local Contribution for L=           1  read in
    real space projection operators read in
  non local Contribution for L=           1  read in
    real space projection operators read in
    PAW grid and wavefunctions read in
 
   number of l-projection  operators is LMAX  =           4
   number of lm-projection operators is LMMAX =           8
 
 POTCAR:    PAW_PBE C 08Apr2002                   
   VRHFIN =C: s2p2                                                              
   LEXCH  = PE                                                                  
   EATOM  =   147.1560 eV,   10.8157 Ry                                         
                                                                                
   TITEL  = PAW_PBE C 08Apr2002                                                 
   LULTRA =        F    use ultrasoft PP ?                                      
   IUNSCR =        1    unscreen: 0-lin 1-nonlin 2-no                           
   RPACOR =    1.200    partial core radius                                     
   POMASS =   12.011; ZVAL   =    4.000    mass and valenz                      
   RCORE  =    1.500    outmost cutoff radius                                   
   RWIGS  =    1.630; RWIGS  =    0.863    wigner-seitz radius (au A)           
   ENMAX  =  400.000; ENMIN  =  300.000 eV                                      
   ICORE  =        2    local potential                                         
   LCOR   =        T    correct aug charges                                     
   LPAW   =        T    paw PP                                                  
   EAUG   =  644.873                                                            
   DEXC   =    0.000                                                            
   RMAX   =    1.529    core radius for proj-oper                               
   RAUG   =    1.300    factor for augmentation sphere                          
   RDEP   =    1.501    radius for radial grids                                 
   RDEPT  =    1.300    core radius for aug-charge                              
                                                                                
   Atomic configuration                                                         
    4 entries                                                                   
     n  l   j            E        occ.                                          
     1  0  0.50      -273.3789   2.0000                                         
     2  0  0.50       -13.7508   2.0000                                         
     2  1  0.50        -5.2854   2.0000                                         
     3  2  1.50        -5.4423   0.0000                                         
   Description                                                                  
     l       E           TYP  RCUT    TYP  RCUT                                 
     0    -13.7508458     23  1.200                                             
     0     -8.2022199     23  1.200                                             
     1     -5.2854383     23  1.500                                             
     1     34.0145650     23  1.500                                             
     2     -5.4423304      7  1.500                                             
  local pseudopotential read in
  partial core-charges read in
  partial kinetic energy density read in
  atomic valenz-charges read in
  non local Contribution for L=           0  read in
    real space projection operators read in
  non local Contribution for L=           0  read in
    real space projection operators read in
  non local Contribution for L=           1  read in
    real space projection operators read in
  non local Contribution for L=           1  read in
    real space projection operators read in
    PAW grid and wavefunctions read in
 
   number of l-projection  operators is LMAX  =           4
   number of lm-projection operators is LMMAX =           8
 
 Optimization of the real space projectors (new method)

 maximal supplied QI-value         = 15.12
 optimisation between [QCUT,QGAM] = [ 12.55, 25.10] = [ 44.09,176.36] Ry 
 Optimized for a Real-space Cutoff    1.56 Angstroem

   l    n(q)    QCUT    max X(q) W(low)/X(q) W(high)/X(q)  e(spline) 
   0     12    12.548     2.962    0.12E-05    0.11E-06    0.46E-07
   0     12    12.548    26.414    0.30E-04    0.15E-05    0.76E-07
   1     11    12.548     3.969    0.45E-05    0.12E-05    0.60E-07
   1     11    12.548     5.137    0.15E-04    0.18E-04    0.36E-06
   2     11    12.548   143.970    0.20E-03    0.19E-03    0.76E-06
   2     11    12.548   121.201    0.20E-03    0.19E-03    0.76E-06
 Optimization of the real space projectors (new method)

 maximal supplied QI-value         = 24.76
 optimisation between [QCUT,QGAM] = [ 12.38, 25.00] = [ 42.90,175.06] Ry 
 Optimized for a Real-space Cutoff    1.16 Angstroem

   l    n(q)    QCUT    max X(q) W(low)/X(q) W(high)/X(q)  e(spline) 
   0      9    12.378    14.049    0.11E-03    0.38E-05    0.23E-06
   0      9    12.378     8.945    0.15E-03    0.56E-05    0.30E-06
   1      8    12.378     7.086    0.18E-03    0.14E-03    0.29E-06
   1      8    12.378     6.747    0.16E-03    0.13E-03    0.26E-06
 Optimization of the real space projectors (new method)

 maximal supplied QI-value         = 25.13
 optimisation between [QCUT,QGAM] = [ 12.32, 24.88] = [ 42.47,173.37] Ry 
 Optimized for a Real-space Cutoff    1.16 Angstroem

   l    n(q)    QCUT    max X(q) W(low)/X(q) W(high)/X(q)  e(spline) 
   0      9    12.315   115.676    0.19E-03    0.80E-05    0.34E-06
   0      9    12.315    87.132    0.19E-03    0.82E-05    0.34E-06
   1      8    12.315     4.429    0.18E-03    0.13E-03    0.22E-06
   1      8    12.315     2.733    0.14E-03    0.10E-03    0.18E-06
  PAW_PBE Sc_sv 07Sep2000               :
 energy of atom  1       EATOM=-1273.2868
 kinetic energy error for atom=    0.0014 (will be added to EATOM!!)
  PAW_PBE F 08Apr2002                   :
 energy of atom  2       EATOM= -659.6475
 kinetic energy error for atom=    0.0256 (will be added to EATOM!!)
  PAW_PBE C 08Apr2002                   :
 energy of atom  3       EATOM= -147.1560
 kinetic energy error for atom=    0.0057 (will be added to EATOM!!)
 
 
 POSCAR: Sc  F  C                                
  positions in cartesian coordinates
  No initial velocities read in
 exchange correlation table for  LEXCH =        8
   RHO(1)=    0.500       N(1)  =     2000
   RHO(2)=  100.500       N(2)  =     4000
 


--------------------------------------------------------------------------------------------------------


 ion  position               nearest neighbor table
   1  0.084  0.159  0.452-  65 2.19  61 2.22  49 2.24  70 2.32  66 2.38  50 2.42  17 2.93  29 3.08
                             4 3.20  13 3.27   5 3.30  18 3.33  16 3.33   2 3.42
   2  0.080  0.416  0.456-  50 2.20  67 2.22  66 2.25  62 2.26  51 2.33  71 2.36  30 3.06  19 3.17
                            18 3.20  14 3.25   3 3.27  13 3.28   6 3.29   7 3.39   1 3.42
   3  0.082  0.667  0.453-  52 2.14  63 2.15  67 2.22  68 2.24  51 2.27  72 2.39  20 3.13  31 3.21
                            19 3.22   4 3.25   7 3.27   2 3.27  15 3.28  14 3.29   8 3.29
   4  0.079  0.912  0.450-  64 2.10  52 2.16  69 2.27  65 2.31  68 2.31  49 2.31  17 3.07  32 3.11
                            20 3.15   1 3.20   3 3.25  15 3.29   8 3.30  16 3.36   5 3.40
   5  0.340  0.169  0.446-  53 2.11  54 2.16  74 2.28  69 2.28  49 2.35  70 2.42  21 3.19  10 3.19
                            17 3.21   8 3.26   9 3.28   1 3.30  22 3.32   4 3.40
   6  0.340  0.437  0.452-  55 2.07  50 2.12  54 2.23  71 2.27  70 2.35  75 2.37  11 3.12   7 3.18
                            23 3.19  18 3.19   2 3.29  10 3.30  22 3.34
   7  0.336  0.677  0.457-  56 2.10  51 2.19  76 2.19  55 2.22  72 2.29  71 2.34  23 3.06  24 3.08
                            12 3.17   6 3.18   8 3.18   3 3.27  11 3.27  19 3.29   2 3.39
   8  0.333  0.917  0.454-  72 2.14  69 2.26  53 2.26  73 2.26  52 2.31  56 2.42  21 3.07  20 3.10
                            24 3.10   7 3.18   5 3.26  12 3.27   9 3.27   3 3.29   4 3.30
   9  0.586  0.162  0.449-  57 2.12  53 2.17  73 2.20  78 2.33  58 2.34  74 2.36  25 3.11  21 3.18
                            12 3.21  26 3.23   8 3.27   5 3.28  14 3.29  13 3.30  10 3.36
  10  0.579  0.414  0.455-  54 2.12  58 2.20  74 2.25  75 2.29  59 2.31  79 2.36  26 3.08  22 3.18
                             5 3.19  27 3.22  15 3.26   6 3.30  14 3.31  11 3.35   9 3.36
  11  0.582  0.670  0.454-  60 2.09  76 2.24  59 2.24  75 2.24  55 2.25  80 2.37   6 3.12  28 3.13
                            23 3.17  16 3.18  12 3.22   7 3.27  27 3.27  15 3.32  10 3.35
  12  0.581  0.915  0.454-  56 2.07  77 2.25  73 2.27  57 2.30  76 2.32  60 2.34  25 3.10  24 3.13
                            28 3.17   7 3.17  16 3.20   9 3.21  11 3.22   8 3.27  13 3.30
  13  0.837  0.161  0.449-  61 2.19  66 2.21  62 2.22  78 2.28  57 2.33  77 2.39  30 3.12  16 3.17
                            29 3.20   1 3.27   2 3.28  25 3.28   9 3.30  12 3.30  14 3.38
  14  0.832  0.416  0.452-  79 2.25  62 2.28  78 2.28  63 2.30  58 2.31  67 2.43  26 3.11  31 3.15
                            30 3.20  15 3.22   2 3.25   3 3.29   9 3.29  10 3.31  13 3.38
  15  0.829  0.660  0.455-  59 2.11  63 2.18  80 2.21  79 2.24  68 2.28  64 2.38  31 3.07  32 3.14
                            27 3.18  14 3.22  10 3.26   3 3.28   4 3.29  11 3.32  16 3.36
  16  0.823  0.913  0.451-  64 2.08  61 2.16  77 2.18  60 2.27  80 2.34  65 2.48  13 3.17  11 3.18
                            28 3.18  12 3.20  29 3.20   1 3.33  15 3.36   4 3.36  32 3.40
  17  0.164  0.082  0.539-  65 2.07  69 2.17  37 2.22  70 2.31  36 2.36  33 2.42   1 2.93   4 3.07
                            29 3.13   5 3.21  32 3.21  22 3.24  20 3.27  21 3.30  18 3.30
  18  0.179  0.340  0.549-  33 2.09  34 2.19  38 2.20  71 2.23  70 2.28  66 2.53  22 3.13   6 3.19
                             2 3.20  23 3.28  17 3.30   1 3.33  19 3.33  29 3.35  30 3.39
  19  0.154  0.580  0.552-  35 1.98  34 2.00  67 2.10  39 2.26  71 2.35  72 2.52   2 3.17  31 3.22
                             3 3.22  20 3.27   7 3.29  30 3.33  18 3.33  23 3.34
  20  0.165  0.834  0.545-  72 2.13  36 2.22  68 2.24  35 2.26  69 2.36  40 2.50  32 3.04   8 3.10
                             3 3.13   4 3.15  24 3.24  17 3.27  19 3.27  21 3.31  31 3.35
  21  0.417  0.086  0.543-  37 2.03  40 2.13  74 2.17  73 2.23  69 2.32  41 2.38   8 3.07   9 3.18
                             5 3.19  25 3.19  22 3.20  24 3.20  26 3.27  17 3.30  20 3.31
  22  0.410  0.326  0.550-  38 2.16  42 2.18  70 2.24  37 2.28  74 2.36  75 2.45  18 3.13  10 3.18
                            21 3.20  17 3.24   5 3.32  26 3.33   6 3.34  27 3.37
  23  0.417  0.600  0.549-  76 2.07  43 2.20  39 2.20  71 2.22  75 2.40  38 2.48   7 3.06  28 3.14
                            11 3.17  24 3.18   6 3.19  18 3.28  19 3.34  27 3.39
  24  0.415  0.841  0.548-  44 2.11  72 2.18  40 2.21  73 2.31  76 2.36  39 2.57   7 3.08   8 3.10
                            12 3.13  25 3.18  23 3.18  21 3.20  20 3.24  28 3.35
  25  0.658  0.082  0.545-  73 2.18  41 2.23  78 2.27  45 2.31  77 2.40  44 2.46  12 3.10   9 3.11
                            24 3.18  21 3.19  30 3.21  26 3.24  13 3.28  28 3.35
  26  0.668  0.334  0.545-  79 2.19  46 2.28  74 2.30  41 2.32  78 2.38  42 2.45  10 3.08  14 3.11
                            31 3.20   9 3.23  25 3.24  21 3.27  27 3.29  30 3.30  22 3.33
  27  0.667  0.584  0.551-  42 2.11  43 2.12  75 2.20  47 2.25  80 2.29  79 2.37  15 3.18  31 3.21
                            10 3.22  28 3.26  11 3.27  26 3.29  32 3.34  22 3.37  23 3.39
  28  0.665  0.831  0.548-  44 2.16  77 2.22  76 2.29  43 2.29  48 2.30  80 2.35  11 3.13  23 3.14
                            12 3.17  16 3.18  27 3.26  24 3.35  25 3.35  29 3.38
  29  0.926  0.084  0.545-  65 2.17  66 2.24  48 2.27  33 2.32  45 2.34  77 2.38   1 3.08  17 3.13
                            30 3.19  13 3.20  16 3.20  18 3.35  28 3.38  32 3.39
  30  0.911  0.318  0.545-  66 2.15  78 2.17  45 2.19  34 2.26  46 2.31  67 2.47   2 3.06  13 3.12
                            29 3.19  14 3.20  25 3.21  26 3.30  19 3.33  18 3.39
  31  0.909  0.581  0.547-  47 2.04  79 2.14  68 2.27  35 2.27  46 2.27  67 2.31  15 3.07  32 3.12
                            14 3.15  26 3.20   3 3.21  27 3.21  19 3.22  20 3.35
  32  0.931  0.828  0.548-  68 2.14  36 2.15  47 2.24  80 2.34  48 2.35  65 2.36  20 3.04   4 3.11
                            31 3.12  15 3.14  17 3.21  27 3.34  29 3.39  16 3.40
  33  0.097  0.186  0.592-  18 2.09  29 2.32  17 2.42
  34  0.086  0.422  0.584-  19 2.00  18 2.19  30 2.26
  35  0.085  0.663  0.588-  19 1.98  20 2.26  31 2.27
  36  0.087  0.916  0.592-  32 2.15  20 2.22  17 2.36
  37  0.326  0.144  0.584-  21 2.03  17 2.22  22 2.28
  38  0.340  0.413  0.595-  22 2.16  18 2.20  23 2.48
  39  0.318  0.651  0.599-  23 2.20  19 2.26  24 2.57
  40  0.353  0.940  0.593-  21 2.13  24 2.21  20 2.50
  41  0.587  0.168  0.595-  25 2.23  26 2.32  21 2.38
  42  0.574  0.425  0.592-  27 2.11  22 2.18  26 2.45
  43  0.580  0.657  0.592-  27 2.12  23 2.20  28 2.29
  44  0.569  0.894  0.591-  24 2.11  28 2.16  25 2.46
  45  0.830  0.161  0.592-  30 2.19  25 2.31  29 2.34
  46  0.835  0.411  0.592-  31 2.27  26 2.28  30 2.31
  47  0.841  0.659  0.591-  31 2.04  32 2.24  27 2.25
  48  0.839  0.916  0.591-  29 2.27  28 2.30  32 2.35
  49  0.162  0.080  0.401-   1 2.24   4 2.31   5 2.35
  50  0.177  0.350  0.414-   6 2.12   2 2.20   1 2.42
  51  0.178  0.590  0.410-   7 2.19   3 2.27   2 2.33
  52  0.157  0.826  0.410-   3 2.14   4 2.16   8 2.31
  53  0.421  0.085  0.409-   5 2.11   9 2.17   8 2.26
  54  0.420  0.343  0.414-  10 2.12   5 2.16   6 2.23
  55  0.411  0.590  0.411-   6 2.07   7 2.22  11 2.25
  56  0.430  0.826  0.412-  12 2.07   7 2.10   8 2.42
  57  0.660  0.081  0.406-   9 2.12  12 2.30  13 2.33
  58  0.661  0.341  0.406-  10 2.20  14 2.31   9 2.34
  59  0.673  0.590  0.413-  15 2.11  11 2.24  10 2.31
  60  0.653  0.817  0.407-  11 2.09  16 2.27  12 2.34
  61  0.918  0.075  0.409-  16 2.16  13 2.19   1 2.22
  62  0.917  0.330  0.408-  13 2.22   2 2.26  14 2.28
  63  0.922  0.593  0.411-   3 2.15  15 2.18  14 2.30
  64  0.916  0.846  0.414-  16 2.08   4 2.10  15 2.38
  65  0.006  0.004  0.501-  17 2.07  29 2.17   1 2.19   4 2.31  32 2.36  16 2.48
  66  0.993  0.245  0.498-  30 2.15  13 2.21  29 2.24   2 2.25   1 2.38  18 2.53
  67  0.012  0.510  0.502-  19 2.10   3 2.22   2 2.22  31 2.31  14 2.43  30 2.47
  68  0.999  0.746  0.500-  32 2.14  20 2.24   3 2.24  31 2.27  15 2.28   4 2.31
  69  0.248  0.005  0.495-  17 2.17   8 2.26   4 2.27   5 2.28  21 2.32  20 2.36
  70  0.257  0.260  0.498-  22 2.24  18 2.28  17 2.31   1 2.32   6 2.35   5 2.42
  71  0.253  0.505  0.505-  23 2.22  18 2.23   6 2.27   7 2.34  19 2.35   2 2.36
  72  0.256  0.768  0.502-  20 2.13   8 2.14  24 2.18   7 2.29   3 2.39  19 2.52
  73  0.502  0.007  0.498-  25 2.18   9 2.20  21 2.23   8 2.26  12 2.27  24 2.31
  74  0.497  0.245  0.499-  21 2.17  10 2.25   5 2.28  26 2.30   9 2.36  22 2.36
  75  0.510  0.512  0.503-  27 2.20  11 2.24  10 2.29   6 2.37  23 2.40  22 2.45
  76  0.496  0.745  0.502-  23 2.07   7 2.19  11 2.24  28 2.29  12 2.32  24 2.36
  77  0.747  0.989  0.500-  16 2.18  28 2.22  12 2.25  29 2.38  13 2.39  25 2.40
  78  0.756  0.246  0.498-  30 2.17  25 2.27  14 2.28  13 2.28   9 2.33  26 2.38
  79  0.754  0.498  0.502-  31 2.14  26 2.19  15 2.24  14 2.25  10 2.36  27 2.37
  80  0.756  0.747  0.502-  15 2.21  27 2.29  16 2.34  32 2.34  28 2.35  11 2.37
 
  LATTYP: Found a hexagonal cell.
 ALAT       =    13.1286233990
 C/A-ratio  =     2.0434811347
  
  Lattice vectors:
  
 A1 = (  13.1286234000,   0.0000000000,   0.0000000000)
 A2 = (  -6.5643117000,  11.3697213800,   0.0000000000)
 A3 = (   0.0000000000,   0.0000000000,  26.8280942400)


Analysis of symmetry for initial positions (statically):
=====================================================================
 Subroutine PRICEL returns:
 Original cell was already a primitive cell.
 

 Routine SETGRP: Setting up the symmetry group for a 
 hexagonal supercell.


 Subroutine GETGRP returns: Found  1 space group operations
 (whereof  1 operations were pure point group operations)
 out of a pool of 24 trial point group operations.


The static configuration has the point symmetry C_1 .


Analysis of symmetry for dynamics (positions and initial velocities):
=====================================================================
 Subroutine PRICEL returns:
 Original cell was already a primitive cell.
 

 Routine SETGRP: Setting up the symmetry group for a 
 hexagonal supercell.


 Subroutine GETGRP returns: Found  1 space group operations
 (whereof  1 operations were pure point group operations)
 out of a pool of 24 trial point group operations.


The dynamic configuration has the point symmetry C_1 .


 Subroutine INISYM returns: Found  1 space group operations
 (whereof  1 operations are pure point group operations),
 and found     1 'primitive' translations

 
 

Automatic generation of k-mesh.
 generate k-points for:    3    3    1
Space group operators:
 irot       det(A)        alpha          n_x          n_y          n_z        tau_x        tau_y        tau_z
    1     1.000000     0.000000     1.000000     0.000000     0.000000     0.000000     0.000000     0.000000
 
 Subroutine IBZKPT returns following result:
 ===========================================
 
 Found      5 irreducible k-points:
 
 Following reciprocal coordinates:
            Coordinates               Weight
  0.000000  0.000000  0.000000      1.000000
  0.333333 -0.000000  0.000000      2.000000
  0.000000  0.333333  0.000000      2.000000
  0.333333  0.333333  0.000000      2.000000
 -0.333333  0.333333  0.000000      2.000000
 
 Following cartesian coordinates:
            Coordinates               Weight
  0.000000  0.000000  0.000000      1.000000
  0.025390  0.014659  0.000000      2.000000
  0.000000  0.029318  0.000000      2.000000
  0.025390  0.043976  0.000000      2.000000
 -0.025390  0.014659  0.000000      2.000000
 


--------------------------------------------------------------------------------------------------------




 Dimension of arrays:
   k-points           NKPTS =      5   k-points in BZ     NKDIM =      5   number of bands    NBANDS=    384
   number of dos      NEDOS =    301   number of ions     NIONS =     80
   non local maximal  LDIM  =      6   non local SUM 2l+1 LMDIM =     18
   total plane-waves  NPLWV = ******
   max r-space proj   IRMAX =  10060   max aug-charges    IRDMAX= 222480
   dimension x,y,z NGX =   108 NGY =  108 NGZ =  216
   dimension x,y,z NGXF=   216 NGYF=  216 NGZF=  432
   support grid    NGXF=   432 NGYF=  432 NGZF=  864
   ions per type =              32  32  16
   NGX,Y,Z   is equivalent  to a cutoff of  13.68, 13.68, 13.38 a.u.
   NGXF,Y,Z  is equivalent  to a cutoff of  27.35, 27.35, 26.77 a.u.

 SYSTEM =  unknown system                          
 POSCAR =  Sc  F  C                                

 Startparameter for this run:
   NWRITE =      2    write-flag & timer
   PREC   = anorma    normal or accurate (medium, high low for compatibility)
   ISTART =      0    job   : 0-new  1-cont  2-samecut
   ICHARG =      2    charge: 1-file 2-atom 10-const
   ISPIN  =      1    spin polarized calculation?
   LNONCOLLINEAR =      F non collinear calculations
   LSORBIT =      F    spin-orbit coupling
   INIWAV =      1    electr: 0-lowe 1-rand  2-diag
   LASPH  =      F    aspherical Exc in radial PAW
   METAGGA=      F    non-selfconsistent MetaGGA calc.

 Electronic Relaxation 1
   ENCUT  =  600.0 eV  44.10 Ry    6.64 a.u.  26.22 26.22 53.58*2*pi/ulx,y,z
   ENINI  =  600.0     initial cutoff
   ENAUG  =  644.9 eV  augmentation charge cutoff
   NELM   =     60;   NELMIN=  2; NELMDL= -5     # of ELM steps 
   EDIFF  = 0.1E-05   stopping-criterion for ELM
   LREAL  =      T    real-space projection
   NLSPLINE    = F    spline interpolate recip. space projectors
   LCOMPAT=      F    compatible to vasp.4.4
   GGA_COMPAT  = T    GGA compatible to vasp.4.4-vasp.4.6
   LMAXPAW     = -100 max onsite density
   LMAXMIX     =    2 max onsite mixed and CHGCAR
   VOSKOWN=      0    Vosko Wilk Nusair interpolation
   ROPT   =   -0.00025  -0.00025  -0.00025
 Ionic relaxation
   EDIFFG = -.1E-01   stopping-criterion for IOM
   NSW    =      1    number of steps for IOM
   NBLOCK =      1;   KBLOCK =      1    inner block; outer block 
   IBRION =     -1    ionic relax: 0-MD 1-quasi-New 2-CG
   NFREE  =      0    steps in history (QN), initial steepest desc. (CG)
   ISIF   =      2    stress and relaxation
   IWAVPR =     10    prediction:  0-non 1-charg 2-wave 3-comb
   ISYM   =      2    0-nonsym 1-usesym 2-fastsym
   LCORR  =      T    Harris-Foulkes like correction to forces

   POTIM  = 1.0000    time-step for ionic-motion
   TEIN   =    0.0    initial temperature
   TEBEG  =    0.0;   TEEND  =   0.0 temperature during run
   SMASS  =  -3.00    Nose mass-parameter (am)
   estimated Nose-frequenzy (Omega)   =  0.10E-29 period in steps =****** mass=  -0.394E-26a.u.
   SCALEE = 1.0000    scale energy and forces
   NPACO  =    256;   APACO  = 16.0  distance and # of slots for P.C.
   PSTRESS=    0.0 pullay stress

  Mass of Ions in am
   POMASS =  44.96 19.00 12.01
  Ionic Valenz
   ZVAL   =  11.00  7.00  4.00
  Atomic Wigner-Seitz radii
   RWIGS  =  -1.00 -1.00 -1.00
  virtual crystal weights 
   VCA    =   1.00  1.00  1.00
   NELECT =     640.0000    total number of electrons
   NUPDOWN=      -1.0000    fix difference up-down

 DOS related values:
   EMIN   =  10.00;   EMAX   =-10.00  energy-range for DOS
   EFERMI =   0.00
   ISMEAR =     0;   SIGMA  =   0.05  broadening in eV -4-tet -1-fermi 0-gaus

 Electronic relaxation 2 (details)
   IALGO  =     38    algorithm
   LDIAG  =      T    sub-space diagonalisation (order eigenvalues)
   LSUBROT=      F    optimize rotation matrix (better conditioning)
   TURBO    =      0    0=normal 1=particle mesh
   IRESTART =      0    0=no restart 2=restart with 2 vectors
   NREBOOT  =      0    no. of reboots
   NMIN     =      0    reboot dimension
   EREF     =   0.00    reference energy to select bands
   IMIX   =      4    mixing-type and parameters
     AMIX     =   0.40;   BMIX     =  1.00
     AMIX_MAG =   1.60;   BMIX_MAG =  1.00
     AMIN     =   0.10
     WC   =   100.;   INIMIX=   1;  MIXPRE=   1;  MAXMIX= -45

 Intra band minimization:
   WEIMIN = 0.0000     energy-eigenvalue tresh-hold
   EBREAK =  0.65E-09  absolut break condition
   DEPER  =   0.30     relativ break condition  

   TIME   =   0.40     timestep for ELM

  volume/ion in A,a.u.               =      50.06       337.80
  Fermi-wavevector in a.u.,A,eV,Ry     =   0.888414  1.678858 10.738790  0.789279
  Thomas-Fermi vector in A             =   2.009840
 
 Write flags
   LWAVE        =      F    write WAVECAR
   LDOWNSAMPLE  =      F    k-point downsampling of WAVECAR
   LCHARG       =      F    write CHGCAR
   LVTOT        =      F    write LOCPOT, total local potential
   LVHAR        =      F    write LOCPOT, Hartree potential only
   LELF         =      F    write electronic localiz. function (ELF)
   LORBIT       =      0    0 simple, 1 ext, 2 COOP (PROOUT), +10 PAW based schemes


 Dipole corrections
   LMONO  =      F    monopole corrections only (constant potential shift)
   LDIPOL =      F    correct potential (dipole corrections)
   IDIPOL =      0    1-x, 2-y, 3-z, 4-all directions 
   EPSILON=  1.0000000 bulk dielectric constant

 Exchange correlation treatment:
   GGA     =    --    GGA type
   LEXCH   =     8    internal setting for exchange type
   VOSKOWN=      0    Vosko Wilk Nusair interpolation
   LHFCALC =     F    Hartree Fock is set to
   LHFONE  =     F    Hartree Fock one center treatment
   AEXX    =    0.0000 exact exchange contribution

 Linear response parameters
   LEPSILON=     F    determine dielectric tensor
   LRPA    =     F    only Hartree local field effects (RPA)
   LNABLA  =     F    use nabla operator in PAW spheres
   LVEL    =     F    velocity operator in full k-point grid
   LINTERFAST=   F  fast interpolation
   KINTER  =     0    interpolate to denser k-point grid
   CSHIFT  =0.1000    complex shift for real part using Kramers Kronig
   OMEGAMAX=  -1.0    maximum frequency
   DEG_THRESHOLD= 0.2000000E-02 threshold for treating states as degnerate
   RTIME   =   -0.100 relaxation time in fs
  (WPLASMAI=    0.000 imaginary part of plasma frequency in eV, 0.658/RTIME)
   DFIELD  = 0.0000000 0.0000000 0.0000000 field for delta impulse in time
 
 Orbital magnetization related:
   ORBITALMAG=     F  switch on orbital magnetization
   LCHIMAG   =     F  perturbation theory with respect to B field
   DQ        =  0.001000  dq finite difference perturbation B field
   LLRAUG    =     F  two centre corrections for induced B field



--------------------------------------------------------------------------------------------------------


 Static calculation
 charge density and potential will be updated during run
 non-spin polarized calculation
 Variant of blocked Davidson
 Davidson routine will perform the subspace rotation
 perform sub-space diagonalisation
    after iterative eigenvector-optimisation
 modified Broyden-mixing scheme, WC =      100.0
 initial mixing is a Kerker type mixing with AMIX =  0.4000 and BMIX =      1.0000
 Hartree-type preconditioning will be used
 using additional bands           64
 real space projection scheme for non local part
 use partial core corrections
 calculate Harris-corrections to forces 
   (improved forces if not selfconsistent)
 use gradient corrections 
 use of overlap-Matrix (Vanderbilt PP)
 Gauss-broadening in eV      SIGMA  =   0.05


--------------------------------------------------------------------------------------------------------


  energy-cutoff  :      600.00
  volume of cell :     4004.60
      direct lattice vectors                 reciprocal lattice vectors
    13.128623400  0.000000000  0.000000000     0.076169448  0.043976451  0.000000000
    -6.564311700 11.369721380  0.000000000     0.000000000  0.087952903  0.000000000
     0.000000000  0.000000000 26.828094240     0.000000000  0.000000000  0.037274358

  length of vectors
    13.128623400 13.128623399 26.828094240     0.087952903  0.087952903  0.037274358


 
 k-points in units of 2pi/SCALE and weight: read from INCAR                         
   0.00000000  0.00000000  0.00000000       0.111
   0.02538982  0.01465882  0.00000000       0.222
   0.00000000  0.02931763  0.00000000       0.222
   0.02538982  0.04397645  0.00000000       0.222
  -0.02538982  0.01465882  0.00000000       0.222
 
 k-points in reciprocal lattice and weights: read from INCAR                         
   0.00000000  0.00000000  0.00000000       0.111
   0.33333333 -0.00000000  0.00000000       0.222
   0.00000000  0.33333333  0.00000000       0.222
   0.33333333  0.33333333  0.00000000       0.222
  -0.33333333  0.33333333  0.00000000       0.222
 
 position of ions in fractional coordinates (direct lattice) 
   0.08429647  0.15860864  0.45229088
   0.07967438  0.41634051  0.45639189
   0.08237211  0.66660697  0.45259183
   0.07867163  0.91209075  0.45030274
   0.34004736  0.16852043  0.44563673
   0.33987423  0.43674497  0.45240088
   0.33602176  0.67676997  0.45681258
   0.33285833  0.91748610  0.45384974
   0.58603451  0.16186242  0.44921730
   0.57864136  0.41392283  0.45537534
   0.58159352  0.67033958  0.45377452
   0.58055411  0.91488208  0.45445346
   0.83667346  0.16103619  0.44940742
   0.83208789  0.41631810  0.45247547
   0.82926917  0.66043100  0.45491922
   0.82308873  0.91308281  0.45076844
   0.16384163  0.08194658  0.53928796
   0.17934737  0.34005355  0.54948352
   0.15387046  0.58008460  0.55204696
   0.16534193  0.83418515  0.54493894
   0.41685662  0.08611767  0.54342682
   0.41040341  0.32646624  0.54984703
   0.41749828  0.59994589  0.54891191
   0.41543248  0.84145760  0.54779677
   0.65830705  0.08242753  0.54546536
   0.66765130  0.33410859  0.54503708
   0.66691986  0.58383848  0.55147207
   0.66467483  0.83057597  0.54845239
   0.92630628  0.08352567  0.54530082
   0.91076686  0.31800009  0.54497269
   0.90933404  0.58053771  0.54691429
   0.93078892  0.82794809  0.54757164
   0.09677394  0.18634745  0.59196619
   0.08642265  0.42207463  0.58396893
   0.08464475  0.66278149  0.58763934
   0.08709156  0.91590562  0.59220570
   0.32573436  0.14371823  0.58435301
   0.33969472  0.41259629  0.59539330
   0.31840105  0.65084708  0.59924241
   0.35282518  0.94030480  0.59291814
   0.58712103  0.16823085  0.59525047
   0.57354525  0.42496605  0.59158970
   0.57985568  0.65671293  0.59160080
   0.56867822  0.89446511  0.59090064
   0.82951195  0.16063455  0.59190392
   0.83450990  0.41134155  0.59192561
   0.84122410  0.65907249  0.59078329
   0.83944515  0.91605904  0.59136230
   0.16187230  0.07958015  0.40137239
   0.17734435  0.35033606  0.41352694
   0.17805193  0.58982456  0.41036582
   0.15745680  0.82603274  0.41023095
   0.42092117  0.08530947  0.40859171
   0.42023302  0.34305947  0.41405003
   0.41142763  0.59016243  0.41072157
   0.42970004  0.82581436  0.41159609
   0.65953840  0.08051926  0.40554761
   0.66099896  0.34086083  0.40640554
   0.67270664  0.58981285  0.41264637
   0.65347488  0.81666110  0.40658009
   0.91797246  0.07505270  0.40929929
   0.91726599  0.33019579  0.40814834
   0.92178590  0.59321884  0.41061337
   0.91643638  0.84623415  0.41378466
   0.00624640  0.00377262  0.50098945
   0.99259526  0.24547268  0.49841750
   0.01158304  0.51036451  0.50191833
   0.99935882  0.74596133  0.49998871
   0.24757895  0.00543064  0.49509166
   0.25746592  0.25964696  0.49764005
   0.25273573  0.50526010  0.50521942
   0.25624923  0.76757099  0.50235249
   0.50229858  0.00727839  0.49814495
   0.49740951  0.24473025  0.49852579
   0.51024680  0.51150995  0.50331930
   0.49570997  0.74492139  0.50220664
   0.74670377  0.98857643  0.50011528
   0.75643497  0.24636946  0.49760759
   0.75404629  0.49785640  0.50209352
   0.75570885  0.74708771  0.50175350
 
 position of ions in cartesian coordinates  (Angst):
   0.06554005  1.80333607 12.13410239
  -1.68697396  4.73367556 12.24412470
  -3.29438358  7.57913556 12.14217623
  -4.95439777 10.37021765 12.08076445
   3.35813313  1.91603029 11.95558409
   1.59515063  4.96566858 12.13705333
  -0.03102595  7.69468602 12.25541096
  -1.65269309 10.43156131 12.17592365
   6.63131100  1.84033058 12.05164401
   4.87964604  4.70618720 12.21685252
   3.23520442  7.62157420 12.17390554
   1.61630512 10.40195438 12.19212018
   9.92727905  1.83093658 12.05674455
   8.19132680  4.73342076 12.13905454
   6.55188763  7.50891649 12.20461560
   4.81226176 10.38149714 12.09325828
   1.61309212  0.93170980 14.46806829
   0.12236655  3.86631413 14.74159557
  -1.78774881  6.59540029 14.81036780
  -3.30513943  9.48445273 14.61967326
   4.90745036  0.97913396 14.57910582
   3.24500567  3.71183021 14.75134801
   1.54294587  6.82121758 14.72626038
  -0.06953341  9.56713852 14.69634344
   8.10158541  0.93717803 14.63379608
   6.57214958  3.79872163 14.62230614
   4.92324197  6.63808086 14.79494473
   3.27410595  9.44341732 14.71393228
  11.61283779  0.94966362 14.62938166
   9.86966339  3.61557242 14.62057873
   8.12747366  6.60055204 14.67266823
   6.78506786  9.41353913 14.69030369
   0.04726589  2.11871858 15.88132475
  -1.63601894  4.79887089 15.66677361
  -3.23943523  7.53564083 15.76524351
  -4.86889762 10.41359171 15.88775033
   3.33303247  1.63403623 15.67707756
   1.75131345  4.69110487 15.97326768
  -0.09219561  7.39994999 16.07653184
  -1.54034498 10.69100364 15.90686385
   6.60377111  1.91273789 15.96943573
   4.74024999  4.83174559 15.87122423
   3.30183846  7.46664308 15.87152191
   1.59441442 10.16981912 15.85273794
   9.83589473  1.82637010 15.87965416
   8.25579208  4.67683877 15.88023613
   6.71775711  7.49347062 15.84958973
   5.00746210 10.41533608 15.86512350
   1.60277156  0.90480413 10.76805632
   0.02857217  3.98322335 11.09413973
  -1.53421545  6.70614087 11.00933280
  -3.35514537  9.39176212 11.00571467
   4.96611748  0.96994496 10.96173696
   3.26513180  3.90049054 11.10817322
   1.52746826  6.70998239 11.01887691
   0.22046717  9.38927921 11.04233868
   8.13027772  0.91548158 10.88006943
   6.44048964  3.87549272 10.90308614
   4.95999671  6.70600777 11.07051576
   3.21840755  9.28520917 10.90776893
  11.55904543  0.85332824 10.98071986
   9.87493171  3.75423408 10.94984208
   8.20770650  6.74473298 11.01597411
   6.47660334  9.62144650 11.10105382
   0.05724200  0.04289363 13.44059207
  11.42005018  2.79095603 13.37159155
  -3.19812234  5.80270226 13.46551232
   8.22348295  8.48137247 13.41374426
   3.21472229  0.06174492 13.28236558
   1.67576959  2.95211358 13.35073414
   0.00138749  5.74466657 13.55407415
  -1.67437553  8.72706826 13.47715985
   6.54671120  0.08275329 13.36427964
   4.92381641  2.78251481 13.37449679
   3.34112742  5.81572557 13.50309767
   1.61809337  8.46954864 13.47324720
   3.31386882 11.23983856 13.41713976
   8.31370393  2.80115206 13.34986326
   6.63150513  5.66048858 13.47021234
   5.01730030  8.49417908 13.46109019
 


--------------------------------------------------------------------------------------------------------


 k-point  1 :   0.0000 0.0000 0.0000  plane waves:  133769
 k-point  2 :   0.3333-0.0000 0.0000  plane waves:  133588
 k-point  3 :   0.0000 0.3333 0.0000  plane waves:  133588
 k-point  4 :   0.3333 0.3333 0.0000  plane waves:  133608
 k-point  5 :  -0.3333 0.3333 0.0000  plane waves:  133588

 maximum and minimum number of plane-waves per node :     10323    10242

 maximum number of plane-waves:    133769
 maximum index in each direction: 
   IXMAX=   26   IYMAX=   26   IZMAX=   53
   IXMIN=  -26   IYMIN=  -26   IZMIN=  -53


 real space projection operators:
  total allocation   :      55726.02 KBytes
  max/ min on nodes  :       4730.38       4030.34


 parallel 3D FFT for wavefunctions:
    minimum data exchange during FFTs selected (reduces bandwidth)
 parallel 3D FFT for charge:
    minimum data exchange during FFTs selected (reduces bandwidth)


 total amount of memory used by VASP MPI-rank0   234724. kBytes
=======================================================================

   base      :      30000. kBytes
   nonlr-proj:      19456. kBytes
   fftplans  :      66973. kBytes
   grid      :      38377. kBytes
   one-center:        108. kBytes
   wavefun   :      79810. kBytes
 
     INWAV:  cpu time    0.0001: real time    0.0004
 Broyden mixing: mesh for mixing (old mesh)
   NGX = 53   NGY = 53   NGZ =107
  (NGX  =216   NGY  =216   NGZ  =432)
  gives a total of 300563 points

 initial charge density was supplied:
 charge density of overlapping atoms calculated
 number of electron     640.0000000 magnetization 
 keeping initial charge density in first step


--------------------------------------------------------------------------------------------------------


 Maximum index for non-local projection operator         1127
 Maximum index for augmentation-charges         5909 (set IRDMAX)


--------------------------------------------------------------------------------------------------------


 First call to EWALD:  gamma=   0.112
 Maximum number of real-space cells 4x 4x 2
 Maximum number of reciprocal cells 2x 2x 4

    FEWALD:  cpu time    0.0078: real time    0.0079


--------------------------------------- Iteration      1(   1)  ---------------------------------------


    POTLOK:  cpu time    0.4460: real time    0.4531
    SETDIJ:  cpu time    0.4182: real time    0.4190
     EDDAV:  cpu time   45.7192: real time   45.7272
       DOS:  cpu time    0.0015: real time    0.0014
    --------------------------------------------
      LOOP:  cpu time   46.5849: real time   46.6008

 eigenvalue-minimisations  :  4240
 total energy-change (2. order) : 0.1367786E+05  (-0.2787475E+05)
 number of electron     640.0000000 magnetization 
 augmentation part      640.0000000 magnetization 

 Free energy of the ion-electron system (eV)
  ---------------------------------------------------
  alpha Z        PSCENC =       871.83850952
  Ewald energy   TEWEN  =    286891.25137517
  -Hartree energ DENC   =   -341233.15773855
  -exchange      EXHF   =         0.00000000
  -V(xc)+E(xc)   XCENC  =      3043.53906661
  PAW double counting   =     50525.51240023   -50422.77561733
  entropy T*S    EENTRO =        -0.06897559
  eigenvalues    EBANDS =      -205.71690904
  atomic energy  EATOM  =     64207.43592568
  Solvation  Ediel_sol  =         0.00000000
  ---------------------------------------------------
  free energy    TOTEN  =     13677.85803671 eV

  energy without entropy =    13677.92701230  energy(sigma->0) =    13677.89252450


--------------------------------------------------------------------------------------------------------




--------------------------------------- Iteration      1(   2)  ---------------------------------------


     EDDAV:  cpu time   48.9786: real time   49.0049
       DOS:  cpu time    0.0015: real time    0.0015
    --------------------------------------------
      LOOP:  cpu time   48.9801: real time   49.0064

 eigenvalue-minimisations  :  4616
 total energy-change (2. order) :-0.1117768E+05  (-0.1087409E+05)
 number of electron     640.0000000 magnetization 
 augmentation part      640.0000000 magnetization 

 Free energy of the ion-electron system (eV)
  ---------------------------------------------------
  alpha Z        PSCENC =       871.83850952
  Ewald energy   TEWEN  =    286891.25137517
  -Hartree energ DENC   =   -341233.15773855
  -exchange      EXHF   =         0.00000000
  -V(xc)+E(xc)   XCENC  =      3043.53906661
  PAW double counting   =     50525.51240023   -50422.77561733
  entropy T*S    EENTRO =        -0.03371713
  eigenvalues    EBANDS =    -11383.43413576
  atomic energy  EATOM  =     64207.43592568
  Solvation  Ediel_sol  =         0.00000000
  ---------------------------------------------------
  free energy    TOTEN  =      2500.17606845 eV

  energy without entropy =     2500.20978557  energy(sigma->0) =     2500.19292701


--------------------------------------------------------------------------------------------------------




--------------------------------------- Iteration      1(   3)  ---------------------------------------


     EDDAV:  cpu time   66.8624: real time   66.8645
       DOS:  cpu time    0.0006: real time    0.0006
    --------------------------------------------
      LOOP:  cpu time   66.8630: real time   66.8651

 eigenvalue-minimisations  :  6792
 total energy-change (2. order) :-0.2875998E+04  (-0.2761267E+04)
 number of electron     640.0000000 magnetization 
 augmentation part      640.0000000 magnetization 

 Free energy of the ion-electron system (eV)
  ---------------------------------------------------
  alpha Z        PSCENC =       871.83850952
  Ewald energy   TEWEN  =    286891.25137517
  -Hartree energ DENC   =   -341233.15773855
  -exchange      EXHF   =         0.00000000
  -V(xc)+E(xc)   XCENC  =      3043.53906661
  PAW double counting   =     50525.51240023   -50422.77561733
  entropy T*S    EENTRO =        -0.00000000
  eigenvalues    EBANDS =    -14259.46539501
  atomic energy  EATOM  =     64207.43592568
  Solvation  Ediel_sol  =         0.00000000
  ---------------------------------------------------
  free energy    TOTEN  =      -375.82147368 eV

  energy without entropy =     -375.82147368  energy(sigma->0) =     -375.82147368


--------------------------------------------------------------------------------------------------------




--------------------------------------- Iteration      1(   4)  ---------------------------------------


     EDDAV:  cpu time   60.9867: real time   60.9982
       DOS:  cpu time    0.0007: real time    0.0007
    --------------------------------------------
      LOOP:  cpu time   60.9874: real time   60.9989

 eigenvalue-minimisations  :  6064
 total energy-change (2. order) :-0.3624660E+03  (-0.3579119E+03)
 number of electron     640.0000000 magnetization 
 augmentation part      640.0000000 magnetization 

 Free energy of the ion-electron system (eV)
  ---------------------------------------------------
  alpha Z        PSCENC =       871.83850952
  Ewald energy   TEWEN  =    286891.25137517
  -Hartree energ DENC   =   -341233.15773855
  -exchange      EXHF   =         0.00000000
  -V(xc)+E(xc)   XCENC  =      3043.53906661
  PAW double counting   =     50525.51240023   -50422.77561733
  entropy T*S    EENTRO =        -0.00000000
  eigenvalues    EBANDS =    -14621.93135267
  atomic energy  EATOM  =     64207.43592568
  Solvation  Ediel_sol  =         0.00000000
  ---------------------------------------------------
  free energy    TOTEN  =      -738.28743134 eV

  energy without entropy =     -738.28743134  energy(sigma->0) =     -738.28743134


--------------------------------------------------------------------------------------------------------




--------------------------------------- Iteration      1(   5)  ---------------------------------------


     EDDAV:  cpu time   61.1022: real time   61.1188
       DOS:  cpu time    0.0006: real time    0.0006
    CHARGE:  cpu time    3.5823: real time    3.5823
    MIXING:  cpu time    0.0292: real time    0.0292
    --------------------------------------------
      LOOP:  cpu time   64.7142: real time   64.7309

 eigenvalue-minimisations  :  6080
 total energy-change (2. order) :-0.1478032E+02  (-0.1471785E+02)
 number of electron     640.0000005 magnetization 
 augmentation part      134.5602983 magnetization 

 Broyden mixing:
  rms(total) = 0.77174E+01    rms(broyden)= 0.77171E+01
  rms(prec ) = 0.81185E+01
  weight for this iteration     100.00

 Free energy of the ion-electron system (eV)
  ---------------------------------------------------
  alpha Z        PSCENC =       871.83850952
  Ewald energy   TEWEN  =    286891.25137517
  -Hartree energ DENC   =   -341233.15773855
  -exchange      EXHF   =         0.00000000
  -V(xc)+E(xc)   XCENC  =      3043.53906661
  PAW double counting   =     50525.51240023   -50422.77561733
  entropy T*S    EENTRO =        -0.00000000
  eigenvalues    EBANDS =    -14636.71167506
  atomic energy  EATOM  =     64207.43592568
  Solvation  Ediel_sol  =         0.00000000
  ---------------------------------------------------
  free energy    TOTEN  =      -753.06775372 eV

  energy without entropy =     -753.06775372  energy(sigma->0) =     -753.06775372


--------------------------------------------------------------------------------------------------------




--------------------------------------- Iteration      1(   6)  ---------------------------------------


    POTLOK:  cpu time    0.3847: real time    0.3943
    SETDIJ:  cpu time    0.4147: real time    0.4147
     EDDAV:  cpu time   58.1776: real time   58.1790
       DOS:  cpu time    0.0006: real time    0.0006
    CHARGE:  cpu time    3.5783: real time    3.5783
    MIXING:  cpu time    0.0258: real time    0.0259
    --------------------------------------------
      LOOP:  cpu time   62.5816: real time   62.5927

 eigenvalue-minimisations  :  5744
 total energy-change (2. order) : 0.1555512E+03  (-0.8374725E+02)
 number of electron     640.0000006 magnetization 
 augmentation part      140.4532469 magnetization 

 Broyden mixing:
  rms(total) = 0.25208E+01    rms(broyden)= 0.25200E+01
  rms(prec ) = 0.25716E+01
  weight for this iteration     100.00

 eigenvalues of (default mixing * dielectric matrix)
  average eigenvalue GAMMA=   0.9838
  0.9838

 Free energy of the ion-electron system (eV)
  ---------------------------------------------------
  alpha Z        PSCENC =       871.83850952
  Ewald energy   TEWEN  =    286891.25137517
  -Hartree energ DENC   =   -341402.18269457
  -exchange      EXHF   =         0.00000000
  -V(xc)+E(xc)   XCENC  =      3056.01995073
  PAW double counting   =     56498.53323107   -56465.21492730
  entropy T*S    EENTRO =        -0.00000000
  eigenvalues    EBANDS =    -14255.19795255
  atomic energy  EATOM  =     64207.43592568
  Solvation  Ediel_sol  =         0.00000000
  ---------------------------------------------------
  free energy    TOTEN  =      -597.51658225 eV

  energy without entropy =     -597.51658225  energy(sigma->0) =     -597.51658225


--------------------------------------------------------------------------------------------------------




--------------------------------------- Iteration      1(   7)  ---------------------------------------


    POTLOK:  cpu time    0.3772: real time    0.3875
    SETDIJ:  cpu time    0.4173: real time    0.4173
     EDDAV:  cpu time   59.4956: real time   59.5015
       DOS:  cpu time    0.0006: real time    0.0006
    CHARGE:  cpu time    3.5644: real time    3.5644
    MIXING:  cpu time    0.0268: real time    0.0268
    --------------------------------------------
      LOOP:  cpu time   63.8819: real time   63.8980

 eigenvalue-minimisations  :  5912
 total energy-change (2. order) :-0.1529418E+00  (-0.5430239E+01)
 number of electron     640.0000006 magnetization 
 augmentation part      141.0400782 magnetization 

 Broyden mixing:
  rms(total) = 0.16359E+01    rms(broyden)= 0.16359E+01
  rms(prec ) = 0.16644E+01
  weight for this iteration     100.00

 eigenvalues of (default mixing * dielectric matrix)
  average eigenvalue GAMMA=   1.6481
  0.9627  2.3335

 Free energy of the ion-electron system (eV)
  ---------------------------------------------------
  alpha Z        PSCENC =       871.83850952
  Ewald energy   TEWEN  =    286891.25137517
  -Hartree energ DENC   =   -341540.44817766
  -exchange      EXHF   =         0.00000000
  -V(xc)+E(xc)   XCENC  =      3052.94521648
  PAW double counting   =     60281.43523506   -60255.16071628
  entropy T*S    EENTRO =        -0.00000000
  eigenvalues    EBANDS =    -14106.96689203
  atomic energy  EATOM  =     64207.43592568
  Solvation  Ediel_sol  =         0.00000000
  ---------------------------------------------------
  free energy    TOTEN  =      -597.66952406 eV

  energy without entropy =     -597.66952406  energy(sigma->0) =     -597.66952406


--------------------------------------------------------------------------------------------------------




--------------------------------------- Iteration      1(   8)  ---------------------------------------


    POTLOK:  cpu time    0.3943: real time    0.4042
    SETDIJ:  cpu time    0.4142: real time    0.4163
     EDDAV:  cpu time   56.6884: real time   56.6931
       DOS:  cpu time    0.0006: real time    0.0006
    CHARGE:  cpu time    3.5598: real time    3.5598
    MIXING:  cpu time    0.0247: real time    0.0247
    --------------------------------------------
      LOOP:  cpu time   61.0821: real time   61.0987

 eigenvalue-minimisations  :  5560
 total energy-change (2. order) : 0.1501690E+01  (-0.9949015E+00)
 number of electron     640.0000006 magnetization 
 augmentation part      141.1082759 magnetization 

 Broyden mixing:
  rms(total) = 0.44154E+00    rms(broyden)= 0.44145E+00
  rms(prec ) = 0.47444E+00
  weight for this iteration     100.00

 eigenvalues of (default mixing * dielectric matrix)
  average eigenvalue GAMMA=   1.4166
  2.4590  0.8954  0.8954

 Free energy of the ion-electron system (eV)
  ---------------------------------------------------
  alpha Z        PSCENC =       871.83850952
  Ewald energy   TEWEN  =    286891.25137517
  -Hartree energ DENC   =   -341793.57725097
  -exchange      EXHF   =         0.00000000
  -V(xc)+E(xc)   XCENC  =      3049.46364546
  PAW double counting   =     66717.79366932   -66709.06873284
  entropy T*S    EENTRO =        -0.00000000
  eigenvalues    EBANDS =    -13831.30497524
  atomic energy  EATOM  =     64207.43592568
  Solvation  Ediel_sol  =         0.00000000
  ---------------------------------------------------
  free energy    TOTEN  =      -596.16783389 eV

  energy without entropy =     -596.16783389  energy(sigma->0) =     -596.16783389


--------------------------------------------------------------------------------------------------------




--------------------------------------- Iteration      1(   9)  ---------------------------------------


    POTLOK:  cpu time    0.3788: real time    0.3876
    SETDIJ:  cpu time    0.4155: real time    0.4155
     EDDAV:  cpu time   56.0980: real time   56.1023
       DOS:  cpu time    0.0006: real time    0.0006
    CHARGE:  cpu time    3.5341: real time    3.5341
    MIXING:  cpu time    0.0264: real time    0.0264
    --------------------------------------------
      LOOP:  cpu time   60.4535: real time   60.4665

 eigenvalue-minimisations  :  5488
 total energy-change (2. order) : 0.4777572E+00  (-0.2498651E+00)
 number of electron     640.0000006 magnetization 
 augmentation part      141.4729741 magnetization 

 Broyden mixing:
  rms(total) = 0.20741E+00    rms(broyden)= 0.20740E+00
  rms(prec ) = 0.22553E+00
  weight for this iteration     100.00

 eigenvalues of (default mixing * dielectric matrix)
  average eigenvalue GAMMA=   1.2581
  2.1224  1.1264  0.8919  0.8919

 Free energy of the ion-electron system (eV)
  ---------------------------------------------------
  alpha Z        PSCENC =       871.83850952
  Ewald energy   TEWEN  =    286891.25137517
  -Hartree energ DENC   =   -341896.54392896
  -exchange      EXHF   =         0.00000000
  -V(xc)+E(xc)   XCENC  =      3051.34546763
  PAW double counting   =     67127.30577012   -67121.62159712
  entropy T*S    EENTRO =        -0.00000000
  eigenvalues    EBANDS =    -13726.70159879
  atomic energy  EATOM  =     64207.43592568
  Solvation  Ediel_sol  =         0.00000000
  ---------------------------------------------------
  free energy    TOTEN  =      -595.69007674 eV

  energy without entropy =     -595.69007674  energy(sigma->0) =     -595.69007674


--------------------------------------------------------------------------------------------------------




--------------------------------------- Iteration      1(  10)  ---------------------------------------


    POTLOK:  cpu time    0.3556: real time    0.3666
    SETDIJ:  cpu time    0.4146: real time    0.4146
     EDDAV:  cpu time   60.6389: real time   60.6431
       DOS:  cpu time    0.0007: real time    0.0006
    CHARGE:  cpu time    3.5869: real time    3.5869
    MIXING:  cpu time    0.0247: real time    0.0247
    --------------------------------------------
      LOOP:  cpu time   65.0214: real time   65.0367

 eigenvalue-minimisations  :  6024
 total energy-change (2. order) : 0.3974037E-01  (-0.2657638E-01)
 number of electron     640.0000006 magnetization 
 augmentation part      141.3300718 magnetization 

 Broyden mixing:
  rms(total) = 0.11821E+00    rms(broyden)= 0.11820E+00
  rms(prec ) = 0.14089E+00
  weight for this iteration     100.00

 eigenvalues of (default mixing * dielectric matrix)
  average eigenvalue GAMMA=   1.4455
  2.3665  2.3665  0.9149  0.9149  0.6649

 Free energy of the ion-electron system (eV)
  ---------------------------------------------------
  alpha Z        PSCENC =       871.83850952
  Ewald energy   TEWEN  =    286891.25137517
  -Hartree energ DENC   =   -341960.00795167
  -exchange      EXHF   =         0.00000000
  -V(xc)+E(xc)   XCENC  =      3052.65638501
  PAW double counting   =     66556.14780938   -66549.41022202
  entropy T*S    EENTRO =        -0.00000000
  eigenvalues    EBANDS =    -13665.56216745
  atomic energy  EATOM  =     64207.43592568
  Solvation  Ediel_sol  =         0.00000000
  ---------------------------------------------------
  free energy    TOTEN  =      -595.65033638 eV

  energy without entropy =     -595.65033638  energy(sigma->0) =     -595.65033638


--------------------------------------------------------------------------------------------------------




--------------------------------------- Iteration      1(  11)  ---------------------------------------


    POTLOK:  cpu time    0.4220: real time    0.4358
    SETDIJ:  cpu time    0.4265: real time    0.4266
     EDDAV:  cpu time   57.1051: real time   57.1074
       DOS:  cpu time    0.0005: real time    0.0005
    CHARGE:  cpu time    3.5797: real time    3.5797
    MIXING:  cpu time    0.0252: real time    0.0252
    --------------------------------------------
      LOOP:  cpu time   61.5590: real time   61.5751

 eigenvalue-minimisations  :  5600
 total energy-change (2. order) : 0.1159862E+00  (-0.1562759E-01)
 number of electron     640.0000006 magnetization 
 augmentation part      141.2230434 magnetization 

 Broyden mixing:
  rms(total) = 0.75323E-01    rms(broyden)= 0.75320E-01
  rms(prec ) = 0.89244E-01
  weight for this iteration     100.00

 eigenvalues of (default mixing * dielectric matrix)
  average eigenvalue GAMMA=   1.3817
  2.5990  2.1527  0.9948  0.9200  0.9200  0.7035

 Free energy of the ion-electron system (eV)
  ---------------------------------------------------
  alpha Z        PSCENC =       871.83850952
  Ewald energy   TEWEN  =    286891.25137517
  -Hartree energ DENC   =   -342123.72914218
  -exchange      EXHF   =         0.00000000
  -V(xc)+E(xc)   XCENC  =      3054.24513815
  PAW double counting   =     66495.99539346   -66489.34587819
  entropy T*S    EENTRO =        -0.00000000
  eigenvalues    EBANDS =    -13503.22567182
  atomic energy  EATOM  =     64207.43592568
  Solvation  Ediel_sol  =         0.00000000
  ---------------------------------------------------
  free energy    TOTEN  =      -595.53435021 eV

  energy without entropy =     -595.53435021  energy(sigma->0) =     -595.53435021


--------------------------------------------------------------------------------------------------------




--------------------------------------- Iteration      1(  12)  ---------------------------------------


    POTLOK:  cpu time    0.4212: real time    0.4348
    SETDIJ:  cpu time    0.4601: real time    0.4602
     EDDAV:  cpu time   61.9414: real time   61.9450
       DOS:  cpu time    0.0006: real time    0.0006
    CHARGE:  cpu time    3.5734: real time    3.5734
    MIXING:  cpu time    0.0256: real time    0.0256
    --------------------------------------------
      LOOP:  cpu time   66.4223: real time   66.4396

 eigenvalue-minimisations  :  6120
 total energy-change (2. order) : 0.2409654E-01  (-0.4676955E-02)
 number of electron     640.0000006 magnetization 
 augmentation part      141.2930897 magnetization 

 Broyden mixing:
  rms(total) = 0.32245E-01    rms(broyden)= 0.32244E-01
  rms(prec ) = 0.48931E-01
  weight for this iteration     100.00

 eigenvalues of (default mixing * dielectric matrix)
  average eigenvalue GAMMA=   1.3924
  2.4909  2.4909  1.1419  1.1419  0.9040  0.9040  0.6737

 Free energy of the ion-electron system (eV)
  ---------------------------------------------------
  alpha Z        PSCENC =       871.83850952
  Ewald energy   TEWEN  =    286891.25137517
  -Hartree energ DENC   =   -342173.79915308
  -exchange      EXHF   =         0.00000000
  -V(xc)+E(xc)   XCENC  =      3054.29678593
  PAW double counting   =     66665.07992663   -66658.84323140
  entropy T*S    EENTRO =        -0.00000000
  eigenvalues    EBANDS =    -13452.77039212
  atomic energy  EATOM  =     64207.43592568
  Solvation  Ediel_sol  =         0.00000000
  ---------------------------------------------------
  free energy    TOTEN  =      -595.51025367 eV

  energy without entropy =     -595.51025367  energy(sigma->0) =     -595.51025367


--------------------------------------------------------------------------------------------------------




--------------------------------------- Iteration      1(  13)  ---------------------------------------


    POTLOK:  cpu time    0.3963: real time    0.4064
    SETDIJ:  cpu time    0.4152: real time    0.4187
     EDDAV:  cpu time   57.8260: real time   57.8290
       DOS:  cpu time    0.0006: real time    0.0006
    CHARGE:  cpu time    3.5705: real time    3.5705
    MIXING:  cpu time    0.0267: real time    0.0267
    --------------------------------------------
      LOOP:  cpu time   62.2354: real time   62.2520

 eigenvalue-minimisations  :  5680
 total energy-change (2. order) : 0.7590580E-02  (-0.2731615E-02)
 number of electron     640.0000006 magnetization 
 augmentation part      141.2509810 magnetization 

 Broyden mixing:
  rms(total) = 0.25496E-01    rms(broyden)= 0.25494E-01
  rms(prec ) = 0.37720E-01
  weight for this iteration     100.00

 eigenvalues of (default mixing * dielectric matrix)
  average eigenvalue GAMMA=   1.3850
  2.8576  2.3439  1.5234  1.0112  1.0112  0.8343  0.8343  0.6645

 Free energy of the ion-electron system (eV)
  ---------------------------------------------------
  alpha Z        PSCENC =       871.83850952
  Ewald energy   TEWEN  =    286891.25137517
  -Hartree energ DENC   =   -342232.61269909
  -exchange      EXHF   =         0.00000000
  -V(xc)+E(xc)   XCENC  =      3054.46320000
  PAW double counting   =     66611.84509105   -66605.29695284
  entropy T*S    EENTRO =        -0.00000000
  eigenvalues    EBANDS =    -13394.42711259
  atomic energy  EATOM  =     64207.43592568
  Solvation  Ediel_sol  =         0.00000000
  ---------------------------------------------------
  free energy    TOTEN  =      -595.50266309 eV

  energy without entropy =     -595.50266309  energy(sigma->0) =     -595.50266309


--------------------------------------------------------------------------------------------------------




--------------------------------------- Iteration      1(  14)  ---------------------------------------


    POTLOK:  cpu time    0.3773: real time    0.3874
    SETDIJ:  cpu time    0.4145: real time    0.4145
     EDDAV:  cpu time   56.9135: real time   56.9235
       DOS:  cpu time    0.0006: real time    0.0006
    CHARGE:  cpu time    3.5532: real time    3.5532
    MIXING:  cpu time    0.0267: real time    0.0267
    --------------------------------------------
      LOOP:  cpu time   61.2858: real time   61.3060

 eigenvalue-minimisations  :  5592
 total energy-change (2. order) : 0.2752095E-02  (-0.1124093E-02)
 number of electron     640.0000006 magnetization 
 augmentation part      141.2767319 magnetization 

 Broyden mixing:
  rms(total) = 0.14777E-01    rms(broyden)= 0.14776E-01
  rms(prec ) = 0.23786E-01
  weight for this iteration     100.00

 eigenvalues of (default mixing * dielectric matrix)
  average eigenvalue GAMMA=   1.4591
  2.9236  2.9236  1.5153  1.5153  0.9413  0.9413  0.8577  0.8577  0.6564

 Free energy of the ion-electron system (eV)
  ---------------------------------------------------
  alpha Z        PSCENC =       871.83850952
  Ewald energy   TEWEN  =    286891.25137517
  -Hartree energ DENC   =   -342286.16199090
  -exchange      EXHF   =         0.00000000
  -V(xc)+E(xc)   XCENC  =      3054.58354418
  PAW double counting   =     66637.65516695   -66631.21174259
  entropy T*S    EENTRO =        -0.00000000
  eigenvalues    EBANDS =    -13340.89069900
  atomic energy  EATOM  =     64207.43592568
  Solvation  Ediel_sol  =         0.00000000
  ---------------------------------------------------
  free energy    TOTEN  =      -595.49991100 eV

  energy without entropy =     -595.49991100  energy(sigma->0) =     -595.49991100


--------------------------------------------------------------------------------------------------------




--------------------------------------- Iteration      1(  15)  ---------------------------------------


    POTLOK:  cpu time    0.4052: real time    0.4179
    SETDIJ:  cpu time    0.4143: real time    0.4185
     EDDAV:  cpu time   58.3075: real time   58.3109
       DOS:  cpu time    0.0006: real time    0.0006
    CHARGE:  cpu time    3.5617: real time    3.5616
    MIXING:  cpu time    0.0273: real time    0.0273
    --------------------------------------------
      LOOP:  cpu time   62.7166: real time   62.7369

 eigenvalue-minimisations  :  5744
 total energy-change (2. order) :-0.5022990E-02  (-0.7382455E-03)
 number of electron     640.0000006 magnetization 
 augmentation part      141.2783274 magnetization 

 Broyden mixing:
  rms(total) = 0.97500E-02    rms(broyden)= 0.97482E-02
  rms(prec ) = 0.14771E-01
  weight for this iteration     100.00

 eigenvalues of (default mixing * dielectric matrix)
  average eigenvalue GAMMA=   1.4895
  3.9653  2.7479  1.8625  1.1949  1.0380  1.0380  0.8505  0.8505  0.7202  0.6272

 Free energy of the ion-electron system (eV)
  ---------------------------------------------------
  alpha Z        PSCENC =       871.83850952
  Ewald energy   TEWEN  =    286891.25137517
  -Hartree energ DENC   =   -342337.84329990
  -exchange      EXHF   =         0.00000000
  -V(xc)+E(xc)   XCENC  =      3054.72513142
  PAW double counting   =     66595.17129833   -66588.66969055
  entropy T*S    EENTRO =        -0.00000000
  eigenvalues    EBANDS =    -13289.41418364
  atomic energy  EATOM  =     64207.43592568
  Solvation  Ediel_sol  =         0.00000000
  ---------------------------------------------------
  free energy    TOTEN  =      -595.50493399 eV

  energy without entropy =     -595.50493399  energy(sigma->0) =     -595.50493399


--------------------------------------------------------------------------------------------------------




--------------------------------------- Iteration      1(  16)  ---------------------------------------


    POTLOK:  cpu time    0.3607: real time    0.3699
    SETDIJ:  cpu time    0.4141: real time    0.4141
     EDDAV:  cpu time   58.2813: real time   58.2862
       DOS:  cpu time    0.0006: real time    0.0006
    CHARGE:  cpu time    3.5684: real time    3.5684
    MIXING:  cpu time    0.0263: real time    0.0263
    --------------------------------------------
      LOOP:  cpu time   62.6514: real time   62.6654

 eigenvalue-minimisations  :  5736
 total energy-change (2. order) :-0.3659876E-02  (-0.1839810E-03)
 number of electron     640.0000006 magnetization 
 augmentation part      141.2732225 magnetization 

 Broyden mixing:
  rms(total) = 0.72245E-02    rms(broyden)= 0.72241E-02
  rms(prec ) = 0.10461E-01
  weight for this iteration     100.00

 eigenvalues of (default mixing * dielectric matrix)
  average eigenvalue GAMMA=   1.5318
  4.3910  2.7057  2.1484  1.2574  1.2574  0.9969  0.9969  0.8765  0.8765  0.7093
  0.6338

 Free energy of the ion-electron system (eV)
  ---------------------------------------------------
  alpha Z        PSCENC =       871.83850952
  Ewald energy   TEWEN  =    286891.25137517
  -Hartree energ DENC   =   -342365.03514824
  -exchange      EXHF   =         0.00000000
  -V(xc)+E(xc)   XCENC  =      3054.78650970
  PAW double counting   =     66593.35551258   -66586.86369819
  entropy T*S    EENTRO =        -0.00000000
  eigenvalues    EBANDS =    -13262.27758007
  atomic energy  EATOM  =     64207.43592568
  Solvation  Ediel_sol  =         0.00000000
  ---------------------------------------------------
  free energy    TOTEN  =      -595.50859386 eV

  energy without entropy =     -595.50859386  energy(sigma->0) =     -595.50859386


--------------------------------------------------------------------------------------------------------




--------------------------------------- Iteration      1(  17)  ---------------------------------------


    POTLOK:  cpu time    0.3905: real time    0.4009
    SETDIJ:  cpu time    0.4176: real time    0.4199
     EDDAV:  cpu time   57.8908: real time   57.8993
       DOS:  cpu time    0.0006: real time    0.0006
    CHARGE:  cpu time    3.5271: real time    3.5271
    MIXING:  cpu time    0.0276: real time    0.0276
    --------------------------------------------
      LOOP:  cpu time   62.2541: real time   62.2753

 eigenvalue-minimisations  :  5704
 total energy-change (2. order) :-0.5443220E-02  (-0.1785798E-03)
 number of electron     640.0000006 magnetization 
 augmentation part      141.2758517 magnetization 

 Broyden mixing:
  rms(total) = 0.70863E-02    rms(broyden)= 0.70849E-02
  rms(prec ) = 0.86429E-02
  weight for this iteration     100.00

 eigenvalues of (default mixing * dielectric matrix)
  average eigenvalue GAMMA=   1.6307
  5.5868  2.9046  2.1595  1.9552  0.9804  0.9804  0.9919  0.9919  0.8614  0.8614
  0.6897  0.6052

 Free energy of the ion-electron system (eV)
  ---------------------------------------------------
  alpha Z        PSCENC =       871.83850952
  Ewald energy   TEWEN  =    286891.25137517
  -Hartree energ DENC   =   -342385.32370182
  -exchange      EXHF   =         0.00000000
  -V(xc)+E(xc)   XCENC  =      3054.82368156
  PAW double counting   =     66602.46366400   -66596.05920751
  entropy T*S    EENTRO =        -0.00000000
  eigenvalues    EBANDS =    -13241.94428368
  atomic energy  EATOM  =     64207.43592568
  Solvation  Ediel_sol  =         0.00000000
  ---------------------------------------------------
  free energy    TOTEN  =      -595.51403708 eV

  energy without entropy =     -595.51403708  energy(sigma->0) =     -595.51403708


--------------------------------------------------------------------------------------------------------




--------------------------------------- Iteration      1(  18)  ---------------------------------------


    POTLOK:  cpu time    0.4162: real time    0.4340
    SETDIJ:  cpu time    0.4373: real time    0.4373
     EDDAV:  cpu time   55.5829: real time   55.5842
       DOS:  cpu time    0.0006: real time    0.0005
    CHARGE:  cpu time    3.5321: real time    3.5321
    MIXING:  cpu time    0.0291: real time    0.0291
    --------------------------------------------
      LOOP:  cpu time   59.9981: real time   60.0172

 eigenvalue-minimisations  :  5368
 total energy-change (2. order) :-0.3063552E-02  (-0.6197742E-04)
 number of electron     640.0000006 magnetization 
 augmentation part      141.2691265 magnetization 

 Broyden mixing:
  rms(total) = 0.43599E-02    rms(broyden)= 0.43596E-02
  rms(prec ) = 0.53200E-02
  weight for this iteration     100.00

 eigenvalues of (default mixing * dielectric matrix)
  average eigenvalue GAMMA=   1.6271
  6.1434  2.7865  2.5305  1.8316  0.9714  0.9714  1.0062  1.0062  0.8951  0.8951
  0.8008  0.6797  0.6342

 Free energy of the ion-electron system (eV)
  ---------------------------------------------------
  alpha Z        PSCENC =       871.83850952
  Ewald energy   TEWEN  =    286891.25137517
  -Hartree energ DENC   =   -342399.94637625
  -exchange      EXHF   =         0.00000000
  -V(xc)+E(xc)   XCENC  =      3054.86026079
  PAW double counting   =     66591.22738861   -66584.82301017
  entropy T*S    EENTRO =        -0.00000000
  eigenvalues    EBANDS =    -13227.36117398
  atomic energy  EATOM  =     64207.43592568
  Solvation  Ediel_sol  =         0.00000000
  ---------------------------------------------------
  free energy    TOTEN  =      -595.51710063 eV

  energy without entropy =     -595.51710063  energy(sigma->0) =     -595.51710063


--------------------------------------------------------------------------------------------------------




--------------------------------------- Iteration      1(  19)  ---------------------------------------


    POTLOK:  cpu time    0.4199: real time    0.4308
    SETDIJ:  cpu time    0.4584: real time    0.4584
     EDDAV:  cpu time   56.5973: real time   56.6005
       DOS:  cpu time    0.0006: real time    0.0006
    CHARGE:  cpu time    3.5734: real time    3.5734
    MIXING:  cpu time    0.0281: real time    0.0281
    --------------------------------------------
      LOOP:  cpu time   61.0777: real time   61.0918

 eigenvalue-minimisations  :  5552
 total energy-change (2. order) :-0.1567958E-02  (-0.2974043E-04)
 number of electron     640.0000006 magnetization 
 augmentation part      141.2693210 magnetization 

 Broyden mixing:
  rms(total) = 0.19381E-02    rms(broyden)= 0.19360E-02
  rms(prec ) = 0.30301E-02
  weight for this iteration     100.00

 eigenvalues of (default mixing * dielectric matrix)
  average eigenvalue GAMMA=   1.6523
  6.6518  3.0623  2.5068  1.7253  1.4753  1.0114  1.0114  0.9792  0.9792  0.8482
  0.8482  0.6283  0.7023  0.7023

 Free energy of the ion-electron system (eV)
  ---------------------------------------------------
  alpha Z        PSCENC =       871.83850952
  Ewald energy   TEWEN  =    286891.25137517
  -Hartree energ DENC   =   -342403.62966351
  -exchange      EXHF   =         0.00000000
  -V(xc)+E(xc)   XCENC  =      3054.86178488
  PAW double counting   =     66594.92359067   -66588.52946962
  entropy T*S    EENTRO =        -0.00000000
  eigenvalues    EBANDS =    -13223.67072138
  atomic energy  EATOM  =     64207.43592568
  Solvation  Ediel_sol  =         0.00000000
  ---------------------------------------------------
  free energy    TOTEN  =      -595.51866859 eV

  energy without entropy =     -595.51866859  energy(sigma->0) =     -595.51866859


--------------------------------------------------------------------------------------------------------




--------------------------------------- Iteration      1(  20)  ---------------------------------------


    POTLOK:  cpu time    0.3971: real time    0.4109
    SETDIJ:  cpu time    0.4148: real time    0.4148
     EDDAV:  cpu time   55.9150: real time   55.9168
       DOS:  cpu time    0.0006: real time    0.0006
    CHARGE:  cpu time    3.5739: real time    3.5738
    MIXING:  cpu time    0.0282: real time    0.0282
    --------------------------------------------
      LOOP:  cpu time   60.3296: real time   60.3452

 eigenvalue-minimisations  :  5472
 total energy-change (2. order) :-0.2846677E-02  (-0.1252487E-04)
 number of electron     640.0000006 magnetization 
 augmentation part      141.2716521 magnetization 

 Broyden mixing:
  rms(total) = 0.20795E-02    rms(broyden)= 0.20789E-02
  rms(prec ) = 0.26033E-02
  weight for this iteration     100.00

 eigenvalues of (default mixing * dielectric matrix)
  average eigenvalue GAMMA=   1.7150
  7.0686  3.5019  2.4264  2.4264  1.6244  0.9547  0.9547  1.1617  0.9504  0.9504
  0.8406  0.8406  0.7317  0.6783  0.6145

 Free energy of the ion-electron system (eV)
  ---------------------------------------------------
  alpha Z        PSCENC =       871.83850952
  Ewald energy   TEWEN  =    286891.25137517
  -Hartree energ DENC   =   -342407.48861652
  -exchange      EXHF   =         0.00000000
  -V(xc)+E(xc)   XCENC  =      3054.85042324
  PAW double counting   =     66594.03417713   -66587.63506035
  entropy T*S    EENTRO =        -0.00000000
  eigenvalues    EBANDS =    -13219.80824913
  atomic energy  EATOM  =     64207.43592568
  Solvation  Ediel_sol  =         0.00000000
  ---------------------------------------------------
  free energy    TOTEN  =      -595.52151527 eV

  energy without entropy =     -595.52151527  energy(sigma->0) =     -595.52151527


--------------------------------------------------------------------------------------------------------




--------------------------------------- Iteration      1(  21)  ---------------------------------------


    POTLOK:  cpu time    0.4288: real time    0.4417
    SETDIJ:  cpu time    0.4530: real time    0.4529
     EDDAV:  cpu time   45.3112: real time   45.3124
       DOS:  cpu time    0.0006: real time    0.0006
    CHARGE:  cpu time    3.5406: real time    3.5406
    MIXING:  cpu time    0.0268: real time    0.0268
    --------------------------------------------
      LOOP:  cpu time   49.7609: real time   49.7750

 eigenvalue-minimisations  :  4184
 total energy-change (2. order) :-0.2398668E-02  (-0.1207991E-04)
 number of electron     640.0000006 magnetization 
 augmentation part      141.2707392 magnetization 

 Broyden mixing:
[...]
    -6.564311700 11.369721380  0.000000000     0.000000000  0.087952903  0.000000000
     0.000000000  0.000000000 26.828094240     0.000000000  0.000000000  0.037274358

  length of vectors
    13.128623400 13.128623399 26.828094240     0.087952903  0.087952903  0.037274358


 FORCES acting on ions
    electron-ion (+dipol)            ewald-force                    non-local-force                 convergence-correction
 -----------------------------------------------------------------------------------------------
   0.281E+01 -.894E+02 0.129E+04   -.242E+01 0.906E+02 -.128E+04   -.447E+00 0.287E+00 -.615E+01   0.613E-05 0.360E-05 0.266E-04
   0.757E+01 0.116E+02 0.119E+04   -.626E+01 -.113E+02 -.118E+04   -.317E+00 0.199E+00 -.565E+01   -.415E-05 0.420E-04 0.441E-04
   -.424E+02 0.435E+02 0.128E+04   0.420E+02 -.438E+02 -.127E+04   0.738E+00 -.664E-01 -.532E+01   0.458E-04 -.136E-04 0.392E-04
   -.929E+01 -.266E+02 0.133E+04   0.987E+01 0.273E+02 -.132E+04   -.195E+00 -.319E+00 -.533E+01   0.344E-04 0.207E-05 0.320E-04
   0.629E+02 -.200E+02 0.145E+04   -.637E+02 0.199E+02 -.144E+04   -.219E+00 0.209E+00 -.630E+01   0.133E-05 -.212E-04 0.416E-04
   -.259E+02 0.665E+02 0.124E+04   0.250E+02 -.681E+02 -.123E+04   0.911E+00 0.193E+00 -.521E+01   -.209E-04 0.250E-04 0.313E-04
   0.625E+02 0.437E+02 0.112E+04   -.626E+02 -.451E+02 -.112E+04   -.359E+00 0.140E+00 -.477E+01   -.450E-04 -.189E-04 -.597E-05
   0.108E+01 0.762E+01 0.130E+04   -.262E+01 -.691E+01 -.129E+04   0.973E+00 -.541E+00 -.740E+01   -.256E-04 -.329E-04 0.284E-04
   -.223E+02 -.772E+02 0.133E+04   0.222E+02 0.775E+02 -.133E+04   -.365E+00 0.696E+00 -.545E+01   -.501E-05 0.160E-04 0.138E-04
   -.133E+02 -.180E+02 0.117E+04   0.129E+02 0.183E+02 -.117E+04   0.283E+00 0.559E+00 -.531E+01   -.127E-05 0.394E-05 0.226E-04
   -.422E+02 0.408E+02 0.121E+04   0.436E+02 -.417E+02 -.121E+04   -.383E+00 -.406E-01 -.537E+01   0.318E-04 -.270E-05 -.520E-06
   -.554E+02 -.616E+02 0.119E+04   0.555E+02 0.613E+02 -.119E+04   0.470E+00 0.391E+00 -.549E+01   0.222E-04 0.901E-06 -.518E-05
   0.203E+02 0.316E+01 0.134E+04   -.203E+02 -.187E+01 -.134E+04   -.388E+00 -.884E+00 -.615E+01   -.426E-05 -.316E-04 0.470E-04
   -.181E+02 0.229E+02 0.130E+04   0.183E+02 -.234E+02 -.129E+04   0.669E-01 0.408E+00 -.624E+01   0.277E-04 0.125E-04 0.445E-04
   0.787E+01 -.141E+02 0.123E+04   -.927E+01 0.143E+02 -.122E+04   0.852E+00 0.537E+00 -.599E+01   -.414E-04 0.205E-04 0.274E-04
   0.249E+02 -.853E+00 0.126E+04   -.237E+02 -.317E-01 -.125E+04   -.472E+00 0.206E+00 -.559E+01   -.262E-04 -.175E-04 0.338E-04
   0.324E+02 -.318E+02 -.110E+04   -.307E+02 0.328E+02 0.110E+04   -.376E+00 -.890E-01 0.617E+01   0.123E-04 -.367E-05 -.841E-05
   0.123E+02 0.202E+02 -.126E+04   -.115E+02 -.199E+02 0.126E+04   -.917E+00 -.184E+00 0.448E+01   0.118E-04 -.482E-05 0.113E-04
   -.519E+02 -.398E+02 -.133E+04   0.540E+02 0.391E+02 0.132E+04   0.260E-01 0.110E+01 0.392E+01   0.287E-04 -.114E-04 -.406E-04
   -.329E+02 -.277E+02 -.125E+04   0.329E+02 0.278E+02 0.124E+04   0.143E+00 0.398E+00 0.643E+01   0.104E-04 0.227E-04 -.270E-04
   -.410E+02 -.402E+02 -.114E+04   0.400E+02 0.401E+02 0.113E+04   0.884E+00 -.332E-01 0.418E+01   -.255E-04 0.337E-05 0.565E-05
   -.120E+02 0.210E+02 -.129E+04   0.112E+02 -.188E+02 0.129E+04   0.814E+00 -.133E+01 0.529E+01   -.129E-04 -.234E-04 0.446E-06
   -.499E+01 0.561E+02 -.131E+04   0.481E+01 -.582E+02 0.131E+04   0.630E+00 -.291E-01 0.543E+01   -.330E-04 -.343E-04 0.360E-04
   0.190E+02 0.411E+02 -.130E+04   -.192E+02 -.409E+02 0.130E+04   0.759E-01 -.537E+00 0.522E+01   -.403E-04 -.139E-04 -.505E-05
   -.643E+02 0.468E+01 -.125E+04   0.654E+02 -.336E+01 0.124E+04   0.190E+00 -.968E+00 0.584E+01   0.143E-04 -.896E-07 -.767E-05
   0.140E+02 0.223E+02 -.123E+04   -.132E+02 -.226E+02 0.122E+04   -.568E+00 -.239E+00 0.582E+01   -.139E-05 -.140E-04 0.344E-05
   -.321E+02 -.176E+02 -.134E+04   0.296E+02 0.173E+02 0.133E+04   0.183E+01 0.381E+00 0.527E+01   0.193E-05 0.408E-04 -.323E-05
   -.678E+02 -.477E+02 -.131E+04   0.689E+02 0.483E+02 0.131E+04   -.121E+00 -.311E+00 0.559E+01   0.336E-04 0.313E-05 -.436E-05
   0.325E+02 0.919E+01 -.125E+04   -.333E+02 -.101E+02 0.125E+04   -.141E+00 0.354E+00 0.561E+01   -.114E-04 0.846E-05 0.260E-05
   0.148E+02 -.875E+00 -.121E+04   -.151E+02 0.813E+00 0.121E+04   0.103E+00 0.960E+00 0.537E+01   -.176E-05 0.135E-04 -.178E-04
   -.394E+02 0.580E+02 -.125E+04   0.405E+02 -.590E+02 0.124E+04   0.576E+00 0.229E+00 0.521E+01   0.142E-04 -.175E-05 -.130E-04
   0.939E+02 -.416E+02 -.129E+04   -.964E+02 0.424E+02 0.128E+04   0.361E-01 -.160E+00 0.546E+01   0.541E-05 -.101E-04 0.101E-04
   0.575E+01 0.540E+02 -.160E+04   -.439E+01 -.573E+02 0.162E+04   -.156E+01 0.242E+01 -.174E+02   0.615E-06 0.222E-05 -.168E-04
   0.177E+02 0.732E+02 -.151E+04   -.180E+02 -.778E+02 0.153E+04   0.119E+00 0.343E+01 -.137E+02   0.156E-05 -.622E-05 -.618E-05
   0.378E+02 -.400E+02 -.158E+04   -.426E+02 0.429E+02 0.160E+04   0.374E+01 -.194E+01 -.159E+02   -.837E-05 0.198E-05 -.185E-04
   0.247E+01 -.440E+02 -.163E+04   -.121E+01 0.485E+02 0.165E+04   -.118E+01 -.444E+01 -.189E+02   0.116E-05 0.272E-05 -.183E-04
   0.397E+02 -.231E+02 -.153E+04   -.431E+02 0.212E+02 0.155E+04   0.281E+01 0.299E+01 -.167E+02   -.277E-05 -.267E-05 -.137E-04
   -.538E+00 -.163E+02 -.162E+04   0.135E+01 0.215E+02 0.164E+04   -.111E+01 -.539E+01 -.176E+02   -.980E-05 0.643E-05 -.869E-05
   0.834E+01 -.328E+02 -.166E+04   -.936E+01 0.336E+02 0.168E+04   0.114E+01 -.208E+00 -.173E+02   0.151E-04 -.369E-05 -.164E-04
   0.233E+02 0.333E+02 -.163E+04   -.257E+02 -.334E+02 0.164E+04   0.235E+01 -.684E+00 -.187E+02   -.367E-05 -.923E-06 -.150E-04
   -.372E+00 -.220E+02 -.163E+04   -.124E+01 0.223E+02 0.164E+04   0.163E+01 -.289E+00 -.191E+02   0.538E-06 -.125E-05 -.198E-04
   -.390E+02 0.498E+02 -.159E+04   0.392E+02 -.513E+02 0.160E+04   0.560E+00 0.812E+00 -.163E+02   0.169E-05 0.641E-05 -.210E-04
   -.410E+01 -.259E+02 -.160E+04   0.261E+01 0.252E+02 0.162E+04   0.141E+01 0.147E+01 -.165E+02   -.156E-05 -.480E-05 -.107E-04
   -.306E+02 -.485E+02 -.160E+04   0.315E+02 0.501E+02 0.161E+04   -.816E+00 -.825E+00 -.173E+02   -.729E-06 -.659E-06 -.159E-04
   -.847E+01 0.347E+02 -.159E+04   0.857E+01 -.376E+02 0.160E+04   -.811E-01 0.300E+01 -.175E+02   0.545E-06 0.151E-05 -.238E-04
   -.750E+01 0.213E+02 -.159E+04   0.908E+01 -.218E+02 0.161E+04   -.181E+01 0.572E+00 -.167E+02   0.337E-05 0.155E-05 -.113E-04
   0.353E+02 -.220E+02 -.162E+04   -.381E+02 0.234E+02 0.164E+04   0.227E+01 -.829E+00 -.176E+02   -.536E-05 0.174E-05 -.254E-04
   0.220E+01 -.927E+01 -.157E+04   -.138E+01 0.854E+01 0.158E+04   -.896E+00 0.785E+00 -.148E+02   -.404E-06 -.336E-05 -.139E-04
   -.777E+01 -.237E+02 0.166E+04   0.827E+01 0.231E+02 -.168E+04   -.482E+00 0.748E+00 0.171E+02   0.701E-05 -.599E-05 0.300E-04
   0.152E+02 0.492E+02 0.153E+04   -.161E+02 -.519E+02 -.154E+04   0.562E+00 0.231E+01 0.141E+02   0.581E-05 0.133E-04 0.210E-04
   0.184E+02 0.290E+02 0.158E+04   -.173E+02 -.310E+02 -.159E+04   -.152E+01 0.201E+01 0.166E+02   0.140E-04 0.108E-04 0.369E-04
   -.302E+02 -.122E+02 0.160E+04   0.319E+02 0.131E+02 -.162E+04   -.139E+01 -.540E+00 0.160E+02   0.908E-05 0.712E-05 0.385E-04
   -.187E+01 0.214E+02 0.161E+04   0.325E+01 -.239E+02 -.163E+04   -.128E+01 0.232E+01 0.159E+02   0.799E-06 -.602E-06 0.271E-04
   0.310E+02 -.961E+01 0.153E+04   -.341E+02 0.111E+02 -.155E+04   0.317E+01 -.154E+01 0.139E+02   0.225E-05 0.260E-05 0.282E-04
   -.706E+01 0.598E+01 0.160E+04   0.574E+01 -.243E+01 -.162E+04   0.163E+01 -.323E+01 0.183E+02   -.658E-05 0.654E-05 0.111E-04
   0.512E+02 -.217E+02 0.160E+04   -.529E+02 0.218E+02 -.162E+04   0.802E+00 0.227E+00 0.182E+02   0.594E-05 -.839E-05 0.160E-04
   -.376E+02 -.303E+01 0.163E+04   0.399E+02 0.144E+01 -.164E+04   -.183E+01 0.141E+01 0.174E+02   -.489E-05 -.160E-04 0.407E-04
   -.192E+02 -.589E+01 0.161E+04   0.188E+02 0.581E+01 -.162E+04   0.839E+00 -.588E-01 0.166E+02   -.823E-05 -.856E-05 0.351E-04
   0.919E+01 0.232E+02 0.156E+04   -.112E+02 -.243E+02 -.158E+04   0.182E+01 0.777E+00 0.155E+02   -.158E-04 0.576E-05 0.337E-04
   -.112E+02 -.321E+02 0.163E+04   0.952E+01 0.332E+02 -.165E+04   0.179E+01 -.197E+00 0.187E+02   -.108E-04 0.144E-05 0.339E-04
   -.670E+00 -.308E+02 0.159E+04   0.295E+01 0.312E+02 -.161E+04   -.249E+01 -.205E+00 0.167E+02   -.491E-05 -.341E-05 0.321E-04
   -.697E+00 -.166E+02 0.160E+04   0.967E+00 0.174E+02 -.161E+04   -.377E+00 -.645E+00 0.161E+02   0.145E-05 0.622E-05 0.407E-04
   0.173E+01 0.321E+02 0.159E+04   -.235E+01 -.326E+02 -.161E+04   0.652E+00 0.278E-01 0.167E+02   0.112E-04 -.321E-05 0.369E-04
   0.216E+01 0.425E+02 0.154E+04   -.268E+01 -.453E+02 -.156E+04   0.880E+00 0.216E+01 0.146E+02   0.164E-05 -.112E-05 0.274E-04
   0.316E+02 0.270E+02 -.969E+01   -.318E+02 -.271E+02 0.976E+01   -.332E+00 -.563E+00 -.107E+01   0.860E-05 0.703E-05 0.133E-04
   -.287E+02 0.487E-01 0.174E+02   0.286E+02 -.766E-01 -.174E+02   0.897E+00 -.247E+00 -.176E+00   -.723E-06 -.184E-05 0.135E-04
   0.224E+02 0.296E+02 -.309E+01   -.223E+02 -.294E+02 0.316E+01   -.148E+01 -.152E+01 -.135E+01   -.455E-07 0.102E-05 0.156E-05
   -.252E+01 0.233E+01 0.140E+02   0.253E+01 -.250E+01 -.141E+02   0.218E+00 0.729E+00 0.467E-01   0.187E-05 0.233E-05 0.121E-04
   -.173E+01 -.267E+01 0.523E+02   0.158E+01 0.276E+01 -.524E+02   0.901E+00 -.860E+00 -.266E+00   -.862E-06 -.706E-05 0.110E-04
   0.417E+00 -.488E+01 0.453E+02   -.396E+00 0.523E+01 -.455E+02   -.321E+00 -.120E+01 0.471E+00   -.310E-05 -.671E-05 0.154E-04
   0.123E+02 0.795E+01 -.410E+02   -.123E+02 -.799E+01 0.413E+02   -.429E-01 0.255E+00 -.136E+01   0.650E-05 0.920E-05 0.181E-05
   -.116E+01 0.358E+02 -.265E+02   0.115E+01 -.356E+02 0.267E+02   0.419E+00 -.119E+01 -.608E+00   0.640E-06 0.165E-05 -.219E-05
   -.579E+01 -.210E-01 0.167E+02   0.571E+01 0.227E+00 -.167E+02   0.632E+00 -.111E+01 0.712E-01   -.178E-05 -.311E-05 0.769E-05
   -.383E+01 -.157E+02 0.103E+02   0.381E+01 0.156E+02 -.103E+02   0.410E+00 0.975E+00 -.156E+00   0.284E-05 -.624E-06 0.828E-05
   0.107E+02 0.250E+02 -.352E+02   -.106E+02 -.246E+02 0.355E+02   -.505E+00 -.130E+01 -.114E+01   0.137E-05 0.286E-05 -.111E-05
   -.787E+01 -.227E+02 -.269E+02   0.791E+01 0.226E+02 0.268E+02   -.207E+00 0.182E+01 -.214E+00   -.216E-05 0.139E-05 0.242E-05
   -.115E+01 -.298E+02 -.272E+02   0.124E+01 0.295E+02 0.276E+02   -.744E+00 0.110E+01 -.664E+00   -.265E-05 -.408E-05 0.178E-05
   0.965E+01 -.226E+00 0.288E+02   -.938E+01 0.212E+00 -.289E+02   -.157E+01 0.886E-03 -.886E-01   0.161E-05 -.274E-05 0.131E-04
   0.190E+02 0.151E+02 -.933E+01   -.191E+02 -.153E+02 0.933E+01   -.316E+00 -.416E+00 -.599E+00   -.369E-05 0.406E-05 0.115E-04
   0.548E+01 -.188E+02 -.302E+02   -.520E+01 0.189E+02 0.303E+02   -.850E+00 0.482E+00 -.187E+00   -.431E-05 -.477E-05 0.560E-05
 -----------------------------------------------------------------------------------------------
   -.128E+02 -.491E+01 0.236E+02   0.355E-12 0.192E-12 0.968E-11   0.128E+02 0.491E+01 -.237E+02   0.613E-05 -.314E-04 0.713E-03
 
 
 POSITION                                       TOTAL-FORCE (eV/Angst)
 -----------------------------------------------------------------------------------
      0.06554      1.80334     12.13410        -0.057830      1.499892     -0.697143
     -1.68697      4.73368     12.24412         0.991755      0.487863     -0.648995
     -3.29438      7.57914     12.14218         0.393030     -0.346338      0.021206
     -4.95440     10.37022     12.08076         0.384108      0.436118     -0.203656
      3.35813      1.91603     11.95558        -1.063710      0.116417      0.986658
      1.59515      4.96567     12.13705         0.055045     -1.410872      1.206901
     -0.03103      7.69469     12.25541        -0.415225     -1.283703     -0.245442
     -1.65269     10.43156     12.17592        -0.570649      0.173768     -0.863559
      6.63131      1.84033     12.05164        -0.444152      0.941009      0.085393
      4.87965      4.70619     12.21685        -0.171683      0.879262     -0.104557
      3.23520      7.62157     12.17391         0.970092     -0.945439      0.524745
      1.61631     10.40195     12.19212         0.612610      0.056725     -0.346239
      9.92728      1.83094     12.05674        -0.322854      0.405667      0.357253
      8.19133      4.73342     12.13905         0.320865     -0.066519     -0.237464
      6.55189      7.50892     12.20462        -0.542972      0.743378     -0.328508
      4.81226     10.38150     12.09326         0.751114     -0.679305      0.872735
      1.61309      0.93171     14.46807         1.348920      0.900735      1.962647
      0.12237      3.86631     14.74160        -0.103977      0.128574     -0.348461
     -1.78775      6.59540     14.81037         2.169167      0.416621     -0.579651
     -3.30514      9.48445     14.61967         0.118573      0.530244      0.865098
      4.90745      0.97913     14.57911        -0.052477     -0.133062      0.608104
      3.24501      3.71183     14.75135        -0.009905      0.909724     -0.521050
      1.54295      6.82122     14.72626         0.449219     -2.183051      1.395548
     -0.06953      9.56714     14.69634        -0.110352     -0.289046      0.931109
      8.10159      0.93718     14.63380         1.320142      0.345969      0.955927
      6.57215      3.79872     14.62231         0.186656     -0.578594      0.944420
      4.92324      6.63808     14.79494        -0.685359      0.069257     -0.501531
      3.27411      9.44342     14.71393         1.034082      0.262144      0.424885
     11.61284      0.94966     14.62938        -0.966115     -0.516226      1.175880
      9.86966      3.61557     14.62058        -0.128087      0.898102      1.237308
      8.12747      6.60055     14.67267         1.688332     -0.721487      0.498824
      6.78507      9.41354     14.69030        -2.482325      0.576758      0.488418
      0.04727      2.11872     15.88132        -0.200458     -0.842494     -0.372981
     -1.63602      4.79887     15.66677        -0.184107     -1.161306      1.188671
     -3.23944      7.53564     15.76524        -1.069758      0.960650      0.926516
     -4.86890     10.41359     15.88775         0.080467      0.006581     -0.579895
      3.33303      1.63404     15.67708        -0.643899      1.073022      0.662708
      1.75131      4.69110     15.97327        -0.302177     -0.244257     -0.637451
     -0.09220      7.39995     16.07653         0.119384      0.606284     -0.843700
     -1.54034     10.69100     15.90686        -0.056349     -0.821540     -0.511374
      6.60377      1.91274     15.96944         0.024692     -0.000784     -1.258122
      4.74025      4.83175     15.87122         0.771171     -0.683750      0.053914
      3.30184      7.46664     15.87152        -0.081098      0.736247      0.193236
      1.59441     10.16982     15.85274         0.110359      0.746613     -0.009384
      9.83589      1.82637     15.87965         0.017582      0.101310     -0.749920
      8.25579      4.67684     15.88024        -0.223540      0.009440     -0.674775
      6.71776      7.49347     15.84959        -0.470643      0.554100      0.430531
      5.00746     10.41534     15.86512        -0.075695      0.059022     -0.476528
      1.60277      0.90480     10.76806         0.018509      0.104012      0.836963
      0.02857      3.98322     11.09414        -0.283441     -0.418740     -0.300055
     -1.53422      6.70614     11.00933        -0.410777      0.003683      0.448135
     -3.35515      9.39176     11.00571         0.295034      0.340363     -0.255624
      4.96612      0.96994     10.96174         0.102479     -0.191611     -0.385779
      3.26513      3.90049     11.10817         0.091994     -0.054897     -0.731970
      1.52747      6.70998     11.01888         0.310127      0.311680     -0.110223
      0.22047      9.38928     11.04234        -0.820817      0.367104     -0.413402
      8.13028      0.91548     10.88007         0.400823     -0.180426      0.317317
      6.44049      3.87549     10.90309         0.498578     -0.143582      0.544351
      4.96000      6.70601     11.07052        -0.138796     -0.355559     -0.196480
      3.21841      9.28521     10.90777         0.143552      0.898336      0.327306
     11.55905      0.85333     10.98072        -0.210331      0.159835     -0.169326
      9.87493      3.75423     10.94984        -0.106487      0.179893      0.276906
      8.20771      6.74473     11.01597         0.026975     -0.489341     -0.074299
      6.47660      9.62145     11.10105         0.356596     -0.717533     -0.774877
      0.05724      0.04289     13.44059        -0.606217     -0.674013     -0.997929
     11.42005      2.79096     13.37159         0.814690     -0.274682     -0.183229
     -3.19812      5.80270     13.46551        -1.426611     -1.317333     -1.273711
      8.22348      8.48137     13.41374         0.225395      0.561133     -0.114950
      3.21472      0.06174     13.28237         0.746587     -0.766359     -0.342654
      1.67577      2.95211     13.35073        -0.299462     -0.850818      0.264596
      0.00139      5.74467     13.55407        -0.075121      0.213334     -1.016498
     -1.67438      8.72707     13.47716         0.409005     -0.978281     -0.446175
      6.54671      0.08275     13.36428         0.559631     -0.906274      0.034199
      4.92382      2.78251     13.37450         0.388556      0.886219     -0.111490
      3.34113      5.81573     13.50310        -0.453705     -0.898841     -0.929232
      1.61809      8.46955     13.47325        -0.170863      1.767445     -0.329967
      3.31387     11.23984     13.41714        -0.651906      0.814770     -0.351683
      8.31370      2.80115     13.34986        -1.300049     -0.013075     -0.183569
      6.63151      5.66049     13.47021        -0.351919     -0.586634     -0.601032
      5.01730      8.49418     13.46109        -0.563997      0.486473     -0.013868
 -----------------------------------------------------------------------------------
    total drift:                               -0.001235      0.001941     -0.007414


--------------------------------------------------------------------------------------------------------



  FREE ENERGIE OF THE ION-ELECTRON SYSTEM (eV)
  ---------------------------------------------------
  free  energy   TOTEN  =      -595.52603784 eV

  energy  without entropy=     -595.52603784  energy(sigma->0) =     -595.52603784
 


--------------------------------------------------------------------------------------------------------


    POTLOK:  cpu time    0.7763: real time    0.7763


--------------------------------------------------------------------------------------------------------


     LOOP+:  cpu time 1840.2498: real time 1840.7504
    4ORBIT:  cpu time    0.0000: real time    0.0000

 total amount of memory used by VASP MPI-rank0   234724. kBytes
=======================================================================

   base      :      30000. kBytes
   nonlr-proj:      19456. kBytes
   fftplans  :      66973. kBytes
   grid      :      38377. kBytes
   one-center:        108. kBytes
   wavefun   :      79810. kBytes
 
  
  
 General timing and accounting informations for this job:
 ========================================================
  
                  Total CPU time used (sec):     1872.684
                            User time (sec):     1865.607
                          System time (sec):        7.077
                         Elapsed time (sec):     1873.526
  
                   Maximum memory used (kb):      435380.
                   Average memory used (kb):           0.
  
                          Minor page faults:       142227
                          Major page faults:            0
                 Voluntary context switches:         2612
