 vasp.5.4.4.18Apr17-6-g9f103f2a35 (build Oct 31 2019 15:01:46) complex          
  
 executed on             LinuxIFC date 2024.04.19  09:46:39
 running on   52 total cores
 distrk:  each k-point on   52 cores,    1 groups
 distr:  one band on NCORES_PER_BAND=  13 cores,    4 groups


--------------------------------------------------------------------------------------------------------


 INCAR:
 POTCAR:    PAW_PBE Sc_sv 07Sep2000               
 POTCAR:    PAW_PBE F 08Apr2002                   
 POTCAR:    PAW_PBE C 08Apr2002                   
 POTCAR:    PAW_PBE Sc_sv 07Sep2000               
   VRHFIN =Sc: 3p4s3d                                                           
   LEXCH  = PE                                                                  
   EATOM  =  1273.2868 eV,   93.5839 Ry                                         
                                                                                
   TITEL  = PAW_PBE Sc_sv 07Sep2000                                             
   LULTRA =        F    use ultrasoft PP ?                                      
   IUNSCR =        1    unscreen: 0-lin 1-nonlin 2-no                           
   RPACOR =    2.200    partial core radius                                     
   POMASS =   44.956; ZVAL   =   11.000    mass and valenz                      
   RCORE  =    2.500    outmost cutoff radius                                   
   RWIGS  =    2.700; RWIGS  =    1.429    wigner-seitz radius (au A)           
   ENMAX  =  222.660; ENMIN  =  166.995 eV                                      
   RCLOC  =    1.805    cutoff for local pot                                    
   LCOR   =        T    correct aug charges                                     
   LPAW   =        T    paw PP                                                  
   EAUG   =  443.063                                                            
   RMAX   =    2.551    core radius for proj-oper                               
   RAUG   =    1.300    factor for augmentation sphere                          
   RDEP   =    2.650    radius for radial grids                                 
   RDEPT  =    2.038    core radius for aug-charge                              
                                                                                
   Atomic configuration                                                         
    8 entries                                                                   
     n  l   j            E        occ.                                          
     1  0  0.50     -4394.2533   2.0000                                         
     2  0  0.50      -471.0040   2.0000                                         
     2  1  1.50      -384.9788   6.0000                                         
     3  0  0.50       -52.1410   2.0000                                         
     4  0  0.50        -3.5584   1.0000                                         
     3  1  1.50       -30.8841   6.0000                                         
     3  2  2.50        -1.3655   2.0000                                         
     4  3  2.50        -1.3606   0.0000                                         
   Description                                                                  
     l       E           TYP  RCUT    TYP  RCUT                                 
     0    -52.1409870     23  1.800                                             
     0     -3.5583698     23  2.500                                             
     1    -30.8840697     23  2.300                                             
     1      4.0817478     23  2.300                                             
     2     -1.3655397     23  2.500                                             
     2      0.3564476     23  2.500                                             
  local pseudopotential read in
  partial core-charges read in
  partial kinetic energy density read in
  atomic valenz-charges read in
  non local Contribution for L=           0  read in
    real space projection operators read in
  non local Contribution for L=           0  read in
    real space projection operators read in
  non local Contribution for L=           1  read in
    real space projection operators read in
  non local Contribution for L=           1  read in
    real space projection operators read in
  non local Contribution for L=           2  read in
    real space projection operators read in
  non local Contribution for L=           2  read in
    real space projection operators read in
    PAW grid and wavefunctions read in
 
   number of l-projection  operators is LMAX  =           6
   number of lm-projection operators is LMMAX =          18
 
 POTCAR:    PAW_PBE F 08Apr2002                   
   VRHFIN =F: s2p5                                                              
   LEXCH  = PE                                                                  
   EATOM  =   659.6475 eV,   48.4827 Ry                                         
                                                                                
   TITEL  = PAW_PBE F 08Apr2002                                                 
   LULTRA =        F    use ultrasoft PP ?                                      
   IUNSCR =        1    unscreen: 0-lin 1-nonlin 2-no                           
   RPACOR =    1.200    partial core radius                                     
   POMASS =   18.998; ZVAL   =    7.000    mass and valenz                      
   RCORE  =    1.520    outmost cutoff radius                                   
   RWIGS  =    1.500; RWIGS  =    0.794    wigner-seitz radius (au A)           
   ENMAX  =  400.000; ENMIN  =  300.000 eV                                      
   ICORE  =        2    local potential                                         
   LCOR   =        T    correct aug charges                                     
   LPAW   =        T    paw PP                                                  
   EAUG   =  613.614                                                            
   RMAX   =    1.555    core radius for proj-oper                               
   RAUG   =    1.300    factor for augmentation sphere                          
   RDEP   =    1.539    radius for radial grids                                 
   RDEPT  =    1.299    core radius for aug-charge                              
                                                                                
   Atomic configuration                                                         
    4 entries                                                                   
     n  l   j            E        occ.                                          
     1  0  0.50      -663.3661   2.0000                                         
     2  0  0.50       -29.8995   2.0000                                         
     2  1  0.50       -11.1114   5.0000                                         
     3  2  1.50       -10.8847   0.0000                                         
   Description                                                                  
     l       E           TYP  RCUT    TYP  RCUT                                 
     0    -29.8995018     23  1.200                                             
     0     -9.5240782     23  1.200                                             
     1    -11.1113914     23  1.520                                             
     1      1.3605826     23  1.520                                             
     2    -10.8846608      7  1.500                                             
  local pseudopotential read in
  partial core-charges read in
  partial kinetic energy density read in
  atomic valenz-charges read in
  non local Contribution for L=           0  read in
    real space projection operators read in
  non local Contribution for L=           0  read in
    real space projection operators read in
  non local Contribution for L=           1  read in
    real space projection operators read in
  non local Contribution for L=           1  read in
    real space projection operators read in
    PAW grid and wavefunctions read in
 
   number of l-projection  operators is LMAX  =           4
   number of lm-projection operators is LMMAX =           8
 
 POTCAR:    PAW_PBE C 08Apr2002                   
   VRHFIN =C: s2p2                                                              
   LEXCH  = PE                                                                  
   EATOM  =   147.1560 eV,   10.8157 Ry                                         
                                                                                
   TITEL  = PAW_PBE C 08Apr2002                                                 
   LULTRA =        F    use ultrasoft PP ?                                      
   IUNSCR =        1    unscreen: 0-lin 1-nonlin 2-no                           
   RPACOR =    1.200    partial core radius                                     
   POMASS =   12.011; ZVAL   =    4.000    mass and valenz                      
   RCORE  =    1.500    outmost cutoff radius                                   
   RWIGS  =    1.630; RWIGS  =    0.863    wigner-seitz radius (au A)           
   ENMAX  =  400.000; ENMIN  =  300.000 eV                                      
   ICORE  =        2    local potential                                         
   LCOR   =        T    correct aug charges                                     
   LPAW   =        T    paw PP                                                  
   EAUG   =  644.873                                                            
   DEXC   =    0.000                                                            
   RMAX   =    1.529    core radius for proj-oper                               
   RAUG   =    1.300    factor for augmentation sphere                          
   RDEP   =    1.501    radius for radial grids                                 
   RDEPT  =    1.300    core radius for aug-charge                              
                                                                                
   Atomic configuration                                                         
    4 entries                                                                   
     n  l   j            E        occ.                                          
     1  0  0.50      -273.3789   2.0000                                         
     2  0  0.50       -13.7508   2.0000                                         
     2  1  0.50        -5.2854   2.0000                                         
     3  2  1.50        -5.4423   0.0000                                         
   Description                                                                  
     l       E           TYP  RCUT    TYP  RCUT                                 
     0    -13.7508458     23  1.200                                             
     0     -8.2022199     23  1.200                                             
     1     -5.2854383     23  1.500                                             
     1     34.0145650     23  1.500                                             
     2     -5.4423304      7  1.500                                             
  local pseudopotential read in
  partial core-charges read in
  partial kinetic energy density read in
  atomic valenz-charges read in
  non local Contribution for L=           0  read in
    real space projection operators read in
  non local Contribution for L=           0  read in
    real space projection operators read in
  non local Contribution for L=           1  read in
    real space projection operators read in
  non local Contribution for L=           1  read in
    real space projection operators read in
    PAW grid and wavefunctions read in
 
   number of l-projection  operators is LMAX  =           4
   number of lm-projection operators is LMMAX =           8
 
 Optimization of the real space projectors (new method)

 maximal supplied QI-value         = 15.12
 optimisation between [QCUT,QGAM] = [ 12.55, 25.10] = [ 44.09,176.36] Ry 
 Optimized for a Real-space Cutoff    1.56 Angstroem

   l    n(q)    QCUT    max X(q) W(low)/X(q) W(high)/X(q)  e(spline) 
   0     12    12.548     2.962    0.12E-05    0.11E-06    0.46E-07
   0     12    12.548    26.414    0.30E-04    0.15E-05    0.76E-07
   1     11    12.548     3.969    0.45E-05    0.12E-05    0.60E-07
   1     11    12.548     5.137    0.15E-04    0.18E-04    0.36E-06
   2     11    12.548   143.970    0.20E-03    0.19E-03    0.76E-06
   2     11    12.548   121.201    0.20E-03    0.19E-03    0.76E-06
 Optimization of the real space projectors (new method)

 maximal supplied QI-value         = 24.76
 optimisation between [QCUT,QGAM] = [ 12.38, 25.00] = [ 42.90,175.06] Ry 
 Optimized for a Real-space Cutoff    1.16 Angstroem

   l    n(q)    QCUT    max X(q) W(low)/X(q) W(high)/X(q)  e(spline) 
   0      9    12.378    14.049    0.11E-03    0.38E-05    0.23E-06
   0      9    12.378     8.945    0.15E-03    0.56E-05    0.30E-06
   1      8    12.378     7.086    0.18E-03    0.14E-03    0.29E-06
   1      8    12.378     6.747    0.16E-03    0.13E-03    0.26E-06
 Optimization of the real space projectors (new method)

 maximal supplied QI-value         = 25.13
 optimisation between [QCUT,QGAM] = [ 12.32, 24.88] = [ 42.47,173.37] Ry 
 Optimized for a Real-space Cutoff    1.16 Angstroem

   l    n(q)    QCUT    max X(q) W(low)/X(q) W(high)/X(q)  e(spline) 
   0      9    12.315   115.676    0.19E-03    0.80E-05    0.34E-06
   0      9    12.315    87.132    0.19E-03    0.82E-05    0.34E-06
   1      8    12.315     4.429    0.18E-03    0.13E-03    0.22E-06
   1      8    12.315     2.733    0.14E-03    0.10E-03    0.18E-06
  PAW_PBE Sc_sv 07Sep2000               :
 energy of atom  1       EATOM=-1273.2868
 kinetic energy error for atom=    0.0014 (will be added to EATOM!!)
  PAW_PBE F 08Apr2002                   :
 energy of atom  2       EATOM= -659.6475
 kinetic energy error for atom=    0.0256 (will be added to EATOM!!)
  PAW_PBE C 08Apr2002                   :
 energy of atom  3       EATOM= -147.1560
 kinetic energy error for atom=    0.0057 (will be added to EATOM!!)
 
 
 POSCAR: Sc  F  C                                
  positions in cartesian coordinates
  No initial velocities read in
 exchange correlation table for  LEXCH =        8
   RHO(1)=    0.500       N(1)  =     2000
   RHO(2)=  100.500       N(2)  =     4000
 


--------------------------------------------------------------------------------------------------------


 ion  position               nearest neighbor table
   1  0.078  0.161  0.462-  65 2.15  66 2.20  50 2.20  70 2.25  49 2.29  61 2.43  17 3.06  29 3.08
                            18 3.10  16 3.21  13 3.21   2 3.27   5 3.27   4 3.28   6 3.31
   2  0.085  0.413  0.452-  67 2.20  71 2.21  50 2.25  66 2.26  51 2.27  62 2.31  18 3.07  30 3.14
                            13 3.18  19 3.19   6 3.24   1 3.27   3 3.29  14 3.39   7 3.40
   3  0.086  0.664  0.454-  51 2.19  67 2.22  72 2.24  52 2.25  63 2.31  68 2.39  31 3.02  19 3.07
                            20 3.10   8 3.23   2 3.29   4 3.31  15 3.31  14 3.32   7 3.42
   4  0.079  0.913  0.452-  49 2.08  69 2.22  64 2.23  68 2.24  52 2.26  65 2.40  20 3.15  32 3.17
                            15 3.19  17 3.22   1 3.28   5 3.29   3 3.31  16 3.34   8 3.41
   5  0.328  0.165  0.452-  53 2.22  49 2.30  74 2.30  69 2.32  70 2.34  54 2.36  22 3.14   6 3.21
                            17 3.22  21 3.23  10 3.24   9 3.24   1 3.27   4 3.29
   6  0.331  0.411  0.452-  71 2.17  70 2.21  50 2.26  54 2.28  75 2.35  55 2.40  18 3.14  22 3.18
                            23 3.19   5 3.21  10 3.22   2 3.24   7 3.26   1 3.31  11 3.42
   7  0.348  0.667  0.456-  55 2.08  76 2.10  71 2.24  51 2.31  72 2.32  56 2.54  23 3.03  19 3.16
                            11 3.17  24 3.19   8 3.21   6 3.26  12 3.27   2 3.40   3 3.42
   8  0.335  0.906  0.454-  56 2.16  72 2.17  53 2.25  52 2.26  73 2.29  69 2.51  20 3.06  21 3.14
                            24 3.18   7 3.21   3 3.23  12 3.24   9 3.30   4 3.41
   9  0.575  0.166  0.446-  57 2.05  58 2.13  53 2.20  74 2.28  78 2.29  73 2.42  21 3.21  10 3.21
                             5 3.24   8 3.30  14 3.31  12 3.31  25 3.35  26 3.36
  10  0.576  0.411  0.450-  59 2.14  54 2.23  74 2.27  58 2.28  75 2.29  79 2.37  26 3.19   9 3.21
                            22 3.21   6 3.22  27 3.24   5 3.24  14 3.27  11 3.33  15 3.41
  11  0.591  0.672  0.448-  59 2.14  60 2.15  55 2.21  80 2.28  75 2.31  76 2.34  23 3.16   7 3.17
                            27 3.20  16 3.21  28 3.22  15 3.24  12 3.31  10 3.33   6 3.42
  12  0.590  0.923  0.458-  60 2.02  56 2.10  77 2.21  57 2.23  73 2.24  76 2.34  28 3.04  25 3.13
                            16 3.15   8 3.24  24 3.24   7 3.27  13 3.28  11 3.31   9 3.31
  13  0.840  0.173  0.452-  61 2.10  62 2.11  66 2.20  78 2.29  57 2.34  77 2.44  30 3.16   2 3.18
                             1 3.21  16 3.24  29 3.25  25 3.26  12 3.28  14 3.29
  14  0.828  0.417  0.451-  79 2.17  58 2.22  78 2.26  62 2.39  67 2.39  63 2.43  26 3.12  31 3.18
                            30 3.22  15 3.26  10 3.27  13 3.29   9 3.31   3 3.32   2 3.39
  15  0.836  0.669  0.453-  64 2.12  79 2.17  63 2.26  80 2.26  68 2.35  59 2.51  31 3.08  32 3.14
                             4 3.19  27 3.19  11 3.24  14 3.26   3 3.31  16 3.36  10 3.41
  16  0.829  0.921  0.459-  77 2.21  65 2.23  80 2.26  61 2.26  60 2.27  64 2.33  28 3.03  29 3.03
                            32 3.10  12 3.15   1 3.21  11 3.21  13 3.24   4 3.34  15 3.36
  17  0.163  0.076  0.550-  33 2.12  69 2.17  36 2.19  37 2.21  65 2.30  70 2.43   1 3.06   4 3.22
                             5 3.22  20 3.23  32 3.24  22 3.28  29 3.35  21 3.35
  18  0.169  0.346  0.547-  71 2.18  34 2.20  70 2.29  66 2.32  38 2.42  33 2.55   2 3.07   1 3.10
                            19 3.14   6 3.14  30 3.18  23 3.32  22 3.33
  19  0.169  0.585  0.546-  35 2.05  34 2.08  72 2.23  67 2.25  39 2.29  71 2.40   3 3.07  18 3.14
                             7 3.16   2 3.19  24 3.21  30 3.23  20 3.25  31 3.26
  20  0.172  0.834  0.545-  40 2.14  35 2.17  69 2.19  68 2.20  72 2.25  36 2.43   8 3.06   3 3.10
                             4 3.15  21 3.21  24 3.22  31 3.22  17 3.23  19 3.25  32 3.36
  21  0.419  0.077  0.546-  40 2.10  73 2.16  41 2.25  74 2.31  37 2.39  69 2.40   8 3.14  25 3.17
                             9 3.21  20 3.21   5 3.23  24 3.23  22 3.32  17 3.35  26 3.41
  22  0.412  0.326  0.548-  37 2.16  70 2.21  38 2.25  74 2.29  42 2.33  75 2.43   5 3.14   6 3.18
                            10 3.21  17 3.28  26 3.31  23 3.31  21 3.32  27 3.33  18 3.33
  23  0.432  0.588  0.545-  38 2.11  76 2.13  43 2.16  75 2.17  39 2.26  71 2.46   7 3.03  27 3.07
                            28 3.14  11 3.16   6 3.19  24 3.29  22 3.31  18 3.32
  24  0.413  0.829  0.553-  39 2.03  44 2.12  40 2.19  72 2.33  73 2.37  76 2.39   8 3.18   7 3.19
                            19 3.21  20 3.22  21 3.23  12 3.24  28 3.27  23 3.29  25 3.40
  25  0.667  0.093  0.549-  45 2.14  41 2.17  73 2.28  78 2.29  77 2.31  44 2.47  12 3.13  21 3.17
                            26 3.25  13 3.26  29 3.28  30 3.30   9 3.35  28 3.40  24 3.40
  26  0.671  0.343  0.547-  46 2.06  41 2.20  42 2.20  79 2.32  78 2.34  74 2.35  14 3.12  10 3.19
                            27 3.21  25 3.25  31 3.29  22 3.31  30 3.32   9 3.36  21 3.41
  27  0.663  0.582  0.546-  43 2.14  75 2.20  42 2.25  80 2.26  47 2.30  79 2.38  23 3.07  15 3.19
                            11 3.20  26 3.21  10 3.24  28 3.27  32 3.28  22 3.33  31 3.37
  28  0.664  0.832  0.547-  77 2.20  43 2.24  76 2.26  48 2.29  44 2.30  80 2.32  16 3.03  12 3.04
                            23 3.14  29 3.18  11 3.22  24 3.27  27 3.27  32 3.29  25 3.40
  29  0.907  0.074  0.551-  77 2.17  48 2.20  65 2.23  33 2.27  45 2.31  66 2.41  16 3.03   1 3.08
                            28 3.18  32 3.25  13 3.25  25 3.28  17 3.35  30 3.38
  30  0.923  0.339  0.547-  46 2.17  45 2.20  66 2.22  67 2.23  34 2.30  78 2.49   2 3.14  13 3.16
                            18 3.18  14 3.22  19 3.23  25 3.30  31 3.30  26 3.32  29 3.38
  31  0.924  0.591  0.544-  47 2.08  68 2.18  35 2.25  79 2.32  46 2.33  67 2.38   3 3.02  15 3.08
                            14 3.18  32 3.21  20 3.22  19 3.26  26 3.29  30 3.30  27 3.37
  32  0.914  0.831  0.547-  36 2.15  47 2.19  68 2.20  48 2.24  80 2.25  65 2.25  16 3.10  15 3.14
                             4 3.17  31 3.21  17 3.24  29 3.25  27 3.28  28 3.29  20 3.36
  33  0.080  0.150  0.592-  17 2.12  29 2.27  18 2.55
  34  0.096  0.436  0.591-  19 2.08  18 2.20  30 2.30
  35  0.096  0.668  0.585-  19 2.05  20 2.17  31 2.25
  36  0.069  0.912  0.593-  32 2.15  17 2.19  20 2.43
  37  0.330  0.168  0.592-  22 2.16  17 2.21  21 2.39
  38  0.355  0.437  0.590-  23 2.11  22 2.25  18 2.42
  39  0.344  0.671  0.588-  24 2.03  23 2.26  19 2.29
  40  0.331  0.920  0.587-  21 2.10  20 2.14  24 2.19
  41  0.586  0.178  0.589-  25 2.17  26 2.20  21 2.25
  42  0.587  0.418  0.593-  26 2.20  27 2.25  22 2.33
  43  0.588  0.664  0.590-  27 2.14  23 2.16  28 2.24
  44  0.570  0.905  0.596-  24 2.12  28 2.30  25 2.47
  45  0.829  0.176  0.590-  25 2.14  30 2.20  29 2.31
  46  0.828  0.412  0.585-  26 2.06  30 2.17  31 2.33
  47  0.842  0.662  0.586-  31 2.08  32 2.19  27 2.30
  48  0.831  0.910  0.595-  29 2.20  32 2.24  28 2.29
  49  0.149  0.069  0.412-   4 2.08   1 2.29   5 2.30
  50  0.158  0.314  0.411-   1 2.20   2 2.25   6 2.26
  51  0.174  0.588  0.411-   3 2.19   2 2.27   7 2.31
  52  0.168  0.831  0.409-   3 2.25   4 2.26   8 2.26
  53  0.402  0.072  0.410-   9 2.20   5 2.22   8 2.25
  54  0.416  0.335  0.402-  10 2.23   6 2.28   5 2.36
  55  0.422  0.596  0.409-   7 2.08  11 2.21   6 2.40
  56  0.446  0.862  0.410-  12 2.10   8 2.16   7 2.54
  57  0.657  0.086  0.412-   9 2.05  12 2.23  13 2.34
  58  0.664  0.327  0.406-   9 2.13  14 2.22  10 2.28
  59  0.644  0.567  0.406-  10 2.14  11 2.14  15 2.51
  60  0.657  0.843  0.416-  12 2.02  11 2.15  16 2.27
  61  0.903  0.082  0.410-  13 2.10  16 2.26   1 2.43
  62  0.914  0.322  0.406-  13 2.11   2 2.31  14 2.39
  63  0.924  0.597  0.403-  15 2.26   3 2.31  14 2.43
  64  0.908  0.828  0.412-  15 2.12   4 2.23  16 2.33
  65  0.994  1.000  0.503-   1 2.15  16 2.23  29 2.23  32 2.25  17 2.30   4 2.40
  66  0.997  0.250  0.501-   1 2.20  13 2.20  30 2.22   2 2.26  18 2.32  29 2.41
  67  0.008  0.497  0.497-   2 2.20   3 2.22  30 2.23  19 2.25  31 2.38  14 2.39
  68  0.005  0.758  0.503-  31 2.18  32 2.20  20 2.20   4 2.24  15 2.35   3 2.39
  69  0.236  0.997  0.501-  17 2.17  20 2.19   4 2.22   5 2.32  21 2.40   8 2.51
  70  0.251  0.257  0.502-  22 2.21   6 2.21   1 2.25  18 2.29   5 2.34  17 2.43
  71  0.251  0.494  0.495-   6 2.17  18 2.18   2 2.21   7 2.24  19 2.40  23 2.46
  72  0.252  0.748  0.499-   8 2.17  19 2.23   3 2.24  20 2.25   7 2.32  24 2.33
  73  0.501  1.000  0.502-  21 2.16  12 2.24  25 2.28   8 2.29  24 2.37   9 2.42
  74  0.498  0.247  0.499-  10 2.27   9 2.28  22 2.29   5 2.30  21 2.31  26 2.35
  75  0.506  0.506  0.498-  23 2.17  27 2.20  10 2.29  11 2.31   6 2.35  22 2.43
  76  0.499  0.743  0.501-   7 2.10  23 2.13  28 2.26  11 2.34  12 2.34  24 2.39
  77  0.748  0.999  0.506-  29 2.17  28 2.20  12 2.21  16 2.21  25 2.31  13 2.44
  78  0.741  0.247  0.495-  14 2.26  13 2.29   9 2.29  25 2.29  26 2.34  30 2.49
  79  0.756  0.506  0.495-  15 2.17  14 2.17  31 2.32  26 2.32  10 2.37  27 2.38
  80  0.751  0.748  0.500-  32 2.25  16 2.26  27 2.26  15 2.26  11 2.28  28 2.32
 
  LATTYP: Found a hexagonal cell.
 ALAT       =    13.1286233990
 C/A-ratio  =     2.0434811347
  
  Lattice vectors:
  
 A1 = (  13.1286234000,   0.0000000000,   0.0000000000)
 A2 = (  -6.5643117000,  11.3697213800,   0.0000000000)
 A3 = (   0.0000000000,   0.0000000000,  26.8280942400)


Analysis of symmetry for initial positions (statically):
=====================================================================
 Subroutine PRICEL returns:
 Original cell was already a primitive cell.
 

 Routine SETGRP: Setting up the symmetry group for a 
 hexagonal supercell.


 Subroutine GETGRP returns: Found  1 space group operations
 (whereof  1 operations were pure point group operations)
 out of a pool of 24 trial point group operations.


The static configuration has the point symmetry C_1 .


Analysis of symmetry for dynamics (positions and initial velocities):
=====================================================================
 Subroutine PRICEL returns:
 Original cell was already a primitive cell.
 

 Routine SETGRP: Setting up the symmetry group for a 
 hexagonal supercell.


 Subroutine GETGRP returns: Found  1 space group operations
 (whereof  1 operations were pure point group operations)
 out of a pool of 24 trial point group operations.


The dynamic configuration has the point symmetry C_1 .


 Subroutine INISYM returns: Found  1 space group operations
 (whereof  1 operations are pure point group operations),
 and found     1 'primitive' translations

 
 

Automatic generation of k-mesh.
 generate k-points for:    3    3    1
Space group operators:
 irot       det(A)        alpha          n_x          n_y          n_z        tau_x        tau_y        tau_z
    1     1.000000     0.000000     1.000000     0.000000     0.000000     0.000000     0.000000     0.000000
 
 Subroutine IBZKPT returns following result:
 ===========================================
 
 Found      5 irreducible k-points:
 
 Following reciprocal coordinates:
            Coordinates               Weight
  0.000000  0.000000  0.000000      1.000000
  0.333333 -0.000000  0.000000      2.000000
  0.000000  0.333333  0.000000      2.000000
  0.333333  0.333333  0.000000      2.000000
 -0.333333  0.333333  0.000000      2.000000
 
 Following cartesian coordinates:
            Coordinates               Weight
  0.000000  0.000000  0.000000      1.000000
  0.025390  0.014659  0.000000      2.000000
  0.000000  0.029318  0.000000      2.000000
  0.025390  0.043976  0.000000      2.000000
 -0.025390  0.014659  0.000000      2.000000
 


--------------------------------------------------------------------------------------------------------




 Dimension of arrays:
   k-points           NKPTS =      5   k-points in BZ     NKDIM =      5   number of bands    NBANDS=    384
   number of dos      NEDOS =    301   number of ions     NIONS =     80
   non local maximal  LDIM  =      6   non local SUM 2l+1 LMDIM =     18
   total plane-waves  NPLWV = ******
   max r-space proj   IRMAX =  10060   max aug-charges    IRDMAX= 222480
   dimension x,y,z NGX =   108 NGY =  108 NGZ =  216
   dimension x,y,z NGXF=   216 NGYF=  216 NGZF=  432
   support grid    NGXF=   432 NGYF=  432 NGZF=  864
   ions per type =              32  32  16
   NGX,Y,Z   is equivalent  to a cutoff of  13.68, 13.68, 13.38 a.u.
   NGXF,Y,Z  is equivalent  to a cutoff of  27.35, 27.35, 26.77 a.u.

 SYSTEM =  unknown system                          
 POSCAR =  Sc  F  C                                

 Startparameter for this run:
   NWRITE =      2    write-flag & timer
   PREC   = anorma    normal or accurate (medium, high low for compatibility)
   ISTART =      0    job   : 0-new  1-cont  2-samecut
   ICHARG =      2    charge: 1-file 2-atom 10-const
   ISPIN  =      1    spin polarized calculation?
   LNONCOLLINEAR =      F non collinear calculations
   LSORBIT =      F    spin-orbit coupling
   INIWAV =      1    electr: 0-lowe 1-rand  2-diag
   LASPH  =      F    aspherical Exc in radial PAW
   METAGGA=      F    non-selfconsistent MetaGGA calc.

 Electronic Relaxation 1
   ENCUT  =  600.0 eV  44.10 Ry    6.64 a.u.  26.22 26.22 53.58*2*pi/ulx,y,z
   ENINI  =  600.0     initial cutoff
   ENAUG  =  644.9 eV  augmentation charge cutoff
   NELM   =     60;   NELMIN=  2; NELMDL= -5     # of ELM steps 
   EDIFF  = 0.1E-05   stopping-criterion for ELM
   LREAL  =      T    real-space projection
   NLSPLINE    = F    spline interpolate recip. space projectors
   LCOMPAT=      F    compatible to vasp.4.4
   GGA_COMPAT  = T    GGA compatible to vasp.4.4-vasp.4.6
   LMAXPAW     = -100 max onsite density
   LMAXMIX     =    2 max onsite mixed and CHGCAR
   VOSKOWN=      0    Vosko Wilk Nusair interpolation
   ROPT   =   -0.00025  -0.00025  -0.00025
 Ionic relaxation
   EDIFFG = -.1E-01   stopping-criterion for IOM
   NSW    =      1    number of steps for IOM
   NBLOCK =      1;   KBLOCK =      1    inner block; outer block 
   IBRION =     -1    ionic relax: 0-MD 1-quasi-New 2-CG
   NFREE  =      0    steps in history (QN), initial steepest desc. (CG)
   ISIF   =      2    stress and relaxation
   IWAVPR =     10    prediction:  0-non 1-charg 2-wave 3-comb
   ISYM   =      2    0-nonsym 1-usesym 2-fastsym
   LCORR  =      T    Harris-Foulkes like correction to forces

   POTIM  = 1.0000    time-step for ionic-motion
   TEIN   =    0.0    initial temperature
   TEBEG  =    0.0;   TEEND  =   0.0 temperature during run
   SMASS  =  -3.00    Nose mass-parameter (am)
   estimated Nose-frequenzy (Omega)   =  0.10E-29 period in steps =****** mass=  -0.394E-26a.u.
   SCALEE = 1.0000    scale energy and forces
   NPACO  =    256;   APACO  = 16.0  distance and # of slots for P.C.
   PSTRESS=    0.0 pullay stress

  Mass of Ions in am
   POMASS =  44.96 19.00 12.01
  Ionic Valenz
   ZVAL   =  11.00  7.00  4.00
  Atomic Wigner-Seitz radii
   RWIGS  =  -1.00 -1.00 -1.00
  virtual crystal weights 
   VCA    =   1.00  1.00  1.00
   NELECT =     640.0000    total number of electrons
   NUPDOWN=      -1.0000    fix difference up-down

 DOS related values:
   EMIN   =  10.00;   EMAX   =-10.00  energy-range for DOS
   EFERMI =   0.00
   ISMEAR =     0;   SIGMA  =   0.05  broadening in eV -4-tet -1-fermi 0-gaus

 Electronic relaxation 2 (details)
   IALGO  =     38    algorithm
   LDIAG  =      T    sub-space diagonalisation (order eigenvalues)
   LSUBROT=      F    optimize rotation matrix (better conditioning)
   TURBO    =      0    0=normal 1=particle mesh
   IRESTART =      0    0=no restart 2=restart with 2 vectors
   NREBOOT  =      0    no. of reboots
   NMIN     =      0    reboot dimension
   EREF     =   0.00    reference energy to select bands
   IMIX   =      4    mixing-type and parameters
     AMIX     =   0.40;   BMIX     =  1.00
     AMIX_MAG =   1.60;   BMIX_MAG =  1.00
     AMIN     =   0.10
     WC   =   100.;   INIMIX=   1;  MIXPRE=   1;  MAXMIX= -45

 Intra band minimization:
   WEIMIN = 0.0000     energy-eigenvalue tresh-hold
   EBREAK =  0.65E-09  absolut break condition
   DEPER  =   0.30     relativ break condition  

   TIME   =   0.40     timestep for ELM

  volume/ion in A,a.u.               =      50.06       337.80
  Fermi-wavevector in a.u.,A,eV,Ry     =   0.888414  1.678858 10.738790  0.789279
  Thomas-Fermi vector in A             =   2.009840
 
 Write flags
   LWAVE        =      F    write WAVECAR
   LDOWNSAMPLE  =      F    k-point downsampling of WAVECAR
   LCHARG       =      F    write CHGCAR
   LVTOT        =      F    write LOCPOT, total local potential
   LVHAR        =      F    write LOCPOT, Hartree potential only
   LELF         =      F    write electronic localiz. function (ELF)
   LORBIT       =      0    0 simple, 1 ext, 2 COOP (PROOUT), +10 PAW based schemes


 Dipole corrections
   LMONO  =      F    monopole corrections only (constant potential shift)
   LDIPOL =      F    correct potential (dipole corrections)
   IDIPOL =      0    1-x, 2-y, 3-z, 4-all directions 
   EPSILON=  1.0000000 bulk dielectric constant

 Exchange correlation treatment:
   GGA     =    --    GGA type
   LEXCH   =     8    internal setting for exchange type
   VOSKOWN=      0    Vosko Wilk Nusair interpolation
   LHFCALC =     F    Hartree Fock is set to
   LHFONE  =     F    Hartree Fock one center treatment
   AEXX    =    0.0000 exact exchange contribution

 Linear response parameters
   LEPSILON=     F    determine dielectric tensor
   LRPA    =     F    only Hartree local field effects (RPA)
   LNABLA  =     F    use nabla operator in PAW spheres
   LVEL    =     F    velocity operator in full k-point grid
   LINTERFAST=   F  fast interpolation
   KINTER  =     0    interpolate to denser k-point grid
   CSHIFT  =0.1000    complex shift for real part using Kramers Kronig
   OMEGAMAX=  -1.0    maximum frequency
   DEG_THRESHOLD= 0.2000000E-02 threshold for treating states as degnerate
   RTIME   =   -0.100 relaxation time in fs
  (WPLASMAI=    0.000 imaginary part of plasma frequency in eV, 0.658/RTIME)
   DFIELD  = 0.0000000 0.0000000 0.0000000 field for delta impulse in time
 
 Orbital magnetization related:
   ORBITALMAG=     F  switch on orbital magnetization
   LCHIMAG   =     F  perturbation theory with respect to B field
   DQ        =  0.001000  dq finite difference perturbation B field
   LLRAUG    =     F  two centre corrections for induced B field



--------------------------------------------------------------------------------------------------------


 Static calculation
 charge density and potential will be updated during run
 non-spin polarized calculation
 Variant of blocked Davidson
 Davidson routine will perform the subspace rotation
 perform sub-space diagonalisation
    after iterative eigenvector-optimisation
 modified Broyden-mixing scheme, WC =      100.0
 initial mixing is a Kerker type mixing with AMIX =  0.4000 and BMIX =      1.0000
 Hartree-type preconditioning will be used
 using additional bands           64
 real space projection scheme for non local part
 use partial core corrections
 calculate Harris-corrections to forces 
   (improved forces if not selfconsistent)
 use gradient corrections 
 use of overlap-Matrix (Vanderbilt PP)
 Gauss-broadening in eV      SIGMA  =   0.05


--------------------------------------------------------------------------------------------------------


  energy-cutoff  :      600.00
  volume of cell :     4004.60
      direct lattice vectors                 reciprocal lattice vectors
    13.128623400  0.000000000  0.000000000     0.076169448  0.043976451  0.000000000
    -6.564311700 11.369721380  0.000000000     0.000000000  0.087952903  0.000000000
     0.000000000  0.000000000 26.828094240     0.000000000  0.000000000  0.037274358

  length of vectors
    13.128623400 13.128623399 26.828094240     0.087952903  0.087952903  0.037274358


 
 k-points in units of 2pi/SCALE and weight: read from INCAR                         
   0.00000000  0.00000000  0.00000000       0.111
   0.02538982  0.01465882  0.00000000       0.222
   0.00000000  0.02931763  0.00000000       0.222
   0.02538982  0.04397645  0.00000000       0.222
  -0.02538982  0.01465882  0.00000000       0.222
 
 k-points in reciprocal lattice and weights: read from INCAR                         
   0.00000000  0.00000000  0.00000000       0.111
   0.33333333 -0.00000000  0.00000000       0.222
   0.00000000  0.33333333  0.00000000       0.222
   0.33333333  0.33333333  0.00000000       0.222
  -0.33333333  0.33333333  0.00000000       0.222
 
 position of ions in fractional coordinates (direct lattice) 
   0.07786520  0.16137188  0.46182076
   0.08452071  0.41262381  0.45186256
   0.08573553  0.66413652  0.45440682
   0.07911732  0.91263074  0.45200576
   0.32772631  0.16491887  0.45245351
   0.33069894  0.41121229  0.45227263
   0.34785773  0.66744419  0.45560087
   0.33547818  0.90555021  0.45397674
   0.57488464  0.16590827  0.44642083
   0.57567101  0.41058632  0.45008471
   0.59121088  0.67160374  0.44823510
   0.59017021  0.92251259  0.45785917
   0.83976360  0.17277699  0.45230361
   0.82820404  0.41700736  0.45114586
   0.83622174  0.66900446  0.45253814
   0.82918582  0.92096839  0.45852100
   0.16284594  0.07579137  0.55016454
   0.16874837  0.34641383  0.54662392
   0.16909454  0.58538525  0.54574265
   0.17198613  0.83440653  0.54451244
   0.41854319  0.07680808  0.54581677
   0.41177074  0.32619850  0.54763127
   0.43151262  0.58774561  0.54464731
   0.41345008  0.82850182  0.55265785
   0.66704242  0.09265242  0.54947380
   0.67126991  0.34251935  0.54657148
   0.66289267  0.58242710  0.54624431
   0.66420827  0.83235497  0.54698731
   0.90696229  0.07438869  0.55077639
   0.92269661  0.33923407  0.54653613
   0.92401821  0.59148207  0.54363007
   0.91409758  0.83081372  0.54722821
   0.07976210  0.15043973  0.59248949
   0.09558340  0.43594726  0.59073536
   0.09649423  0.66838497  0.58459790
   0.06918749  0.91175819  0.59286611
   0.32984646  0.16798161  0.59198374
   0.35450101  0.43671698  0.59045431
   0.34431127  0.67113676  0.58803030
   0.33080841  0.92036640  0.58708749
   0.58647213  0.17767901  0.58937423
   0.58697884  0.41823011  0.59290262
   0.58754026  0.66374441  0.59035587
   0.57009968  0.90503288  0.59554356
   0.82895564  0.17623700  0.59031851
   0.82781889  0.41152284  0.58502153
   0.84194409  0.66199516  0.58607678
   0.83119610  0.91045179  0.59455543
   0.14929883  0.06894304  0.41224355
   0.15805244  0.31368969  0.41101850
   0.17384096  0.58837891  0.41142560
   0.16797951  0.83107054  0.40902509
   0.40188387  0.07221041  0.40955184
   0.41603203  0.33458065  0.40208829
   0.42158253  0.59585245  0.40863641
   0.44553734  0.86248963  0.40951455
   0.65717067  0.08630043  0.41247566
   0.66445343  0.32735204  0.40643507
   0.64439270  0.56744344  0.40598928
   0.65728597  0.84291681  0.41556192
   0.90342439  0.08248619  0.40960653
   0.91357485  0.32184171  0.40569167
   0.92407650  0.59711733  0.40255256
   0.90826849  0.82783539  0.41152474
   0.99380685  0.99958656  0.50346619
   0.99651548  0.25033240  0.50067060
   0.00786267  0.49729474  0.49727514
   0.00456487  0.75811750  0.50349226
   0.23629682  0.99693232  0.50120754
   0.25067207  0.25665358  0.50217477
   0.25050432  0.49381184  0.49478312
   0.25228105  0.74777138  0.49917414
   0.50087790  0.99950312  0.50229612
   0.49841637  0.24736141  0.49878310
   0.50617052  0.50600517  0.49841872
   0.49880522  0.74293311  0.50060495
   0.74826811  0.99932035  0.50562535
   0.74055249  0.24726492  0.49483830
   0.75589121  0.50582220  0.49456701
   0.75073553  0.74823021  0.49991165
 
 position of ions in cartesian coordinates  (Angst):
  -0.03703245  1.83475334 12.38977088
  -1.59895073  4.69141775 12.12261121
  -3.23400965  7.55104722 12.19086889
  -4.95209115 10.37635723 12.12645303
   3.22001644  1.87508161 12.13846553
   1.64229613  4.67536917 12.13361272
   0.18558141  7.58865445 12.22290295
  -1.53994709 10.29585357 12.17933070
   6.45837032  1.88633078 11.97662005
   4.86255124  4.66825210 12.07491490
   3.35316875  7.63594737 12.02529357
   1.69246231 10.48871110 12.28348886
   9.89077800  1.96442623 12.13444399
   8.13581264  4.74125755 12.10338368
   6.58688651  7.60639428 12.14073577
   4.84054479 10.47115399 12.30124457
   1.64042488  0.86172676 14.75986602
  -0.05853457  3.93862878 14.66487795
  -1.62267269  6.65566721 14.64123514
  -3.21936341  9.48696971 14.60823104
   4.99070367  0.87328648 14.64322368
   3.26471442  3.70878601 14.69190324
   1.80702128  6.68250387 14.61184930
  -0.01051378  9.41983486 14.82675683
   8.14914931  1.05343218 14.74133501
   6.56444607  3.89434959 14.66347117
   4.87963522  6.62203383 14.65469372
   3.25630286  9.46364405 14.67462714
  11.41885583  0.84577868 14.77628077
   9.88689818  3.85699685 14.66252290
   8.24841450  6.72498631 14.58455871
   6.54712265  9.44612052 14.68109012
   0.05963329  1.71045777 15.89536388
  -1.60681521  4.95659887 15.84830390
  -3.12065094  7.59935094 15.68364752
  -5.07672843 10.36643663 15.90546787
   3.22774633  1.90990410 15.88179563
   1.78736382  4.96535038 15.84076400
   0.11478208  7.63063792 15.77573224
  -1.69851296 10.46430957 15.75043853
   6.53323130  2.02016082 15.81178741
   4.96083140  4.75515981 15.90644732
   3.35656955  7.54658905 15.83812295
   1.54370612 10.28997169 15.97729874
   9.72617185  2.00376558 15.83712051
   8.16675820  4.67890008 15.69501275
   6.70802427  7.52670054 15.72332313
   4.93597131 10.35158313 15.95078913
   1.50752453  0.78386313 11.05970889
   0.01585407  3.56656432 11.02684293
  -1.58001010  6.68970426 11.03776490
  -3.25006636  9.44904050 10.97336358
   4.80217039  0.82101224 10.98749524
   3.26563608  3.80408881 10.78726266
   1.62343714  6.77467631 10.96293619
   0.18764114  9.80626681 10.98649488
   8.06124335  0.98121180 11.06593594
   6.57451797  3.72190148 10.90387833
   4.73511348  6.45167383 10.89191859
   3.09609130  9.58372929 11.14873446
  11.31925345  0.93784503 10.98896250
   9.88131089  3.65925056 10.88393437
   8.21218801  6.78905771 10.79971790
   6.49014548  9.41225768 11.04042441
   6.48571809 11.36502063 13.50703839
  11.43961652  2.84620962 13.43203803
  -3.16117168  5.65410263 13.34094424
  -4.91658908  8.61958473 13.50773790
  -3.44192250 11.33484276 13.44644313
   1.60622510  2.91807970 13.47239216
   0.04724201  5.61450300 13.27408825
  -1.59650146  8.50195222 13.39189097
   0.01478730 11.36407203 13.47564765
   4.91976345  2.81243026 13.38140006
   3.32374656  5.75313775 13.37162443
   1.67178145  8.44694244 13.43027679
   3.26387998 11.36199390 13.56496457
   8.09931069  2.81133330 13.27556851
   6.60343642  5.75105748 13.26829032
   4.94450774  8.50716907 13.41167695
 


--------------------------------------------------------------------------------------------------------


 k-point  1 :   0.0000 0.0000 0.0000  plane waves:  133769
 k-point  2 :   0.3333-0.0000 0.0000  plane waves:  133588
 k-point  3 :   0.0000 0.3333 0.0000  plane waves:  133588
 k-point  4 :   0.3333 0.3333 0.0000  plane waves:  133608
 k-point  5 :  -0.3333 0.3333 0.0000  plane waves:  133588

 maximum and minimum number of plane-waves per node :     10323    10242

 maximum number of plane-waves:    133769
 maximum index in each direction: 
   IXMAX=   26   IYMAX=   26   IZMAX=   53
   IXMIN=  -26   IYMIN=  -26   IZMIN=  -53


 real space projection operators:
  total allocation   :      55718.39 KBytes
  max/ min on nodes  :       4719.78       4057.86


 parallel 3D FFT for wavefunctions:
    minimum data exchange during FFTs selected (reduces bandwidth)
 parallel 3D FFT for charge:
    minimum data exchange during FFTs selected (reduces bandwidth)


 total amount of memory used by VASP MPI-rank0   234685. kBytes
=======================================================================

   base      :      30000. kBytes
   nonlr-proj:      19417. kBytes
   fftplans  :      66973. kBytes
   grid      :      38377. kBytes
   one-center:        108. kBytes
   wavefun   :      79810. kBytes
 
     INWAV:  cpu time    0.0000: real time    0.0000
 Broyden mixing: mesh for mixing (old mesh)
   NGX = 53   NGY = 53   NGZ =107
  (NGX  =216   NGY  =216   NGZ  =432)
  gives a total of 300563 points

 initial charge density was supplied:
 charge density of overlapping atoms calculated
 number of electron     640.0000000 magnetization 
 keeping initial charge density in first step


--------------------------------------------------------------------------------------------------------


 Maximum index for non-local projection operator         1119
 Maximum index for augmentation-charges         5773 (set IRDMAX)


--------------------------------------------------------------------------------------------------------


 First call to EWALD:  gamma=   0.112
 Maximum number of real-space cells 4x 4x 2
 Maximum number of reciprocal cells 2x 2x 4

    FEWALD:  cpu time    0.0032: real time    0.0032


--------------------------------------- Iteration      1(   1)  ---------------------------------------


    POTLOK:  cpu time    0.4419: real time    0.4484
    SETDIJ:  cpu time    0.4654: real time    0.4655
     EDDAV:  cpu time   46.0532: real time   46.0540
       DOS:  cpu time    0.0012: real time    0.0012
    --------------------------------------------
      LOOP:  cpu time   46.9618: real time   46.9692

 eigenvalue-minimisations  :  4232
 total energy-change (2. order) : 0.1365425E+05  (-0.2789580E+05)
 number of electron     640.0000000 magnetization 
 augmentation part      640.0000000 magnetization 

 Free energy of the ion-electron system (eV)
  ---------------------------------------------------
  alpha Z        PSCENC =       871.83850952
  Ewald energy   TEWEN  =    287542.85227631
  -Hartree energ DENC   =   -341877.62118571
  -exchange      EXHF   =         0.00000000
  -V(xc)+E(xc)   XCENC  =      3043.90590272
  PAW double counting   =     50525.51240023   -50422.77561733
  entropy T*S    EENTRO =        -0.07481487
  eigenvalues    EBANDS =      -236.82381783
  atomic energy  EATOM  =     64207.43592568
  Solvation  Ediel_sol  =         0.00000000
  ---------------------------------------------------
  free energy    TOTEN  =     13654.24957872 eV

  energy without entropy =    13654.32439359  energy(sigma->0) =    13654.28698615


--------------------------------------------------------------------------------------------------------




--------------------------------------- Iteration      1(   2)  ---------------------------------------


     EDDAV:  cpu time   49.4079: real time   49.4248
       DOS:  cpu time    0.0012: real time    0.0012
    --------------------------------------------
      LOOP:  cpu time   49.4091: real time   49.4260

 eigenvalue-minimisations  :  4632
 total energy-change (2. order) :-0.1117150E+05  (-0.1086778E+05)
 number of electron     640.0000000 magnetization 
 augmentation part      640.0000000 magnetization 

 Free energy of the ion-electron system (eV)
  ---------------------------------------------------
  alpha Z        PSCENC =       871.83850952
  Ewald energy   TEWEN  =    287542.85227631
  -Hartree energ DENC   =   -341877.62118571
  -exchange      EXHF   =         0.00000000
  -V(xc)+E(xc)   XCENC  =      3043.90590272
  PAW double counting   =     50525.51240023   -50422.77561733
  entropy T*S    EENTRO =        -0.04504266
  eigenvalues    EBANDS =    -11408.35725418
  atomic energy  EATOM  =     64207.43592568
  Solvation  Ediel_sol  =         0.00000000
  ---------------------------------------------------
  free energy    TOTEN  =      2482.74591458 eV

  energy without entropy =     2482.79095724  energy(sigma->0) =     2482.76843591


--------------------------------------------------------------------------------------------------------




--------------------------------------- Iteration      1(   3)  ---------------------------------------


     EDDAV:  cpu time   67.6984: real time   67.7034
       DOS:  cpu time    0.0005: real time    0.0005
    --------------------------------------------
      LOOP:  cpu time   67.6988: real time   67.7038

 eigenvalue-minimisations  :  6800
 total energy-change (2. order) :-0.2863348E+04  (-0.2746030E+04)
 number of electron     640.0000000 magnetization 
 augmentation part      640.0000000 magnetization 

 Free energy of the ion-electron system (eV)
  ---------------------------------------------------
  alpha Z        PSCENC =       871.83850952
  Ewald energy   TEWEN  =    287542.85227631
  -Hartree energ DENC   =   -341877.62118571
  -exchange      EXHF   =         0.00000000
  -V(xc)+E(xc)   XCENC  =      3043.90590272
  PAW double counting   =     50525.51240023   -50422.77561733
  entropy T*S    EENTRO =        -0.00000000
  eigenvalues    EBANDS =    -14271.74991469
  atomic energy  EATOM  =     64207.43592568
  Solvation  Ediel_sol  =         0.00000000
  ---------------------------------------------------
  free energy    TOTEN  =      -380.60170327 eV

  energy without entropy =     -380.60170327  energy(sigma->0) =     -380.60170327


--------------------------------------------------------------------------------------------------------




--------------------------------------- Iteration      1(   4)  ---------------------------------------


     EDDAV:  cpu time   61.5828: real time   61.5939
       DOS:  cpu time    0.0005: real time    0.0005
    --------------------------------------------
      LOOP:  cpu time   61.5833: real time   61.5944

 eigenvalue-minimisations  :  6056
 total energy-change (2. order) :-0.3589076E+03  (-0.3545301E+03)
 number of electron     640.0000000 magnetization 
 augmentation part      640.0000000 magnetization 

 Free energy of the ion-electron system (eV)
  ---------------------------------------------------
  alpha Z        PSCENC =       871.83850952
  Ewald energy   TEWEN  =    287542.85227631
  -Hartree energ DENC   =   -341877.62118571
  -exchange      EXHF   =         0.00000000
  -V(xc)+E(xc)   XCENC  =      3043.90590272
  PAW double counting   =     50525.51240023   -50422.77561733
  entropy T*S    EENTRO =        -0.00000000
  eigenvalues    EBANDS =    -14630.65747656
  atomic energy  EATOM  =     64207.43592568
  Solvation  Ediel_sol  =         0.00000000
  ---------------------------------------------------
  free energy    TOTEN  =      -739.50926515 eV

  energy without entropy =     -739.50926515  energy(sigma->0) =     -739.50926515


--------------------------------------------------------------------------------------------------------




--------------------------------------- Iteration      1(   5)  ---------------------------------------


     EDDAV:  cpu time   61.8097: real time   61.8205
       DOS:  cpu time    0.0006: real time    0.0006
    CHARGE:  cpu time    3.5962: real time    3.5962
    MIXING:  cpu time    0.0256: real time    0.0258
    --------------------------------------------
      LOOP:  cpu time   65.4322: real time   65.4431

 eigenvalue-minimisations  :  6080
 total energy-change (2. order) :-0.1440492E+02  (-0.1434497E+02)
 number of electron     640.0000007 magnetization 
 augmentation part      134.5681987 magnetization 

 Broyden mixing:
  rms(total) = 0.77137E+01    rms(broyden)= 0.77134E+01
  rms(prec ) = 0.81145E+01
  weight for this iteration     100.00

 Free energy of the ion-electron system (eV)
  ---------------------------------------------------
  alpha Z        PSCENC =       871.83850952
  Ewald energy   TEWEN  =    287542.85227631
  -Hartree energ DENC   =   -341877.62118571
  -exchange      EXHF   =         0.00000000
  -V(xc)+E(xc)   XCENC  =      3043.90590272
  PAW double counting   =     50525.51240023   -50422.77561733
  entropy T*S    EENTRO =        -0.00000000
  eigenvalues    EBANDS =    -14645.06239967
  atomic energy  EATOM  =     64207.43592568
  Solvation  Ediel_sol  =         0.00000000
  ---------------------------------------------------
  free energy    TOTEN  =      -753.91418825 eV

  energy without entropy =     -753.91418825  energy(sigma->0) =     -753.91418825


--------------------------------------------------------------------------------------------------------




--------------------------------------- Iteration      1(   6)  ---------------------------------------


    POTLOK:  cpu time    0.4187: real time    0.4284
    SETDIJ:  cpu time    0.4379: real time    0.4379
     EDDAV:  cpu time   58.9895: real time   58.9913
       DOS:  cpu time    0.0006: real time    0.0006
    CHARGE:  cpu time    3.6142: real time    3.6142
    MIXING:  cpu time    0.0243: real time    0.0244
    --------------------------------------------
      LOOP:  cpu time   63.4852: real time   63.4968

 eigenvalue-minimisations  :  5760
 total energy-change (2. order) : 0.1556604E+03  (-0.8364277E+02)
 number of electron     640.0000008 magnetization 
 augmentation part      140.4349647 magnetization 

 Broyden mixing:
  rms(total) = 0.25163E+01    rms(broyden)= 0.25155E+01
  rms(prec ) = 0.25667E+01
  weight for this iteration     100.00

 eigenvalues of (default mixing * dielectric matrix)
  average eigenvalue GAMMA=   0.9857
  0.9857

 Free energy of the ion-electron system (eV)
  ---------------------------------------------------
  alpha Z        PSCENC =       871.83850952
  Ewald energy   TEWEN  =    287542.85227631
  -Hartree energ DENC   =   -342048.47530594
  -exchange      EXHF   =         0.00000000
  -V(xc)+E(xc)   XCENC  =      3056.36285068
  PAW double counting   =     56506.59242355   -56473.32950903
  entropy T*S    EENTRO =        -0.00000000
  eigenvalues    EBANDS =    -14261.53099700
  atomic energy  EATOM  =     64207.43592568
  Solvation  Ediel_sol  =         0.00000000
  ---------------------------------------------------
  free energy    TOTEN  =      -598.25382622 eV

  energy without entropy =     -598.25382622  energy(sigma->0) =     -598.25382622


--------------------------------------------------------------------------------------------------------




--------------------------------------- Iteration      1(   7)  ---------------------------------------


    POTLOK:  cpu time    0.4175: real time    0.4272
    SETDIJ:  cpu time    0.4328: real time    0.4328
     EDDAV:  cpu time   60.1801: real time   60.1797
       DOS:  cpu time    0.0006: real time    0.0006
    CHARGE:  cpu time    3.6140: real time    3.6140
    MIXING:  cpu time    0.0251: real time    0.0251
    --------------------------------------------
      LOOP:  cpu time   64.6700: real time   64.6795

 eigenvalue-minimisations  :  5904
 total energy-change (2. order) :-0.1965540E+00  (-0.5365087E+01)
 number of electron     640.0000008 magnetization 
 augmentation part      141.0749079 magnetization 

 Broyden mixing:
  rms(total) = 0.16249E+01    rms(broyden)= 0.16249E+01
  rms(prec ) = 0.16538E+01
  weight for this iteration     100.00

 eigenvalues of (default mixing * dielectric matrix)
  average eigenvalue GAMMA=   1.6489
  0.9677  2.3302

 Free energy of the ion-electron system (eV)
  ---------------------------------------------------
  alpha Z        PSCENC =       871.83850952
  Ewald energy   TEWEN  =    287542.85227631
  -Hartree energ DENC   =   -342188.89269979
  -exchange      EXHF   =         0.00000000
  -V(xc)+E(xc)   XCENC  =      3053.31121683
  PAW double counting   =     60312.91461743   -60286.93583094
  entropy T*S    EENTRO =        -0.00000000
  eigenvalues    EBANDS =    -14110.97439526
  atomic energy  EATOM  =     64207.43592568
  Solvation  Ediel_sol  =         0.00000000
  ---------------------------------------------------
  free energy    TOTEN  =      -598.45038021 eV

  energy without entropy =     -598.45038021  energy(sigma->0) =     -598.45038021


--------------------------------------------------------------------------------------------------------




--------------------------------------- Iteration      1(   8)  ---------------------------------------


    POTLOK:  cpu time    0.4057: real time    0.4147
    SETDIJ:  cpu time    0.4429: real time    0.4430
     EDDAV:  cpu time   57.2221: real time   57.2250
       DOS:  cpu time    0.0006: real time    0.0006
    CHARGE:  cpu time    3.5660: real time    3.5660
    MIXING:  cpu time    0.0244: real time    0.0244
    --------------------------------------------
      LOOP:  cpu time   61.6617: real time   61.6738

 eigenvalue-minimisations  :  5536
 total energy-change (2. order) : 0.1509159E+01  (-0.1006899E+01)
 number of electron     640.0000008 magnetization 
 augmentation part      141.0916205 magnetization 

 Broyden mixing:
  rms(total) = 0.44956E+00    rms(broyden)= 0.44947E+00
  rms(prec ) = 0.48313E+00
  weight for this iteration     100.00

 eigenvalues of (default mixing * dielectric matrix)
  average eigenvalue GAMMA=   1.4261
  2.4787  0.8999  0.8999

 Free energy of the ion-electron system (eV)
  ---------------------------------------------------
  alpha Z        PSCENC =       871.83850952
  Ewald energy   TEWEN  =    287542.85227631
  -Hartree energ DENC   =   -342449.11479266
  -exchange      EXHF   =         0.00000000
  -V(xc)+E(xc)   XCENC  =      3049.93399907
  PAW double counting   =     66744.18776469   -66735.86237863
  entropy T*S    EENTRO =        -0.00000000
  eigenvalues    EBANDS =    -13828.21252503
  atomic energy  EATOM  =     64207.43592568
  Solvation  Ediel_sol  =         0.00000000
  ---------------------------------------------------
  free energy    TOTEN  =      -596.94122105 eV

  energy without entropy =     -596.94122105  energy(sigma->0) =     -596.94122105


--------------------------------------------------------------------------------------------------------




--------------------------------------- Iteration      1(   9)  ---------------------------------------


    POTLOK:  cpu time    0.4111: real time    0.4201
    SETDIJ:  cpu time    0.4421: real time    0.4421
     EDDAV:  cpu time   56.8381: real time   56.8377
       DOS:  cpu time    0.0006: real time    0.0006
    CHARGE:  cpu time    3.6227: real time    3.6227
    MIXING:  cpu time    0.0244: real time    0.0244
    --------------------------------------------
      LOOP:  cpu time   61.3389: real time   61.3476

 eigenvalue-minimisations  :  5496
 total energy-change (2. order) : 0.5065266E+00  (-0.2675524E+00)
 number of electron     640.0000008 magnetization 
 augmentation part      141.4934579 magnetization 

 Broyden mixing:
  rms(total) = 0.21075E+00    rms(broyden)= 0.21075E+00
  rms(prec ) = 0.22841E+00
  weight for this iteration     100.00

 eigenvalues of (default mixing * dielectric matrix)
  average eigenvalue GAMMA=   1.2633
  2.1038  1.1687  0.8903  0.8903

 Free energy of the ion-electron system (eV)
  ---------------------------------------------------
  alpha Z        PSCENC =       871.83850952
  Ewald energy   TEWEN  =    287542.85227631
  -Hartree energ DENC   =   -342554.39760764
  -exchange      EXHF   =         0.00000000
  -V(xc)+E(xc)   XCENC  =      3051.82147829
  PAW double counting   =     67198.43197917   -67193.31082505
  entropy T*S    EENTRO =        -0.00000000
  eigenvalues    EBANDS =    -13721.10643079
  atomic energy  EATOM  =     64207.43592568
  Solvation  Ediel_sol  =         0.00000000
  ---------------------------------------------------
  free energy    TOTEN  =      -596.43469450 eV

  energy without entropy =     -596.43469450  energy(sigma->0) =     -596.43469450


--------------------------------------------------------------------------------------------------------




--------------------------------------- Iteration      1(  10)  ---------------------------------------


    POTLOK:  cpu time    0.4281: real time    0.4377
    SETDIJ:  cpu time    0.4462: real time    0.4482
     EDDAV:  cpu time   60.7149: real time   60.7162
       DOS:  cpu time    0.0006: real time    0.0006
    CHARGE:  cpu time    3.6211: real time    3.6252
    MIXING:  cpu time    0.0240: real time    0.0240
    --------------------------------------------
      LOOP:  cpu time   65.2349: real time   65.2519

 eigenvalue-minimisations  :  5936
 total energy-change (2. order) : 0.3567177E-01  (-0.2546443E-01)
 number of electron     640.0000008 magnetization 
 augmentation part      141.3355731 magnetization 

 Broyden mixing:
  rms(total) = 0.11559E+00    rms(broyden)= 0.11559E+00
  rms(prec ) = 0.13907E+00
  weight for this iteration     100.00

 eigenvalues of (default mixing * dielectric matrix)
  average eigenvalue GAMMA=   1.4555
  2.3916  2.3916  0.9115  0.9115  0.6714

 Free energy of the ion-electron system (eV)
  ---------------------------------------------------
  alpha Z        PSCENC =       871.83850952
  Ewald energy   TEWEN  =    287542.85227631
  -Hartree energ DENC   =   -342617.45887852
  -exchange      EXHF   =         0.00000000
  -V(xc)+E(xc)   XCENC  =      3053.15437453
  PAW double counting   =     66574.60476927   -66568.24839359
  entropy T*S    EENTRO =        -0.00000000
  eigenvalues    EBANDS =    -13660.57760593
  atomic energy  EATOM  =     64207.43592568
  Solvation  Ediel_sol  =         0.00000000
  ---------------------------------------------------
  free energy    TOTEN  =      -596.39902273 eV

  energy without entropy =     -596.39902273  energy(sigma->0) =     -596.39902273


--------------------------------------------------------------------------------------------------------




--------------------------------------- Iteration      1(  11)  ---------------------------------------


    POTLOK:  cpu time    0.3598: real time    0.3701
    SETDIJ:  cpu time    0.4183: real time    0.4183
     EDDAV:  cpu time   57.3709: real time   57.3731
       DOS:  cpu time    0.0006: real time    0.0006
    CHARGE:  cpu time    3.6048: real time    3.6048
    MIXING:  cpu time    0.0252: real time    0.0252
    --------------------------------------------
      LOOP:  cpu time   61.7796: real time   61.7922

 eigenvalue-minimisations  :  5552
 total energy-change (2. order) : 0.1207327E+00  (-0.1510663E-01)
 number of electron     640.0000008 magnetization 
 augmentation part      141.2305180 magnetization 

 Broyden mixing:
  rms(total) = 0.76280E-01    rms(broyden)= 0.76277E-01
  rms(prec ) = 0.89920E-01
  weight for this iteration     100.00

 eigenvalues of (default mixing * dielectric matrix)
  average eigenvalue GAMMA=   1.3854
  2.6169  2.1488  0.9941  0.9189  0.9189  0.7148

 Free energy of the ion-electron system (eV)
  ---------------------------------------------------
  alpha Z        PSCENC =       871.83850952
  Ewald energy   TEWEN  =    287542.85227631
  -Hartree energ DENC   =   -342784.48001569
  -exchange      EXHF   =         0.00000000
  -V(xc)+E(xc)   XCENC  =      3054.74981606
  PAW double counting   =     66523.70578423   -66517.42946276
  entropy T*S    EENTRO =        -0.00000000
  eigenvalues    EBANDS =    -13494.95112335
  atomic energy  EATOM  =     64207.43592568
  Solvation  Ediel_sol  =         0.00000000
  ---------------------------------------------------
  free energy    TOTEN  =      -596.27829000 eV

  energy without entropy =     -596.27829000  energy(sigma->0) =     -596.27829000


--------------------------------------------------------------------------------------------------------




--------------------------------------- Iteration      1(  12)  ---------------------------------------


    POTLOK:  cpu time    0.4218: real time    0.4345
    SETDIJ:  cpu time    0.4442: real time    0.4459
     EDDAV:  cpu time   60.9770: real time   60.9773
       DOS:  cpu time    0.0006: real time    0.0006
    CHARGE:  cpu time    3.6167: real time    3.6170
    MIXING:  cpu time    0.0277: real time    0.0277
    --------------------------------------------
      LOOP:  cpu time   65.4879: real time   65.5030

 eigenvalue-minimisations  :  5976
 total energy-change (2. order) : 0.2354100E-01  (-0.4516113E-02)
 number of electron     640.0000008 magnetization 
 augmentation part      141.3060051 magnetization 

 Broyden mixing:
  rms(total) = 0.31472E-01    rms(broyden)= 0.31470E-01
  rms(prec ) = 0.48438E-01
  weight for this iteration     100.00

 eigenvalues of (default mixing * dielectric matrix)
  average eigenvalue GAMMA=   1.4284
  2.5669  2.5669  1.1815  1.1815  0.9099  0.9099  0.6819

 Free energy of the ion-electron system (eV)
  ---------------------------------------------------
  alpha Z        PSCENC =       871.83850952
  Ewald energy   TEWEN  =    287542.85227631
  -Hartree energ DENC   =   -342834.40665551
  -exchange      EXHF   =         0.00000000
  -V(xc)+E(xc)   XCENC  =      3054.76745981
  PAW double counting   =     66708.84750355   -66703.02802290
  entropy T*S    EENTRO =        -0.00000000
  eigenvalues    EBANDS =    -13444.56174547
  atomic energy  EATOM  =     64207.43592568
  Solvation  Ediel_sol  =         0.00000000
  ---------------------------------------------------
  free energy    TOTEN  =      -596.25474901 eV

  energy without entropy =     -596.25474901  energy(sigma->0) =     -596.25474901


--------------------------------------------------------------------------------------------------------




--------------------------------------- Iteration      1(  13)  ---------------------------------------


    POTLOK:  cpu time    0.4094: real time    0.4184
    SETDIJ:  cpu time    0.4182: real time    0.4182
     EDDAV:  cpu time   58.4648: real time   58.4646
       DOS:  cpu time    0.0006: real time    0.0005
    CHARGE:  cpu time    3.6033: real time    3.6034
    MIXING:  cpu time    0.0246: real time    0.0245
    --------------------------------------------
      LOOP:  cpu time   62.9208: real time   62.9297

 eigenvalue-minimisations  :  5680
 total energy-change (2. order) : 0.7488816E-02  (-0.3468318E-02)
 number of electron     640.0000008 magnetization 
 augmentation part      141.2488939 magnetization 

 Broyden mixing:
  rms(total) = 0.30364E-01    rms(broyden)= 0.30362E-01
  rms(prec ) = 0.40540E-01
  weight for this iteration     100.00

 eigenvalues of (default mixing * dielectric matrix)
  average eigenvalue GAMMA=   1.4012
  2.6941  2.6941  1.2892  1.2892  0.9022  0.9022  0.7607  0.6784

 Free energy of the ion-electron system (eV)
  ---------------------------------------------------
  alpha Z        PSCENC =       871.83850952
  Ewald energy   TEWEN  =    287542.85227631
  -Hartree energ DENC   =   -342904.26355767
  -exchange      EXHF   =         0.00000000
  -V(xc)+E(xc)   XCENC  =      3054.98463982
  PAW double counting   =     66628.70024471   -66622.49438876
  entropy T*S    EENTRO =        -0.00000000
  eigenvalues    EBANDS =    -13375.30090981
  atomic energy  EATOM  =     64207.43592568
  Solvation  Ediel_sol  =         0.00000000
  ---------------------------------------------------
  free energy    TOTEN  =      -596.24726019 eV

  energy without entropy =     -596.24726019  energy(sigma->0) =     -596.24726019


--------------------------------------------------------------------------------------------------------




--------------------------------------- Iteration      1(  14)  ---------------------------------------


    POTLOK:  cpu time    0.3826: real time    0.3919
    SETDIJ:  cpu time    0.4185: real time    0.4185
     EDDAV:  cpu time   58.7492: real time   58.7502
       DOS:  cpu time    0.0007: real time    0.0007
    CHARGE:  cpu time    3.5881: real time    3.5880
    MIXING:  cpu time    0.0246: real time    0.0246
    --------------------------------------------
      LOOP:  cpu time   63.1636: real time   63.1739

 eigenvalue-minimisations  :  5720
 total energy-change (2. order) : 0.2311753E-02  (-0.1221830E-02)
 number of electron     640.0000008 magnetization 
 augmentation part      141.2828904 magnetization 

 Broyden mixing:
  rms(total) = 0.14423E-01    rms(broyden)= 0.14422E-01
  rms(prec ) = 0.23143E-01
  weight for this iteration     100.00

 eigenvalues of (default mixing * dielectric matrix)
  average eigenvalue GAMMA=   1.5157
  3.0189  3.0189  1.6400  1.6400  0.9864  0.9864  0.8364  0.8364  0.6776

 Free energy of the ion-electron system (eV)
  ---------------------------------------------------
  alpha Z        PSCENC =       871.83850952
  Ewald energy   TEWEN  =    287542.85227631
  -Hartree energ DENC   =   -342952.05352551
  -exchange      EXHF   =         0.00000000
  -V(xc)+E(xc)   XCENC  =      3055.08520446
  PAW double counting   =     66656.75347208   -66650.69837227
  entropy T*S    EENTRO =        -0.00000000
  eigenvalues    EBANDS =    -13327.45843872
  atomic energy  EATOM  =     64207.43592568
  Solvation  Ediel_sol  =         0.00000000
  ---------------------------------------------------
  free energy    TOTEN  =      -596.24494844 eV

  energy without entropy =     -596.24494844  energy(sigma->0) =     -596.24494844


--------------------------------------------------------------------------------------------------------




--------------------------------------- Iteration      1(  15)  ---------------------------------------


    POTLOK:  cpu time    0.3926: real time    0.4013
    SETDIJ:  cpu time    0.4182: real time    0.4182
     EDDAV:  cpu time   60.5627: real time   60.5644
       DOS:  cpu time    0.0006: real time    0.0006
    CHARGE:  cpu time    3.6133: real time    3.6132
    MIXING:  cpu time    0.0253: real time    0.0253
    --------------------------------------------
      LOOP:  cpu time   65.0126: real time   65.0230

 eigenvalue-minimisations  :  5936
 total energy-change (2. order) :-0.6547327E-02  (-0.9595054E-03)
 number of electron     640.0000008 magnetization 
 augmentation part      141.2829849 magnetization 

 Broyden mixing:
  rms(total) = 0.11544E-01    rms(broyden)= 0.11540E-01
  rms(prec ) = 0.15390E-01
  weight for this iteration     100.00

 eigenvalues of (default mixing * dielectric matrix)
  average eigenvalue GAMMA=   1.5289
  4.1891  2.6676  2.0613  1.0868  1.0868  0.8605  0.8605  0.9033  0.9033  0.6696

 Free energy of the ion-electron system (eV)
  ---------------------------------------------------
  alpha Z        PSCENC =       871.83850952
  Ewald energy   TEWEN  =    287542.85227631
  -Hartree energ DENC   =   -343007.49201450
  -exchange      EXHF   =         0.00000000
  -V(xc)+E(xc)   XCENC  =      3055.22087155
  PAW double counting   =     66620.24155190   -66614.16011503
  entropy T*S    EENTRO =        -0.00000000
  eigenvalues    EBANDS =    -13272.18850118
  atomic energy  EATOM  =     64207.43592568
  Solvation  Ediel_sol  =         0.00000000
  ---------------------------------------------------
  free energy    TOTEN  =      -596.25149576 eV

  energy without entropy =     -596.25149576  energy(sigma->0) =     -596.25149576


--------------------------------------------------------------------------------------------------------




--------------------------------------- Iteration      1(  16)  ---------------------------------------


    POTLOK:  cpu time    0.3884: real time    0.3996
    SETDIJ:  cpu time    0.4197: real time    0.4197
     EDDAV:  cpu time   56.0889: real time   56.0894
       DOS:  cpu time    0.0006: real time    0.0006
    CHARGE:  cpu time    3.6178: real time    3.6178
    MIXING:  cpu time    0.0251: real time    0.0251
    --------------------------------------------
      LOOP:  cpu time   60.5404: real time   60.5521

 eigenvalue-minimisations  :  5400
 total energy-change (2. order) :-0.2940500E-02  (-0.1655319E-03)
 number of electron     640.0000008 magnetization 
 augmentation part      141.2883340 magnetization 

 Broyden mixing:
  rms(total) = 0.86722E-02    rms(broyden)= 0.86720E-02
  rms(prec ) = 0.11171E-01
  weight for this iteration     100.00

 eigenvalues of (default mixing * dielectric matrix)
  average eigenvalue GAMMA=   1.5405
  4.3678  2.7221  2.1872  1.2442  1.2442  1.0054  1.0054  0.8885  0.8885  0.6664
  0.7257

 Free energy of the ion-electron system (eV)
  ---------------------------------------------------
  alpha Z        PSCENC =       871.83850952
  Ewald energy   TEWEN  =    287542.85227631
  -Hartree energ DENC   =   -343031.08297602
  -exchange      EXHF   =         0.00000000
  -V(xc)+E(xc)   XCENC  =      3055.25163165
  PAW double counting   =     66640.04318283   -66634.03826456
  entropy T*S    EENTRO =        -0.00000000
  eigenvalues    EBANDS =    -13248.55472168
  atomic energy  EATOM  =     64207.43592568
  Solvation  Ediel_sol  =         0.00000000
  ---------------------------------------------------
  free energy    TOTEN  =      -596.25443626 eV

  energy without entropy =     -596.25443626  energy(sigma->0) =     -596.25443626


--------------------------------------------------------------------------------------------------------




--------------------------------------- Iteration      1(  17)  ---------------------------------------


    POTLOK:  cpu time    0.4036: real time    0.4167
    SETDIJ:  cpu time    0.4175: real time    0.4175
     EDDAV:  cpu time   57.7377: real time   57.7374
       DOS:  cpu time    0.0006: real time    0.0006
    CHARGE:  cpu time    3.6235: real time    3.6234
    MIXING:  cpu time    0.0247: real time    0.0247
    --------------------------------------------
      LOOP:  cpu time   62.2077: real time   62.2204

 eigenvalue-minimisations  :  5600
 total energy-change (2. order) :-0.4636843E-02  (-0.2627026E-03)
 number of electron     640.0000008 magnetization 
 augmentation part      141.2884076 magnetization 

 Broyden mixing:
  rms(total) = 0.98065E-02    rms(broyden)= 0.98040E-02
  rms(prec ) = 0.11184E-01
  weight for this iteration     100.00

 eigenvalues of (default mixing * dielectric matrix)
  average eigenvalue GAMMA=   1.6446
  5.5738  2.9114  2.2139  2.0167  0.9834  0.9834  1.0159  1.0159  0.8491  0.8491
  0.6972  0.6251

 Free energy of the ion-electron system (eV)
  ---------------------------------------------------
  alpha Z        PSCENC =       871.83850952
  Ewald energy   TEWEN  =    287542.85227631
  -Hartree energ DENC   =   -343045.58112370
  -exchange      EXHF   =         0.00000000
  -V(xc)+E(xc)   XCENC  =      3055.27997121
  PAW double counting   =     66642.70121259   -66636.73730691
  entropy T*S    EENTRO =        -0.00000000
  eigenvalues    EBANDS =    -13234.04853782
  atomic energy  EATOM  =     64207.43592568
  Solvation  Ediel_sol  =         0.00000000
  ---------------------------------------------------
  free energy    TOTEN  =      -596.25907311 eV

  energy without entropy =     -596.25907311  energy(sigma->0) =     -596.25907311


--------------------------------------------------------------------------------------------------------




--------------------------------------- Iteration      1(  18)  ---------------------------------------


    POTLOK:  cpu time    0.4035: real time    0.4143
    SETDIJ:  cpu time    0.4196: real time    0.4196
     EDDAV:  cpu time   56.4051: real time   56.4048
       DOS:  cpu time    0.0005: real time    0.0005
    CHARGE:  cpu time    3.6140: real time    3.6141
    MIXING:  cpu time    0.0265: real time    0.0265
    --------------------------------------------
      LOOP:  cpu time   60.8693: real time   60.8799

 eigenvalue-minimisations  :  5440
 total energy-change (2. order) :-0.3433464E-02  (-0.9530681E-04)
 number of electron     640.0000008 magnetization 
 augmentation part      141.2776476 magnetization 

 Broyden mixing:
  rms(total) = 0.49894E-02    rms(broyden)= 0.49891E-02
  rms(prec ) = 0.58750E-02
  weight for this iteration     100.00

 eigenvalues of (default mixing * dielectric matrix)
  average eigenvalue GAMMA=   1.6351
  6.2175  2.7863  2.5805  1.8073  0.9284  0.9284  0.9636  0.9636  0.9829  0.8691
  0.8691  0.6795  0.6795

 Free energy of the ion-electron system (eV)
  ---------------------------------------------------
  alpha Z        PSCENC =       871.83850952
  Ewald energy   TEWEN  =    287542.85227631
  -Hartree energ DENC   =   -343061.21303149
  -exchange      EXHF   =         0.00000000
  -V(xc)+E(xc)   XCENC  =      3055.32548650
  PAW double counting   =     66630.34811626   -66624.36945696
  entropy T*S    EENTRO =        -0.00000000
  eigenvalues    EBANDS =    -13218.48033238
  atomic energy  EATOM  =     64207.43592568
  Solvation  Ediel_sol  =         0.00000000
  ---------------------------------------------------
  free energy    TOTEN  =      -596.26250657 eV

  energy without entropy =     -596.26250657  energy(sigma->0) =     -596.26250657


--------------------------------------------------------------------------------------------------------




--------------------------------------- Iteration      1(  19)  ---------------------------------------


    POTLOK:  cpu time    0.3834: real time    0.3937
    SETDIJ:  cpu time    0.4176: real time    0.4194
     EDDAV:  cpu time   59.9266: real time   59.9300
       DOS:  cpu time    0.0006: real time    0.0006
    CHARGE:  cpu time    3.6235: real time    3.6235
    MIXING:  cpu time    0.0255: real time    0.0255
    --------------------------------------------
      LOOP:  cpu time   64.3771: real time   64.3927

 eigenvalue-minimisations  :  5856
 total energy-change (2. order) :-0.1314394E-02  (-0.4014697E-04)
 number of electron     640.0000008 magnetization 
 augmentation part      141.2797755 magnetization 

 Broyden mixing:
  rms(total) = 0.19363E-02    rms(broyden)= 0.19343E-02
  rms(prec ) = 0.30306E-02
  weight for this iteration     100.00

 eigenvalues of (default mixing * dielectric matrix)
  average eigenvalue GAMMA=   1.6486
  6.6044  3.0927  2.3214  2.0637  0.9675  0.9675  1.1265  1.0177  1.0177  0.8587
  0.8587  0.8284  0.6781  0.6781

 Free energy of the ion-electron system (eV)
  ---------------------------------------------------
  alpha Z        PSCENC =       871.83850952
  Ewald energy   TEWEN  =    287542.85227631
  -Hartree energ DENC   =   -343065.21811247
  -exchange      EXHF   =         0.00000000
  -V(xc)+E(xc)   XCENC  =      3055.32777587
  PAW double counting   =     66633.52147191   -66627.55868772
  entropy T*S    EENTRO =        -0.00000000
  eigenvalues    EBANDS =    -13214.46298008
  atomic energy  EATOM  =     64207.43592568
  Solvation  Ediel_sol  =         0.00000000
  ---------------------------------------------------
  free energy    TOTEN  =      -596.26382096 eV

  energy without entropy =     -596.26382096  energy(sigma->0) =     -596.26382096


--------------------------------------------------------------------------------------------------------




--------------------------------------- Iteration      1(  20)  ---------------------------------------


    POTLOK:  cpu time    0.3658: real time    0.3669
    SETDIJ:  cpu time    0.4192: real time    0.4209
     EDDAV:  cpu time   54.7354: real time   54.7353
       DOS:  cpu time    0.0006: real time    0.0006
    CHARGE:  cpu time    3.6340: real time    3.6340
    MIXING:  cpu time    0.0260: real time    0.0260
    --------------------------------------------
      LOOP:  cpu time   59.1809: real time   59.1837

 eigenvalue-minimisations  :  5240
 total energy-change (2. order) :-0.3069214E-02  (-0.1545019E-04)
 number of electron     640.0000008 magnetization 
 augmentation part      141.2809989 magnetization 

 Broyden mixing:
  rms(total) = 0.22029E-02    rms(broyden)= 0.22023E-02
  rms(prec ) = 0.26903E-02
  weight for this iteration     100.00

 eigenvalues of (default mixing * dielectric matrix)
  average eigenvalue GAMMA=   1.7333
  7.1620  3.6066  2.4780  2.4780  1.6245  0.9264  0.9264  1.1305  0.9796  0.9796
  0.8382  0.8382  0.7257  0.6729  0.6333

 Free energy of the ion-electron system (eV)
  ---------------------------------------------------
  alpha Z        PSCENC =       871.83850952
  Ewald energy   TEWEN  =    287542.85227631
  -Hartree energ DENC   =   -343069.01718659
  -exchange      EXHF   =         0.00000000
  -V(xc)+E(xc)   XCENC  =      3055.31952204
  PAW double counting   =     66628.75946259   -66622.77933673
  entropy T*S    EENTRO =        -0.00000000
  eigenvalues    EBANDS =    -13210.67606300
  atomic energy  EATOM  =     64207.43592568
  Solvation  Ediel_sol  =         0.00000000
  ---------------------------------------------------
  free energy    TOTEN  =      -596.26689018 eV

  energy without entropy =     -596.26689018  energy(sigma->0) =     -596.26689018


--------------------------------------------------------------------------------------------------------




--------------------------------------- Iteration      1(  21)  ---------------------------------------


    POTLOK:  cpu time    0.4143: real time    0.4224
    SETDIJ:  cpu time    0.4426: real time    0.4445
     EDDAV:  cpu time   48.3682: real time   48.3698
       DOS:  cpu time    0.0006: real time    0.0006
    CHARGE:  cpu time    3.6339: real time    3.6339
    MIXING:  cpu time    0.0233: real time    0.0233
    --------------------------------------------
      LOOP:  cpu time   52.8829: real time   52.8945

 eigenvalue-minimisations  :  4472
 total energy-change (2. order) :-0.2406680E-02  (-0.1181307E-04)
 number of electron     640.0000008 magnetization 
 augmentation part      141.2808620 magnetization 

 Broyden mixing:
[...]
    -6.564311700 11.369721380  0.000000000     0.000000000  0.087952903  0.000000000
     0.000000000  0.000000000 26.828094240     0.000000000  0.000000000  0.037274358

  length of vectors
    13.128623400 13.128623399 26.828094240     0.087952903  0.087952903  0.037274358


 FORCES acting on ions
    electron-ion (+dipol)            ewald-force                    non-local-force                 convergence-correction
 -----------------------------------------------------------------------------------------------
   -.120E+02 0.394E+01 0.104E+04   0.123E+02 -.283E+01 -.104E+04   -.370E-01 -.687E+00 -.558E+01   0.726E-05 -.177E-04 0.220E-05
   0.150E+02 -.118E+02 0.134E+04   -.148E+02 0.126E+02 -.133E+04   -.194E+00 -.430E+00 -.588E+01   -.188E-04 -.448E-05 0.460E-04
   0.282E+02 0.250E+02 0.126E+04   -.270E+02 -.253E+02 -.125E+04   -.981E+00 0.511E+00 -.469E+01   -.881E-05 0.137E-06 0.662E-04
   -.573E+01 0.779E+01 0.130E+04   0.638E+01 -.691E+01 -.129E+04   -.476E+00 -.678E+00 -.523E+01   -.453E-05 0.162E-07 -.980E-05
   0.200E+02 -.156E+02 0.127E+04   -.194E+02 0.146E+02 -.126E+04   -.518E+00 0.393E+00 -.618E+01   0.107E-04 0.216E-04 0.264E-04
   -.115E+02 0.182E+01 0.130E+04   0.109E+02 -.201E+01 -.130E+04   0.583E+00 0.395E+00 -.633E+01   0.403E-04 -.142E-04 0.163E-04
   0.764E+02 -.175E+02 0.124E+04   -.771E+02 0.154E+02 -.123E+04   -.821E+00 0.166E+01 -.561E+01   0.122E-04 0.238E-04 0.106E-04
   0.421E+02 -.825E+01 0.124E+04   -.419E+02 0.884E+01 -.123E+04   -.545E+00 0.406E+00 -.492E+01   0.239E-05 -.390E-06 0.342E-04
   0.405E+02 -.128E+02 0.137E+04   -.389E+02 0.133E+02 -.136E+04   -.110E+01 -.486E+00 -.498E+01   -.206E-04 0.943E-05 0.481E-04
   -.197E+02 0.197E+02 0.128E+04   0.191E+02 -.183E+02 -.127E+04   0.646E+00 -.739E+00 -.498E+01   -.156E-04 -.171E-04 0.513E-04
   -.415E+02 0.132E+02 0.139E+04   0.411E+02 -.150E+02 -.139E+04   -.705E-01 0.952E+00 -.547E+01   0.431E-06 -.472E-05 -.116E-04
   0.151E+02 -.395E+02 0.107E+04   -.171E+02 0.395E+02 -.107E+04   0.623E+00 0.400E+00 -.412E+01   0.547E-05 -.170E-04 0.120E-04
   0.313E+02 0.401E+01 0.123E+04   -.320E+02 -.284E+01 -.122E+04   -.391E+00 -.136E+01 -.424E+01   -.645E-06 -.354E-05 0.505E-04
   -.449E+02 -.330E+02 0.132E+04   0.446E+02 0.321E+02 -.131E+04   0.964E+00 0.631E+00 -.624E+01   -.340E-05 -.129E-06 0.770E-04
   0.179E+02 0.507E+02 0.130E+04   -.173E+02 -.507E+02 -.129E+04   -.575E+00 -.862E-01 -.570E+01   0.109E-05 -.564E-06 0.337E-04
   -.453E+02 -.157E+01 0.118E+04   0.466E+02 0.164E+01 -.117E+04   -.515E+00 -.238E+00 -.633E+01   -.567E-05 0.827E-05 0.135E-04
   -.342E+02 -.493E+02 -.131E+04   0.332E+02 0.494E+02 0.131E+04   0.698E+00 0.218E+00 0.440E+01   0.100E-04 -.142E-05 -.465E-04
   -.297E+02 0.726E+02 -.133E+04   0.310E+02 -.733E+02 0.132E+04   -.230E+00 -.178E+00 0.748E+01   0.327E-05 -.104E-04 -.370E-04
   -.393E+02 0.260E+02 -.120E+04   0.390E+02 -.260E+02 0.120E+04   0.996E+00 -.850E-01 0.538E+01   -.282E-04 0.209E-04 -.603E-04
   0.406E+02 -.293E+02 -.122E+04   -.419E+02 0.298E+02 0.121E+04   0.329E+00 -.277E+00 0.629E+01   0.171E-04 -.137E-04 -.494E-04
   0.342E+02 -.710E+02 -.122E+04   -.343E+02 0.718E+02 0.121E+04   -.623E+00 0.362E+00 0.608E+01   -.502E-05 0.381E-06 -.954E-04
   -.968E+01 0.445E+01 -.126E+04   0.930E+01 -.464E+01 0.126E+04   0.601E+00 0.854E+00 0.543E+01   0.744E-05 0.523E-05 -.843E-04
   0.441E+02 0.484E+02 -.118E+04   -.439E+02 -.498E+02 0.117E+04   -.934E+00 0.451E+00 0.498E+01   0.288E-04 0.543E-05 -.342E-04
   0.133E+02 -.468E+02 -.137E+04   -.117E+02 0.473E+02 0.136E+04   -.987E+00 0.326E+00 0.469E+01   0.200E-06 -.705E-05 -.514E-04
   -.438E+01 0.203E+02 -.133E+04   0.434E+01 -.200E+02 0.132E+04   -.346E-01 -.491E+00 0.620E+01   0.152E-04 0.125E-04 -.600E-04
   0.346E+02 0.716E+01 -.120E+04   -.347E+02 -.829E+01 0.119E+04   -.434E+00 0.161E+00 0.502E+01   0.122E-04 0.135E-04 -.819E-04
   -.563E+02 0.390E+02 -.123E+04   0.561E+02 -.389E+02 0.122E+04   0.878E+00 -.201E+00 0.593E+01   -.119E-04 -.546E-05 -.517E-04
   -.990E+00 -.238E+02 -.129E+04   0.108E+01 0.238E+02 0.128E+04   0.126E+00 -.198E+00 0.590E+01   0.139E-04 0.888E-05 -.484E-04
   0.158E+02 -.876E+02 -.139E+04   -.145E+02 0.875E+02 0.139E+04   -.550E+00 0.999E+00 0.592E+01   -.701E-05 -.244E-04 -.409E-04
   -.122E+02 0.123E+02 -.125E+04   0.116E+02 -.130E+02 0.125E+04   -.540E-02 0.282E+00 0.633E+01   -.262E-04 0.288E-05 -.552E-04
   -.213E+02 0.688E+02 -.118E+04   0.201E+02 -.682E+02 0.118E+04   0.107E+01 -.132E+01 0.585E+01   0.128E-04 -.139E-05 -.495E-04
   0.143E+02 0.858E+01 -.125E+04   -.136E+02 -.773E+01 0.125E+04   -.630E+00 -.689E+00 0.513E+01   -.183E-04 -.115E-04 -.182E-04
   0.242E+02 -.833E+02 -.159E+04   -.253E+02 0.863E+02 0.161E+04   0.540E+00 -.247E+01 -.143E+02   -.888E-05 -.719E-05 -.385E-04
   0.537E+01 0.491E+02 -.162E+04   -.652E+01 -.501E+02 0.164E+04   0.108E+01 0.182E+00 -.182E+02   -.359E-05 0.159E-05 -.468E-04
   0.387E+02 0.519E+01 -.156E+04   -.411E+02 -.414E+01 0.158E+04   0.172E+01 -.107E+01 -.157E+02   -.130E-04 -.102E-05 -.691E-05
   -.445E+02 0.161E+02 -.163E+04   0.461E+02 -.179E+02 0.164E+04   -.112E+01 0.195E+01 -.167E+02   -.916E-05 -.571E-05 -.289E-04
   -.196E+02 0.138E+01 -.159E+04   0.215E+02 -.312E+01 0.161E+04   -.167E+01 0.169E+01 -.165E+02   -.134E-04 -.276E-05 -.470E-04
   0.302E+02 0.576E+02 -.159E+04   -.305E+02 -.588E+02 0.160E+04   -.967E-01 0.420E+00 -.163E+02   0.873E-06 0.672E-05 -.248E-04
   0.860E+01 0.632E+02 -.158E+04   -.691E+01 -.689E+02 0.159E+04   -.211E+01 0.503E+01 -.157E+02   -.871E-06 0.954E-05 -.249E-04
   0.160E+02 -.142E+02 -.158E+04   -.171E+02 0.143E+02 0.160E+04   0.133E+01 -.494E+00 -.161E+02   0.592E-05 -.216E-04 -.491E-04
   0.236E+02 -.466E+01 -.158E+04   -.258E+02 0.610E+01 0.159E+04   0.219E+01 -.171E+01 -.163E+02   0.143E-04 -.524E-05 -.647E-04
   0.619E+01 0.122E+02 -.160E+04   -.811E+01 -.126E+02 0.162E+04   0.197E+01 0.450E+00 -.178E+02   -.435E-05 0.154E-04 -.399E-04
   -.179E+02 -.102E+02 -.162E+04   0.178E+02 0.114E+02 0.164E+04   0.298E-01 -.973E+00 -.188E+02   0.220E-06 0.113E-05 -.154E-04
   -.291E+02 -.539E+02 -.164E+04   0.320E+02 0.565E+02 0.165E+04   -.262E+01 -.241E+01 -.162E+02   -.862E-05 -.169E-04 -.433E-04
   -.300E+02 -.126E+02 -.159E+04   0.315E+02 0.132E+02 0.160E+04   -.124E+01 -.707E+00 -.155E+02   0.900E-05 -.790E-06 -.338E-04
   -.221E+02 -.302E+02 -.153E+04   0.234E+02 0.323E+02 0.155E+04   -.943E+00 -.158E+01 -.155E+02   0.110E-04 0.107E-04 -.287E-04
   0.156E+02 0.266E+02 -.156E+04   -.179E+02 -.268E+02 0.158E+04   0.172E+01 0.205E+00 -.156E+02   -.323E-05 0.956E-05 -.177E-04
   0.132E+02 0.551E+01 -.165E+04   -.126E+02 -.711E+01 0.166E+04   -.903E+00 0.162E+01 -.175E+02   0.632E-05 -.436E-05 -.255E-04
   0.111E+02 -.399E+02 0.157E+04   -.128E+02 0.431E+02 -.158E+04   0.193E+01 -.240E+01 0.168E+02   -.657E-06 -.825E-05 -.209E-05
   -.682E+01 0.308E+01 0.158E+04   0.703E+01 -.506E+01 -.160E+04   -.184E+00 0.239E+01 0.163E+02   0.938E-05 -.781E-05 -.113E-05
   -.129E+02 0.482E+01 0.157E+04   0.150E+02 -.424E+01 -.159E+04   -.220E+01 -.729E+00 0.146E+02   0.588E-05 0.452E-05 0.287E-04
   -.166E+01 -.483E+01 0.159E+04   0.174E+01 0.520E+01 -.161E+04   -.137E+00 -.376E+00 0.171E+02   -.121E-04 0.136E-04 0.293E-04
   0.366E+02 0.728E+01 0.157E+04   -.384E+02 -.101E+02 -.159E+04   0.180E+01 0.309E+01 0.162E+02   -.635E-05 0.176E-08 0.201E-04
   0.248E+02 0.275E+02 0.165E+04   -.257E+02 -.279E+02 -.167E+04   0.786E+00 0.129E+00 0.188E+02   -.725E-05 -.563E-05 0.373E-04
   0.128E+02 0.449E+02 0.162E+04   -.120E+02 -.484E+02 -.164E+04   -.407E+00 0.317E+01 0.170E+02   0.231E-04 0.739E-05 0.792E-05
   0.288E+02 0.510E+02 0.161E+04   -.277E+02 -.523E+02 -.163E+04   -.174E+01 0.420E+00 0.185E+02   0.334E-05 -.622E-05 0.282E-06
   -.465E+02 -.309E+01 0.155E+04   0.501E+02 0.175E+01 -.157E+04   -.276E+01 0.869E+00 0.153E+02   -.525E-05 -.107E-04 0.275E-04
   -.680E+01 -.328E+02 0.161E+04   0.747E+01 0.350E+02 -.163E+04   -.906E+00 -.187E+01 0.169E+02   -.154E-04 -.635E-05 0.570E-04
   -.459E+02 -.225E+02 0.162E+04   0.485E+02 0.222E+02 -.164E+04   -.220E+01 0.101E+01 0.165E+02   -.245E-04 0.235E-04 0.389E-04
   -.494E+02 -.188E+01 0.156E+04   0.505E+02 0.266E+01 -.158E+04   0.182E+00 -.111E+01 0.168E+02   0.131E-04 -.157E-04 -.303E-05
   -.503E+02 0.172E+02 0.160E+04   0.544E+02 -.177E+02 -.162E+04   -.363E+01 0.184E+00 0.185E+02   0.153E-04 -.203E-04 -.164E-04
   0.557E+01 -.520E+02 0.162E+04   -.648E+01 0.549E+02 -.164E+04   0.949E+00 -.245E+01 0.177E+02   0.112E-04 -.119E-04 0.542E-04
   -.113E+02 0.221E+02 0.164E+04   0.123E+02 -.223E+02 -.166E+04   -.895E+00 -.219E-01 0.178E+02   -.101E-04 0.173E-04 0.369E-04
   0.282E+02 -.283E+02 0.158E+04   -.305E+02 0.309E+02 -.160E+04   0.226E+01 -.223E+01 0.162E+02   -.742E-05 0.128E-04 -.152E-04
   -.164E+02 0.259E-01 -.248E+02   0.163E+02 -.315E-01 0.249E+02   -.460E-01 -.418E+00 -.232E+00   -.619E-05 -.367E-05 -.702E-05
   -.325E+01 0.515E+01 -.329E+02   0.324E+01 -.522E+01 0.328E+02   0.192E+00 0.227E+00 0.915E+00   -.462E-05 0.136E-05 -.781E-05
   0.237E+02 0.143E+02 0.390E+02   -.236E+02 -.144E+02 -.393E+02   -.124E+01 0.495E+00 0.720E+00   -.233E-05 0.305E-05 -.306E-05
   -.204E+01 0.305E+01 -.138E+02   0.208E+01 -.270E+01 0.141E+02   0.588E-01 -.166E+01 -.164E+01   -.114E-05 -.591E-05 -.112E-04
   -.204E+02 -.207E+02 0.411E+01   0.200E+02 0.207E+02 -.406E+01   0.189E+01 0.293E+00 -.430E+00   0.179E-05 -.282E-05 -.950E-05
   -.353E+01 0.122E+02 -.337E+02   0.335E+01 -.121E+02 0.339E+02   0.424E+00 -.878E+00 -.192E+00   0.648E-05 0.830E-06 -.149E-04
   0.296E-01 -.682E+01 0.452E+02   0.514E-02 0.674E+01 -.456E+02   -.722E-01 0.722E+00 0.159E+01   -.282E-05 0.224E-05 -.562E-05
   -.104E+02 0.458E+01 0.224E+02   0.105E+02 -.484E+01 -.226E+02   0.222E-01 0.545E+00 0.609E+00   -.267E-05 0.321E-06 -.415E-05
   -.298E+01 -.116E+02 -.238E+02   0.320E+01 0.116E+02 0.238E+02   -.681E+00 -.202E+00 0.379E+00   -.238E-05 -.434E-05 -.107E-04
   0.107E+01 0.746E-02 -.984E+00   -.950E+00 -.592E-01 0.115E+01   -.947E+00 0.222E+00 -.495E+00   -.714E-05 0.262E-05 -.142E-04
   -.472E+01 0.320E+02 0.288E+02   0.480E+01 -.320E+02 -.289E+02   0.145E+00 -.918E+00 -.195E+00   -.521E-06 -.178E-05 -.848E-05
   0.221E+00 -.216E+02 -.445E+01   -.812E-01 0.215E+02 0.445E+01   0.257E+00 0.162E+01 0.321E+00   0.157E-05 0.802E-06 -.975E-05
   0.137E+02 -.347E+02 -.612E+02   -.138E+02 0.348E+02 0.614E+02   0.180E-01 0.844E-01 -.391E+00   0.759E-05 -.202E-05 -.940E-05
   -.432E+01 -.435E+01 0.397E+02   0.416E+01 0.415E+01 -.402E+02   0.865E+00 0.889E+00 0.166E+01   0.499E-05 0.471E-05 -.938E-06
   0.133E+02 0.103E+02 0.485E+02   -.134E+02 -.102E+02 -.488E+02   -.123E+00 -.864E+00 0.114E+01   0.163E-05 0.821E-05 -.409E-05
   -.330E+01 0.102E+02 0.703E+01   0.353E+01 -.102E+02 -.698E+01   -.771E+00 0.271E+00 -.210E+00   0.202E-05 0.173E-05 -.921E-05
 -----------------------------------------------------------------------------------------------
   0.104E+02 -.150E+01 -.167E+02   -.213E-13 -.110E-12 -.330E-11   -.104E+02 0.151E+01 0.166E+02   -.272E-05 -.415E-04 -.764E-03
 
 
 POSITION                                       TOTAL-FORCE (eV/Angst)
 -----------------------------------------------------------------------------------
     -0.03703      1.83475     12.38977         0.256916      0.420051     -1.960223
     -1.59895      4.69142     12.12261        -0.010358      0.399780     -1.104004
     -3.23401      7.55105     12.19087         0.214212      0.161628     -1.770518
     -4.95209     10.37636     12.12645         0.174889      0.207204      0.090974
      3.22002      1.87508     12.13847         0.024542     -0.576461      0.134372
      1.64230      4.67537     12.13361         0.010575      0.197235     -0.629469
      0.18558      7.58865     12.22290        -1.568504     -0.474207     -1.344216
     -1.53995     10.29585     12.17933        -0.341427      0.993357     -0.908842
      6.45837      1.88633     11.97662         0.568337     -0.007837      1.231413
      4.86255      4.66825     12.07491         0.073857      0.620293      0.054325
      3.35317      7.63595     12.02529        -0.389432     -0.821229      0.602823
      1.69246     10.48871     12.28349        -1.351324      0.394418     -0.241634
      9.89078      1.96443     12.13444        -1.075014     -0.184290     -0.040060
      8.13581      4.74126     12.10338         0.641867     -0.294656     -0.740882
      6.58689      7.60639     12.14074         0.003596     -0.085171     -0.672565
      4.84054     10.47115     12.30124         0.812327     -0.161633     -1.250892
      1.64042      0.86173     14.75987        -0.264465      0.333504      0.547259
     -0.05853      3.93863     14.66488         1.082144     -0.878163      0.463917
     -1.62267      6.65567     14.64124         0.694446     -0.064180     -0.531157
     -3.21936      9.48697     14.60823        -0.966966      0.157888      0.543637
      4.99070      0.87329     14.64322        -0.778096      1.171571     -0.081693
      3.26471      3.70879     14.69190         0.218889      0.661888      0.238343
      1.80702      6.68250     14.61185        -0.706485     -0.870638      0.624780
     -0.01051      9.41983     14.82676         0.641627      0.798954     -1.154756
      8.14915      1.05343     14.74134        -0.072609     -0.150328     -0.675849
      6.56445      3.89435     14.66347        -0.441872     -0.960372     -0.825279
      4.87964      6.62203     14.65469         0.715872     -0.111165     -0.261043
      3.25630      9.46364     14.67463         0.214831     -0.195920      1.194147
     11.41886      0.84578     14.77628         0.721844      0.929032      0.906156
      9.88690      3.85700     14.66252        -0.641596     -0.462477     -0.341558
      8.24841      6.72499     14.58456        -0.127605     -0.707311      0.358413
      6.54712      9.44612     14.68109         0.097845      0.164940      0.883663
      0.05963      1.71046     15.89536        -0.514553      0.534343     -0.000720
     -1.60682      4.95660     15.84830        -0.075496     -0.823510      0.076548
     -3.12065      7.59935     15.68365        -0.668085     -0.030547      0.839905
     -5.07673     10.36644     15.90547         0.527706      0.179702     -0.212880
      3.22775      1.90990     15.88180         0.158066     -0.047768     -0.268415
      1.78736      4.96535     15.84076        -0.436939     -0.799637     -0.074181
      0.11478      7.63064     15.77573        -0.415459     -0.757860      0.508789
     -1.69851     10.46431     15.75044         0.244868     -0.369436      0.816361
      6.53323      2.02016     15.81179        -0.041492     -0.268156      0.030616
      4.96083      4.75516     15.90645         0.050276      0.056228     -0.676520
      3.35657      7.54659     15.83812        -0.063618      0.196426     -0.072485
      1.54371     10.28997     15.97730         0.290924      0.225393     -0.378236
      9.72617      2.00377     15.83712         0.295534     -0.072927      0.143520
      8.16676      4.67890     15.69501         0.415357      0.587384      0.567881
      6.70802      7.52670     15.72332        -0.555508     -0.051795      0.561011
      4.93597     10.35158     15.95079        -0.274429      0.019206     -0.446615
      1.50752      0.78386     11.05971         0.141723      0.814155     -0.050603
      0.01585      3.56656     11.02684         0.026227      0.404914      0.102528
     -1.58001      6.68970     11.03776        -0.106929     -0.147315      0.008985
     -3.25007      9.44904     10.97336        -0.052902     -0.007406      0.530722
      4.80217      0.82101     10.98750         0.045349      0.279759      0.174169
      3.26564      3.80409     10.78726        -0.034703     -0.243414      1.039612
      1.62344      6.77468     10.96294         0.356327     -0.304725     -0.151543
      0.18764      9.80627     10.98649        -0.654418     -0.825567      0.207647
      8.06124      0.98121     11.06594         0.863169     -0.476412     -0.405578
      6.57452      3.72190     10.90388        -0.240683      0.290480      0.025351
      4.73511      6.45167     10.89192         0.392684      0.650993      0.041362
      3.09609      9.58373     11.14873         1.241636     -0.324651     -0.948557
     11.31925      0.93785     10.98896         0.397964     -0.322464      0.520869
      9.88131      3.65925     10.88393         0.035203      0.411984      0.462622
      8.21219      6.78906     10.79972         0.036922     -0.199527      1.143441
      6.49015      9.41226     11.04042        -0.002687      0.424294     -0.064753
      6.48572     11.36502     13.50704        -0.074188     -0.424005     -0.147657
     11.43962      2.84621     13.43204         0.181607      0.156464      0.838243
     -3.16117      5.65410     13.34094        -1.098246      0.393200      0.450678
     -4.91659      8.61958     13.50774         0.101867     -1.296323     -1.359683
     -3.44192     11.33484     13.44644         1.548247      0.312923     -0.380517
      1.60623      2.91808     13.47239         0.241641     -0.699623     -0.048421
      0.04724      5.61450     13.27409        -0.037290      0.646543      1.234223
     -1.59650      8.50195     13.39189         0.148890      0.284824      0.347477
      0.01479     11.36407     13.47565        -0.453675     -0.162741      0.317382
      4.91976      2.81243     13.38140        -0.824448      0.169973     -0.332253
      3.32375      5.75314     13.37162         0.229289     -0.882495     -0.285342
      1.67178      8.44694     13.43028         0.397705      1.563770      0.317901
      3.26388     11.36199     13.56496        -0.136068      0.120754     -0.199245
      8.09931      2.81133     13.27557         0.707528      0.695715      1.141366
      6.60344      5.75106     13.26829        -0.201510     -0.710490      0.877540
      4.94451      8.50717     13.41168        -0.546247      0.223663     -0.162128
 -----------------------------------------------------------------------------------
    total drift:                               -0.011892      0.005956     -0.009639


--------------------------------------------------------------------------------------------------------



  FREE ENERGIE OF THE ION-ELECTRON SYSTEM (eV)
  ---------------------------------------------------
  free  energy   TOTEN  =      -596.27135078 eV

  energy  without entropy=     -596.27135078  energy(sigma->0) =     -596.27135078
 


--------------------------------------------------------------------------------------------------------


    POTLOK:  cpu time    0.7852: real time    0.7852


--------------------------------------------------------------------------------------------------------


     LOOP+:  cpu time 1856.8954: real time 1857.2766
    4ORBIT:  cpu time    0.0000: real time    0.0000

 total amount of memory used by VASP MPI-rank0   234685. kBytes
=======================================================================

   base      :      30000. kBytes
   nonlr-proj:      19417. kBytes
   fftplans  :      66973. kBytes
   grid      :      38377. kBytes
   one-center:        108. kBytes
   wavefun   :      79810. kBytes
 
  
  
 General timing and accounting informations for this job:
 ========================================================
  
                  Total CPU time used (sec):     1888.247
                            User time (sec):     1881.455
                          System time (sec):        6.792
                         Elapsed time (sec):     1888.780
  
                   Maximum memory used (kb):      431208.
                   Average memory used (kb):           0.
  
                          Minor page faults:       424184
                          Major page faults:            0
                 Voluntary context switches:         2124
