135
Time=99999.99999996 pbc="T T T" Lattice="13.67086365 0.00000000 0.00000000 0.00000000 13.67086365 0.00000000 0.00000000 0.00000000 13.67086365" energy=-891.99199730 virial="-3.37821080 -5.32022577 2.60494821 -5.32022577 0.26660449 -15.67896356 2.60494821 -15.67896356 -94.52324518" stress="0.01689070 -0.00208229 0.00101956 -0.00208229 0.01831725 -0.00613662 0.00101956 -0.00613662 -0.01878275" Properties=species:S:1:pos:R:3
Ca 0.34795179 5.44881462 12.57175597
Ca 7.29450849 4.44474981 0.08496390
Ca 1.81141490 9.28912146 1.95964393
Ca 7.42932200 0.41274431 9.44513107
Ca 11.82906985 9.61993737 1.27746854
Ca 1.79941171 5.63359493 2.85468623
Ca 10.93651406 0.02783422 10.01863469
Ca 13.46627046 11.06158019 5.21920901
Ca 7.98382171 12.17832301 2.77548511
Ca 7.94245515 9.11491936 1.59469544
Ca 1.93269489 0.47728462 9.62965055
Ca 11.82934192 2.82766870 8.64635132
Ca 8.20978866 3.75383037 10.89083245
Ca 7.10830673 1.44619465 2.94375499
Ca 13.54050633 13.31847086 1.57956628
Ca 10.69145270 7.45178470 7.65914445
Ca 8.20685685 9.53120659 6.50948246
Ca 5.65925899 4.07287026 8.53884011
Ca 3.01601301 3.55753161 11.66761230
Ca 6.37554384 9.44829306 10.68215864
Ca 3.14826591 7.04786037 6.50784547
Ca 9.29346189 8.72766677 10.26402151
Ca 4.88666968 12.33481883 2.16320252
Ca 1.04916376 9.22463621 8.72606900
Ca 4.97085185 9.26743923 0.10438597
Ca 3.70001883 2.45264796 4.89890567
Ca 6.51454820 13.51670749 12.67081676
Si 6.65580660 1.74248163 6.53455821
Si 10.76568673 3.22987196 12.71410503
Si 0.59347153 1.88312593 3.61372803
Si 2.77231529 0.98969121 1.28639796
Si 8.32832229 11.32192229 10.10626740
Si 1.92947268 4.43847917 5.69652885
Si 9.65593975 11.27501736 12.92012312
Si 4.47603895 0.71805708 10.96031941
Si 0.00536949 1.02819049 6.54700793
Si 3.26613845 9.81324523 6.55938296
Si 12.27407485 6.63288149 2.26741243
Si 10.93383157 9.19401006 3.82980749
Si 13.24997062 12.43776298 8.57861872
Si 6.63511090 12.41114930 5.54849122
Si 11.95824750 10.07837513 8.04999626
Si 10.73090066 5.28567644 10.78481071
Si 3.25764054 6.38351321 13.19033870
Si 12.42382819 3.88025732 1.68279752
Si 1.96081187 11.68261561 0.01296557
Si 1.20848670 4.20626176 9.00968500
Si 3.66379613 6.05612530 10.05894817
Si 7.94469661 6.67359327 12.00049670
Si 4.23467966 11.65161688 12.51488379
Si 13.54060583 6.82099267 5.57144748
Si 9.28549550 0.76730642 11.94640722
Si 4.69363203 3.30642703 1.42304811
Si 5.75062570 8.62940952 3.89587994
O 4.93036761 11.93586608 0.11993185
O 1.67251381 1.97404663 2.29695415
O 9.90432925 9.76046468 5.02202699
O 0.52686990 11.25471625 9.58800834
O 11.62453192 11.80218192 8.32727155
O 0.14789632 4.57709366 1.05208823
O 9.58129417 10.83880098 11.30039614
O 9.99035238 9.83784391 2.68699546
O 4.66262462 8.14773045 5.00217595
O 13.09852509 0.09707264 9.66499655
O 11.99591003 6.13645960 11.09484247
O 7.52362657 8.07098925 11.78682873
O 11.32582749 9.24596620 9.33411577
O 8.52344314 10.44249242 0.16083558
O 4.38613141 7.23074936 9.38117066
O 3.85984997 0.35303752 9.41075593
O 10.27157863 4.11439010 9.70527711
O 4.22856192 1.87568601 0.83561961
O 7.23187210 13.34710946 1.38268525
O 3.63354295 0.23525360 2.39249298
O 3.30714108 4.32178587 6.56464823
O 8.80876167 1.59421661 10.06988206
O 0.70658121 13.06110271 7.24812347
O 9.48203560 4.20688175 12.74612777
O 5.25731426 10.00876455 2.73815056
O 8.79890955 7.23432240 7.10827603
O 4.22749599 4.42685449 10.00956836
O 4.46142835 13.19014933 12.03941499
O 2.52732317 3.29824230 8.98320073
O 3.91468386 4.06582105 3.09436039
O 4.49144061 7.20386807 13.35613096
O 5.76418545 1.76116934 10.70348297
O 13.62971818 6.50288403 3.47961404
O 13.37728403 4.06372150 9.83919562
O 7.07711968 2.53170679 4.90456574
O 1.58473774 0.14347168 0.49621779
O 11.07014171 11.20415660 13.65374865
O 11.43684394 2.97494918 0.51839254
O 1.14763488 3.19265687 4.51467915
O 6.20925911 3.32929953 2.00414925
O 10.90675716 7.70817235 3.18834806
O 3.23860779 4.52411595 0.27686909
O 5.62337463 13.10858186 4.21590816
O 0.60555271 4.99652614 6.17026545
O 7.10548702 5.47629644 11.27254918
O 9.93891948 13.12423194 12.77527617
O 1.20862955 1.95548358 7.25262404
O 4.56393147 10.63215696 7.51713623
O 7.98955625 11.77770795 5.29179314
O 2.59301365 6.26747736 11.54369498
O 6.95440186 7.96697989 4.21210791
O 13.40741092 0.72795092 4.57104531
O 12.04060349 6.53243891 6.29643047
O 2.72582453 6.04384321 4.81708647
O 8.06826510 1.57444554 12.70336286
O 13.31886667 9.89394902 7.23915623
O 0.67211565 10.96367552 0.82995859
O 12.04133788 4.01457858 11.90761556
O 6.96224006 11.36090055 11.27797566
O 2.75070199 11.46255677 12.10415511
O 1.89978077 7.36812720 0.19933296
O 8.03885230 6.54276252 0.22531401
O 2.17809648 10.17318357 5.06927250
O 12.48987916 9.70271112 3.71133772
O 6.80021960 0.02619270 6.57477037
O 5.04955197 2.63185550 6.81824431
O 3.03950450 11.33944188 1.11613685
O 8.67518864 12.42852796 9.29236161
O 9.40902864 6.43423216 10.69852434
O 2.14236816 5.48661943 9.22679258
O 3.09759262 8.80163069 7.71161498
O 11.54823412 5.16431366 2.14703252
O 12.34514530 7.57894016 1.19292169
O 6.99952558 2.19509677 8.04408145
O 10.63799036 1.53616251 12.32299949
O 2.97941848 1.39662434 11.45007864
O 12.63931930 2.69091990 3.00699946
O 8.28667479 10.02883783 8.87805943
O 0.79927877 7.60587340 6.46790588
O 12.14449081 1.28140001 7.51120642
O 4.58997292 10.18921642 11.81170635
135
Time=199999.99999918 pbc="T T T" Lattice="13.67086365 0.00000000 0.00000000 0.00000000 13.67086365 0.00000000 0.00000000 0.00000000 13.67086365" energy=-887.63185504 virial="-54.81170429 10.86322517 -6.58077538 10.86322517 -44.21426740 19.71422619 -6.58077538 19.71422619 -27.96391229" stress="-0.00323996 0.00425178 -0.00257566 0.00425178 0.00090779 0.00771599 -0.00257566 0.00771599 0.00726805" Properties=species:S:1:pos:R:3
Ca 2.97830761 13.04876119 10.07442620
Ca 12.92499904 13.08014396 2.83517604
Ca 7.76181480 10.27590032 13.58536516
Ca 4.97198078 8.44294772 7.01946496
Ca 5.38787678 0.09462980 4.38226106
Ca 3.17701833 7.85149182 2.18608988
Ca 3.59426181 11.14435433 12.94006561
Ca 11.88323535 9.76093851 8.51419902
Ca 7.20129615 9.02921158 3.85831102
Ca 4.50059300 8.42616006 11.98566007
Ca 0.75075283 7.66841235 12.90620130
Ca 9.78228840 11.64064892 11.50712817
Ca 6.05995279 4.58975900 6.67055178
Ca 8.48554684 2.81096224 3.85460733
Ca 5.50103309 10.57721807 9.82390325
Ca 2.75522654 4.35221781 3.78344232
Ca 10.99262800 3.20572760 6.09833480
Ca 13.56551040 10.81979114 12.77989717
Ca 8.77643427 6.08467604 6.73632927
Ca 11.11718451 0.80177868 9.15059764
Ca 8.43708948 4.08626391 10.39039075
Ca 13.47317941 3.59893728 13.35814719
Ca 1.12507847 7.72449654 6.00029700
Ca 1.82728700 1.77245403 1.87901138
Ca 1.60687898 11.81733293 6.28280694
Ca 10.27785432 6.54987566 1.10891752
Ca 6.06896260 4.84297709 12.74405330
Si 0.18701874 5.57409106 1.83910665
Si 10.83282695 8.48167448 12.21144109
Si 5.64264005 2.11419996 11.48792876
Si 6.47110198 12.74699641 12.03587348
Si 6.35695160 12.68364345 1.57791521
Si 12.17301797 13.63286641 6.81547162
Si 13.14330727 0.21651899 12.71088853
Si 2.35894073 11.56717216 3.22615685
Si 2.05577678 10.11437205 9.38334506
Si 13.22868830 2.91663495 3.66740342
Si 11.71294250 6.00329836 4.67600737
Si 6.39713672 7.39588943 1.16510941
Si 4.40199162 10.28435869 5.12202774
Si 3.41041207 5.44446604 7.22863152
Si 9.56742449 3.77842271 13.42917400
Si 9.69868139 12.01621241 1.45513480
Si 10.72597382 9.34716636 4.34867975
Si 6.86385410 7.40299396 10.08255551
Si 7.05729560 2.56466846 1.15996054
Si 2.98329177 3.42684248 12.10269765
Si 7.99554429 1.21075892 5.83261694
Si 1.12245354 1.55157551 10.89560245
Si 13.16816183 10.32006135 5.25962420
Si 8.07538512 2.28456739 8.49254917
Si 5.59110139 4.78731360 3.11296504
Si 9.74601478 6.91368406 9.79814371
Si 9.38425728 12.03870751 6.04892748
O 10.03255947 8.45649737 13.52628545
O 10.68092000 7.08296617 11.33038357
O 4.56927460 5.12372105 8.22259451
O 9.03491299 1.74811646 9.71947292
O 6.69881905 0.83731781 12.02247953
O 6.84645907 1.63780750 4.91544074
O 12.00332942 10.50674427 4.29108847
O 8.55532227 2.49095464 1.50460840
O 5.68153165 12.95958918 13.56544040
O 10.45604703 9.94064730 11.06421352
O 9.72991084 8.56573860 3.25621000
O 6.67403107 8.99928424 10.10872195
O 8.05588598 13.02873036 5.19597996
O 2.56954387 8.72573422 12.57604440
O 6.96642158 6.14927858 0.27041974
O 9.21137156 1.91102445 5.56791936
O 1.42020424 2.32603746 3.98601286
O 4.21835240 4.95054525 2.40191631
O 9.50295311 5.32945501 9.13840828
O 9.61941086 7.84965069 8.50645936
O 2.52031127 10.89480580 11.13968607
O 12.48232065 8.47722165 11.84541586
O 8.26850458 12.32618112 2.13465750
O 7.90917531 11.69431495 12.15079462
O 0.56540143 9.50704265 9.38962619
O 1.39761970 6.01335010 2.78501704
O 10.24625950 5.58991611 4.35182647
O 10.01196493 3.24556584 11.97706659
O 5.84736874 2.94106148 13.60004266
O 11.04610325 3.83976189 0.36316535
O 2.48386472 11.51165783 8.57217038
O 4.11669216 1.75279799 11.36626483
O 3.28569107 4.86053480 5.80945378
O 3.77454699 8.48325274 4.71009730
O 4.87616582 7.18574831 1.20700085
O 5.95333820 0.57821738 1.57574242
O 2.90017528 3.06142885 0.35073820
O 7.76103147 3.58491715 7.72864270
O 8.28128816 6.89110635 10.60688790
O 1.57915789 12.85932970 3.18069004
O 1.50069728 3.10400005 10.99327115
O 6.51607800 6.82618285 3.10548864
O 12.43567600 4.55468183 4.97930408
O 5.76664181 6.23296438 10.35580210
O 1.19411408 10.70101066 4.80819385
O 2.10166510 10.41498311 2.18978181
O 4.94039933 12.67617786 11.05769543
O 11.97954525 12.53841686 8.07457540
O 3.62079822 11.63172041 4.50760398
O 0.79838797 1.03605007 9.52191838
O 6.68985470 6.49345818 6.63101317
O 13.65257290 13.18233700 0.71816061
O 6.46491611 3.58256093 2.34631933
O 9.87285819 11.29690921 0.18452442
O 1.31029974 0.66263702 12.16070759
O 6.05472262 3.93369835 4.37053429
O 6.73390275 2.95381703 10.64711757
O 12.55725871 7.58902086 5.30441479
O 9.60323197 10.02428261 5.31910872
O 13.63749147 3.92467061 2.21166901
O 12.47065716 1.80033166 12.36856591
O 13.31176213 9.42013450 6.65107335
O 12.65663262 12.59950723 11.87248830
O 9.43153115 11.41200509 7.45528793
O 3.61840460 9.19143868 8.93886777
O 3.94223630 4.63564124 12.09198342
O 5.40768589 10.22428401 12.52166609
O 3.80627940 10.72931130 6.55904963
O 8.56330663 4.93596239 0.43492497
O 10.64606294 11.85599972 2.62552438
O 11.03469544 12.83827045 6.01293622
O 0.06872747 0.18351280 5.71440858
O 11.54909593 1.44454992 7.12140472
O 1.81357705 6.28016403 7.48991489
O 12.14666189 1.90436705 3.66008725
O 5.85090314 9.63830078 5.27747867
O 5.39437938 11.44806648 2.52963431
O 12.67747257 6.62142815 1.00696231
O 7.40921747 0.94593217 7.74745825
O 0.79123182 5.37366254 0.28466509
O 6.87543671 8.86690697 1.37635074
135
Time=299999.99999840 pbc="T T T" Lattice="13.67086365 0.00000000 0.00000000 0.00000000 13.67086365 0.00000000 0.00000000 0.00000000 13.67086365" energy=-885.66204687 virial="-27.89618730 -3.56992922 23.44902901 -3.56992922 -35.23015377 -25.45983463 23.44902901 -25.45983463 -3.39644218" stress="0.00729456 -0.00139724 0.00917777 -0.00139724 0.00442410 -0.00996478 0.00917777 -0.00996478 0.01688357" Properties=species:S:1:pos:R:3
Ca 6.31482892 5.81780341 1.44769129
Ca 11.64953396 0.17739917 7.25057790
Ca 11.96800754 0.21726474 1.82902516
Ca 11.98302858 9.36559911 2.72290854
Ca 8.49162966 8.55147869 0.56558414
Ca 9.04147187 8.85246424 7.63244721
Ca 10.71830739 6.83717294 10.84497618
Ca 0.53633461 6.07373497 9.76783892
Ca 5.82289752 12.94151149 11.68810872
Ca 11.90319694 4.33726144 13.10737689
Ca 9.16106870 3.41021362 2.22984104
Ca 3.18778449 8.39811505 1.13479406
Ca 7.61837296 1.39607877 6.24877373
Ca 2.18726992 4.54952266 5.92719010
Ca 3.02985023 1.50801336 3.71156126
Ca 5.43837359 9.86039305 7.93223011
Ca 6.45669758 6.75975154 9.61709340
Ca 4.02146625 9.84199827 11.15338255
Ca 0.97689990 12.15031100 6.54475940
Ca 7.73628114 5.13055188 12.20214310
Ca 7.01668614 1.99646279 10.05560284
Ca 13.47641664 8.42194763 8.34964542
Ca 9.52168261 5.89204931 4.77940516
Ca 2.09269437 1.70483044 12.50343567
Ca 5.37435012 10.15839818 13.56292506
Ca 7.13738589 12.59014176 2.04520480
Ca 12.94948202 3.51044258 7.61263769
Si 3.64157192 7.28549471 8.42360111
Si 9.21244875 4.06460073 9.62943804
Si 5.07177960 7.13653502 12.25400287
Si 2.29697968 2.40061955 7.58450522
Si 7.63002650 9.90503229 10.90154227
Si 11.07306391 6.01057360 7.83562488
Si 5.95935369 8.94399372 2.82598385
Si 5.29515284 6.41342293 4.45383019
Si 9.73471317 1.68512162 11.66411091
Si 10.77202971 6.39542207 1.80495702
Si 1.08260210 3.17030054 1.88999900
Si 0.31995380 6.39062407 2.23105916
Si 2.45963561 11.20514192 8.98736495
Si 10.26532679 1.44151923 4.88332977
Si 12.64378653 2.09583882 10.72733913
Si 0.40358261 9.35000429 11.32386907
Si 9.24517147 12.22949763 4.85491028
Si 1.38650237 0.36156134 8.98167718
Si 3.35214886 12.20791049 0.51341011
Si 12.28108719 2.70694891 3.33835816
Si 1.36060494 12.58505655 2.60925492
Si 6.61108363 9.54257876 5.03902015
Si 6.64624916 12.66152818 8.82878635
Si 11.68937916 10.47556875 6.01017191
Si 6.95387007 1.77840951 13.56565461
Si 5.75393066 3.96363767 4.60358721
Si 11.34716439 10.93909954 13.36866184
O 13.27573272 12.34279068 2.45818802
O 0.55480600 0.97982792 10.76270886
O 4.85958311 2.52632268 4.29738725
O 7.50663270 11.44483085 10.18899616
O 8.07643489 9.08063651 9.47342629
O 6.79710065 2.64132106 12.27161005
O 1.53986410 2.92538717 0.39769492
O 2.62652996 1.91680382 5.91800237
O 0.79763320 1.74205994 7.46561313
O 4.50208494 12.76346753 1.23091299
O 10.78519000 2.00360573 2.90079639
O 6.17030509 0.32425005 0.42308008
O 9.01956726 2.51762584 4.85461806
O 11.35656550 7.46636866 8.43420535
O 7.10215072 3.11085656 1.48473893
O 0.49043460 7.77803373 10.77158220
O 2.58769680 1.58956555 8.88978386
O 2.04964820 12.55300066 9.80736353
O 10.68483249 12.36244133 13.47885768
O 0.65568805 9.83980493 9.67688912
O 9.65613265 3.31039514 10.86995276
O 12.38940080 10.28244535 11.82996496
O 2.25568876 7.00296569 9.53047265
O 5.72448428 0.06443118 9.82836101
O 5.26549023 7.40815416 8.27817915
O 13.40669872 1.62276006 2.91040818
O 4.37515726 8.55526093 12.91945624
O 7.73408216 0.05251869 8.25478994
O 9.25469787 0.04965259 4.75022803
O 8.28982161 0.56926501 11.42445213
O 11.77723876 9.98317113 1.00543817
O 0.83739874 7.25782103 0.96693563
O 2.75176797 11.03719144 7.50900278
O 1.86019959 11.35760900 1.46761352
O 5.54921376 10.67847334 5.19251523
O 6.69856675 6.79316501 12.38553384
O 8.39704456 5.50163487 10.26096860
O 11.37387148 1.82506445 6.08529383
O 9.04336341 2.29130946 13.52868584
O 4.07380652 12.17825911 12.58903146
O 1.65391510 9.13531353 12.24876919
O 11.18238588 9.92901951 7.52483216
O 1.99629609 4.16662787 7.96343712
O 10.62526526 4.53390480 9.04885392
O 12.14882814 8.84029245 5.46202771
O 0.07548367 4.50027789 1.79206879
O 6.58032712 8.25066265 1.27685253
O 10.36690313 4.91795765 2.57855397
O 8.83198972 9.59946055 11.99354330
O 6.15705256 5.26534613 3.57218057
O 12.61944035 11.76700159 6.08176533
O 11.90237524 4.01795655 4.06651845
O 9.09272770 11.59100248 6.55529520
O 4.49528554 6.26956018 13.52118098
O 12.38426532 3.44314673 11.52227562
O 1.73973833 3.42136438 3.48973253
O 10.13957984 6.71830145 0.24592644
O 8.15359098 3.42073979 8.68772670
O 4.93403875 7.40529714 10.71913865
O 2.47700912 7.34062626 7.37203041
O 3.76527410 10.80267888 9.59825074
O 4.43225021 5.15881871 5.27596758
O 12.18069248 2.05476780 9.17551411
O 9.94998910 5.77323280 6.72615350
O 10.88302287 11.57863796 4.40500064
O 8.54487479 11.56716487 2.95003773
O 7.67227582 9.39719917 6.13989553
O 6.36163388 9.81738802 11.84902165
O 2.15546356 0.14246122 1.81471778
O 4.88247227 7.57638354 2.92742732
O 12.51078465 5.42873888 7.69269042
O 12.52629552 6.75494662 2.68340432
O 10.17351962 7.62671885 2.80830386
O 7.38839889 8.72958155 3.59307439
O 0.12607580 13.33532507 8.12995092
O 5.67929065 7.54534414 5.40440267
O 11.35559700 1.30390079 11.11193306
O 4.92914357 9.92778959 2.17368773
O 7.08653933 3.85147178 5.41572984
O 5.44305586 11.87581009 7.97997960
O 1.29680963 12.15394643 4.15827784
135
Time=400000.00000008 pbc="T T T" Lattice="13.67086365 0.00000000 0.00000000 0.00000000 13.67086365 0.00000000 0.00000000 0.00000000 13.67086365" energy=-878.58797684 virial="-10.77051905 24.10151941 -11.40842307 24.10151941 -39.70217412 -13.52506132 -11.40842307 -13.52506132 -64.14612356" stress="0.01399741 0.00943315 -0.00446517 0.00943315 0.00267379 -0.00529360 -0.00446517 -0.00529360 -0.00689338" Properties=species:S:1:pos:R:3
Ca 6.94206663 3.15676390 13.43647499
Ca 10.42516142 4.99117239 6.99086797
Ca 13.45034841 9.15556785 2.20607097
Ca 2.69748224 3.64144817 2.91951125
Ca 0.05834171 8.10071489 7.01268544
Ca 6.50661655 2.83084750 5.03865124
Ca 8.26818417 0.69721312 3.26912010
Ca 10.09495432 8.49178642 0.66824163
Ca 6.87162000 8.22949539 7.91788616
Ca 3.10476544 3.97718957 8.26790993
Ca 12.92211606 8.58286608 11.93818999
Ca 10.01245813 5.52275675 10.87239988
Ca 10.83641451 10.89081704 8.78859722
Ca 2.21173908 11.73173089 0.01974094
Ca 6.86250009 3.51458875 9.23969551
Ca 0.58135259 2.84884370 11.13685739
Ca 3.50624775 9.84594250 9.66003475
Ca 12.96000549 12.47926015 2.78150414
Ca 11.68487010 4.55463448 2.87729093
Ca 6.80108886 12.76822675 11.56417456
Ca 8.22704898 5.82751865 5.39289161
Ca 12.17991304 11.47419767 13.41813737
Ca 11.18292940 8.68294718 4.07575978
Ca 6.76076363 10.72690487 4.62703584
Ca 3.31243264 7.98247838 3.23613164
Ca 7.27721570 6.24789972 12.96594022
Ca 11.27671058 0.64906887 8.81438650
Si 5.05076320 12.18756931 7.48765689
Si 1.11398201 4.31200192 5.02326700
Si 10.09885798 1.53338403 12.63073760
Si 4.16302188 5.71228076 5.60946102
Si 2.24945463 7.03289173 11.62556261
Si 4.52292727 2.93428361 11.57572777
Si 1.57023202 13.11096311 10.59639715
Si 7.83493711 11.22243573 1.44418795
Si 5.02278280 11.14886189 0.05308590
Si 7.95340766 12.83024750 8.31303403
Si 0.46932815 6.25596947 3.54917988
Si 0.93296046 1.29528145 8.19091275
Si 13.49195421 11.16763349 10.16401823
Si 1.96545822 10.26022901 5.35322793
Si 4.70906854 9.94118823 6.31005128
Si 9.00705242 2.43729638 7.36862290
Si 7.30589311 4.10457679 2.65196804
Si 11.56469388 1.38951743 0.81994758
Si 9.16627876 8.49155892 10.68372715
Si 11.09699321 0.82003773 5.05633859
Si 4.88127498 1.53423925 9.17497249
Si 2.90109496 6.98033425 8.69211612
Si 10.48506893 11.49270517 4.78066926
Si 4.66307753 8.49303717 0.63744631
Si 10.86761005 8.02684094 7.11938578
Si 0.81976206 1.38402456 5.21211122
Si 6.82195804 8.48653156 2.11917134
O 13.39485892 0.84388362 9.04812929
O 4.49256508 8.59592239 8.08506499
O 13.54224870 10.66712418 11.57339179
O 10.92883524 12.90810392 5.49580075
O 12.15549245 6.26247837 7.18227572
O 0.91747478 2.91636668 8.56521501
O 8.22345494 3.46023990 6.39922801
O 0.89859551 9.20422816 4.99139662
O 8.44911912 1.09229729 7.85673939
O 5.79688111 1.91643033 11.88047227
O 8.43798839 7.33084726 11.08771287
O 5.30734330 4.07255553 10.44898023
O 0.91350073 0.67826660 6.66186762
O 0.73834983 7.05113851 11.91175776
O 3.31642963 7.76208627 10.98113157
O 9.49172632 8.46903252 8.27212989
O 4.42856294 1.73154977 7.70099200
O 4.51127391 6.89791717 4.68579414
O 9.90763465 0.00274619 11.42498312
O 9.11087933 6.48717318 12.65424882
O 0.75792675 4.61389270 3.37009789
O 3.68918859 1.97779388 10.34035799
O 12.38726000 12.13687025 9.50244593
O 2.13580748 0.30744670 9.20600000
O 5.17079761 7.84190950 2.18944622
O 7.96546778 7.82032089 3.39357342
O 5.04155035 9.59829346 12.73176009
O 11.60673714 2.66218353 1.97018715
O 12.58975937 0.06386076 1.29546319
O 8.77919715 4.45869722 3.30057699
O 7.31054700 8.33725070 0.52450243
O 4.49502114 13.17583576 8.93312608
O 11.93815922 9.14828715 7.25947791
O 9.84732087 0.94475746 0.55743224
O 5.25883428 4.46452543 5.85884105
O 4.06928052 12.15369936 13.10720847
O 1.16520132 13.31644265 12.05352926
O 9.19303510 11.17487926 3.86667838
O 2.99622705 4.49998275 5.09156067
O 6.56974654 11.72502358 0.23138957
O 10.75930104 1.44292200 6.43554463
O 10.08885695 7.25202332 5.68630763
O 11.74388887 1.86902391 12.85590443
O 11.66771337 11.09133696 3.67271369
O 2.17623514 5.64893085 9.54638600
O 10.19285755 1.40448557 3.74391934
O 5.98467395 9.24173162 5.98741466
O 9.34191796 10.85248944 0.51650801
O 7.01688356 2.40223388 2.15585025
O 10.12117028 3.10724451 8.18275379
O 4.33575822 10.74592577 8.01868298
O 3.50714043 9.91138617 5.18212640
O 7.21409451 5.12294606 1.12033655
O 6.17344874 13.09499892 7.34140066
O 0.29832842 10.52667090 0.65608580
O 6.38473640 1.51404804 9.66233257
O 9.14342895 12.18124452 7.85225412
O 0.92245385 5.87891351 5.27246771
O 1.67783334 1.12127509 3.91434616
O 1.38345004 6.86642674 2.47920638
O 12.31959702 8.85883171 0.70831114
O 12.49682770 6.91963346 3.13780966
O 7.30826087 6.03849856 7.19916794
O 2.06577241 11.61818105 4.55037813
O 9.80633812 2.89272725 11.56007779
O 1.55956049 8.61960150 8.78702794
O 3.76971412 10.86327419 1.39957699
O 8.03118875 9.48868450 10.23937083
O 7.09110677 12.29089812 9.50089663
O 6.26524214 4.83259709 3.55644153
O 13.08160278 0.22238425 4.92952115
O 1.28907242 11.56381217 9.63946114
O 3.08912226 7.89597510 0.96456391
O 6.40352060 10.25441199 2.34062187
O 4.47668428 3.65408067 13.03515250
O 4.96299818 11.78260425 5.74922261
O 10.37950158 10.51221378 6.23107331
O 3.06617411 6.34206218 7.00283978
O 10.58236008 8.77602298 11.55176340
O 0.30913199 2.90680407 4.84596370
O 8.00435826 12.65028708 2.05133235
135
Time=500000.00000301 pbc="T T T" Lattice="13.67086365 0.00000000 0.00000000 0.00000000 13.67086365 0.00000000 0.00000000 0.00000000 13.67086365" energy=-893.87619806 virial="-64.31648335 15.38110070 26.24163095 15.38110070 -33.38861619 -5.95178181 26.24163095 -5.95178181 -67.14786853" stress="-0.00696006 0.00602004 0.01027077 0.00602004 0.00514486 -0.00232948 0.01027077 -0.00232948 -0.00806824" Properties=species:S:1:pos:R:3
Ca 10.82980626 1.34794403 11.86056577
Ca 1.77010036 2.09541713 4.13324760
Ca 13.57751124 6.82473661 1.15774474
Ca 2.34835170 5.48724203 7.26194148
Ca 9.24103864 0.23650815 1.50100602
Ca 13.14559126 12.24706311 13.49969271
Ca 13.55921988 13.64167409 6.77396726
Ca 5.50767850 3.63238550 6.66698310
Ca 3.81155299 12.44067265 3.19067898
Ca 4.28112082 12.25327509 9.79520808
Ca 1.53312522 9.67182870 11.50042847
Ca 0.91023040 3.71468917 11.67035489
Ca 0.73184561 10.34807701 2.04725004
Ca 7.01182557 1.36079412 7.38058587
Ca 8.62005457 5.85926026 13.11190885
Ca 8.28162616 4.12741967 10.08036678
Ca 5.37800123 7.26263165 9.43129206
Ca 5.15762080 3.47443917 1.34021707
Ca 6.52990060 12.13034514 0.53681341
Ca 8.88885967 6.17920178 3.65950255
Ca 13.32316366 9.92911334 6.00670013
Ca 7.77629521 11.82336692 10.84013754
Ca 12.94977883 7.93572041 8.87363079
Ca 11.53876886 1.32393544 3.31410267
Ca 7.68015125 10.66953397 4.93632997
Ca 4.04897420 7.53015160 0.59199117
Ca 9.41945421 8.84715754 6.45131103
Si 5.62253365 5.03388132 11.75839658
Si 2.74397895 6.82150267 11.38243698
Si 12.29334321 8.11701912 3.58791875
Si 10.47076423 12.83339960 9.12688191
Si 4.70189419 10.20526613 11.81396806
Si 2.49881578 11.21343352 13.11651435
Si 6.13402623 1.89447200 10.95839359
Si 11.53199174 8.72868361 12.49755006
Si 2.25582125 7.09640414 4.35802240
Si 12.25260555 11.31377421 8.38398198
Si 8.67996877 2.39085326 3.97915991
Si 1.61550081 3.85161590 1.15972995
Si 11.04583164 5.47921040 8.03662608
Si 7.17983690 8.18268862 2.09958229
Si 6.10359008 0.71059826 2.64786654
Si 11.19191046 6.06821403 10.98301767
Si 0.11993525 12.90590219 3.38484418
Si 5.59533449 6.78674995 5.71811606
Si 7.69147574 12.33455279 7.78036026
Si 10.13189302 3.01313811 0.72483324
Si 13.58758010 6.52939163 5.97573582
Si 5.13048188 5.79998975 3.49044035
Si 8.94066313 3.52843859 6.92255846
Si 12.60183877 2.55039091 8.83519206
Si 4.30977928 1.80619705 9.07224046
Si 9.62684455 11.19586223 13.41064672
Si 4.18704735 0.45473466 5.45114118
O 4.36567600 11.57981847 12.66508780
O 12.27663389 8.50724954 0.19240069
O 8.13931675 8.26839530 3.37868451
O 9.41937710 12.70261830 7.81721821
O 13.49510796 12.93124896 1.74878740
O 0.93067507 4.81170541 13.61803646
O 10.62545299 6.31379329 9.32547378
O 12.45280728 9.16764532 11.43007303
O 1.95123077 6.77369373 2.81151828
O 6.64827643 5.60480526 10.42256634
O 3.13344960 3.68146796 0.60796749
O 12.87788099 2.42774007 10.44821488
O 4.17073287 5.38484851 11.31741052
O 4.69313357 8.85105254 12.38449273
O 1.29056583 11.83641926 3.72838906
O 5.77578915 5.92415712 1.99521346
O 9.05992050 2.09710258 7.79753001
O 12.92886369 8.18258673 5.81377593
O 7.67288991 7.34056579 0.79826494
O 12.51063247 6.52083032 3.23403588
O 1.60599217 5.47601261 11.18162968
O 8.31328330 10.77822205 0.81950385
O 5.99059520 10.50468648 10.76470285
O 7.86742441 13.17007962 6.18089470
O 6.75927980 0.66541973 11.86477797
O 4.57692233 1.01816517 10.72209368
O 8.02564731 10.54029908 6.92810625
O 12.24277826 1.34663491 7.90915608
O 12.01150084 9.57418930 8.03029249
O 4.95359549 6.17798666 7.27063593
O 10.59179891 11.49020757 9.72654089
O 0.27288643 6.78570709 7.66054438
O 2.75987774 7.85514090 10.12225064
O 9.76130115 4.73797791 11.70487750
O 8.46718808 3.29319727 5.32106647
O 1.84193130 8.53252668 4.77120391
O 9.21957602 1.81790150 13.47618607
O 11.56669460 3.90041542 8.49643226
O 7.05316476 1.96388894 3.30135946
O 5.68987230 8.80562168 1.99099023
O 10.08546756 4.68106860 0.71651384
O 4.67997319 1.01295206 3.28585014
O 7.37051288 4.30575767 7.54338585
O 11.55595739 12.65882399 7.90717661
O 10.51766579 9.91860397 12.84242806
O 6.47308401 0.90527527 0.88571979
O 4.45572163 6.89904369 4.51815099
O 2.24828794 11.85518500 1.04759997
O 4.89967483 1.38960922 7.12959067
O 0.07656122 0.68076025 4.06132469
O 1.25638859 11.86473600 11.99529079
O 6.12155888 12.41502545 2.60621894
O 12.95250068 9.57937563 3.63126279
O 1.19752533 5.36617290 5.50192620
O 10.74562993 7.91147749 3.93389496
O 0.82844125 3.18233833 2.29525077
O 5.49609737 3.38110086 11.72086514
O 4.00229936 4.48260764 3.89389335
O 6.49951362 5.33522910 13.12261285
O 1.66066725 9.86238270 13.34615459
O 2.47027426 7.73466363 12.76698771
O 2.61460112 1.14865835 5.75750695
O 6.51316531 7.87776998 6.23948831
O 5.62100048 2.58500320 9.19254019
O 6.38302425 12.59633456 8.94498185
O 11.61021727 2.16249513 1.36519665
O 4.73266714 12.68253567 5.36360731
O 9.35599389 3.25957746 2.85984020
O 9.10715829 12.16803904 12.19442948
O 12.82862794 12.09600561 4.32898429
O 12.67884390 5.53982353 11.16193394
O 3.50378919 10.62683371 10.52309917
O 9.51073963 5.01142637 7.42129673
O 2.76385770 2.41308359 8.77083994
O 12.06475903 6.24269240 6.69375982
O 6.69021011 5.48790792 4.43472352
O 0.13059232 11.79341712 7.90443753
O 11.02191842 12.18381647 0.66358381
O 9.57939394 0.88493632 4.31694676
O 10.84087449 7.36308164 11.76525231
O 9.74699409 0.16672740 10.32987208
135
Time=600000.00000594 pbc="T T T" Lattice="13.67086365 0.00000000 0.00000000 0.00000000 13.67086365 0.00000000 0.00000000 0.00000000 13.67086365" energy=-882.56296473 virial="-1.38080228 -32.59289067 -5.21901028 -32.59289067 -29.20815474 7.74649776 -5.21901028 7.74649776 -27.41937532" stress="0.01767247 -0.01275660 -0.00204268 -0.01275660 0.00678106 0.00303192 -0.00204268 0.00303192 0.00748118" Properties=species:S:1:pos:R:3
Ca 0.75030756 0.40608831 5.15786277
Ca 4.84000617 6.39321264 9.76885120
Ca 4.06467628 0.63147746 11.66199501
Ca 12.18999440 0.73882790 13.34925017
Ca 3.61398231 1.32810761 3.41947597
Ca 11.23159202 9.30438012 6.30107275
Ca 0.65772779 12.21805117 13.19211748
Ca 6.84390831 6.87737043 13.08669829
Ca 9.84894418 12.69115068 4.08973683
Ca 12.35396229 5.12190024 4.75469427
Ca 3.24802376 10.65812140 0.87151435
Ca 13.27808781 3.57829112 2.33819960
Ca 12.03894797 11.26756765 9.86850278
Ca 1.86659328 2.66662027 7.92271405
Ca 2.62988514 10.08458599 4.25628533
Ca 4.93663032 10.42811344 10.86901851
Ca 6.42522036 10.19299716 5.43709635
Ca 7.42879980 11.85808101 13.37407378
Ca 7.25846619 3.56575232 4.22611969
Ca 7.06480293 1.62656210 2.31485289
Ca 9.48080610 5.75043929 1.85302278
Ca 0.71616414 7.18918607 6.65761825
Ca 5.56992759 13.58008225 6.13124888
Ca 1.55357393 6.81002314 12.11559450
Ca 12.61015755 11.51380133 3.50339255
Ca 4.53700866 7.06520744 3.55653523
Ca 8.54079760 8.56526509 8.64180793
Si 1.96021039 8.83707850 9.01904384
Si 2.27778208 4.58597174 5.58790649
Si 5.09675739 11.78574190 2.58579093
Si 1.41819301 6.03060439 3.49729498
Si 1.48272666 13.57445263 1.93016265
Si 5.89519365 2.23755707 8.89060257
Si 6.29428143 9.73367552 8.86483005
Si 2.27711482 9.49755073 11.55849202
Si 0.70108192 7.52484989 1.65504545
Si 10.65339330 11.53877334 0.27730951
Si 4.02452826 11.05543214 7.25293935
Si 10.65596995 6.76792042 8.42659599
Si 5.64856569 3.75056318 11.97877853
Si 8.41177423 1.18635629 12.79197672
Si 12.78430083 7.12272147 9.45066397
Si 8.25887826 4.66601654 7.92977135
Si 7.00918666 9.61530624 1.71506167
Si 0.27503174 10.51571203 6.53108601
Si 9.85435095 12.14777425 7.38546734
Si 0.70204920 1.16046189 10.39090484
Si 7.10679842 7.10263671 3.16444112
Si 10.29656088 8.80307693 3.03385791
Si 10.32806664 2.89727201 2.26418647
Si 12.66391937 13.66258940 8.33915128
Si 3.42613974 2.68818977 10.37068400
Si 8.12235321 3.47863233 13.53253930
Si 12.00203163 0.37425386 2.41036237
O 10.73399422 12.40194501 6.15469571
O 4.39250807 3.16302631 9.00170795
O 3.46307332 12.59049038 7.07912640
O 13.12977858 10.75091457 7.99971884
O 0.21384789 12.37704134 2.20445776
O 2.70967199 3.11032658 4.90392627
O 5.03147122 10.96754867 8.56654071
O 3.53211223 8.89101258 12.28351249
O 0.27271463 8.21331339 8.60524998
O 8.74438226 3.07537361 2.31598340
O 7.23251953 2.90743245 8.09428695
O 0.96078829 8.81552059 11.92673801
O 2.50484554 10.14429911 9.75508225
O 10.31071488 10.94302179 8.42699157
O 7.67134495 1.96435133 0.29276888
O 11.06042404 3.19202114 3.75582968
O 1.96336983 10.77071906 12.42178266
O 6.92821363 5.41364589 8.26480452
O 11.99153005 13.66274107 3.86978678
O 12.08790562 12.12309468 13.36281917
O 0.12015614 0.65981855 7.20183751
O 3.97085956 2.83882354 12.19785728
O 1.72620833 4.78022603 6.95166567
O 2.45216860 1.39912407 10.27823350
O 0.67304154 4.67765493 4.75214868
O 6.01408736 12.70622324 4.01074258
O 9.66882522 0.75248292 0.14806756