 vasp.5.4.4.18Apr17-6-g9f103f2a35 (build Oct 31 2019 15:01:46) complex          
  
 executed on             LinuxIFC date 2024.04.19  15:31:38
 running on   52 total cores
 distrk:  each k-point on   52 cores,    1 groups
 distr:  one band on NCORES_PER_BAND=  13 cores,    4 groups


--------------------------------------------------------------------------------------------------------


 INCAR:
 POTCAR:    PAW_PBE Sc_sv 07Sep2000               
 POTCAR:    PAW_PBE F 08Apr2002                   
 POTCAR:    PAW_PBE C 08Apr2002                   
 POTCAR:    PAW_PBE Sc_sv 07Sep2000               
   VRHFIN =Sc: 3p4s3d                                                           
   LEXCH  = PE                                                                  
   EATOM  =  1273.2868 eV,   93.5839 Ry                                         
                                                                                
   TITEL  = PAW_PBE Sc_sv 07Sep2000                                             
   LULTRA =        F    use ultrasoft PP ?                                      
   IUNSCR =        1    unscreen: 0-lin 1-nonlin 2-no                           
   RPACOR =    2.200    partial core radius                                     
   POMASS =   44.956; ZVAL   =   11.000    mass and valenz                      
   RCORE  =    2.500    outmost cutoff radius                                   
   RWIGS  =    2.700; RWIGS  =    1.429    wigner-seitz radius (au A)           
   ENMAX  =  222.660; ENMIN  =  166.995 eV                                      
   RCLOC  =    1.805    cutoff for local pot                                    
   LCOR   =        T    correct aug charges                                     
   LPAW   =        T    paw PP                                                  
   EAUG   =  443.063                                                            
   RMAX   =    2.551    core radius for proj-oper                               
   RAUG   =    1.300    factor for augmentation sphere                          
   RDEP   =    2.650    radius for radial grids                                 
   RDEPT  =    2.038    core radius for aug-charge                              
                                                                                
   Atomic configuration                                                         
    8 entries                                                                   
     n  l   j            E        occ.                                          
     1  0  0.50     -4394.2533   2.0000                                         
     2  0  0.50      -471.0040   2.0000                                         
     2  1  1.50      -384.9788   6.0000                                         
     3  0  0.50       -52.1410   2.0000                                         
     4  0  0.50        -3.5584   1.0000                                         
     3  1  1.50       -30.8841   6.0000                                         
     3  2  2.50        -1.3655   2.0000                                         
     4  3  2.50        -1.3606   0.0000                                         
   Description                                                                  
     l       E           TYP  RCUT    TYP  RCUT                                 
     0    -52.1409870     23  1.800                                             
     0     -3.5583698     23  2.500                                             
     1    -30.8840697     23  2.300                                             
     1      4.0817478     23  2.300                                             
     2     -1.3655397     23  2.500                                             
     2      0.3564476     23  2.500                                             
  local pseudopotential read in
  partial core-charges read in
  partial kinetic energy density read in
  atomic valenz-charges read in
  non local Contribution for L=           0  read in
    real space projection operators read in
  non local Contribution for L=           0  read in
    real space projection operators read in
  non local Contribution for L=           1  read in
    real space projection operators read in
  non local Contribution for L=           1  read in
    real space projection operators read in
  non local Contribution for L=           2  read in
    real space projection operators read in
  non local Contribution for L=           2  read in
    real space projection operators read in
    PAW grid and wavefunctions read in
 
   number of l-projection  operators is LMAX  =           6
   number of lm-projection operators is LMMAX =          18
 
 POTCAR:    PAW_PBE F 08Apr2002                   
   VRHFIN =F: s2p5                                                              
   LEXCH  = PE                                                                  
   EATOM  =   659.6475 eV,   48.4827 Ry                                         
                                                                                
   TITEL  = PAW_PBE F 08Apr2002                                                 
   LULTRA =        F    use ultrasoft PP ?                                      
   IUNSCR =        1    unscreen: 0-lin 1-nonlin 2-no                           
   RPACOR =    1.200    partial core radius                                     
   POMASS =   18.998; ZVAL   =    7.000    mass and valenz                      
   RCORE  =    1.520    outmost cutoff radius                                   
   RWIGS  =    1.500; RWIGS  =    0.794    wigner-seitz radius (au A)           
   ENMAX  =  400.000; ENMIN  =  300.000 eV                                      
   ICORE  =        2    local potential                                         
   LCOR   =        T    correct aug charges                                     
   LPAW   =        T    paw PP                                                  
   EAUG   =  613.614                                                            
   RMAX   =    1.555    core radius for proj-oper                               
   RAUG   =    1.300    factor for augmentation sphere                          
   RDEP   =    1.539    radius for radial grids                                 
   RDEPT  =    1.299    core radius for aug-charge                              
                                                                                
   Atomic configuration                                                         
    4 entries                                                                   
     n  l   j            E        occ.                                          
     1  0  0.50      -663.3661   2.0000                                         
     2  0  0.50       -29.8995   2.0000                                         
     2  1  0.50       -11.1114   5.0000                                         
     3  2  1.50       -10.8847   0.0000                                         
   Description                                                                  
     l       E           TYP  RCUT    TYP  RCUT                                 
     0    -29.8995018     23  1.200                                             
     0     -9.5240782     23  1.200                                             
     1    -11.1113914     23  1.520                                             
     1      1.3605826     23  1.520                                             
     2    -10.8846608      7  1.500                                             
  local pseudopotential read in
  partial core-charges read in
  partial kinetic energy density read in
  atomic valenz-charges read in
  non local Contribution for L=           0  read in
    real space projection operators read in
  non local Contribution for L=           0  read in
    real space projection operators read in
  non local Contribution for L=           1  read in
    real space projection operators read in
  non local Contribution for L=           1  read in
    real space projection operators read in
    PAW grid and wavefunctions read in
 
   number of l-projection  operators is LMAX  =           4
   number of lm-projection operators is LMMAX =           8
 
 POTCAR:    PAW_PBE C 08Apr2002                   
   VRHFIN =C: s2p2                                                              
   LEXCH  = PE                                                                  
   EATOM  =   147.1560 eV,   10.8157 Ry                                         
                                                                                
   TITEL  = PAW_PBE C 08Apr2002                                                 
   LULTRA =        F    use ultrasoft PP ?                                      
   IUNSCR =        1    unscreen: 0-lin 1-nonlin 2-no                           
   RPACOR =    1.200    partial core radius                                     
   POMASS =   12.011; ZVAL   =    4.000    mass and valenz                      
   RCORE  =    1.500    outmost cutoff radius                                   
   RWIGS  =    1.630; RWIGS  =    0.863    wigner-seitz radius (au A)           
   ENMAX  =  400.000; ENMIN  =  300.000 eV                                      
   ICORE  =        2    local potential                                         
   LCOR   =        T    correct aug charges                                     
   LPAW   =        T    paw PP                                                  
   EAUG   =  644.873                                                            
   DEXC   =    0.000                                                            
   RMAX   =    1.529    core radius for proj-oper                               
   RAUG   =    1.300    factor for augmentation sphere                          
   RDEP   =    1.501    radius for radial grids                                 
   RDEPT  =    1.300    core radius for aug-charge                              
                                                                                
   Atomic configuration                                                         
    4 entries                                                                   
     n  l   j            E        occ.                                          
     1  0  0.50      -273.3789   2.0000                                         
     2  0  0.50       -13.7508   2.0000                                         
     2  1  0.50        -5.2854   2.0000                                         
     3  2  1.50        -5.4423   0.0000                                         
   Description                                                                  
     l       E           TYP  RCUT    TYP  RCUT                                 
     0    -13.7508458     23  1.200                                             
     0     -8.2022199     23  1.200                                             
     1     -5.2854383     23  1.500                                             
     1     34.0145650     23  1.500                                             
     2     -5.4423304      7  1.500                                             
  local pseudopotential read in
  partial core-charges read in
  partial kinetic energy density read in
  atomic valenz-charges read in
  non local Contribution for L=           0  read in
    real space projection operators read in
  non local Contribution for L=           0  read in
    real space projection operators read in
  non local Contribution for L=           1  read in
    real space projection operators read in
  non local Contribution for L=           1  read in
    real space projection operators read in
    PAW grid and wavefunctions read in
 
   number of l-projection  operators is LMAX  =           4
   number of lm-projection operators is LMMAX =           8
 
 Optimization of the real space projectors (new method)

 maximal supplied QI-value         = 15.12
 optimisation between [QCUT,QGAM] = [ 12.55, 25.10] = [ 44.09,176.36] Ry 
 Optimized for a Real-space Cutoff    1.56 Angstroem

   l    n(q)    QCUT    max X(q) W(low)/X(q) W(high)/X(q)  e(spline) 
   0     12    12.548     2.962    0.12E-05    0.11E-06    0.46E-07
   0     12    12.548    26.414    0.30E-04    0.15E-05    0.76E-07
   1     11    12.548     3.969    0.45E-05    0.12E-05    0.60E-07
   1     11    12.548     5.137    0.15E-04    0.18E-04    0.36E-06
   2     11    12.548   143.970    0.20E-03    0.19E-03    0.76E-06
   2     11    12.548   121.201    0.20E-03    0.19E-03    0.76E-06
 Optimization of the real space projectors (new method)

 maximal supplied QI-value         = 24.76
 optimisation between [QCUT,QGAM] = [ 12.38, 25.00] = [ 42.90,175.06] Ry 
 Optimized for a Real-space Cutoff    1.16 Angstroem

   l    n(q)    QCUT    max X(q) W(low)/X(q) W(high)/X(q)  e(spline) 
   0      9    12.378    14.049    0.11E-03    0.38E-05    0.23E-06
   0      9    12.378     8.945    0.15E-03    0.56E-05    0.30E-06
   1      8    12.378     7.086    0.18E-03    0.14E-03    0.29E-06
   1      8    12.378     6.747    0.16E-03    0.13E-03    0.26E-06
 Optimization of the real space projectors (new method)

 maximal supplied QI-value         = 25.13
 optimisation between [QCUT,QGAM] = [ 12.32, 24.88] = [ 42.47,173.37] Ry 
 Optimized for a Real-space Cutoff    1.16 Angstroem

   l    n(q)    QCUT    max X(q) W(low)/X(q) W(high)/X(q)  e(spline) 
   0      9    12.315   115.676    0.19E-03    0.80E-05    0.34E-06
   0      9    12.315    87.132    0.19E-03    0.82E-05    0.34E-06
   1      8    12.315     4.429    0.18E-03    0.13E-03    0.22E-06
   1      8    12.315     2.733    0.14E-03    0.10E-03    0.18E-06
  PAW_PBE Sc_sv 07Sep2000               :
 energy of atom  1       EATOM=-1273.2868
 kinetic energy error for atom=    0.0014 (will be added to EATOM!!)
  PAW_PBE F 08Apr2002                   :
 energy of atom  2       EATOM= -659.6475
 kinetic energy error for atom=    0.0256 (will be added to EATOM!!)
  PAW_PBE C 08Apr2002                   :
 energy of atom  3       EATOM= -147.1560
 kinetic energy error for atom=    0.0057 (will be added to EATOM!!)
 
 
 POSCAR: Sc  F  C                                
  positions in cartesian coordinates
  No initial velocities read in
 exchange correlation table for  LEXCH =        8
   RHO(1)=    0.500       N(1)  =     2000
   RHO(2)=  100.500       N(2)  =     4000
 


--------------------------------------------------------------------------------------------------------


 ion  position               nearest neighbor table
   1  0.082  0.169  0.448-  50 2.12  61 2.18  49 2.27  70 2.28  66 2.35  65 2.38  17 3.14  18 3.20
                            29 3.27  16 3.27   2 3.27   6 3.28   5 3.30  13 3.31   4 3.32
   2  0.085  0.419  0.457-  71 2.14  51 2.29  66 2.29  62 2.29  67 2.29  50 2.46  18 3.13  19 3.14
                            30 3.21   7 3.21  14 3.22   3 3.23   6 3.26   1 3.27  13 3.32
   3  0.083  0.664  0.456-  63 2.11  68 2.21  67 2.22  51 2.26  72 2.27  52 2.33  20 3.01  31 3.09
                             7 3.19   2 3.23  19 3.23  14 3.27   4 3.31   8 3.32  15 3.34
   4  0.082  0.916  0.451-  49 2.12  52 2.16  64 2.16  69 2.31  65 2.31  68 2.34  32 3.17  20 3.19
                            17 3.19   5 3.22  16 3.26  15 3.27   3 3.31   8 3.32   1 3.32
   5  0.329  0.160  0.448-  69 2.21  54 2.23  70 2.28  74 2.30  53 2.32  49 2.38  17 3.11   4 3.22
                             8 3.24   9 3.25  10 3.28   1 3.30  21 3.30  22 3.34   6 3.35
   6  0.333  0.418  0.449-  55 2.10  50 2.18  75 2.23  54 2.26  71 2.27  70 2.35  23 3.14  11 3.20
                            18 3.23  22 3.24   2 3.26  10 3.28   1 3.28   7 3.31   5 3.35
   7  0.327  0.667  0.455-  51 2.11  55 2.20  72 2.23  76 2.26  71 2.26  56 2.33  23 3.11  19 3.14
                            24 3.18   3 3.19   2 3.21   8 3.23  11 3.26   6 3.31  12 3.43
   8  0.336  0.917  0.454-  56 2.06  52 2.17  53 2.23  69 2.25  73 2.26  72 2.33  20 3.10  21 3.15
                            24 3.19   7 3.23   5 3.24  12 3.29   9 3.30   4 3.32   3 3.32
   9  0.582  0.173  0.454-  74 2.14  57 2.17  53 2.22  58 2.22  73 2.32  78 2.39  26 3.08  10 3.13
                            21 3.15  25 3.21  14 3.24   5 3.25  13 3.29   8 3.30  12 3.31
  10  0.578  0.410  0.451-  54 2.10  59 2.20  58 2.21  75 2.25  74 2.28  79 2.33   9 3.13  22 3.15
                            26 3.17  27 3.18   6 3.28   5 3.28  11 3.36  15 3.36  14 3.38
  11  0.573  0.663  0.449-  60 2.10  55 2.26  76 2.26  59 2.26  75 2.29  80 2.51  23 3.11   6 3.20
                            27 3.24  28 3.26   7 3.26  12 3.34  15 3.35  10 3.36  16 3.39
  12  0.590  0.926  0.451-  60 2.14  57 2.15  56 2.24  77 2.25  73 2.28  76 2.38  25 3.15  13 3.17
                            28 3.19  16 3.27  24 3.28   8 3.29   9 3.31  11 3.34   7 3.43
  13  0.830  0.169  0.454-  62 2.09  61 2.19  78 2.21  57 2.25  66 2.27  77 2.41  29 3.14  14 3.16
                            25 3.17  12 3.17  30 3.26   9 3.29   1 3.31   2 3.32  16 3.33
  14  0.836  0.412  0.456-  58 2.20  62 2.24  79 2.25  78 2.26  63 2.30  67 2.32  31 3.09  26 3.12
                            13 3.16  30 3.17   2 3.22   9 3.24   3 3.27  10 3.38  15 3.41
  15  0.831  0.669  0.455-  80 2.15  59 2.19  68 2.26  63 2.29  64 2.29  79 2.34  27 3.01  31 3.10
                            32 3.19  16 3.24   4 3.27   3 3.34  11 3.35  10 3.36  14 3.41
  16  0.835  0.917  0.455-  61 2.17  64 2.22  65 2.23  80 2.25  77 2.33  60 2.49  29 3.06  32 3.08
                            28 3.19  15 3.24   4 3.26  12 3.27   1 3.27  13 3.33  11 3.39
  17  0.171  0.094  0.543-  37 2.11  70 2.11  33 2.22  65 2.26  36 2.27  69 2.29  18 3.10   5 3.11
                             1 3.14   4 3.19  22 3.25  32 3.26  21 3.32  29 3.33
  18  0.168  0.328  0.547-  33 2.06  34 2.23  38 2.29  70 2.30  66 2.31  71 2.32  17 3.10   2 3.13
                             1 3.20   6 3.23  22 3.24  23 3.28  19 3.29  30 3.33  29 3.34
  19  0.172  0.581  0.552-  35 2.14  34 2.23  39 2.29  67 2.29  72 2.31  71 2.32   7 3.14   2 3.14
                            23 3.20   3 3.23  30 3.27  20 3.29  18 3.29  24 3.29  31 3.42
  20  0.165  0.827  0.545-  72 2.15  35 2.23  68 2.24  36 2.26  69 2.38  40 2.47   3 3.01   8 3.10
                             4 3.19  31 3.27  19 3.29  24 3.30  32 3.31  21 3.33
  21  0.418  0.082  0.549-  41 2.10  40 2.16  37 2.26  74 2.28  73 2.29  69 2.32   8 3.15   9 3.15
                            25 3.22  24 3.28  26 3.28   5 3.30  17 3.32  20 3.33  22 3.36
  22  0.420  0.339  0.547-  38 2.08  42 2.13  37 2.24  75 2.25  74 2.35  70 2.39  10 3.15  23 3.19
                             6 3.24  18 3.24  27 3.25  17 3.25  26 3.26   5 3.34  21 3.36
  23  0.416  0.580  0.544-  39 2.24  76 2.26  71 2.28  75 2.28  38 2.30  43 2.44   7 3.11  11 3.11
                             6 3.14  22 3.19  19 3.20  28 3.25  18 3.28  24 3.30  27 3.31
  24  0.420  0.834  0.550-  40 2.04  44 2.16  39 2.20  72 2.31  73 2.31  76 2.31  28 3.16   7 3.18
                             8 3.19  25 3.21  12 3.28  21 3.28  19 3.29  20 3.30  23 3.30
  25  0.662  0.081  0.549-  44 2.23  73 2.23  77 2.24  78 2.27  45 2.32  41 2.36  12 3.15  13 3.17
                             9 3.21  24 3.21  21 3.22  28 3.26  29 3.27  26 3.30  30 3.36
  26  0.665  0.334  0.547-  41 2.11  79 2.20  78 2.29  42 2.31  74 2.35  46 2.35   9 3.08  14 3.12
                            10 3.17  31 3.25  22 3.26  27 3.26  21 3.28  25 3.30  30 3.31
  27  0.670  0.584  0.544-  43 2.17  80 2.23  42 2.25  79 2.27  47 2.30  75 2.37  15 3.01  10 3.18
                            31 3.21  11 3.24  22 3.25  26 3.26  28 3.31  23 3.31  32 3.37
  28  0.659  0.831  0.547-  44 2.06  77 2.18  48 2.19  76 2.27  43 2.34  80 2.39  24 3.16  12 3.19
                            16 3.19  23 3.25  11 3.26  25 3.26  29 3.27  27 3.31  32 3.37
  29  0.910  0.078  0.546-  77 2.21  48 2.27  65 2.27  66 2.28  45 2.34  33 2.37  16 3.06  32 3.14
                            13 3.14  28 3.27  25 3.27   1 3.27  17 3.33  18 3.34  30 3.34
  30  0.918  0.336  0.553-  45 2.18  46 2.21  34 2.23  78 2.27  67 2.33  66 2.35  14 3.17   2 3.21
                            13 3.26  31 3.27  19 3.27  26 3.31  18 3.33  29 3.34  25 3.36
  31  0.913  0.582  0.546-  46 2.10  47 2.19  67 2.21  68 2.23  79 2.25  35 2.39   3 3.09  14 3.09
                            15 3.10  27 3.21  26 3.25  30 3.27  20 3.27  32 3.40  19 3.42
  32  0.923  0.845  0.547-  65 2.16  36 2.16  47 2.16  80 2.26  48 2.26  68 2.38  16 3.08  29 3.14
                             4 3.17  15 3.19  17 3.26  20 3.31  28 3.37  27 3.37  31 3.40
  33  0.092  0.177  0.589-  18 2.06  17 2.22  29 2.37
  34  0.089  0.412  0.594-  18 2.23  19 2.23  30 2.23
  35  0.094  0.665  0.591-  19 2.14  20 2.23  31 2.39
  36  0.089  0.922  0.586-  32 2.16  20 2.26  17 2.27
  37  0.324  0.166  0.587-  17 2.11  22 2.24  21 2.26
  38  0.341  0.411  0.591-  22 2.08  18 2.29  23 2.30
  39  0.348  0.670  0.593-  24 2.20  23 2.24  19 2.29
  40  0.355  0.920  0.590-  24 2.04  21 2.16  20 2.47
  41  0.575  0.178  0.589-  21 2.10  26 2.11  25 2.36
  42  0.577  0.420  0.590-  22 2.13  27 2.25  26 2.31
  43  0.594  0.658  0.594-  27 2.17  28 2.34  23 2.44
  44  0.586  0.910  0.589-  28 2.06  24 2.16  25 2.23
  45  0.834  0.172  0.595-  30 2.18  25 2.32  29 2.34
  46  0.843  0.432  0.591-  31 2.10  30 2.21  26 2.35
  47  0.845  0.680  0.587-  32 2.16  31 2.19  27 2.30
  48  0.820  0.910  0.592-  28 2.19  32 2.26  29 2.27
  49  0.148  0.066  0.404-   4 2.12   1 2.27   5 2.38
  50  0.171  0.325  0.406-   1 2.12   6 2.18   2 2.46
  51  0.174  0.588  0.410-   7 2.11   3 2.26   2 2.29
  52  0.173  0.841  0.412-   4 2.16   8 2.17   3 2.33
  53  0.424  0.078  0.406-   9 2.22   8 2.23   5 2.32
  54  0.422  0.333  0.409-  10 2.10   5 2.23   6 2.26
  55  0.398  0.576  0.410-   6 2.10   7 2.20  11 2.26
  56  0.416  0.846  0.413-   8 2.06  12 2.24   7 2.33
  57  0.660  0.089  0.411-  12 2.15   9 2.17  13 2.25
  58  0.675  0.338  0.410-  14 2.20  10 2.21   9 2.22
  59  0.668  0.579  0.411-  15 2.19  10 2.20  11 2.26
  60  0.644  0.822  0.409-  11 2.10  12 2.14  16 2.49
  61  0.909  0.081  0.413-  16 2.17   1 2.18  13 2.19
  62  0.914  0.322  0.412-  13 2.09  14 2.24   2 2.29
  63  0.926  0.588  0.414-   3 2.11  15 2.29  14 2.30
  64  0.919  0.839  0.409-   4 2.16  16 2.22  15 2.29
  65  0.999  0.999  0.500-  32 2.16  16 2.23  17 2.26  29 2.27   4 2.31   1 2.38
  66  0.996  0.248  0.501-  13 2.27  29 2.28   2 2.29  18 2.31  30 2.35   1 2.35
  67  0.004  0.505  0.504-  31 2.21   3 2.22  19 2.29   2 2.29  14 2.32  30 2.33
  68  0.999  0.745  0.500-   3 2.21  31 2.23  20 2.24  15 2.26   4 2.34  32 2.38
  69  0.253  0.004  0.498-   5 2.21   8 2.25  17 2.29   4 2.31  21 2.32  20 2.38
  70  0.248  0.244  0.496-  17 2.11   5 2.28   1 2.28  18 2.30   6 2.35  22 2.39
  71  0.247  0.496  0.498-   2 2.14   7 2.26   6 2.27  23 2.28  19 2.32  18 2.32
  72  0.249  0.748  0.503-  20 2.15   7 2.23   3 2.27  19 2.31  24 2.31   8 2.33
  73  0.502  0.001  0.501-  25 2.23   8 2.26  12 2.28  21 2.29  24 2.31   9 2.32
  74  0.494  0.242  0.498-   9 2.14  21 2.28  10 2.28   5 2.30  26 2.35  22 2.35
  75  0.496  0.495  0.495-   6 2.23  10 2.25  22 2.25  23 2.28  11 2.29  27 2.37
  76  0.497  0.747  0.498-   7 2.26  11 2.26  23 2.26  28 2.27  24 2.31  12 2.38
  77  0.743  0.993  0.504-  28 2.18  29 2.21  25 2.24  12 2.25  16 2.33  13 2.41
  78  0.756  0.249  0.504-  13 2.21  14 2.26  25 2.27  30 2.27  26 2.29   9 2.39
  79  0.748  0.492  0.499-  26 2.20  14 2.25  31 2.25  27 2.27  10 2.33  15 2.34
  80  0.758  0.751  0.500-  15 2.15  27 2.23  16 2.25  32 2.26  28 2.39  11 2.51
 
  LATTYP: Found a hexagonal cell.
 ALAT       =    13.1286233990
 C/A-ratio  =     2.0434811347
  
  Lattice vectors:
  
 A1 = (  13.1286234000,   0.0000000000,   0.0000000000)
 A2 = (  -6.5643117000,  11.3697213800,   0.0000000000)
 A3 = (   0.0000000000,   0.0000000000,  26.8280942400)


Analysis of symmetry for initial positions (statically):
=====================================================================
 Subroutine PRICEL returns:
 Original cell was already a primitive cell.
 

 Routine SETGRP: Setting up the symmetry group for a 
 hexagonal supercell.


 Subroutine GETGRP returns: Found  1 space group operations
 (whereof  1 operations were pure point group operations)
 out of a pool of 24 trial point group operations.


The static configuration has the point symmetry C_1 .


Analysis of symmetry for dynamics (positions and initial velocities):
=====================================================================
 Subroutine PRICEL returns:
 Original cell was already a primitive cell.
 

 Routine SETGRP: Setting up the symmetry group for a 
 hexagonal supercell.


 Subroutine GETGRP returns: Found  1 space group operations
 (whereof  1 operations were pure point group operations)
 out of a pool of 24 trial point group operations.


The dynamic configuration has the point symmetry C_1 .


 Subroutine INISYM returns: Found  1 space group operations
 (whereof  1 operations are pure point group operations),
 and found     1 'primitive' translations

 
 

Automatic generation of k-mesh.
 generate k-points for:    3    3    1
Space group operators:
 irot       det(A)        alpha          n_x          n_y          n_z        tau_x        tau_y        tau_z
    1     1.000000     0.000000     1.000000     0.000000     0.000000     0.000000     0.000000     0.000000
 
 Subroutine IBZKPT returns following result:
 ===========================================
 
 Found      5 irreducible k-points:
 
 Following reciprocal coordinates:
            Coordinates               Weight
  0.000000  0.000000  0.000000      1.000000
  0.333333 -0.000000  0.000000      2.000000
  0.000000  0.333333  0.000000      2.000000
  0.333333  0.333333  0.000000      2.000000
 -0.333333  0.333333  0.000000      2.000000
 
 Following cartesian coordinates:
            Coordinates               Weight
  0.000000  0.000000  0.000000      1.000000
  0.025390  0.014659  0.000000      2.000000
  0.000000  0.029318  0.000000      2.000000
  0.025390  0.043976  0.000000      2.000000
 -0.025390  0.014659  0.000000      2.000000
 


--------------------------------------------------------------------------------------------------------




 Dimension of arrays:
   k-points           NKPTS =      5   k-points in BZ     NKDIM =      5   number of bands    NBANDS=    384
   number of dos      NEDOS =    301   number of ions     NIONS =     80
   non local maximal  LDIM  =      6   non local SUM 2l+1 LMDIM =     18
   total plane-waves  NPLWV = ******
   max r-space proj   IRMAX =  10060   max aug-charges    IRDMAX= 222480
   dimension x,y,z NGX =   108 NGY =  108 NGZ =  216
   dimension x,y,z NGXF=   216 NGYF=  216 NGZF=  432
   support grid    NGXF=   432 NGYF=  432 NGZF=  864
   ions per type =              32  32  16
   NGX,Y,Z   is equivalent  to a cutoff of  13.68, 13.68, 13.38 a.u.
   NGXF,Y,Z  is equivalent  to a cutoff of  27.35, 27.35, 26.77 a.u.

 SYSTEM =  unknown system                          
 POSCAR =  Sc  F  C                                

 Startparameter for this run:
   NWRITE =      2    write-flag & timer
   PREC   = anorma    normal or accurate (medium, high low for compatibility)
   ISTART =      0    job   : 0-new  1-cont  2-samecut
   ICHARG =      2    charge: 1-file 2-atom 10-const
   ISPIN  =      1    spin polarized calculation?
   LNONCOLLINEAR =      F non collinear calculations
   LSORBIT =      F    spin-orbit coupling
   INIWAV =      1    electr: 0-lowe 1-rand  2-diag
   LASPH  =      F    aspherical Exc in radial PAW
   METAGGA=      F    non-selfconsistent MetaGGA calc.

 Electronic Relaxation 1
   ENCUT  =  600.0 eV  44.10 Ry    6.64 a.u.  26.22 26.22 53.58*2*pi/ulx,y,z
   ENINI  =  600.0     initial cutoff
   ENAUG  =  644.9 eV  augmentation charge cutoff
   NELM   =     60;   NELMIN=  2; NELMDL= -5     # of ELM steps 
   EDIFF  = 0.1E-05   stopping-criterion for ELM
   LREAL  =      T    real-space projection
   NLSPLINE    = F    spline interpolate recip. space projectors
   LCOMPAT=      F    compatible to vasp.4.4
   GGA_COMPAT  = T    GGA compatible to vasp.4.4-vasp.4.6
   LMAXPAW     = -100 max onsite density
   LMAXMIX     =    2 max onsite mixed and CHGCAR
   VOSKOWN=      0    Vosko Wilk Nusair interpolation
   ROPT   =   -0.00025  -0.00025  -0.00025
 Ionic relaxation
   EDIFFG = -.1E-01   stopping-criterion for IOM
   NSW    =      1    number of steps for IOM
   NBLOCK =      1;   KBLOCK =      1    inner block; outer block 
   IBRION =     -1    ionic relax: 0-MD 1-quasi-New 2-CG
   NFREE  =      0    steps in history (QN), initial steepest desc. (CG)
   ISIF   =      2    stress and relaxation
   IWAVPR =     10    prediction:  0-non 1-charg 2-wave 3-comb
   ISYM   =      2    0-nonsym 1-usesym 2-fastsym
   LCORR  =      T    Harris-Foulkes like correction to forces

   POTIM  = 1.0000    time-step for ionic-motion
   TEIN   =    0.0    initial temperature
   TEBEG  =    0.0;   TEEND  =   0.0 temperature during run
   SMASS  =  -3.00    Nose mass-parameter (am)
   estimated Nose-frequenzy (Omega)   =  0.10E-29 period in steps =****** mass=  -0.394E-26a.u.
   SCALEE = 1.0000    scale energy and forces
   NPACO  =    256;   APACO  = 16.0  distance and # of slots for P.C.
   PSTRESS=    0.0 pullay stress

  Mass of Ions in am
   POMASS =  44.96 19.00 12.01
  Ionic Valenz
   ZVAL   =  11.00  7.00  4.00
  Atomic Wigner-Seitz radii
   RWIGS  =  -1.00 -1.00 -1.00
  virtual crystal weights 
   VCA    =   1.00  1.00  1.00
   NELECT =     640.0000    total number of electrons
   NUPDOWN=      -1.0000    fix difference up-down

 DOS related values:
   EMIN   =  10.00;   EMAX   =-10.00  energy-range for DOS
   EFERMI =   0.00
   ISMEAR =     0;   SIGMA  =   0.05  broadening in eV -4-tet -1-fermi 0-gaus

 Electronic relaxation 2 (details)
   IALGO  =     38    algorithm
   LDIAG  =      T    sub-space diagonalisation (order eigenvalues)
   LSUBROT=      F    optimize rotation matrix (better conditioning)
   TURBO    =      0    0=normal 1=particle mesh
   IRESTART =      0    0=no restart 2=restart with 2 vectors
   NREBOOT  =      0    no. of reboots
   NMIN     =      0    reboot dimension
   EREF     =   0.00    reference energy to select bands
   IMIX   =      4    mixing-type and parameters
     AMIX     =   0.40;   BMIX     =  1.00
     AMIX_MAG =   1.60;   BMIX_MAG =  1.00
     AMIN     =   0.10
     WC   =   100.;   INIMIX=   1;  MIXPRE=   1;  MAXMIX= -45

 Intra band minimization:
   WEIMIN = 0.0000     energy-eigenvalue tresh-hold
   EBREAK =  0.65E-09  absolut break condition
   DEPER  =   0.30     relativ break condition  

   TIME   =   0.40     timestep for ELM

  volume/ion in A,a.u.               =      50.06       337.80
  Fermi-wavevector in a.u.,A,eV,Ry     =   0.888414  1.678858 10.738790  0.789279
  Thomas-Fermi vector in A             =   2.009840
 
 Write flags
   LWAVE        =      F    write WAVECAR
   LDOWNSAMPLE  =      F    k-point downsampling of WAVECAR
   LCHARG       =      F    write CHGCAR
   LVTOT        =      F    write LOCPOT, total local potential
   LVHAR        =      F    write LOCPOT, Hartree potential only
   LELF         =      F    write electronic localiz. function (ELF)
   LORBIT       =      0    0 simple, 1 ext, 2 COOP (PROOUT), +10 PAW based schemes


 Dipole corrections
   LMONO  =      F    monopole corrections only (constant potential shift)
   LDIPOL =      F    correct potential (dipole corrections)
   IDIPOL =      0    1-x, 2-y, 3-z, 4-all directions 
   EPSILON=  1.0000000 bulk dielectric constant

 Exchange correlation treatment:
   GGA     =    --    GGA type
   LEXCH   =     8    internal setting for exchange type
   VOSKOWN=      0    Vosko Wilk Nusair interpolation
   LHFCALC =     F    Hartree Fock is set to
   LHFONE  =     F    Hartree Fock one center treatment
   AEXX    =    0.0000 exact exchange contribution

 Linear response parameters
   LEPSILON=     F    determine dielectric tensor
   LRPA    =     F    only Hartree local field effects (RPA)
   LNABLA  =     F    use nabla operator in PAW spheres
   LVEL    =     F    velocity operator in full k-point grid
   LINTERFAST=   F  fast interpolation
   KINTER  =     0    interpolate to denser k-point grid
   CSHIFT  =0.1000    complex shift for real part using Kramers Kronig
   OMEGAMAX=  -1.0    maximum frequency
   DEG_THRESHOLD= 0.2000000E-02 threshold for treating states as degnerate
   RTIME   =   -0.100 relaxation time in fs
  (WPLASMAI=    0.000 imaginary part of plasma frequency in eV, 0.658/RTIME)
   DFIELD  = 0.0000000 0.0000000 0.0000000 field for delta impulse in time
 
 Orbital magnetization related:
   ORBITALMAG=     F  switch on orbital magnetization
   LCHIMAG   =     F  perturbation theory with respect to B field
   DQ        =  0.001000  dq finite difference perturbation B field
   LLRAUG    =     F  two centre corrections for induced B field



--------------------------------------------------------------------------------------------------------


 Static calculation
 charge density and potential will be updated during run
 non-spin polarized calculation
 Variant of blocked Davidson
 Davidson routine will perform the subspace rotation
 perform sub-space diagonalisation
    after iterative eigenvector-optimisation
 modified Broyden-mixing scheme, WC =      100.0
 initial mixing is a Kerker type mixing with AMIX =  0.4000 and BMIX =      1.0000
 Hartree-type preconditioning will be used
 using additional bands           64
 real space projection scheme for non local part
 use partial core corrections
 calculate Harris-corrections to forces 
   (improved forces if not selfconsistent)
 use gradient corrections 
 use of overlap-Matrix (Vanderbilt PP)
 Gauss-broadening in eV      SIGMA  =   0.05


--------------------------------------------------------------------------------------------------------


  energy-cutoff  :      600.00
  volume of cell :     4004.60
      direct lattice vectors                 reciprocal lattice vectors
    13.128623400  0.000000000  0.000000000     0.076169448  0.043976451  0.000000000
    -6.564311700 11.369721380  0.000000000     0.000000000  0.087952903  0.000000000
     0.000000000  0.000000000 26.828094240     0.000000000  0.000000000  0.037274358

  length of vectors
    13.128623400 13.128623399 26.828094240     0.087952903  0.087952903  0.037274358


 
 k-points in units of 2pi/SCALE and weight: read from INCAR                         
   0.00000000  0.00000000  0.00000000       0.111
   0.02538982  0.01465882  0.00000000       0.222
   0.00000000  0.02931763  0.00000000       0.222
   0.02538982  0.04397645  0.00000000       0.222
  -0.02538982  0.01465882  0.00000000       0.222
 
 k-points in reciprocal lattice and weights: read from INCAR                         
   0.00000000  0.00000000  0.00000000       0.111
   0.33333333 -0.00000000  0.00000000       0.222
   0.00000000  0.33333333  0.00000000       0.222
   0.33333333  0.33333333  0.00000000       0.222
  -0.33333333  0.33333333  0.00000000       0.222
 
 position of ions in fractional coordinates (direct lattice) 
   0.08186275  0.16864493  0.44847845
   0.08546859  0.41931240  0.45653113
   0.08293484  0.66417692  0.45592651
   0.08243546  0.91595745  0.45081386
   0.32872585  0.16032338  0.44827309
   0.33254814  0.41753164  0.44901355
   0.32690248  0.66682710  0.45477404
   0.33558759  0.91742649  0.45441388
   0.58195203  0.17345086  0.45423662
   0.57839913  0.41007520  0.45094683
   0.57349066  0.66335737  0.44883370
   0.59006243  0.92566345  0.45128108
   0.83008135  0.16859099  0.45428216
   0.83633151  0.41208205  0.45564460
   0.83102031  0.66892602  0.45485412
   0.83495136  0.91742588  0.45472469
   0.17072176  0.09354908  0.54265464
   0.16796616  0.32806980  0.54694622
   0.17233975  0.58056255  0.55157043
   0.16547251  0.82700528  0.54451572
   0.41754798  0.08208835  0.54874922
   0.42020724  0.33918607  0.54713306
   0.41561335  0.58010115  0.54352547
   0.42008479  0.83371327  0.54979605
   0.66233413  0.08070322  0.54856752
   0.66535274  0.33363428  0.54665580
   0.67018662  0.58440708  0.54381443
   0.65908077  0.83066651  0.54731383
   0.90998567  0.07781814  0.54637132
   0.91834223  0.33598775  0.55298648
   0.91294017  0.58169146  0.54567779
   0.92269112  0.84511677  0.54733131
   0.09187912  0.17671642  0.58905722
   0.08936961  0.41152388  0.59361126
   0.09354261  0.66465757  0.59124001
   0.08850017  0.92244279  0.58635794
   0.32416601  0.16617880  0.58653276
   0.34087260  0.41111057  0.59056722
   0.34814972  0.67008218  0.59340512
   0.35461912  0.92007657  0.59005307
   0.57505427  0.17789343  0.58913526
   0.57714209  0.42017692  0.59035084
   0.59400506  0.65843287  0.59363116
   0.58603962  0.91012528  0.58905645
   0.83380330  0.17198087  0.59514073
   0.84265746  0.43177810  0.59139545
   0.84492224  0.67954661  0.58666093
   0.82010585  0.91010411  0.59201194
   0.14799647  0.06604336  0.40386750
   0.17070118  0.32460874  0.40562872
   0.17355898  0.58807453  0.41022128
   0.17318635  0.84069435  0.41175377
   0.42422667  0.07780453  0.40645878
   0.42249144  0.33282025  0.40874550
   0.39778381  0.57613007  0.40977555
   0.41587577  0.84591890  0.41278356
   0.66015606  0.08942441  0.41134555
   0.67508356  0.33801556  0.41029080
   0.66809090  0.57944383  0.41145121
   0.64401298  0.82229166  0.40934956
   0.90907719  0.08124852  0.41307233
   0.91428613  0.32215370  0.41176997
   0.92623563  0.58818702  0.41383747
   0.91935975  0.83880630  0.40923535
   0.99869473  0.99902059  0.50028835
   0.99597665  0.24769962  0.50106629
   0.00435587  0.50542681  0.50439670
   0.99911289  0.74510260  0.49960899
   0.25271682  0.00434777  0.49751301
   0.24755123  0.24414634  0.49649705
   0.24695661  0.49582995  0.49760535
   0.24873876  0.74835593  0.50332329
   0.50226658  0.00076632  0.50052167
   0.49393400  0.24241972  0.49789255
   0.49569575  0.49494486  0.49534622
   0.49678788  0.74745104  0.49811879
   0.74267836  0.99334697  0.50449949
   0.75573216  0.24943072  0.50377311
   0.74803267  0.49216086  0.49944603
   0.75780568  0.75138168  0.50035786
 
 position of ions in cartesian coordinates  (Angst):
  -0.03229274  1.91744592 12.03182209
  -1.63041237  4.76746514 12.24786021
  -3.27104409  7.55150652 12.23163940
  -4.93036608 10.41418099 12.09447663
   3.26330523  1.82283212 12.02631269
   1.62509142  4.74721840 12.04617788
  -0.08548140  7.58163828 12.20072076
  -1.61647040 10.43088355 12.19105848
   6.50164359  1.97208793 12.18630296
   4.90172298  4.66244077 12.09804412
   3.17465828  7.54218850 12.04135270
   1.67036404 10.52453548 12.10701147
   9.79114168  1.91683256 12.18752467
   8.27484635  4.68525814 12.22407629
   6.51911373  7.60550247 12.20286923
   4.93949257 10.43087666 12.19939695
   1.62725634  1.06362697 14.55838983
   0.05161201  3.73006220 14.67352480
  -1.54840981  6.60083440 14.79758361
  -3.25629423  9.40281961 14.60831893
   4.94297675  0.93332162 14.72189586
   3.29021947  3.85645109 14.67853723
   1.64846637  6.59558843 14.58175248
   0.04238118  9.47908763 14.74998037
   8.16577424  0.91757314 14.71702121
   6.54508612  3.79332886 14.66573338
   4.96239756  6.64454567 14.58950475
   3.20006926  9.44444682 14.68338705
  11.43603669  0.88477055 14.65810115
   9.85104097  3.82008716 14.83557336
   8.16724353  6.61366988 14.63949509
   6.56605430  9.60874223 14.68385587
   0.04622479  2.00921641 15.80328252
  -1.52807110  4.67891182 15.92545893
  -3.13493375  7.55697140 15.86184279
  -4.89331660 10.48791746 15.73086611
   3.16500403  1.88940671 15.73555618
   1.77653007  4.67421266 15.84379316
   0.17209823  7.61864772 15.91992850
  -1.38400854 10.46101423 15.82999947
   6.38192305  2.02259872 15.80537624
   4.81890892  4.77729451 15.83798810
   3.47631019  7.48619825 15.92599268
   1.71954752 10.34787082 15.80326186
   9.81775352  1.95537452 15.96649167
   8.22860637  4.90919673 15.86601294
   6.63191009  7.72625567 15.73899461
   4.79265376 10.34763019 15.88255206
   1.50946077  0.75089457 10.83499533
   0.11023861  3.69071095 10.88224565
  -1.58171398  6.68624356 11.00545503
  -3.24488142  9.55846058 11.04656904
   5.05877904  0.88461578 10.90451457
   3.36199509  3.78407353 10.96586277
   1.44045647  6.55043834 10.99349706
  -0.09299900  9.61786217 11.07419614
   8.07993057  1.01673061 11.03561707
   6.64407827  3.84314277 11.00732012
   4.96746383  6.58811494 11.03845179
   3.05722511  9.34922707 10.98206862
  11.40159138  0.92377306 11.08194340
   9.88860102  3.66279777 11.04700357
   8.29915578  6.68752256 11.10247076
   6.56374194  9.53699389 10.97900460
   6.55360449 11.35858573 13.42178303
  11.44982482  2.81627569 13.44265366
  -3.26059246  5.74656196 13.53200223
   8.22589113  8.47160892 13.40355706
   3.28928391  0.04943290 13.34732583
   1.64735420  2.77587591 13.32006971
  -0.01258206  5.63744840 13.34980334
  -1.64684410  8.50859839 13.50320457
   6.58903844  0.00871284 13.42804260
   4.89335485  2.75624465 13.35750813
   3.25883053  5.62738519 13.28919501
   1.61563947  8.49831002 13.36357786
   3.22970544 11.29407825 13.53475975
   8.28438196  2.83595782 13.51527246
   6.58994194  5.59573186 13.39918528
   5.01664188  8.54300036 13.42364792
 


--------------------------------------------------------------------------------------------------------


 k-point  1 :   0.0000 0.0000 0.0000  plane waves:  133769
 k-point  2 :   0.3333-0.0000 0.0000  plane waves:  133588
 k-point  3 :   0.0000 0.3333 0.0000  plane waves:  133588
 k-point  4 :   0.3333 0.3333 0.0000  plane waves:  133608
 k-point  5 :  -0.3333 0.3333 0.0000  plane waves:  133588

 maximum and minimum number of plane-waves per node :     10323    10242

 maximum number of plane-waves:    133769
 maximum index in each direction: 
   IXMAX=   26   IYMAX=   26   IZMAX=   53
   IXMIN=  -26   IYMIN=  -26   IZMIN=  -53


 real space projection operators:
  total allocation   :      55712.19 KBytes
  max/ min on nodes  :       4720.11       4044.12


 parallel 3D FFT for wavefunctions:
    minimum data exchange during FFTs selected (reduces bandwidth)
 parallel 3D FFT for charge:
    minimum data exchange during FFTs selected (reduces bandwidth)


 total amount of memory used by VASP MPI-rank0   234703. kBytes
=======================================================================

   base      :      30000. kBytes
   nonlr-proj:      19435. kBytes
   fftplans  :      66973. kBytes
   grid      :      38377. kBytes
   one-center:        108. kBytes
   wavefun   :      79810. kBytes
 
     INWAV:  cpu time    0.0000: real time    0.0000
 Broyden mixing: mesh for mixing (old mesh)
   NGX = 53   NGY = 53   NGZ =107
  (NGX  =216   NGY  =216   NGZ  =432)
  gives a total of 300563 points

 initial charge density was supplied:
 charge density of overlapping atoms calculated
 number of electron     640.0000000 magnetization 
 keeping initial charge density in first step


--------------------------------------------------------------------------------------------------------


 Maximum index for non-local projection operator         1112
 Maximum index for augmentation-charges         5736 (set IRDMAX)


--------------------------------------------------------------------------------------------------------


 First call to EWALD:  gamma=   0.112
 Maximum number of real-space cells 4x 4x 2
 Maximum number of reciprocal cells 2x 2x 4

    FEWALD:  cpu time    0.0028: real time    0.0028


--------------------------------------- Iteration      1(   1)  ---------------------------------------


    POTLOK:  cpu time    0.4778: real time    0.4828
    SETDIJ:  cpu time    0.4610: real time    0.4630
     EDDAV:  cpu time   48.3855: real time   48.3942
       DOS:  cpu time    0.0013: real time    0.0013
    --------------------------------------------
      LOOP:  cpu time   49.3256: real time   49.3413

 eigenvalue-minimisations  :  4280
 total energy-change (2. order) : 0.1371040E+05  (-0.2788213E+05)
 number of electron     640.0000000 magnetization 
 augmentation part      640.0000000 magnetization 

 Free energy of the ion-electron system (eV)
  ---------------------------------------------------
  alpha Z        PSCENC =       871.83850952
  Ewald energy   TEWEN  =    287759.45396024
  -Hartree energ DENC   =   -342096.03496683
  -exchange      EXHF   =         0.00000000
  -V(xc)+E(xc)   XCENC  =      3043.78785612
  PAW double counting   =     50525.51240023   -50422.77561733
  entropy T*S    EENTRO =        -0.07778975
  eigenvalues    EBANDS =      -178.73941280
  atomic energy  EATOM  =     64207.43592568
  Solvation  Ediel_sol  =         0.00000000
  ---------------------------------------------------
  free energy    TOTEN  =     13710.40086508 eV

  energy without entropy =    13710.47865483  energy(sigma->0) =    13710.43975995


--------------------------------------------------------------------------------------------------------




--------------------------------------- Iteration      1(   2)  ---------------------------------------


     EDDAV:  cpu time   49.8572: real time   49.8701
       DOS:  cpu time    0.0012: real time    0.0012
    --------------------------------------------
      LOOP:  cpu time   49.8584: real time   49.8713

 eigenvalue-minimisations  :  4624
 total energy-change (2. order) :-0.1119503E+05  (-0.1089187E+05)
 number of electron     640.0000000 magnetization 
 augmentation part      640.0000000 magnetization 

 Free energy of the ion-electron system (eV)
  ---------------------------------------------------
  alpha Z        PSCENC =       871.83850952
  Ewald energy   TEWEN  =    287759.45396024
  -Hartree energ DENC   =   -342096.03496683
  -exchange      EXHF   =         0.00000000
  -V(xc)+E(xc)   XCENC  =      3043.78785612
  PAW double counting   =     50525.51240023   -50422.77561733
  entropy T*S    EENTRO =        -0.04031243
  eigenvalues    EBANDS =    -11373.80547093
  atomic energy  EATOM  =     64207.43592568
  Solvation  Ediel_sol  =         0.00000000
  ---------------------------------------------------
  free energy    TOTEN  =      2515.37228427 eV

  energy without entropy =     2515.41259670  energy(sigma->0) =     2515.39244048


--------------------------------------------------------------------------------------------------------




--------------------------------------- Iteration      1(   3)  ---------------------------------------


     EDDAV:  cpu time   68.1568: real time   68.1616
       DOS:  cpu time    0.0005: real time    0.0005
    --------------------------------------------
      LOOP:  cpu time   68.1573: real time   68.1620

 eigenvalue-minimisations  :  6784
 total energy-change (2. order) :-0.2891346E+04  (-0.2771873E+04)
 number of electron     640.0000000 magnetization 
 augmentation part      640.0000000 magnetization 

 Free energy of the ion-electron system (eV)
  ---------------------------------------------------
  alpha Z        PSCENC =       871.83850952
  Ewald energy   TEWEN  =    287759.45396024
  -Hartree energ DENC   =   -342096.03496683
  -exchange      EXHF   =         0.00000000
  -V(xc)+E(xc)   XCENC  =      3043.78785612
  PAW double counting   =     50525.51240023   -50422.77561733
  entropy T*S    EENTRO =        -0.00000000
  eigenvalues    EBANDS =    -14265.19164265
  atomic energy  EATOM  =     64207.43592568
  Solvation  Ediel_sol  =         0.00000000
  ---------------------------------------------------
  free energy    TOTEN  =      -375.97357502 eV

  energy without entropy =     -375.97357502  energy(sigma->0) =     -375.97357502


--------------------------------------------------------------------------------------------------------




--------------------------------------- Iteration      1(   4)  ---------------------------------------


     EDDAV:  cpu time   62.0890: real time   62.0973
       DOS:  cpu time    0.0005: real time    0.0005
    --------------------------------------------
      LOOP:  cpu time   62.0894: real time   62.0977

 eigenvalue-minimisations  :  6064
 total energy-change (2. order) :-0.3647818E+03  (-0.3604184E+03)
 number of electron     640.0000000 magnetization 
 augmentation part      640.0000000 magnetization 

 Free energy of the ion-electron system (eV)
  ---------------------------------------------------
  alpha Z        PSCENC =       871.83850952
  Ewald energy   TEWEN  =    287759.45396024
  -Hartree energ DENC   =   -342096.03496683
  -exchange      EXHF   =         0.00000000
  -V(xc)+E(xc)   XCENC  =      3043.78785612
  PAW double counting   =     50525.51240023   -50422.77561733
  entropy T*S    EENTRO =        -0.00000000
  eigenvalues    EBANDS =    -14629.97341771
  atomic energy  EATOM  =     64207.43592568
  Solvation  Ediel_sol  =         0.00000000
  ---------------------------------------------------
  free energy    TOTEN  =      -740.75535009 eV

  energy without entropy =     -740.75535009  energy(sigma->0) =     -740.75535009


--------------------------------------------------------------------------------------------------------




--------------------------------------- Iteration      1(   5)  ---------------------------------------


     EDDAV:  cpu time   62.3078: real time   62.3216
       DOS:  cpu time    0.0006: real time    0.0006
    CHARGE:  cpu time    3.5649: real time    3.5648
    MIXING:  cpu time    0.0171: real time    0.0174
    --------------------------------------------
      LOOP:  cpu time   65.8904: real time   65.9044

 eigenvalue-minimisations  :  6080
 total energy-change (2. order) :-0.1467948E+02  (-0.1462285E+02)
 number of electron     640.0000007 magnetization 
 augmentation part      134.5443142 magnetization 

 Broyden mixing:
  rms(total) = 0.76623E+01    rms(broyden)= 0.76620E+01
  rms(prec ) = 0.80662E+01
  weight for this iteration     100.00

 Free energy of the ion-electron system (eV)
  ---------------------------------------------------
  alpha Z        PSCENC =       871.83850952
  Ewald energy   TEWEN  =    287759.45396024
  -Hartree energ DENC   =   -342096.03496683
  -exchange      EXHF   =         0.00000000
  -V(xc)+E(xc)   XCENC  =      3043.78785612
  PAW double counting   =     50525.51240023   -50422.77561733
  entropy T*S    EENTRO =        -0.00000000
  eigenvalues    EBANDS =    -14644.65289995
  atomic energy  EATOM  =     64207.43592568
  Solvation  Ediel_sol  =         0.00000000
  ---------------------------------------------------
  free energy    TOTEN  =      -755.43483232 eV

  energy without entropy =     -755.43483232  energy(sigma->0) =     -755.43483232


--------------------------------------------------------------------------------------------------------




--------------------------------------- Iteration      1(   6)  ---------------------------------------


    POTLOK:  cpu time    0.4180: real time    0.4287
    SETDIJ:  cpu time    0.4367: real time    0.4367
     EDDAV:  cpu time   58.5448: real time   58.5455
       DOS:  cpu time    0.0006: real time    0.0006
    CHARGE:  cpu time    3.5612: real time    3.5612
    MIXING:  cpu time    0.0156: real time    0.0157
    --------------------------------------------
      LOOP:  cpu time   62.9769: real time   62.9884

 eigenvalue-minimisations  :  5648
 total energy-change (2. order) : 0.1556780E+03  (-0.8359033E+02)
 number of electron     640.0000008 magnetization 
 augmentation part      140.4956460 magnetization 

 Broyden mixing:
  rms(total) = 0.24987E+01    rms(broyden)= 0.24979E+01
  rms(prec ) = 0.25497E+01
  weight for this iteration     100.00

 eigenvalues of (default mixing * dielectric matrix)
  average eigenvalue GAMMA=   0.9826
  0.9826

 Free energy of the ion-electron system (eV)
  ---------------------------------------------------
  alpha Z        PSCENC =       871.83850952
  Ewald energy   TEWEN  =    287759.45396024
  -Hartree energ DENC   =   -342271.61520958
  -exchange      EXHF   =         0.00000000
  -V(xc)+E(xc)   XCENC  =      3056.06716527
  PAW double counting   =     56419.28357802   -56385.90886868
  entropy T*S    EENTRO =        -0.00000000
  eigenvalues    EBANDS =    -14256.31184872
  atomic energy  EATOM  =     64207.43592568
  Solvation  Ediel_sol  =         0.00000000
  ---------------------------------------------------
  free energy    TOTEN  =      -599.75678825 eV

  energy without entropy =     -599.75678825  energy(sigma->0) =     -599.75678825


--------------------------------------------------------------------------------------------------------




--------------------------------------- Iteration      1(   7)  ---------------------------------------


    POTLOK:  cpu time    0.4583: real time    0.4685
    SETDIJ:  cpu time    0.4503: real time    0.4503
     EDDAV:  cpu time   60.8321: real time   60.8331
       DOS:  cpu time    0.0006: real time    0.0006
    CHARGE:  cpu time    3.5688: real time    3.5688
    MIXING:  cpu time    0.0191: real time    0.0191
    --------------------------------------------
      LOOP:  cpu time   65.3291: real time   65.3403

 eigenvalue-minimisations  :  5912
 total energy-change (2. order) :-0.3111165E-01  (-0.5216813E+01)
 number of electron     640.0000008 magnetization 
 augmentation part      141.0712440 magnetization 

 Broyden mixing:
  rms(total) = 0.16208E+01    rms(broyden)= 0.16208E+01
  rms(prec ) = 0.16505E+01
  weight for this iteration     100.00

 eigenvalues of (default mixing * dielectric matrix)
  average eigenvalue GAMMA=   1.6735
  0.9675  2.3795

 Free energy of the ion-electron system (eV)
  ---------------------------------------------------
  alpha Z        PSCENC =       871.83850952
  Ewald energy   TEWEN  =    287759.45396024
  -Hartree energ DENC   =   -342418.07839512
  -exchange      EXHF   =         0.00000000
  -V(xc)+E(xc)   XCENC  =      3053.16258351
  PAW double counting   =     60177.93683733   -60151.93027142
  entropy T*S    EENTRO =        -0.00000000
  eigenvalues    EBANDS =    -14099.60704964
  atomic energy  EATOM  =     64207.43592568
  Solvation  Ediel_sol  =         0.00000000
  ---------------------------------------------------
  free energy    TOTEN  =      -599.78789990 eV

  energy without entropy =     -599.78789990  energy(sigma->0) =     -599.78789990


--------------------------------------------------------------------------------------------------------




--------------------------------------- Iteration      1(   8)  ---------------------------------------


    POTLOK:  cpu time    0.4164: real time    0.4274
    SETDIJ:  cpu time    0.4475: real time    0.4475
     EDDAV:  cpu time   57.9625: real time   57.9653
       DOS:  cpu time    0.0006: real time    0.0006
    CHARGE:  cpu time    3.6159: real time    3.6159
    MIXING:  cpu time    0.0159: real time    0.0159
    --------------------------------------------
      LOOP:  cpu time   62.4589: real time   62.4725

 eigenvalue-minimisations  :  5560
 total energy-change (2. order) : 0.1585849E+01  (-0.1038293E+01)
 number of electron     640.0000008 magnetization 
 augmentation part      141.0946852 magnetization 

 Broyden mixing:
  rms(total) = 0.44373E+00    rms(broyden)= 0.44363E+00
  rms(prec ) = 0.47894E+00
  weight for this iteration     100.00

 eigenvalues of (default mixing * dielectric matrix)
  average eigenvalue GAMMA=   1.4316
  2.4702  0.9123  0.9123

 Free energy of the ion-electron system (eV)
  ---------------------------------------------------
  alpha Z        PSCENC =       871.83850952
  Ewald energy   TEWEN  =    287759.45396024
  -Hartree energ DENC   =   -342692.68756787
  -exchange      EXHF   =         0.00000000
  -V(xc)+E(xc)   XCENC  =      3049.57545643
  PAW double counting   =     66703.44902774   -66695.24836019
  entropy T*S    EENTRO =        -0.00000000
  eigenvalues    EBANDS =    -13802.01900199
  atomic energy  EATOM  =     64207.43592568
  Solvation  Ediel_sol  =         0.00000000
  ---------------------------------------------------
  free energy    TOTEN  =      -598.20205043 eV

  energy without entropy =     -598.20205043  energy(sigma->0) =     -598.20205043


--------------------------------------------------------------------------------------------------------




--------------------------------------- Iteration      1(   9)  ---------------------------------------


    POTLOK:  cpu time    0.4181: real time    0.4284
    SETDIJ:  cpu time    0.4253: real time    0.4253
     EDDAV:  cpu time   56.7216: real time   56.7228
       DOS:  cpu time    0.0006: real time    0.0006
    CHARGE:  cpu time    3.5932: real time    3.5931
    MIXING:  cpu time    0.0158: real time    0.0158
    --------------------------------------------
      LOOP:  cpu time   61.1746: real time   61.1861

 eigenvalue-minimisations  :  5440
 total energy-change (2. order) : 0.5235428E+00  (-0.2918648E+00)
 number of electron     640.0000008 magnetization 
 augmentation part      141.5252985 magnetization 

 Broyden mixing:
  rms(total) = 0.21832E+00    rms(broyden)= 0.21831E+00
  rms(prec ) = 0.23623E+00
  weight for this iteration     100.00

 eigenvalues of (default mixing * dielectric matrix)
  average eigenvalue GAMMA=   1.2540
  2.1266  1.1158  0.8869  0.8869

 Free energy of the ion-electron system (eV)
  ---------------------------------------------------
  alpha Z        PSCENC =       871.83850952
  Ewald energy   TEWEN  =    287759.45396024
  -Hartree energ DENC   =   -342796.50336407
  -exchange      EXHF   =         0.00000000
  -V(xc)+E(xc)   XCENC  =      3051.62456104
  PAW double counting   =     66979.90414406   -66974.51550562
  entropy T*S    EENTRO =        -0.00000000
  eigenvalues    EBANDS =    -13696.91673844
  atomic energy  EATOM  =     64207.43592568
  Solvation  Ediel_sol  =         0.00000000
  ---------------------------------------------------
  free energy    TOTEN  =      -597.67850758 eV

  energy without entropy =     -597.67850758  energy(sigma->0) =     -597.67850758


--------------------------------------------------------------------------------------------------------




--------------------------------------- Iteration      1(  10)  ---------------------------------------


    POTLOK:  cpu time    0.3613: real time    0.3717
    SETDIJ:  cpu time    0.4180: real time    0.4180
     EDDAV:  cpu time   60.8357: real time   60.8482
       DOS:  cpu time    0.0006: real time    0.0006
    CHARGE:  cpu time    3.6598: real time    3.6598
    MIXING:  cpu time    0.0146: real time    0.0146
    --------------------------------------------
      LOOP:  cpu time   65.2898: real time   65.3128

 eigenvalue-minimisations  :  5928
 total energy-change (2. order) : 0.3594591E-01  (-0.2458754E-01)
 number of electron     640.0000008 magnetization 
 augmentation part      141.3504168 magnetization 

 Broyden mixing:
  rms(total) = 0.11252E+00    rms(broyden)= 0.11252E+00
  rms(prec ) = 0.13801E+00
  weight for this iteration     100.00

 eigenvalues of (default mixing * dielectric matrix)
  average eigenvalue GAMMA=   1.4803
  2.4533  2.4533  0.9079  0.9079  0.6792

 Free energy of the ion-electron system (eV)
  ---------------------------------------------------
  alpha Z        PSCENC =       871.83850952
  Ewald energy   TEWEN  =    287759.45396024
  -Hartree energ DENC   =   -342857.09139815
  -exchange      EXHF   =         0.00000000
  -V(xc)+E(xc)   XCENC  =      3052.89218549
  PAW double counting   =     66381.01615216   -66374.39268886
  entropy T*S    EENTRO =        -0.00000000
  eigenvalues    EBANDS =    -13638.79520776
  atomic energy  EATOM  =     64207.43592568
  Solvation  Ediel_sol  =         0.00000000
  ---------------------------------------------------
  free energy    TOTEN  =      -597.64256168 eV

  energy without entropy =     -597.64256168  energy(sigma->0) =     -597.64256168


--------------------------------------------------------------------------------------------------------




--------------------------------------- Iteration      1(  11)  ---------------------------------------


    POTLOK:  cpu time    0.3619: real time    0.3712
    SETDIJ:  cpu time    0.4178: real time    0.4178
     EDDAV:  cpu time   57.7494: real time   57.7542
       DOS:  cpu time    0.0006: real time    0.0006
    CHARGE:  cpu time    3.6237: real time    3.6236
    MIXING:  cpu time    0.0211: real time    0.0211
    --------------------------------------------
      LOOP:  cpu time   62.1744: real time   62.1885

 eigenvalue-minimisations  :  5552
 total energy-change (2. order) : 0.1348281E+00  (-0.1904775E-01)
 number of electron     640.0000008 magnetization 
 augmentation part      141.2179999 magnetization 

 Broyden mixing:
  rms(total) = 0.86024E-01    rms(broyden)= 0.86020E-01
  rms(prec ) = 0.98722E-01
  weight for this iteration     100.00

 eigenvalues of (default mixing * dielectric matrix)
  average eigenvalue GAMMA=   1.3835
  2.5568  2.1785  1.0030  0.9212  0.9212  0.7204

 Free energy of the ion-electron system (eV)
  ---------------------------------------------------
  alpha Z        PSCENC =       871.83850952
  Ewald energy   TEWEN  =    287759.45396024
  -Hartree energ DENC   =   -343042.50600860
  -exchange      EXHF   =         0.00000000
  -V(xc)+E(xc)   XCENC  =      3054.72241290
  PAW double counting   =     66276.83232734   -66270.18908596
  entropy T*S    EENTRO =        -0.00000000
  eigenvalues    EBANDS =    -13455.09577473
  atomic energy  EATOM  =     64207.43592568
  Solvation  Ediel_sol  =         0.00000000
  ---------------------------------------------------
  free energy    TOTEN  =      -597.50773360 eV

  energy without entropy =     -597.50773360  energy(sigma->0) =     -597.50773360


--------------------------------------------------------------------------------------------------------




--------------------------------------- Iteration      1(  12)  ---------------------------------------


    POTLOK:  cpu time    0.4466: real time    0.4556
    SETDIJ:  cpu time    0.4380: real time    0.4424
     EDDAV:  cpu time   60.9909: real time   60.9922
       DOS:  cpu time    0.0006: real time    0.0006
    CHARGE:  cpu time    3.5655: real time    3.5655
    MIXING:  cpu time    0.0228: real time    0.0227
    --------------------------------------------
      LOOP:  cpu time   65.4643: real time   65.4791

 eigenvalue-minimisations  :  5936
 total energy-change (2. order) : 0.2105712E-01  (-0.5273061E-02)
 number of electron     640.0000008 magnetization 
 augmentation part      141.3165777 magnetization 

 Broyden mixing:
  rms(total) = 0.33957E-01    rms(broyden)= 0.33955E-01
  rms(prec ) = 0.51192E-01
  weight for this iteration     100.00

 eigenvalues of (default mixing * dielectric matrix)
  average eigenvalue GAMMA=   1.4230
  2.5885  2.5885  1.1423  1.1423  0.9088  0.9088  0.6817

 Free energy of the ion-electron system (eV)
  ---------------------------------------------------
  alpha Z        PSCENC =       871.83850952
  Ewald energy   TEWEN  =    287759.45396024
  -Hartree energ DENC   =   -343082.86484191
  -exchange      EXHF   =         0.00000000
  -V(xc)+E(xc)   XCENC  =      3054.60031879
  PAW double counting   =     66473.38152821   -66467.22624070
  entropy T*S    EENTRO =        -0.00000000
  eigenvalues    EBANDS =    -13414.10583631
  atomic energy  EATOM  =     64207.43592568
  Solvation  Ediel_sol  =         0.00000000
  ---------------------------------------------------
  free energy    TOTEN  =      -597.48667648 eV

  energy without entropy =     -597.48667648  energy(sigma->0) =     -597.48667648


--------------------------------------------------------------------------------------------------------




--------------------------------------- Iteration      1(  13)  ---------------------------------------


    POTLOK:  cpu time    0.4175: real time    0.4279
    SETDIJ:  cpu time    0.4341: real time    0.4341
     EDDAV:  cpu time   57.9313: real time   57.9416
       DOS:  cpu time    0.0006: real time    0.0006
    CHARGE:  cpu time    3.6353: real time    3.6353
    MIXING:  cpu time    0.0230: real time    0.0230
    --------------------------------------------
      LOOP:  cpu time   62.4418: real time   62.4625

 eigenvalue-minimisations  :  5576
 total energy-change (2. order) : 0.8800163E-02  (-0.4226931E-02)
 number of electron     640.0000008 magnetization 
 augmentation part      141.2494825 magnetization 

 Broyden mixing:
  rms(total) = 0.36371E-01    rms(broyden)= 0.36368E-01
  rms(prec ) = 0.46288E-01
  weight for this iteration     100.00

 eigenvalues of (default mixing * dielectric matrix)
  average eigenvalue GAMMA=   1.3776
  2.6687  2.6687  1.2564  1.2564  0.8963  0.8963  0.7161  0.6624

 Free energy of the ion-electron system (eV)
  ---------------------------------------------------
  alpha Z        PSCENC =       871.83850952
  Ewald energy   TEWEN  =    287759.45396024
  -Hartree energ DENC   =   -343151.48721098
  -exchange      EXHF   =         0.00000000
  -V(xc)+E(xc)   XCENC  =      3054.85049660
  PAW double counting   =     66379.33218135   -66372.77253515
  entropy T*S    EENTRO =        -0.00000000
  eigenvalues    EBANDS =    -13346.12920357
  atomic energy  EATOM  =     64207.43592568
  Solvation  Ediel_sol  =         0.00000000
  ---------------------------------------------------
  free energy    TOTEN  =      -597.47787632 eV

  energy without entropy =     -597.47787632  energy(sigma->0) =     -597.47787632


--------------------------------------------------------------------------------------------------------




--------------------------------------- Iteration      1(  14)  ---------------------------------------


    POTLOK:  cpu time    0.4266: real time    0.4369
    SETDIJ:  cpu time    0.4636: real time    0.4657
     EDDAV:  cpu time   58.5155: real time   58.5170
       DOS:  cpu time    0.0006: real time    0.0006
    CHARGE:  cpu time    3.6148: real time    3.6147
    MIXING:  cpu time    0.0217: real time    0.0217
    --------------------------------------------
      LOOP:  cpu time   63.0428: real time   63.0565

 eigenvalue-minimisations  :  5616
 total energy-change (2. order) : 0.3530807E-02  (-0.1264407E-02)
 number of electron     640.0000008 magnetization 
 augmentation part      141.2876785 magnetization 

 Broyden mixing:
  rms(total) = 0.15884E-01    rms(broyden)= 0.15883E-01
  rms(prec ) = 0.25643E-01
  weight for this iteration     100.00

 eigenvalues of (default mixing * dielectric matrix)
  average eigenvalue GAMMA=   1.4979
  2.9962  2.9962  1.6002  1.6002  0.9717  0.9717  0.8345  0.8345  0.6758

 Free energy of the ion-electron system (eV)
  ---------------------------------------------------
  alpha Z        PSCENC =       871.83850952
  Ewald energy   TEWEN  =    287759.45396024
  -Hartree energ DENC   =   -343196.05829160
  -exchange      EXHF   =         0.00000000
  -V(xc)+E(xc)   XCENC  =      3054.91960320
  PAW double counting   =     66426.79390081   -66420.43810278
  entropy T*S    EENTRO =        -0.00000000
  eigenvalues    EBANDS =    -13301.41985058
  atomic energy  EATOM  =     64207.43592568
  Solvation  Ediel_sol  =         0.00000000
  ---------------------------------------------------
  free energy    TOTEN  =      -597.47434551 eV

  energy without entropy =     -597.47434551  energy(sigma->0) =     -597.47434551


--------------------------------------------------------------------------------------------------------




--------------------------------------- Iteration      1(  15)  ---------------------------------------


    POTLOK:  cpu time    0.4159: real time    0.4269
    SETDIJ:  cpu time    0.4536: real time    0.4536
     EDDAV:  cpu time   59.9320: real time   59.9329
       DOS:  cpu time    0.0006: real time    0.0006
    CHARGE:  cpu time    3.5674: real time    3.5674
    MIXING:  cpu time    0.0211: real time    0.0210
    --------------------------------------------
      LOOP:  cpu time   64.3907: real time   64.4024

 eigenvalue-minimisations  :  5808
 total energy-change (2. order) :-0.6227318E-02  (-0.1141406E-02)
 number of electron     640.0000008 magnetization 
 augmentation part      141.2874704 magnetization 

 Broyden mixing:
  rms(total) = 0.13212E-01    rms(broyden)= 0.13209E-01
  rms(prec ) = 0.17290E-01
  weight for this iteration     100.00

 eigenvalues of (default mixing * dielectric matrix)
  average eigenvalue GAMMA=   1.5288
  4.2488  2.6444  2.0574  1.0619  1.0619  0.9869  0.8768  0.8768  0.8053  0.6677

 Free energy of the ion-electron system (eV)
  ---------------------------------------------------
  alpha Z        PSCENC =       871.83850952
  Ewald energy   TEWEN  =    287759.45396024
  -Hartree energ DENC   =   -343258.21964637
  -exchange      EXHF   =         0.00000000
  -V(xc)+E(xc)   XCENC  =      3055.06141362
  PAW double counting   =     66383.89472820   -66377.48307885
  entropy T*S    EENTRO =        -0.00000000
  eigenvalues    EBANDS =    -13239.46238488
  atomic energy  EATOM  =     64207.43592568
  Solvation  Ediel_sol  =         0.00000000
  ---------------------------------------------------
  free energy    TOTEN  =      -597.48057283 eV

  energy without entropy =     -597.48057283  energy(sigma->0) =     -597.48057283


--------------------------------------------------------------------------------------------------------




--------------------------------------- Iteration      1(  16)  ---------------------------------------


    POTLOK:  cpu time    0.4069: real time    0.4180
    SETDIJ:  cpu time    0.4178: real time    0.4212
     EDDAV:  cpu time   56.0534: real time   56.0546
       DOS:  cpu time    0.0006: real time    0.0006
    CHARGE:  cpu time    3.6647: real time    3.6647
    MIXING:  cpu time    0.0229: real time    0.0229
    --------------------------------------------
      LOOP:  cpu time   60.5664: real time   60.5820

 eigenvalue-minimisations  :  5328
 total energy-change (2. order) :-0.3260082E-02  (-0.2219294E-03)
 number of electron     640.0000008 magnetization 
 augmentation part      141.2962157 magnetization 

 Broyden mixing:
  rms(total) = 0.90880E-02    rms(broyden)= 0.90876E-02
  rms(prec ) = 0.11712E-01
  weight for this iteration     100.00

 eigenvalues of (default mixing * dielectric matrix)
  average eigenvalue GAMMA=   1.5466
  4.4171  2.6753  2.2696  1.2143  1.2143  1.0133  1.0133  0.8937  0.8937  0.6665
  0.7410

 Free energy of the ion-electron system (eV)
  ---------------------------------------------------
  alpha Z        PSCENC =       871.83850952
  Ewald energy   TEWEN  =    287759.45396024
  -Hartree energ DENC   =   -343286.48682106
  -exchange      EXHF   =         0.00000000
  -V(xc)+E(xc)   XCENC  =      3055.08968882
  PAW double counting   =     66410.70736742   -66404.39490119
  entropy T*S    EENTRO =        -0.00000000
  eigenvalues    EBANDS =    -13211.12756235
  atomic energy  EATOM  =     64207.43592568
  Solvation  Ediel_sol  =         0.00000000
  ---------------------------------------------------
  free energy    TOTEN  =      -597.48383291 eV

  energy without entropy =     -597.48383291  energy(sigma->0) =     -597.48383291


--------------------------------------------------------------------------------------------------------




--------------------------------------- Iteration      1(  17)  ---------------------------------------


    POTLOK:  cpu time    0.3912: real time    0.4022
    SETDIJ:  cpu time    0.4206: real time    0.4226
     EDDAV:  cpu time   62.6220: real time   62.6235
       DOS:  cpu time    0.0006: real time    0.0006
    CHARGE:  cpu time    3.6494: real time    3.6494
    MIXING:  cpu time    0.0231: real time    0.0231
    --------------------------------------------
      LOOP:  cpu time   67.1069: real time   67.1214

 eigenvalue-minimisations  :  6064
 total energy-change (2. order) :-0.5237740E-02  (-0.3510743E-03)
 number of electron     640.0000008 magnetization 
 augmentation part      141.3008941 magnetization 

 Broyden mixing:
  rms(total) = 0.11601E-01    rms(broyden)= 0.11599E-01
  rms(prec ) = 0.12930E-01
  weight for this iteration     100.00

 eigenvalues of (default mixing * dielectric matrix)
  average eigenvalue GAMMA=   1.6312
  5.4582  2.8993  2.1050  2.1050  0.9987  0.9987  0.9964  0.9964  0.8443  0.8443
  0.6983  0.6299

 Free energy of the ion-electron system (eV)
  ---------------------------------------------------
  alpha Z        PSCENC =       871.83850952
  Ewald energy   TEWEN  =    287759.45396024
  -Hartree energ DENC   =   -343302.69884311
  -exchange      EXHF   =         0.00000000
  -V(xc)+E(xc)   XCENC  =      3055.11803804
  PAW double counting   =     66416.41451352   -66410.15631484
  entropy T*S    EENTRO =        -0.00000000
  eigenvalues    EBANDS =    -13194.89485970
  atomic energy  EATOM  =     64207.43592568
  Solvation  Ediel_sol  =         0.00000000
  ---------------------------------------------------
  free energy    TOTEN  =      -597.48907065 eV

  energy without entropy =     -597.48907065  energy(sigma->0) =     -597.48907065


--------------------------------------------------------------------------------------------------------




--------------------------------------- Iteration      1(  18)  ---------------------------------------


    POTLOK:  cpu time    0.3719: real time    0.3827
    SETDIJ:  cpu time    0.4208: real time    0.4208
     EDDAV:  cpu time   58.0200: real time   58.0282
       DOS:  cpu time    0.0005: real time    0.0005
    CHARGE:  cpu time    3.6653: real time    3.6658
    MIXING:  cpu time    0.0236: real time    0.0236
    --------------------------------------------
      LOOP:  cpu time   62.5021: real time   62.5215

 eigenvalue-minimisations  :  5512
 total energy-change (2. order) :-0.3482179E-02  (-0.1252370E-03)
 number of electron     640.0000008 magnetization 
 augmentation part      141.2852034 magnetization 

 Broyden mixing:
  rms(total) = 0.61080E-02    rms(broyden)= 0.61076E-02
  rms(prec ) = 0.69795E-02
  weight for this iteration     100.00

 eigenvalues of (default mixing * dielectric matrix)
  average eigenvalue GAMMA=   1.6390
  6.1307  2.7000  2.7000  1.6862  0.9435  0.9435  1.2184  0.9726  0.9726  0.8282
  0.8282  0.7134  0.6693

 Free energy of the ion-electron system (eV)
  ---------------------------------------------------
  alpha Z        PSCENC =       871.83850952
  Ewald energy   TEWEN  =    287759.45396024
  -Hartree energ DENC   =   -343317.58093645
  -exchange      EXHF   =         0.00000000
  -V(xc)+E(xc)   XCENC  =      3055.17334808
  PAW double counting   =     66399.48456027   -66393.18219586
  entropy T*S    EENTRO =        -0.00000000
  eigenvalues    EBANDS =    -13180.11572431
  atomic energy  EATOM  =     64207.43592568
  Solvation  Ediel_sol  =         0.00000000
  ---------------------------------------------------
  free energy    TOTEN  =      -597.49255283 eV

  energy without entropy =     -597.49255283  energy(sigma->0) =     -597.49255283


--------------------------------------------------------------------------------------------------------




--------------------------------------- Iteration      1(  19)  ---------------------------------------


    POTLOK:  cpu time    0.4252: real time    0.4336
    SETDIJ:  cpu time    0.4481: real time    0.4482
     EDDAV:  cpu time   59.7986: real time   59.8065
       DOS:  cpu time    0.0006: real time    0.0006
    CHARGE:  cpu time    3.6690: real time    3.6694
    MIXING:  cpu time    0.0212: real time    0.0212
    --------------------------------------------
      LOOP:  cpu time   64.3628: real time   64.3795

 eigenvalue-minimisations  :  5728
 total energy-change (2. order) :-0.1589864E-02  (-0.6007977E-04)
 number of electron     640.0000008 magnetization 
 augmentation part      141.2894329 magnetization 

 Broyden mixing:
  rms(total) = 0.24509E-02    rms(broyden)= 0.24485E-02
  rms(prec ) = 0.34130E-02
  weight for this iteration     100.00

 eigenvalues of (default mixing * dielectric matrix)
  average eigenvalue GAMMA=   1.6716
  6.6743  3.1627  2.2279  2.2279  0.9904  0.9904  1.1533  1.1533  0.9076  0.9076
  0.8095  0.8095  0.6654  0.7228

 Free energy of the ion-electron system (eV)
  ---------------------------------------------------
  alpha Z        PSCENC =       871.83850952
  Ewald energy   TEWEN  =    287759.45396024
  -Hartree energ DENC   =   -343322.52821562
  -exchange      EXHF   =         0.00000000
  -V(xc)+E(xc)   XCENC  =      3055.16921495
  PAW double counting   =     66406.68668641   -66400.41501179
  entropy T*S    EENTRO =        -0.00000000
  eigenvalues    EBANDS =    -13175.13521209
  atomic energy  EATOM  =     64207.43592568
  Solvation  Ediel_sol  =         0.00000000
  ---------------------------------------------------
  free energy    TOTEN  =      -597.49414270 eV

  energy without entropy =     -597.49414270  energy(sigma->0) =     -597.49414270


--------------------------------------------------------------------------------------------------------




--------------------------------------- Iteration      1(  20)  ---------------------------------------


    POTLOK:  cpu time    0.4176: real time    0.4293
    SETDIJ:  cpu time    0.4179: real time    0.4180
     EDDAV:  cpu time   60.0049: real time   60.0135
       DOS:  cpu time    0.0005: real time    0.0005
    CHARGE:  cpu time    3.6292: real time    3.6297
    MIXING:  cpu time    0.0247: real time    0.0247
    --------------------------------------------
      LOOP:  cpu time   64.4949: real time   64.5157

 eigenvalue-minimisations  :  5760
 total energy-change (2. order) :-0.2990556E-02  (-0.2269684E-04)
 number of electron     640.0000008 magnetization 
 augmentation part      141.2879091 magnetization 

 Broyden mixing:
  rms(total) = 0.26851E-02    rms(broyden)= 0.26845E-02
  rms(prec ) = 0.31306E-02
  weight for this iteration     100.00

 eigenvalues of (default mixing * dielectric matrix)
  average eigenvalue GAMMA=   1.6975
  7.0385  3.4372  2.3634  2.3634  1.4184  0.9474  0.9474  1.1646  0.9972  0.9972
  0.8529  0.8529  0.6682  0.7071  0.7071

 Free energy of the ion-electron system (eV)
  ---------------------------------------------------
  alpha Z        PSCENC =       871.83850952
  Ewald energy   TEWEN  =    287759.45396024
  -Hartree energ DENC   =   -343325.87436901
  -exchange      EXHF   =         0.00000000
  -V(xc)+E(xc)   XCENC  =      3055.16305449
  PAW double counting   =     66398.63596576   -66392.33124549
  entropy T*S    EENTRO =        -0.00000000
  eigenvalues    EBANDS =    -13171.81893445
  atomic energy  EATOM  =     64207.43592568
  Solvation  Ediel_sol  =         0.00000000
  ---------------------------------------------------
  free energy    TOTEN  =      -597.49713325 eV

  energy without entropy =     -597.49713325  energy(sigma->0) =     -597.49713325


--------------------------------------------------------------------------------------------------------




--------------------------------------- Iteration      1(  21)  ---------------------------------------


    POTLOK:  cpu time    0.3694: real time    0.3802
    SETDIJ:  cpu time    0.4181: real time    0.4204
     EDDAV:  cpu time   55.0968: real time   55.0966
       DOS:  cpu time    0.0006: real time    0.0006
    CHARGE:  cpu time    3.6534: real time    3.6534
    MIXING:  cpu time    0.0236: real time    0.0236
    --------------------------------------------
      LOOP:  cpu time   59.5620: real time   59.5748

 eigenvalue-minimisations  :  5176
 total energy-change (2. order) :-0.2142353E-02  (-0.9927535E-05)
[...]
    -6.564311700 11.369721380  0.000000000     0.000000000  0.087952903  0.000000000
     0.000000000  0.000000000 26.828094240     0.000000000  0.000000000  0.037274358

  length of vectors
    13.128623400 13.128623399 26.828094240     0.087952903  0.087952903  0.037274358


 FORCES acting on ions
    electron-ion (+dipol)            ewald-force                    non-local-force                 convergence-correction
 -----------------------------------------------------------------------------------------------
   0.112E+02 0.370E+01 0.135E+04   -.109E+02 -.353E+01 -.134E+04   -.295E+00 -.468E+00 -.549E+01   -.244E-04 -.436E-05 0.273E-05
   0.178E+02 0.240E+02 0.121E+04   -.183E+02 -.242E+02 -.120E+04   -.110E+00 -.251E+00 -.705E+01   0.546E-04 0.315E-04 -.432E-05
   -.125E+02 -.312E+01 0.122E+04   0.111E+02 0.312E+01 -.121E+04   0.122E+01 0.229E+00 -.581E+01   0.147E-04 0.161E-04 -.630E-04
   -.112E+01 0.272E+02 0.126E+04   0.179E+01 -.272E+02 -.126E+04   -.341E+00 -.208E+00 -.459E+01   0.792E-05 -.188E-04 -.302E-04
   0.154E+02 0.363E+01 0.140E+04   -.148E+02 -.369E+01 -.139E+04   -.290E+00 0.146E+00 -.708E+01   0.131E-04 0.188E-04 -.612E-05
   -.108E+02 0.329E+02 0.134E+04   0.106E+02 -.336E+02 -.133E+04   0.322E+00 -.186E+00 -.554E+01   -.221E-05 0.488E-04 0.492E-04
   -.152E+02 -.404E+02 0.121E+04   0.153E+02 0.403E+02 -.121E+04   0.285E+00 0.534E+00 -.571E+01   -.966E-05 -.558E-04 -.212E-05
   0.289E+02 -.235E+01 0.118E+04   -.291E+02 0.302E+01 -.117E+04   -.175E+00 -.345E+00 -.445E+01   -.155E-04 -.266E-04 -.423E-04
   -.869E+01 -.130E+02 0.121E+04   0.842E+01 0.114E+02 -.120E+04   0.729E+00 0.584E+00 -.515E+01   0.139E-04 0.394E-04 -.308E-05
   -.225E+02 -.279E+02 0.130E+04   0.225E+02 0.285E+02 -.129E+04   0.510E+00 -.397E-01 -.533E+01   -.121E-04 0.656E-05 0.160E-04
   -.502E+02 -.273E+01 0.136E+04   0.503E+02 0.342E+01 -.135E+04   0.477E+00 -.516E+00 -.586E+01   0.470E-05 -.495E-04 0.182E-04
   -.299E+02 0.171E+02 0.130E+04   0.284E+02 -.182E+02 -.130E+04   0.384E+00 0.230E+00 -.567E+01   0.287E-04 0.210E-04 0.822E-05
   -.822E+01 0.287E+02 0.121E+04   0.913E+01 -.274E+02 -.120E+04   -.452E+00 -.132E+01 -.555E+01   -.121E-04 -.165E-04 0.165E-04
   -.194E+02 -.281E+02 0.122E+04   0.183E+02 0.288E+02 -.122E+04   0.860E+00 -.925E-01 -.610E+01   -.229E-04 -.275E-04 -.226E-04
   -.304E+01 0.446E+01 0.125E+04   0.373E+01 -.454E+01 -.125E+04   0.120E+00 -.705E-01 -.612E+01   0.491E-05 -.642E-05 -.164E-04
   0.561E+02 0.431E+02 0.125E+04   -.547E+02 -.435E+02 -.124E+04   -.145E+01 0.103E-01 -.671E+01   -.266E-04 0.160E-04 0.517E-06
   0.119E+02 0.587E+02 -.115E+04   -.109E+02 -.600E+02 0.115E+04   -.695E+00 -.122E+00 0.534E+01   -.666E-05 -.163E-05 0.558E-04
   0.895E+01 -.366E+02 -.122E+04   -.102E+02 0.358E+02 0.121E+04   0.815E+00 0.111E+01 0.506E+01   0.536E-05 0.952E-05 -.112E-04
   -.192E+02 0.964E+01 -.138E+04   0.170E+02 -.892E+01 0.137E+04   0.146E+01 -.376E+00 0.560E+01   0.510E-04 -.104E-04 -.106E-04
   0.134E+02 -.512E+02 -.126E+04   -.147E+02 0.507E+02 0.125E+04   0.491E+00 0.115E+01 0.665E+01   -.114E-04 0.127E-04 0.424E-04
   0.588E+02 0.140E+02 -.131E+04   -.591E+02 -.139E+02 0.130E+04   -.573E+00 -.905E-01 0.583E+01   -.145E-04 0.212E-04 0.462E-04
   -.212E+02 0.296E+02 -.122E+04   0.212E+02 -.301E+02 0.121E+04   0.165E-01 -.502E+00 0.466E+01   0.109E-04 0.169E-04 -.174E-04
   -.248E+02 -.487E+01 -.119E+04   0.249E+02 0.554E+01 0.118E+04   0.314E+00 -.343E+00 0.622E+01   -.246E-05 -.348E-04 -.455E-04
   0.439E+01 0.312E+02 -.129E+04   -.520E+01 -.314E+02 0.128E+04   0.808E+00 -.166E+00 0.492E+01   0.150E-05 -.330E-05 0.363E-04
   -.358E+01 -.420E+02 -.133E+04   0.450E+01 0.424E+02 0.133E+04   -.595E+00 0.968E-01 0.710E+01   0.389E-04 0.675E-05 -.692E-05
   -.143E+02 -.291E+02 -.127E+04   0.146E+02 0.291E+02 0.126E+04   -.292E+00 0.329E+00 0.612E+01   0.501E-05 -.808E-05 -.332E-05
   -.408E+01 -.220E+01 -.116E+04   0.351E+01 0.337E+01 0.116E+04   0.203E+00 -.885E+00 0.484E+01   -.133E-04 -.144E-04 -.303E-05
   -.398E+02 0.703E+02 -.122E+04   0.414E+02 -.702E+02 0.122E+04   -.244E+00 -.894E+00 0.491E+01   -.667E-05 0.320E-04 -.137E-04
   -.167E+02 -.255E+02 -.127E+04   0.164E+02 0.261E+02 0.127E+04   0.527E+00 0.195E+00 0.644E+01   -.239E-04 -.416E-05 -.724E-05
   -.618E+01 0.812E+01 -.140E+04   0.624E+01 -.891E+01 0.139E+04   0.149E+00 0.416E+00 0.556E+01   -.240E-04 -.263E-04 0.171E-07
   -.329E+01 -.351E+02 -.124E+04   0.355E+01 0.354E+02 0.123E+04   -.223E-01 0.395E+00 0.551E+01   -.465E-04 0.457E-05 0.405E-04
   -.490E+01 -.620E+01 -.129E+04   0.555E+01 0.455E+01 0.128E+04   -.367E+00 0.401E+00 0.525E+01   0.132E-04 -.161E-04 0.444E-04
   0.228E+02 0.564E+02 -.159E+04   -.243E+02 -.601E+02 0.161E+04   0.142E+01 0.311E+01 -.173E+02   0.175E-04 -.884E-05 -.369E-05
   -.596E+01 0.157E+01 -.162E+04   0.676E+01 -.269E+01 0.163E+04   -.842E+00 0.131E+01 -.168E+02   0.871E-05 -.302E-06 -.281E-04
   0.373E+02 -.214E+02 -.160E+04   -.406E+02 0.212E+02 0.162E+04   0.302E+01 0.408E+00 -.154E+02   -.725E-05 0.124E-04 0.224E-05
   -.288E+02 -.638E+01 -.155E+04   0.312E+02 0.801E+01 0.156E+04   -.237E+01 -.170E+01 -.145E+02   0.454E-05 0.133E-04 -.179E-06
   -.189E+02 0.187E+02 -.156E+04   0.196E+02 -.186E+02 0.157E+04   -.132E+00 0.206E+00 -.155E+02   -.879E-05 -.944E-05 -.607E-05
   0.299E+02 -.261E+02 -.160E+04   -.320E+02 0.279E+02 0.162E+04   0.151E+01 -.146E+01 -.186E+02   0.655E-05 -.375E-05 -.327E-04
   -.668E+01 0.190E+02 -.162E+04   0.783E+01 -.191E+02 0.164E+04   -.137E+01 -.309E+00 -.174E+02   0.519E-07 0.163E-05 -.216E-04
   0.741E+02 -.672E+00 -.160E+04   -.783E+02 0.236E+00 0.162E+04   0.320E+01 0.602E+00 -.159E+02   -.775E-05 0.439E-05 0.776E-05
   -.270E+02 -.101E+01 -.159E+04   0.287E+02 0.941E+00 0.161E+04   -.118E+01 -.335E+00 -.159E+02   -.835E-05 -.275E-05 -.491E-05
   -.337E+02 -.958E+01 -.159E+04   0.350E+02 0.114E+02 0.161E+04   -.950E+00 -.195E+01 -.180E+02   -.637E-05 -.155E-05 -.165E-04
   0.167E+02 -.992E+00 -.161E+04   -.177E+02 0.103E+01 0.162E+04   0.512E+00 0.677E-01 -.180E+02   0.130E-05 -.241E-05 -.151E-04
   0.540E+00 -.246E+02 -.160E+04   -.516E+00 0.263E+02 0.162E+04   -.575E+00 -.145E+01 -.171E+02   0.368E-05 0.117E-05 -.143E-04
   -.204E+01 0.212E+02 -.163E+04   0.252E+01 -.233E+02 0.164E+04   -.435E+00 0.185E+01 -.160E+02   -.335E-05 -.575E-05 -.232E-04
   0.256E+02 0.169E+02 -.161E+04   -.273E+02 -.176E+02 0.163E+04   0.151E+01 -.694E-01 -.164E+02   -.854E-05 0.363E-05 -.454E-05
   0.531E+00 0.443E+01 -.155E+04   -.145E+01 -.415E+01 0.157E+04   0.696E+00 -.897E+00 -.151E+02   0.283E-05 0.184E-05 0.375E-05
   -.258E+02 -.838E+01 -.161E+04   0.254E+02 0.729E+01 0.163E+04   0.823E+00 0.145E+01 -.170E+02   -.730E-06 0.787E-06 -.193E-04
   -.660E+01 -.262E+02 0.165E+04   0.641E+01 0.271E+02 -.166E+04   0.373E+00 -.279E+00 0.174E+02   0.210E-05 -.462E-05 0.251E-04
   0.417E+02 -.220E+02 0.163E+04   -.438E+02 0.247E+02 -.165E+04   0.178E+01 -.239E+01 0.170E+02   -.435E-05 0.990E-05 0.228E-04
   0.361E+02 0.223E+02 0.161E+04   -.376E+02 -.234E+02 -.162E+04   0.107E+01 0.828E+00 0.177E+02   -.250E-05 0.226E-05 -.160E-04
   0.635E+00 0.390E+02 0.157E+04   0.110E+00 -.408E+02 -.159E+04   -.758E+00 0.136E+01 0.157E+02   0.684E-05 -.126E-04 -.615E-05
   0.121E+02 -.836E+01 0.163E+04   -.111E+02 0.714E+01 -.164E+04   -.134E+01 0.150E+01 0.172E+02   -.240E-05 -.199E-05 0.162E-04
   0.132E+02 0.666E+01 0.160E+04   -.149E+02 -.726E+01 -.162E+04   0.122E+01 0.437E+00 0.153E+02   0.273E-05 0.369E-05 0.175E-04
   -.411E+01 -.296E+02 0.160E+04   0.173E+01 0.317E+02 -.162E+04   0.294E+01 -.154E+01 0.160E+02   -.526E-05 -.438E-05 0.171E-04
   -.298E+02 0.403E+02 0.156E+04   0.320E+02 -.420E+02 -.158E+04   -.155E+01 0.104E+01 0.159E+02   -.102E-04 -.174E-05 -.136E-05
   -.255E+02 -.902E+01 0.158E+04   0.241E+02 0.108E+02 -.160E+04   0.207E+01 -.183E+01 0.168E+02   0.189E-05 0.240E-05 0.983E-05
   -.192E+02 -.236E+02 0.160E+04   0.202E+02 0.248E+02 -.161E+04   -.977E+00 -.141E+01 0.168E+02   0.269E-05 -.163E-05 -.112E-05
   -.901E+01 -.217E+02 0.157E+04   0.964E+01 0.219E+02 -.158E+04   -.850E+00 -.780E-01 0.143E+02   -.384E-05 -.162E-05 0.726E-05
   -.462E+02 -.213E+02 0.159E+04   0.483E+02 0.230E+02 -.161E+04   -.149E+01 -.121E+01 0.155E+02   0.454E-05 0.562E-05 0.152E-04
   0.231E+02 0.122E+02 0.155E+04   -.240E+02 -.122E+02 -.157E+04   0.911E+00 -.334E-02 0.152E+02   -.347E-05 -.820E-06 0.124E-04
   -.157E+02 -.413E+02 0.158E+04   0.173E+02 0.434E+02 -.160E+04   -.179E+01 -.156E+01 0.170E+02   -.340E-05 -.847E-06 -.421E-05
   0.218E+02 0.166E+02 0.156E+04   -.244E+02 -.171E+02 -.157E+04   0.236E+01 0.223E-01 0.146E+02   0.705E-05 0.804E-05 -.557E-05
   0.280E+02 0.373E+02 0.160E+04   -.285E+02 -.384E+02 -.162E+04   0.269E+00 0.782E+00 0.168E+02   0.212E-05 -.654E-05 -.658E-05
   -.491E+01 -.158E+02 -.108E+01   0.507E+01 0.159E+02 0.118E+01   -.738E+00 0.437E+00 -.656E+00   0.218E-05 0.532E-05 0.691E-05
   -.639E+00 -.885E+00 -.134E+02   0.544E+00 0.817E+00 0.135E+02   0.524E+00 0.260E+00 -.167E+00   0.226E-05 -.220E-05 0.202E-05
   -.809E+01 0.131E+02 -.392E+02   0.799E+01 -.129E+02 0.394E+02   0.723E+00 -.121E+01 -.834E+00   0.207E-05 0.266E-05 -.310E-05
   0.124E+02 -.152E+02 -.559E+00   -.125E+02 0.151E+02 0.566E+00   0.127E+00 0.108E+01 0.172E-01   0.843E-06 -.622E-06 0.964E-06
   0.371E+01 0.763E+01 0.186E+01   -.370E+01 -.754E+01 -.183E+01   -.650E-01 -.525E+00 0.133E+00   -.249E-05 0.105E-05 0.651E-05
   -.639E+01 -.197E+02 0.486E+02   0.651E+01 0.197E+02 -.487E+02   -.429E+00 0.104E+01 -.353E+00   0.182E-05 -.272E-06 0.118E-04
   -.400E+01 0.592E+01 0.952E+01   0.390E+01 -.603E+01 -.968E+01   0.580E+00 0.380E+00 0.132E+01   0.642E-05 0.150E-05 -.165E-05
   -.703E+01 0.448E+00 -.345E+02   0.691E+01 -.482E+00 0.345E+02   0.906E+00 0.828E-02 -.332E+00   -.403E-06 -.180E-06 -.407E-05
   0.710E+00 -.190E+00 -.446E+01   -.652E+00 0.188E+00 0.424E+01   0.177E-01 0.266E+00 0.768E+00   0.254E-05 0.173E-05 0.151E-05
   0.202E+02 -.555E+01 0.673E+01   -.204E+02 0.533E+01 -.668E+01   0.274E+00 0.124E+01 0.275E+00   -.609E-06 0.275E-05 0.259E-05
   -.103E+02 -.134E+02 0.400E+02   0.102E+02 0.134E+02 -.402E+02   0.599E-01 0.492E+00 0.714E+00   -.427E-05 0.101E-05 0.381E-05
   -.621E+01 -.764E+01 0.246E+02   0.605E+01 0.764E+01 -.248E+02   0.500E+00 -.328E+00 0.551E+00   0.209E-05 -.619E-05 0.494E-05
   -.767E+01 -.848E+01 -.266E+02   0.763E+01 0.837E+01 0.269E+02   0.239E+00 0.785E+00 -.159E+01   -.158E-06 0.470E-06 0.420E-05
   0.886E+00 0.114E+01 -.468E+02   -.694E+00 -.122E+01 0.470E+02   -.102E+01 0.328E+00 -.311E+00   -.239E-05 -.429E-05 0.409E-06
   0.723E+01 -.629E+01 0.182E+02   -.723E+01 0.615E+01 -.184E+02   -.267E+00 0.675E+00 0.405E+00   -.420E-05 0.368E-06 0.400E-05
   0.308E+02 -.159E+01 0.144E+01   -.306E+02 0.174E+01 -.111E+01   -.153E+01 -.238E+00 -.840E+00   -.261E-05 -.323E-05 0.289E-05
 -----------------------------------------------------------------------------------------------
   -.128E+02 -.163E+00 0.891E+01   0.242E-12 0.259E-12 0.118E-10   0.128E+02 0.155E+00 -.890E+01   -.148E-04 -.235E-04 0.376E-04
 
 
 POSITION                                       TOTAL-FORCE (eV/Angst)
 -----------------------------------------------------------------------------------
     -0.03229      1.91745     12.03182        -0.007384     -0.297312      0.675473
     -1.63041      4.76747     12.24786        -0.537405     -0.475344     -0.534023
     -3.27104      7.55151     12.23164        -0.192235      0.229693     -0.607836
     -4.93037     10.41418     12.09448         0.329021     -0.276185      0.238699
      3.26331      1.82283     12.02631         0.374484      0.084904      0.468185
      1.62509      4.74722     12.04618         0.045586     -0.870882      0.311840
     -0.08548      7.58164     12.20072         0.369972      0.460496     -0.422340
     -1.61647     10.43088     12.19106        -0.365221      0.324889     -0.192130
      6.50164      1.97209     12.18630         0.452513     -1.063033     -0.441146
      4.90172      4.66244     12.09804         0.492726      0.486152      0.099443
      3.17466      7.54219     12.04135         0.551094      0.175759      0.574949
      1.67036     10.52454     12.10701        -1.066672     -0.842849      0.526251
      9.79114      1.91683     12.18752         0.461012     -0.029968      0.536630
      8.27485      4.68526     12.22408        -0.270202      0.642304     -0.365677
      6.51911      7.60550     12.20287         0.812889     -0.145762     -0.989532
      4.93949     10.43088     12.19940        -0.012861     -0.445364     -0.179820
      1.62726      1.06363     14.55839         0.303581     -1.431396      0.690611
      0.05161      3.73006     14.67352        -0.391840      0.285074     -0.415156
     -1.54841      6.60083     14.79758        -0.728578      0.345707     -0.117061
     -3.25629      9.40282     14.60832        -0.773104      0.619963      1.103608
      4.94298      0.93332     14.72190        -0.805941      0.014211     -0.840556
      3.29022      3.85645     14.67854         0.045886     -0.944073     -0.646034
      1.64847      6.59559     14.58175         0.424017      0.328388      0.649378
      0.04238      9.47909     14.74998         0.003064     -0.357933     -0.896709
      8.16577      0.91757     14.71702         0.317968      0.446772      0.144665
      6.54509      3.79333     14.66573        -0.065839      0.268220      0.191916
      4.96240      6.64455     14.58950        -0.372455      0.281343      0.884883
      3.20007      9.44445     14.68339         1.296508     -0.759046      0.060261
     11.43604      0.88477     14.65810         0.209451      0.772263      0.800888
      9.85104      3.82009     14.83557         0.202076     -0.379868     -0.372117
      8.16724      6.61367     14.63950         0.238162      0.719811      0.868240
      6.56605      9.60874     14.68386         0.284838     -1.248516      0.502853
      0.04622      2.00922     15.80328        -0.077013     -0.627857      0.129010
     -1.52807      4.67891     15.92546        -0.048816      0.185169     -0.254024
     -3.13493      7.55697     15.86184        -0.296845      0.223787      0.008669
     -4.89332     10.48792     15.73087         0.074714     -0.072954      0.162583
      3.16500      1.88941     15.73556         0.553307      0.246756      0.370954
      1.77653      4.67421     15.84379        -0.617439      0.306604     -0.287901
      0.17210      7.61865     15.91993        -0.217937     -0.377570     -0.431343
     -1.38401     10.46101     15.83000        -0.935212      0.166350      0.547993
      6.38192      2.02260     15.80538         0.556516     -0.402093      0.583495
      4.81891      4.77729     15.83799         0.397007     -0.155522     -0.357441
      3.47631      7.48620     15.92599        -0.530606      0.101038     -0.937779
      1.71955     10.34787     15.80326        -0.551312      0.298776      0.643492
      9.81775      1.95537     15.96649         0.043435     -0.253767     -0.425008
      8.22861      4.90920     15.86601        -0.151745     -0.760513      0.186902
      6.63191      7.72626     15.73899        -0.223979     -0.612412      0.281907
      4.79265     10.34763     15.88255         0.455776      0.362083     -0.290056
      1.50946      0.75089     10.83500         0.184143      0.658643      0.363687
      0.11024      3.69071     10.88225        -0.380189      0.274767      0.162733
     -1.58171      6.68624     11.00546        -0.408064     -0.307345      0.144640
     -3.24488      9.55846     11.04657        -0.011892     -0.406827     -0.138844
      5.05878      0.88462     10.90451        -0.339072      0.281527      0.482745
      3.36200      3.78407     10.96586        -0.411103     -0.158201     -0.417892
      1.44046      6.55044     10.99350         0.565940      0.479061     -0.456980
     -0.09300      9.61786     11.07420         0.610758     -0.661630     -0.404619
      8.07993      1.01673     11.03562         0.664329     -0.090276     -0.137405
      6.64408      3.84314     11.00732        -0.024346     -0.252540      0.061156
      4.96746      6.58811     11.03845        -0.223385      0.117619     -0.286441
      3.05723      9.34923     10.98207         0.590869      0.512169     -0.341841
     11.40159      0.92377     11.08194         0.004612     -0.059257     -0.442781
      9.88860      3.66280     11.04700        -0.145640      0.601447     -0.104995
      8.29916      6.68752     11.10247        -0.236225     -0.487946     -0.333550
      6.56374      9.53699     10.97900        -0.245914     -0.251073      0.172060
      6.55360     11.35859     13.42178        -0.585466      0.499817     -0.547798
     11.44982      2.81628     13.44265         0.428542      0.192125     -0.075163
     -3.26059      5.74656     13.53200         0.619345     -1.058533     -0.630293
      8.22589      8.47161     13.40356         0.082551      0.919288      0.024815
      3.28928      0.04943     13.34733        -0.047991     -0.439822      0.161083
      1.64735      2.77588     13.32007        -0.308623      1.046996     -0.504030
     -0.01258      5.63745     13.34980         0.479947      0.269991      1.154410
     -1.64684      8.50860     13.50320         0.784713     -0.025119     -0.292883
      6.58904      0.00871     13.42804         0.076238      0.264360      0.547262
      4.89335      2.75624     13.35751         0.068607      1.016819      0.324940
      3.25883      5.62739     13.28920        -0.002051      0.476378      0.572141
      1.61564      8.49831     13.36358         0.335712     -0.327223      0.420870
      3.22971     11.29408     13.53476         0.198266      0.677681     -1.318972
      8.28438      2.83596     13.51527        -0.825610      0.243095     -0.126146
      6.58994      5.59573     13.39919        -0.271131      0.537610      0.238108
      5.01664      8.54300     13.42365        -1.282831     -0.089889     -0.510104
 -----------------------------------------------------------------------------------
    total drift:                               -0.000348     -0.007843      0.011456


--------------------------------------------------------------------------------------------------------



  FREE ENERGIE OF THE ION-ELECTRON SYSTEM (eV)
  ---------------------------------------------------
  free  energy   TOTEN  =      -597.50180297 eV

  energy  without entropy=     -597.50180297  energy(sigma->0) =     -597.50180297
 


--------------------------------------------------------------------------------------------------------


    POTLOK:  cpu time    0.7902: real time    0.7902


--------------------------------------------------------------------------------------------------------


     LOOP+:  cpu time 1933.1181: real time 1933.5663
    4ORBIT:  cpu time    0.0000: real time    0.0000

 total amount of memory used by VASP MPI-rank0   234703. kBytes
=======================================================================

   base      :      30000. kBytes
   nonlr-proj:      19435. kBytes
   fftplans  :      66973. kBytes
   grid      :      38377. kBytes
   one-center:        108. kBytes
   wavefun   :      79810. kBytes
 
  
  
 General timing and accounting informations for this job:
 ========================================================
  
                  Total CPU time used (sec):     1967.571
                            User time (sec):     1957.154
                          System time (sec):       10.417
                         Elapsed time (sec):     1968.127
  
                   Maximum memory used (kb):      432628.
                   Average memory used (kb):           0.
  
                          Minor page faults:       228707
                          Major page faults:            0
                 Voluntary context switches:         2239
