 running on   52 total cores
 distrk:  each k-point on   52 cores,    1 groups
 distr:  one band on   13 cores,    4 groups
 using from now: INCAR     
 vasp.5.4.4.18Apr17-6-g9f103f2a35 (build Oct 31 2019 15:01:46) complex          
  
 POSCAR found type information on POSCAR  Ca Si O 
 POSCAR found :  3 types and     135 ions
 scaLAPACK is switched off
 LDA part: xc-table for Pade appr. of Perdew
 generate k-points for:    2    2    2
 POSCAR, INCAR and KPOINTS ok, starting setup
 FFT: planning ...
 WAVECAR not read
 entering main loop
       N       E                     dE             d eps       ncg     rms          rms(c)
DAV:   1     0.950863978281E+04    0.95086E+04   -0.47778E+05  8320   0.181E+03
DAV:   2     0.418779421407E+02   -0.94668E+04   -0.91718E+04  9792   0.484E+02
DAV:   3    -0.999230456203E+03   -0.10411E+04   -0.10332E+04 10248   0.162E+02
DAV:   4    -0.104972891164E+04   -0.50498E+02   -0.50311E+02 11400   0.326E+01
DAV:   5    -0.105513880786E+04   -0.54099E+01   -0.54067E+01 14664   0.765E+00    0.841E+01
DAV:   6    -0.904935004280E+03    0.15020E+03   -0.70174E+02  9952   0.408E+01    0.368E+01
DAV:   7    -0.907344651101E+03   -0.24096E+01   -0.71702E+01 10904   0.149E+01    0.189E+01
DAV:   8    -0.904911193555E+03    0.24335E+01   -0.11809E+01 12456   0.802E+00    0.134E+01
DAV:   9    -0.905455450528E+03   -0.54426E+00   -0.39247E+00 11872   0.526E+00    0.632E+00
DAV:  10    -0.904826175966E+03    0.62927E+00   -0.17498E+00 10992   0.294E+00    0.390E+00
DAV:  11    -0.904564108646E+03    0.26207E+00   -0.10305E+00 10776   0.197E+00    0.229E+00
DAV:  12    -0.904491320290E+03    0.72788E-01   -0.23704E-01 10136   0.915E-01    0.170E+00
DAV:  13    -0.904421776615E+03    0.69544E-01   -0.71940E-02 11368   0.971E-01    0.245E+00
DAV:  14    -0.904474288074E+03   -0.52511E-01   -0.11878E-01 12384   0.756E-01    0.168E+00
DAV:  15    -0.904411562022E+03    0.62726E-01   -0.35193E-02 10512   0.598E-01    0.751E-01
DAV:  16    -0.904422481486E+03   -0.10919E-01   -0.29735E-02 10880   0.347E-01    0.220E+00
DAV:  17    -0.904410832419E+03    0.11649E-01   -0.11311E-02  9736   0.224E-01    0.318E-01
DAV:  18    -0.904412083289E+03   -0.12509E-02   -0.32809E-03 10736   0.844E-02    0.488E-01
DAV:  19    -0.904412702098E+03   -0.61881E-03   -0.92199E-04 11192   0.576E-02    0.605E-01
DAV:  20    -0.904410515690E+03    0.21864E-02   -0.51146E-04 11656   0.778E-02    0.965E-02
DAV:  21    -0.904410550746E+03   -0.35056E-04   -0.32555E-04  9792   0.260E-02    0.639E-02
DAV:  22    -0.904410553281E+03   -0.25354E-05   -0.46175E-05 11152   0.160E-02    0.731E-02
DAV:  23    -0.904410535507E+03    0.17774E-04   -0.30472E-05 12064   0.123E-02    0.219E-02
DAV:  24    -0.904410533951E+03    0.15560E-05   -0.58295E-06  9096   0.484E-03    0.404E-03
DAV:  25    -0.904410534594E+03   -0.64331E-06   -0.40049E-06  7864   0.336E-03
   1 F= -.90441053E+03 E0= -.90440110E+03  d E =-.188650E-01
