 vasp.5.4.4.18Apr17-6-g9f103f2a35 (build Mar 16 2023 09:39:13) complex          
  
 executed on             LinuxIFC date 2024.04.30  09:04:37
 running on   48 total cores
 distrk:  each k-point on   48 cores,    1 groups
 distr:  one band on NCORES_PER_BAND=  12 cores,    4 groups


--------------------------------------------------------------------------------------------------------


 INCAR:
 POTCAR:    PAW_PBE Ca_sv 06Sep2000               
 POTCAR:    PAW_PBE Si 05Jan2001                  
 POTCAR:    PAW_PBE O 08Apr2002                   
 POTCAR:    PAW_PBE Ca_sv 06Sep2000               
   SHA256 =  a47365830e737f14e0e6c5cf1ed81b94e081eecf0a33df105380881bc9da05d5 Ca
   COPYR  = (c) Copyright 06Sep2000 Georg Kresse                                
   COPYR  = This file is part of the software VASP. Any use, copying, and all ot
   COPYR  = If you do not have a valid VASP license, you may not use, copy or di
   VRHFIN =Ca: 3s3p4s                                                           
   LEXCH  = PE                                                                  
   EATOM  =  1006.0909 eV,   73.9456 Ry                                         
                                                                                
   TITEL  = PAW_PBE Ca_sv 06Sep2000                                             
   LULTRA =        F    use ultrasoft PP ?                                      
   IUNSCR =        1    unscreen: 0-lin 1-nonlin 2-no                           
   RPACOR =    2.000    partial core radius                                     
   POMASS =   40.078; ZVAL   =   10.000    mass and valenz                      
   RCORE  =    2.300    outmost cutoff radius                                   
   RWIGS  =    2.500; RWIGS  =    1.323    wigner-seitz radius (au A)           
   ENMAX  =  266.622; ENMIN  =  199.967 eV                                      
   RCLOC  =    1.808    cutoff for local pot                                    
   LCOR   =        T    correct aug charges                                     
   LPAW   =        T    paw PP                                                  
   EAUG   =  420.852                                                            
   RMAX   =    2.359    core radius for proj-oper                               
   RAUG   =    1.300    factor for augmentation sphere                          
   RDEP   =    2.392    radius for radial grids                                 
   RDEPT  =    1.987    core radius for aug-charge                              
                                                                                
   Atomic configuration                                                         
    7 entries                                                                   
     n  l   j            E        occ.                                          
     1  0  0.50     -3949.1705   2.0000                                         
     2  0  0.50      -414.3434   2.0000                                         
     2  1  1.50      -334.7047   6.0000                                         
     3  0  0.50       -47.0896   2.0000                                         
     4  0  0.50        -3.7663   2.0000                                         
     3  1  1.50       -28.0061   6.0000                                         
     3  2  1.50        -4.0817   0.0000                                         
   Description                                                                  
     l       E           TYP  RCUT    TYP  RCUT                                 
     0    -47.0896403     23  2.300                                             
     0     -3.7663320     23  2.300                                             
     1    -28.0060855     23  2.300                                             
     1      6.8029130     23  2.300                                             
     2     -4.0817478     23  2.300                                             
     2      0.4464412     23  2.300                                             
  local pseudopotential read in
  partial core-charges read in
  partial kinetic energy density read in
  atomic valenz-charges read in
  non local Contribution for L=           0  read in
    real space projection operators read in
  non local Contribution for L=           0  read in
    real space projection operators read in
  non local Contribution for L=           1  read in
    real space projection operators read in
  non local Contribution for L=           1  read in
    real space projection operators read in
  non local Contribution for L=           2  read in
    real space projection operators read in
  non local Contribution for L=           2  read in
    real space projection operators read in
    PAW grid and wavefunctions read in
 
   number of l-projection  operators is LMAX  =           6
   number of lm-projection operators is LMMAX =          18
 
 POTCAR:    PAW_PBE Si 05Jan2001                  
   SHA256 =  79d9987ad8750f624c4d6acb2a16d13abf6a777132adc04dc6c8399be72b42bb Si
   COPYR  = (c) Copyright 05Jan2001 Georg Kresse                                
   COPYR  = This file is part of the software VASP. Any use, copying, and all ot
   COPYR  = If you do not have a valid VASP license, you may not use, copy or di
   VRHFIN =Si: s2p2                                                             
   LEXCH  = PE                                                                  
   EATOM  =   103.0669 eV,    7.5752 Ry                                         
                                                                                
   TITEL  = PAW_PBE Si 05Jan2001                                                
   LULTRA =        F    use ultrasoft PP ?                                      
   IUNSCR =        1    unscreen: 0-lin 1-nonlin 2-no                           
   RPACOR =    1.500    partial core radius                                     
   POMASS =   28.085; ZVAL   =    4.000    mass and valenz                      
   RCORE  =    1.900    outmost cutoff radius                                   
   RWIGS  =    2.480; RWIGS  =    1.312    wigner-seitz radius (au A)           
   ENMAX  =  245.345; ENMIN  =  184.009 eV                                      
   ICORE  =        2    local potential                                         
   LCOR   =        T    correct aug charges                                     
   LPAW   =        T    paw PP                                                  
   EAUG   =  322.069                                                            
   DEXC   =    0.000                                                            
   RMAX   =    1.950    core radius for proj-oper                               
   RAUG   =    1.300    factor for augmentation sphere                          
   RDEP   =    1.993    radius for radial grids                                 
   RDEPT  =    1.837    core radius for aug-charge                              
                                                                                
   Atomic configuration                                                         
    6 entries                                                                   
     n  l   j            E        occ.                                          
     1  0  0.50     -1785.8828   2.0000                                         
     2  0  0.50      -139.4969   2.0000                                         
     2  1  1.50       -95.5546   6.0000                                         
     3  0  0.50       -10.8127   2.0000                                         
     3  1  0.50        -4.0811   2.0000                                         
     3  2  1.50        -4.0817   0.0000                                         
   Description                                                                  
     l       E           TYP  RCUT    TYP  RCUT                                 
     0    -10.8127223     23  1.900                                             
     0     -7.6451159     23  1.900                                             
     1     -4.0811372     23  1.900                                             
     1      2.4879257     23  1.900                                             
     2     -4.0817478      7  1.900                                             
  local pseudopotential read in
  partial core-charges read in
  partial kinetic energy density read in
  atomic valenz-charges read in
  non local Contribution for L=           0  read in
    real space projection operators read in
  non local Contribution for L=           0  read in
    real space projection operators read in
  non local Contribution for L=           1  read in
    real space projection operators read in
  non local Contribution for L=           1  read in
    real space projection operators read in
    PAW grid and wavefunctions read in
 
   number of l-projection  operators is LMAX  =           4
   number of lm-projection operators is LMMAX =           8
 
 POTCAR:    PAW_PBE O 08Apr2002                   
   SHA256 =  818f92134a0a090dccd8ba1447fa70422a3b330e708bb4f08108d8ae51209ddf O/
   COPYR  = (c) Copyright 08Apr2002 Georg Kresse                                
   COPYR  = This file is part of the software VASP. Any use, copying, and all ot
   COPYR  = If you do not have a valid VASP license, you may not use, copy or di
   VRHFIN =O: s2p4                                                              
   LEXCH  = PE                                                                  
   EATOM  =   432.3788 eV,   31.7789 Ry                                         
                                                                                
   TITEL  = PAW_PBE O 08Apr2002                                                 
   LULTRA =        F    use ultrasoft PP ?                                      
   IUNSCR =        1    unscreen: 0-lin 1-nonlin 2-no                           
   RPACOR =    1.200    partial core radius                                     
   POMASS =   16.000; ZVAL   =    6.000    mass and valenz                      
   RCORE  =    1.520    outmost cutoff radius                                   
   RWIGS  =    1.550; RWIGS  =    0.820    wigner-seitz radius (au A)           
   ENMAX  =  400.000; ENMIN  =  300.000 eV                                      
   ICORE  =        2    local potential                                         
   LCOR   =        T    correct aug charges                                     
   LPAW   =        T    paw PP                                                  
   EAUG   =  605.392                                                            
   DEXC   =    0.000                                                            
   RMAX   =    1.553    core radius for proj-oper                               
   RAUG   =    1.300    factor for augmentation sphere                          
   RDEP   =    1.550    radius for radial grids                                 
   RDEPT  =    1.329    core radius for aug-charge                              
                                                                                
   Atomic configuration                                                         
    4 entries                                                                   
     n  l   j            E        occ.                                          
     1  0  0.50      -514.6923   2.0000                                         
     2  0  0.50       -23.9615   2.0000                                         
     2  1  0.50        -9.0305   4.0000                                         
     3  2  1.50        -9.5241   0.0000                                         
   Description                                                                  
     l       E           TYP  RCUT    TYP  RCUT                                 
     0    -23.9615318     23  1.200                                             
     0     -9.5240782     23  1.200                                             
     1     -9.0304911     23  1.520                                             
     1      8.1634956     23  1.520                                             
     2     -9.5240782      7  1.500                                             
  local pseudopotential read in
  partial core-charges read in
  partial kinetic energy density read in
  kinetic energy density of atom read in
  atomic valenz-charges read in
  non local Contribution for L=           0  read in
    real space projection operators read in
  non local Contribution for L=           0  read in
    real space projection operators read in
  non local Contribution for L=           1  read in
    real space projection operators read in
  non local Contribution for L=           1  read in
    real space projection operators read in
    PAW grid and wavefunctions read in
 
   number of l-projection  operators is LMAX  =           4
   number of lm-projection operators is LMMAX =           8
 
 Optimization of the real space projectors (new method)

 maximal supplied QI-value         = 16.25
 optimisation between [QCUT,QGAM] = [ 12.51, 25.03] = [ 43.85,175.40] Ry 
 Optimized for a Real-space Cutoff    1.47 Angstroem

   l    n(q)    QCUT    max X(q) W(low)/X(q) W(high)/X(q)  e(spline) 
   0     11    12.514    11.817    0.25E-04    0.32E-05    0.87E-07
   0     11    12.514     8.461    0.39E-04    0.59E-05    0.18E-06
   1     11    12.514     3.957    0.97E-05    0.57E-05    0.28E-07
   1     11    12.514     4.314    0.42E-04    0.14E-04    0.23E-06
   2     10    12.514    14.565    0.79E-04    0.50E-03    0.16E-05
   2     10    12.514    14.552    0.75E-04    0.48E-03    0.15E-05
 Optimization of the real space projectors (new method)

 maximal supplied QI-value         = 19.84
 optimisation between [QCUT,QGAM] = [ 12.50, 25.00] = [ 43.76,175.03] Ry 
 Optimized for a Real-space Cutoff    1.16 Angstroem

   l    n(q)    QCUT    max X(q) W(low)/X(q) W(high)/X(q)  e(spline) 
   0      9    12.501   159.560    0.10E-03    0.83E-04    0.71E-07
   0      9    12.501   115.863    0.99E-04    0.81E-04    0.70E-07
   1      8    12.501    88.339    0.20E-03    0.25E-03    0.76E-07
   1      8    12.501    48.592    0.20E-03    0.24E-03    0.75E-07
 Optimization of the real space projectors (new method)

 maximal supplied QI-value         = 24.76
 optimisation between [QCUT,QGAM] = [ 12.38, 25.00] = [ 42.90,175.06] Ry 
 Optimized for a Real-space Cutoff    1.16 Angstroem

   l    n(q)    QCUT    max X(q) W(low)/X(q) W(high)/X(q)  e(spline) 
   0      9    12.378    20.381    0.16E-03    0.67E-05    0.31E-06
   0      9    12.378    15.268    0.17E-03    0.81E-05    0.33E-06
   1      8    12.378     5.964    0.20E-03    0.16E-03    0.30E-06
   1      8    12.378     5.382    0.18E-03    0.14E-03    0.26E-06
  PAW_PBE Ca_sv 06Sep2000               :
 energy of atom  1       EATOM=-1006.0909
 kinetic energy error for atom=    0.0012 (will be added to EATOM!!)
  PAW_PBE Si 05Jan2001                  :
 energy of atom  2       EATOM= -103.0669
 kinetic energy error for atom=    0.0003 (will be added to EATOM!!)
  PAW_PBE O 08Apr2002                   :
 energy of atom  3       EATOM= -432.3788
 kinetic energy error for atom=    0.0168 (will be added to EATOM!!)
 
 
 POSCAR: Ca Si  O                                
  positions in direct lattice
  No initial velocities read in
 exchange correlation table for  LEXCH =        8
   RHO(1)=    0.500       N(1)  =     2000
   RHO(2)=  100.500       N(2)  =     4000
 


--------------------------------------------------------------------------------------------------------


 ion  position               nearest neighbor table
   1  0.642  0.158  0.404-  62 2.05 121 2.11 134 2.15  59 2.21 108 2.55  78 2.56  53 2.88  35 2.89
                            51 2.91  41 3.01   2 3.07  32 3.12
   2  0.763  0.414  0.337- 104 1.93  80 2.06 134 2.08  99 2.26  87 2.33  60 2.41 107 2.43  32 2.79
                            18 2.83  19 2.99   1 3.07  12 3.11  37 3.13
   3  0.444  0.066  0.940-  90 2.01  85 2.12  84 2.15 127 2.15  98 2.46  97 2.50 124 2.52  21 2.80
                            41 2.86  36 2.92  38 3.10
   4  0.538  0.652  0.543- 135 1.98 119 2.11 122 2.12  88 2.14  82 2.33  60 2.37 131 2.38  61 2.39
                            29 2.69  43 2.79  53 2.80  50 3.12
   5  0.219  0.603  0.165-  79 2.05  76 2.12  70 2.24 114 2.28 118 2.31 125 2.43  65 2.44 123 2.46
                            30 2.70  46 2.76  44 2.79  16 2.93  12 2.93  54 3.02  42 3.03
   6  0.747  0.738  0.337-  61 2.12 113 2.25  81 2.37  88 2.39 104 2.41  54 2.76  53 2.90  42 3.03
                            43 3.11   7 3.14
   7  0.900  0.904  0.529-  89 1.93  91 2.17  81 2.21 111 2.27  61 2.29  72 2.53  31 3.08  43 3.12
                             6 3.14  53 3.15
   8  0.329  0.820  0.402-  88 2.17  79 2.26 100 2.26  71 2.26 128 2.28 131 2.31  86 2.39 135 2.53
                           125 2.57  51 2.95  11 2.97  29 2.99  42 3.00  44 3.08  49 3.10  23 3.10
   9  0.044  0.061  0.037-  73 2.01 120 2.14  63 2.19 116 2.35 112 2.47  68 2.48  49 2.81  45 2.84
                            26 2.88  22 2.97  14 3.02  46 3.11
  10  0.182  0.268  0.446- 129 2.10 133 2.25 132 2.30 106 2.34 118 2.36  66 2.41  83 2.47 108 2.57
                            51 2.73  47 2.89  37 2.90  12 2.95  34 2.96  24 2.98  44 2.98  20 3.03
  11  0.131  0.717  0.572- 131 2.05 128 2.10 125 2.16  91 2.22 117 2.27  89 2.31  95 2.40  29 2.73
                            44 2.89   8 2.97  54 3.01  31 3.06
  12  0.043  0.404  0.246- 129 1.98 118 2.02 120 2.13  76 2.28 101 2.38  80 2.48  37 2.54  54 2.79
                            40 2.92   5 2.93  10 2.95  45 3.01   2 3.11
  13  0.451  0.721  0.950- 114 2.19 130 2.21  70 2.24  82 2.26  97 2.34  64 2.36  67 2.43  50 2.80
                            38 2.83  39 2.86  27 3.01  46 3.04  29 3.07  42 3.08
  14  0.849  0.269  0.016-  92 1.92  75 2.16  68 2.17 116 2.17 105 2.21  80 2.26 109 2.37  15 2.86
                            25 2.87  45 2.94   9 3.02  40 3.05  35 3.14
  15  0.951  0.422  0.818-  58 2.12 110 2.12  68 2.14  95 2.16 109 2.24 101 2.32  57 2.33  69 2.34
                            47 2.79  45 2.79  40 2.85  14 2.86  48 2.92  19 2.96  16 3.02
  16  0.181  0.575  0.892-  67 2.12  95 2.19 117 2.20  57 2.22 126 2.25 114 2.26  47 2.83   5 2.93
                            45 3.02  15 3.02  30 3.05  38 3.14
  17  0.955  0.793  0.808-  63 2.07 126 2.16  94 2.16  89 2.18 110 2.45 102 2.48  22 3.02  43 3.13

  18  0.655  0.487  0.104-  80 2.01 109 2.19  99 2.25  74 2.35  87 2.41 115 2.53  40 2.80   2 2.83
                            42 2.87  48 3.02  32 3.05  30 3.10  41 3.11
  19  0.944  0.481  0.545- 133 2.21 104 2.23  58 2.30 107 2.33  60 2.34  95 2.39  91 2.40 129 2.42
                            43 2.44  47 2.86  34 2.86  54 2.89  15 2.96   2 2.99
  20  0.430  0.311  0.584-  96 2.17 122 2.22 108 2.31  77 2.33  78 2.40 134 2.44  66 2.44  85 2.53
                            28 2.57  51 2.89  32 2.93  10 3.03  50 3.05  47 3.10  21 3.16
  21  0.447  0.027  0.677-  85 2.09  55 2.13 121 2.13  97 2.19  83 2.22 127 2.31 135 2.37   3 2.80
                            53 2.81  29 2.85  51 2.86  27 2.91  33 2.97  36 3.08  31 3.11  20 3.16
  22  0.953  0.801  0.094- 126 2.19  94 2.20 112 2.20  65 2.21  74 2.25  76 2.34 113 2.36  63 2.48
                            40 2.74  39 2.76   9 2.97  17 3.02  54 3.03  49 3.09  46 3.14
  23  0.532  0.922  0.216-  59 2.15 100 2.22  64 2.23  84 2.27  88 2.34 113 2.48 124 2.56  42 2.79
                            39 2.88  35 2.98  53 3.10   8 3.10
  24  0.275  0.193  0.191-  84 2.06  86 2.21  98 2.34 132 2.35 120 2.39  73 2.42 123 2.46 108 2.52
                            51 2.88  45 2.97  10 2.98  41 3.01  30 3.08  49 3.11
  25  0.630  0.308  0.859-  92 2.01  69 2.03 115 2.05 105 2.29  56 2.40  78 2.53  28 2.58  33 2.82
                            50 2.86  14 2.87  48 2.90
  26  0.982  0.092  0.773- 111 2.06  68 2.17 105 2.24 103 2.32 106 2.35 102 2.44  89 2.50  34 2.58
                            31 2.75  33 2.87   9 2.88  52 3.04  36 3.09
  27  0.630  0.840  0.763-  55 1.93 102 2.14 119 2.16 130 2.21 127 2.36 135 2.44 124 2.53  52 2.69
                            53 2.87  21 2.91  33 2.94  13 3.01  29 3.07  39 3.09  48 3.12  43 3.15
  28  0.665  0.362  0.624-  69 1.62  78 1.62 122 1.72 107 1.93 134 1.95  60 2.24  20 2.57  25 2.58
                            33 2.98
  29  0.360  0.772  0.679-  82 1.54 117 1.72 135 1.77  97 1.79 128 1.86 131 1.95  38 2.60   4 2.69
                            11 2.73  21 2.85   8 2.99  13 3.07  27 3.07
  30  0.372  0.431  0.053-  56 1.57 123 1.64  70 1.70  67 1.74  93 1.78   5 2.70  45 3.00  16 3.05
                            50 3.05  24 3.08  18 3.10  41 3.13
  31  0.163  0.002  0.608- 106 1.60 128 1.61  89 1.79  83 1.79  71 1.89 103 1.92  26 2.75  11 3.06
                             7 3.08  36 3.08  21 3.11  51 3.11
  32  0.500  0.408  0.334-  93 1.63  87 1.64  99 1.70 134 1.77  96 1.77 108 2.10   2 2.79  42 2.89
                            20 2.93  44 2.96  41 2.97  18 3.05   1 3.12
  33  0.716  0.100  0.715- 127 1.67  78 1.72 105 1.73 111 1.76  55 1.78 102 1.80  52 2.42  25 2.82
                            26 2.87  27 2.94  21 2.97  28 2.98  34 3.04
  34  0.935  0.211  0.565- 111 1.63 107 1.66  58 1.67 106 1.76  72 1.80 129 2.12  26 2.58  37 2.67
                            19 2.86  10 2.96  33 3.04
  35  0.786  0.045  0.201-  59 1.60 116 1.69 113 1.83 112 1.97  75 2.00  62 2.29  37 2.64   1 2.89
                            23 2.98  52 3.05  41 3.09  14 3.14
  36  0.250  0.205  0.799-  66 1.53  85 1.59 103 1.77  98 1.81  57 2.04  45 2.66  47 2.73   3 2.92
                            31 3.08  21 3.08  26 3.09
  37  0.955  0.190  0.313-  75 1.46  72 1.52 129 1.61 132 1.70 120 2.30  12 2.54  35 2.64  34 2.67
                            49 2.87  10 2.90   2 3.13
  38  0.240  0.866  0.872-  90 1.63  97 1.69  63 1.78 117 1.82 114 1.92 103 2.18  46 2.40  29 2.60
                            13 2.83   3 3.10  16 3.14
  39  0.697  0.790  0.044- 124 1.62  64 1.65  94 1.66  74 1.74 113 1.79 130 1.80  52 2.66  22 2.76
                            13 2.86  23 2.88  27 3.09
  40  0.908  0.549  0.053- 101 1.58 109 1.68 126 1.78  74 1.82  80 1.85  76 1.92  22 2.74  18 2.80
                            15 2.85  12 2.92  14 3.05  48 3.07
  41  0.554  0.213  0.138-  99 1.65  84 1.70  92 1.71  59 1.72  56 1.96   3 2.86  32 2.97  24 3.01
                             1 3.01  35 3.09  18 3.11  30 3.13
  42  0.491  0.661  0.232-  64 1.62  70 1.81  79 1.82  87 1.84  88 2.03 100 2.11  23 2.79  18 2.87
                            32 2.89   8 3.00   5 3.03   6 3.03  13 3.08
  43  0.793  0.641  0.611-  60 1.56  91 1.57 119 1.60 110 1.78  61 2.03  19 2.44  48 2.63   4 2.79
                             6 3.11   7 3.12  17 3.13  27 3.15
  44  0.265  0.536  0.416- 118 1.45  96 1.64  79 1.67 125 1.74 133 1.83 131 1.91   5 2.79  11 2.89
                            32 2.96  10 2.98   8 3.08
  45  0.122  0.313  0.988-  68 1.60 123 1.62  57 1.72 120 1.80 101 1.86  98 1.86  36 2.66  15 2.79
                             9 2.84  14 2.94  24 2.97  30 3.00  12 3.01  16 3.02
  46  0.245  0.855  0.099- 114 1.55  73 1.58  90 1.62 100 1.63  65 1.75  38 2.40  49 2.66   5 2.76
                            13 3.04   9 3.11  22 3.14
  47  0.173  0.418  0.675- 133 1.68  66 1.69  77 1.77  95 1.81  57 1.83  58 2.07  36 2.73  15 2.79
                            16 2.83  19 2.86  10 2.89  20 3.10
  48  0.716  0.567  0.836- 115 1.58 130 1.68 110 1.72 119 1.80 109 1.81  69 1.89  43 2.63  50 2.77
                            25 2.90  15 2.92  18 3.02  40 3.07  27 3.12
  49  0.107  0.967  0.278- 132 1.66  73 1.73 112 1.75  71 1.81  65 1.83  86 2.31  46 2.66   9 2.81
                            37 2.87  22 3.09   8 3.10  24 3.11
  50  0.464  0.510  0.791- 115 1.59  67 1.60  77 1.72  82 1.81 122 1.88  48 2.77  13 2.80  25 2.86
                            20 3.05  30 3.05   4 3.12
  51  0.374  0.095  0.426-  86 1.51  83 1.54 108 1.60 121 1.62  10 2.73  21 2.86  24 2.88  20 2.89
                             1 2.91   8 2.95  31 3.11
  52  0.750  0.001  0.918- 102 1.67 116 1.70 124 1.85  94 1.87 127 1.89 105 2.03  33 2.42  39 2.66
                            27 2.69  26 3.04  35 3.05
  53  0.603  0.906  0.500-  55 1.66  61 1.67 135 1.73  62 1.75 121 1.76  88 2.01   4 2.80  21 2.81
                            27 2.87   1 2.88   6 2.90  23 3.10   7 3.15
  54  0.992  0.648  0.333-  81 1.56 104 1.58  76 1.66 125 1.78   6 2.76  12 2.79  19 2.89  11 3.01
                             5 3.02  22 3.03
  55  0.637  0.973  0.638-  53 1.66  33 1.78  27 1.93  21 2.13
  56  0.467  0.322  0.016-  30 1.57  41 1.96  25 2.40
  57  0.164  0.372  0.842-  45 1.72  47 1.83  36 2.04  16 2.22  15 2.33
  58  0.010  0.311  0.663-  34 1.67  47 2.07  15 2.12  19 2.30
  59  0.642  0.093  0.205-  35 1.60  41 1.72  23 2.15   1 2.21
  60  0.731  0.539  0.526-  43 1.56  28 2.24  19 2.34   4 2.37   2 2.41
  61  0.713  0.795  0.526-  53 1.67  43 2.03   6 2.12   7 2.29   4 2.39
  62  0.706  0.976  0.390-  53 1.75   1 2.05  35 2.29
  63  0.080  0.893  0.920-  38 1.78  17 2.07   9 2.19  22 2.48
  64  0.580  0.734  0.132-  42 1.62  39 1.65  23 2.23  13 2.36
  65  0.128  0.810  0.208-  46 1.75  49 1.83  22 2.21   5 2.44
  66  0.221  0.265  0.672-  36 1.53  47 1.69  10 2.41  20 2.44
  67  0.370  0.510  0.909-  50 1.60  30 1.74  16 2.12  13 2.43
  68  0.017  0.249  0.900-  45 1.60  15 2.14  26 2.17  14 2.17   9 2.48
  69  0.742  0.415  0.746-  28 1.62  48 1.89  25 2.03  15 2.34
  70  0.419  0.576  0.102-  30 1.70  42 1.81   5 2.24  13 2.24
  71  0.157  0.942  0.440-  49 1.81  31 1.89   8 2.26
  72  0.898  0.120  0.426-  37 1.52  34 1.80   7 2.53
  73  0.188  0.988  0.137-  46 1.58  49 1.73   9 2.01  24 2.42
  74  0.789  0.665  0.098-  39 1.74  40 1.82  22 2.25  18 2.35
  75  0.864  0.218  0.213-  37 1.46  35 2.00  14 2.16
  76  0.019  0.609  0.183-  54 1.66  40 1.92   5 2.12  12 2.28  22 2.34
  77  0.330  0.459  0.714-  50 1.72  47 1.77  20 2.33
  78  0.628  0.214  0.639-  28 1.62  33 1.72  20 2.40  25 2.53   1 2.56
  79  0.342  0.627  0.313-  44 1.67  42 1.82   5 2.05   8 2.26
  80  0.829  0.430  0.155-  40 1.85  18 2.01   2 2.06  14 2.26  12 2.48
  81  0.963  0.789  0.366-  54 1.56   7 2.21   6 2.37
  82  0.445  0.672  0.742-  29 1.54  50 1.81  13 2.26   4 2.33
  83  0.295  0.090  0.548-  51 1.54  31 1.79  21 2.22  10 2.47
  84  0.439  0.100  0.140-  41 1.70  24 2.06   3 2.15  23 2.27
  85  0.398  0.185  0.785-  36 1.59  21 2.09   3 2.12  20 2.53
  86  0.314  0.028  0.315-  51 1.51  24 2.21  49 2.31   8 2.39
  87  0.582  0.537  0.314-  32 1.64  42 1.84   2 2.33  18 2.41
  88  0.528  0.776  0.383-  53 2.01  42 2.03   4 2.14   8 2.17  23 2.34   6 2.39
  89  0.036  0.898  0.650-  31 1.79   7 1.93  17 2.18  11 2.31  26 2.50
  90  0.310  0.939  0.989-  46 1.62  38 1.63   3 2.01
  91  0.922  0.705  0.573-  43 1.57   7 2.17  11 2.22  19 2.40
  92  0.672  0.230  0.028-  41 1.71  14 1.92  25 2.01
  93  0.398  0.405  0.218-  32 1.63  30 1.78
  94  0.811  0.837  0.946-  39 1.66  52 1.87  17 2.16  22 2.20
  95  0.073  0.551  0.717-  47 1.81  15 2.16  16 2.19  19 2.39  11 2.40
  96  0.399  0.467  0.454-  44 1.64  32 1.77  20 2.17
  97  0.386  0.878  0.808-  38 1.69  29 1.79  21 2.19  13 2.34   3 2.50
  98  0.253  0.196  0.971-  36 1.81  45 1.86  24 2.34   3 2.46
  99  0.597  0.329  0.234-  41 1.65  32 1.70  18 2.25   2 2.26
 100  0.359  0.805  0.191-  46 1.63  42 2.11  23 2.22   8 2.26
 101  0.016  0.448  0.026-  40 1.58  45 1.86  15 2.32  12 2.38
 102  0.793  0.959  0.772-  52 1.67  33 1.80  27 2.14  26 2.44  17 2.48
 103  0.196  0.047  0.781-  36 1.77  31 1.92  38 2.18  26 2.32
 104  0.879  0.553  0.357-  54 1.58   2 1.93  19 2.23   6 2.41
 105  0.796  0.170  0.839-  33 1.73  52 2.03  14 2.21  26 2.24  25 2.29
 106  0.075  0.122  0.574-  31 1.60  34 1.76  10 2.34  26 2.35
 107  0.812  0.304  0.533-  34 1.66  28 1.93  19 2.33   2 2.43
 108  0.414  0.234  0.380-  51 1.60  32 2.10  20 2.31  24 2.52   1 2.55  10 2.57
 109  0.801  0.480  0.957-  40 1.68  48 1.81  18 2.19  15 2.24  14 2.37
 110  0.857  0.589  0.758-  48 1.72  43 1.78  15 2.12  17 2.45
 111  0.856  0.092  0.623-  34 1.63  33 1.76  26 2.06   7 2.27
 112  0.950  0.962  0.226-  49 1.75  35 1.97  22 2.20   9 2.47
 113  0.759  0.876  0.176-  39 1.79  35 1.83   6 2.25  22 2.36  23 2.48
 114  0.253  0.743  0.005-  46 1.55  38 1.92  13 2.19  16 2.26   5 2.28
 115  0.590  0.496  0.873-  48 1.58  50 1.59  25 2.05  18 2.53
 116  0.822  0.067  0.047-  35 1.69  52 1.70  14 2.17   9 2.35
 117  0.227  0.733  0.764-  29 1.72  38 1.82  16 2.20  11 2.27
 118  0.211  0.452  0.323-  44 1.45  12 2.02   5 2.31  10 2.36
 119  0.667  0.650  0.695-  43 1.60  48 1.80   4 2.11  27 2.16
 120  0.062  0.240  0.130-  45 1.80  12 2.13   9 2.14  37 2.30  24 2.39
 121  0.504  0.038  0.485-  51 1.62  53 1.76   1 2.11  21 2.13
 122  0.549  0.476  0.638-  28 1.72  50 1.88   4 2.12  20 2.22
 123  0.224  0.388  0.075-  45 1.62  30 1.64   5 2.46  24 2.46
 124  0.618  0.911  0.990-  39 1.62  52 1.85   3 2.52  27 2.53  23 2.56
 125  0.154  0.653  0.380-  44 1.74  54 1.78  11 2.16   5 2.43   8 2.57
 126  0.992  0.654  0.953-  40 1.78  17 2.16  22 2.19  16 2.25
 127  0.609  0.054  0.822-  33 1.67  52 1.89   3 2.15  21 2.31  27 2.36
 128  0.247  0.876  0.594-  31 1.61  29 1.86  11 2.10   8 2.28
 129  0.993  0.310  0.400-  37 1.61  12 1.98  10 2.10  34 2.12  19 2.42
 130  0.654  0.693  0.910-  48 1.68  39 1.80  13 2.21  27 2.21
 131  0.313  0.655  0.545-  44 1.91  29 1.95  11 2.05   8 2.31   4 2.38
 132  0.100  0.121  0.308-  49 1.66  37 1.70  10 2.30  24 2.35
 133  0.152  0.464  0.524-  47 1.68  44 1.83  19 2.21  10 2.25
 134  0.611  0.355  0.447-  32 1.77  28 1.95   2 2.08   1 2.15  20 2.44
 135  0.486  0.827  0.583-  53 1.73  29 1.77   4 1.98  21 2.37  27 2.44   8 2.53
 

IMPORTANT INFORMATION: All symmetrisations will be switched off!
NOSYMM: (Re-)initialisation of all symmetry stuff for point group C_1.

 
 

Automatic generation of k-mesh.
 generate k-points for:    2    2    2
Space group operators:
 irot       det(A)        alpha          n_x          n_y          n_z        tau_x        tau_y        tau_z
    1     1.000000     0.000000     1.000000     0.000000     0.000000     0.000000     0.000000     0.000000
 
 Subroutine IBZKPT returns following result:
 ===========================================
 
 Found      8 irreducible k-points:
 
 Following reciprocal coordinates:
            Coordinates               Weight
  0.000000  0.000000  0.000000      1.000000
  0.500000  0.000000  0.000000      1.000000
  0.000000  0.500000  0.000000      1.000000
  0.500000  0.500000  0.000000      1.000000
  0.000000  0.000000  0.500000      1.000000
  0.500000  0.000000  0.500000      1.000000
  0.000000  0.500000  0.500000      1.000000
  0.500000  0.500000  0.500000      1.000000
 
 Following cartesian coordinates:
            Coordinates               Weight
  0.000000  0.000000  0.000000      1.000000
  0.047327  0.000000  0.000000      1.000000
  0.000000  0.047327  0.000000      1.000000
  0.047327  0.047327  0.000000      1.000000
  0.000000  0.000000  0.047327      1.000000
  0.047327  0.000000  0.047327      1.000000
  0.000000  0.047327  0.047327      1.000000
  0.047327  0.047327  0.047327      1.000000
 


--------------------------------------------------------------------------------------------------------




 Dimension of arrays:
   k-points           NKPTS =      8   k-points in BZ     NKDIM =      8   number of bands    NBANDS=    520
   number of dos      NEDOS =    301   number of ions     NIONS =    135
   non local maximal  LDIM  =      6   non local SUM 2l+1 LMDIM =     18
   total plane-waves  NPLWV = 592704
   max r-space proj   IRMAX =   6747   max aug-charges    IRDMAX= 192025
   dimension x,y,z NGX =    84 NGY =   84 NGZ =   84
   dimension x,y,z NGXF=   168 NGYF=  168 NGZF=  168
   support grid    NGXF=   336 NGYF=  336 NGZF=  336
   ions per type =              27  27  81
   NGX,Y,Z   is equivalent  to a cutoff of  13.22, 13.22, 13.22 a.u.
   NGXF,Y,Z  is equivalent  to a cutoff of  26.44, 26.44, 26.44 a.u.

 SYSTEM =  unknown system                          
 POSCAR =  Ca Si  O                                

 Startparameter for this run:
   NWRITE =      2    write-flag & timer
   PREC   = a         normal or accurate (medium, high low for compatibility)
   ISTART =      0    job   : 0-new  1-cont  2-samecut
   ICHARG =      2    charge: 1-file 2-atom 10-const
   ISPIN  =      1    spin polarized calculation?
   LNONCOLLINEAR =      F non collinear calculations
   LSORBIT =      F    spin-orbit coupling
   INIWAV =      1    electr: 0-lowe 1-rand  2-diag
   LASPH  =      F    aspherical Exc in radial PAW
   METAGGA=      F    non-selfconsistent MetaGGA calc.

 Electronic Relaxation 1
   ENCUT  =  600.0 eV  44.10 Ry    6.64 a.u.  21.10 21.10 21.10*2*pi/ulx,y,z
   ENINI  =  600.0     initial cutoff
   ENAUG  =  605.4 eV  augmentation charge cutoff
   NELM   =     60;   NELMIN=  2; NELMDL= -5     # of ELM steps 
   EDIFF  = 0.1E-05   stopping-criterion for ELM
   LREAL  =      T    real-space projection
   NLSPLINE    = F    spline interpolate recip. space projectors
   LCOMPAT=      F    compatible to vasp.4.4
   GGA_COMPAT  = T    GGA compatible to vasp.4.4-vasp.4.6
   LMAXPAW     = -100 max onsite density
   LMAXMIX     =    2 max onsite mixed and CHGCAR
   VOSKOWN=      0    Vosko Wilk Nusair interpolation
   ROPT   =   -0.00025  -0.00025  -0.00025
 Ionic relaxation
   EDIFFG = -.1E-01   stopping-criterion for IOM
   NSW    =      1    number of steps for IOM
   NBLOCK =      1;   KBLOCK =      1    inner block; outer block 
   IBRION =     -1    ionic relax: 0-MD 1-quasi-New 2-CG
   NFREE  =      0    steps in history (QN), initial steepest desc. (CG)
   ISIF   =      2    stress and relaxation
   IWAVPR =     10    prediction:  0-non 1-charg 2-wave 3-comb
   ISYM   =      0    0-nonsym 1-usesym 2-fastsym
   LCORR  =      T    Harris-Foulkes like correction to forces

   POTIM  = 1.0000    time-step for ionic-motion
   TEIN   =    0.0    initial temperature
   TEBEG  =    0.0;   TEEND  =   0.0 temperature during run
   SMASS  =  -3.00    Nose mass-parameter (am)
   estimated Nose-frequenzy (Omega)   =  0.10E-29 period in steps =****** mass=  -0.255E-26a.u.
   SCALEE = 1.0000    scale energy and forces
   NPACO  =    256;   APACO  = 16.0  distance and # of slots for P.C.
   PSTRESS=    0.0 pullay stress

  Mass of Ions in am
   POMASS =  40.08 28.09 16.00
  Ionic Valenz
   ZVAL   =  10.00  4.00  6.00
  Atomic Wigner-Seitz radii
   RWIGS  =  -1.00 -1.00 -1.00
  virtual crystal weights 
   VCA    =   1.00  1.00  1.00
   NELECT =     864.0000    total number of electrons
   NUPDOWN=      -1.0000    fix difference up-down

 DOS related values:
   EMIN   =  10.00;   EMAX   =-10.00  energy-range for DOS
   EFERMI =   0.00
   ISMEAR =     0;   SIGMA  =   0.05  broadening in eV -4-tet -1-fermi 0-gaus

 Electronic relaxation 2 (details)
   IALGO  =     38    algorithm
   LDIAG  =      T    sub-space diagonalisation (order eigenvalues)
   LSUBROT=      F    optimize rotation matrix (better conditioning)
   TURBO    =      0    0=normal 1=particle mesh
   IRESTART =      0    0=no restart 2=restart with 2 vectors
   NREBOOT  =      0    no. of reboots
   NMIN     =      0    reboot dimension
   EREF     =   0.00    reference energy to select bands
   IMIX   =      4    mixing-type and parameters
     AMIX     =   0.40;   BMIX     =  1.00
     AMIX_MAG =   1.60;   BMIX_MAG =  1.00
     AMIN     =   0.10
     WC   =   100.;   INIMIX=   1;  MIXPRE=   1;  MAXMIX= -45

 Intra band minimization:
   WEIMIN = 0.0000     energy-eigenvalue tresh-hold
   EBREAK =  0.48E-09  absolut break condition
   DEPER  =   0.30     relativ break condition  

   TIME   =   0.40     timestep for ELM

  volume/ion in A,a.u.               =       8.73        58.95
  Fermi-wavevector in a.u.,A,eV,Ry     =   1.475868  2.788986 29.636021  2.178186
  Thomas-Fermi vector in A             =   2.590464
 
 Write flags
   LWAVE        =      F    write WAVECAR
   LDOWNSAMPLE  =      F    k-point downsampling of WAVECAR
   LCHARG       =      F    write CHGCAR
   LVTOT        =      F    write LOCPOT, total local potential
   LVHAR        =      F    write LOCPOT, Hartree potential only
   LELF         =      F    write electronic localiz. function (ELF)
   LORBIT       =      0    0 simple, 1 ext, 2 COOP (PROOUT), +10 PAW based schemes


 Dipole corrections
   LMONO  =      F    monopole corrections only (constant potential shift)
   LDIPOL =      F    correct potential (dipole corrections)
   IDIPOL =      0    1-x, 2-y, 3-z, 4-all directions 
   EPSILON=  1.0000000 bulk dielectric constant

 Exchange correlation treatment:
   GGA     =    --    GGA type
   LEXCH   =     8    internal setting for exchange type
   VOSKOWN=      0    Vosko Wilk Nusair interpolation
   LHFCALC =     F    Hartree Fock is set to
   LHFONE  =     F    Hartree Fock one center treatment
   AEXX    =    0.0000 exact exchange contribution

 Linear response parameters
   LEPSILON=     F    determine dielectric tensor
   LRPA    =     F    only Hartree local field effects (RPA)
   LNABLA  =     F    use nabla operator in PAW spheres
   LVEL    =     F    velocity operator in full k-point grid
   LINTERFAST=   F  fast interpolation
   KINTER  =     0    interpolate to denser k-point grid
   CSHIFT  =0.1000    complex shift for real part using Kramers Kronig
   OMEGAMAX=  -1.0    maximum frequency
   DEG_THRESHOLD= 0.2000000E-02 threshold for treating states as degnerate
   RTIME   =   -0.100 relaxation time in fs
  (WPLASMAI=    0.000 imaginary part of plasma frequency in eV, 0.658/RTIME)
   DFIELD  = 0.0000000 0.0000000 0.0000000 field for delta impulse in time
 
 Orbital magnetization related:
   ORBITALMAG=     F  switch on orbital magnetization
   LCHIMAG   =     F  perturbation theory with respect to B field
   DQ        =  0.001000  dq finite difference perturbation B field
   LLRAUG    =     F  two centre corrections for induced B field



--------------------------------------------------------------------------------------------------------


 Static calculation
 charge density and potential will be updated during run
 non-spin polarized calculation
 Variant of blocked Davidson
 Davidson routine will perform the subspace rotation
 perform sub-space diagonalisation
    after iterative eigenvector-optimisation
 modified Broyden-mixing scheme, WC =      100.0
 initial mixing is a Kerker type mixing with AMIX =  0.4000 and BMIX =      1.0000
 Hartree-type preconditioning will be used
 using additional bands           88
 real space projection scheme for non local part
 use partial core corrections
 calculate Harris-corrections to forces 
   (improved forces if not selfconsistent)
 use gradient corrections 
 use of overlap-Matrix (Vanderbilt PP)
 Gauss-broadening in eV      SIGMA  =   0.05


--------------------------------------------------------------------------------------------------------


  energy-cutoff  :      600.00
  volume of cell :     1179.22
      direct lattice vectors                 reciprocal lattice vectors
    10.564896610  0.000000000  0.000000000     0.094653080  0.000000000  0.000000000
     0.000000000 10.564896610  0.000000000     0.000000000  0.094653080  0.000000000
     0.000000000  0.000000000 10.564896610     0.000000000  0.000000000  0.094653080

  length of vectors
    10.564896610 10.564896610 10.564896610     0.094653080  0.094653080  0.094653080


 
 k-points in units of 2pi/SCALE and weight: read from INCAR                         
   0.00000000  0.00000000  0.00000000       0.125
   0.04732654  0.00000000  0.00000000       0.125
   0.00000000  0.04732654  0.00000000       0.125
   0.04732654  0.04732654  0.00000000       0.125
   0.00000000  0.00000000  0.04732654       0.125
   0.04732654  0.00000000  0.04732654       0.125
   0.00000000  0.04732654  0.04732654       0.125
   0.04732654  0.04732654  0.04732654       0.125
 
 k-points in reciprocal lattice and weights: read from INCAR                         
   0.00000000  0.00000000  0.00000000       0.125
   0.50000000  0.00000000  0.00000000       0.125
   0.00000000  0.50000000  0.00000000       0.125
   0.50000000  0.50000000  0.00000000       0.125
   0.00000000  0.00000000  0.50000000       0.125
   0.50000000  0.00000000  0.50000000       0.125
   0.00000000  0.50000000  0.50000000       0.125
   0.50000000  0.50000000  0.50000000       0.125
 
 position of ions in fractional coordinates (direct lattice) 
   0.64171715  0.15833909  0.40424278
   0.76318580  0.41417833  0.33735161
   0.44377379  0.06570758  0.93992197
   0.53824009  0.65182475  0.54300083
   0.21884491  0.60277736  0.16496974
   0.74654389  0.73756240  0.33666093
   0.89968625  0.90432035  0.52871327
   0.32859261  0.82046659  0.40200885
   0.04422152  0.06094483  0.03658770
   0.18239851  0.26812900  0.44648456
   0.13118323  0.71653565  0.57227581
   0.04327087  0.40371568  0.24583932
   0.45135999  0.72149929  0.95021384
   0.84873676  0.26888201  0.01604350
   0.95113590  0.42232716  0.81835318
   0.18091827  0.57548632  0.89196328
   0.95512018  0.79311498  0.80773671
   0.65492851  0.48737558  0.10355414
   0.94437962  0.48090896  0.54466418
   0.43044357  0.31141907  0.58417400
   0.44721793  0.02733371  0.67741835
   0.95251629  0.80102917  0.09380692
   0.53204839  0.92203541  0.21611431
   0.27490778  0.19283166  0.19101672
   0.63033716  0.30759908  0.85922675
   0.98159378  0.09241019  0.77280330
   0.63035426  0.83965765  0.76275659
   0.66451172  0.36233355  0.62388931
   0.36012892  0.77240180  0.67900405
   0.37185175  0.43078167  0.05343441
   0.16259163  0.00246473  0.60808307
   0.49951146  0.40783669  0.33367045
   0.71622002  0.10018725  0.71478974
   0.93529450  0.21108511  0.56456735
   0.78567063  0.04532891  0.20094894
   0.24995176  0.20467542  0.79938979
   0.95538373  0.18994984  0.31332049
   0.23952870  0.86631208  0.87222806
   0.69652784  0.78999222  0.04358913
   0.90801666  0.54887451  0.05289563
   0.55395705  0.21302916  0.13847319
   0.49088710  0.66144854  0.23241719
   0.79291804  0.64138673  0.61148812
   0.26525005  0.53648592  0.41640773
   0.12239662  0.31307923  0.98778154
   0.24479358  0.85461199  0.09919028
   0.17265036  0.41763973  0.67548544
   0.71604405  0.56691154  0.83581242
   0.10741620  0.96736444  0.27770259
   0.46419220  0.50972755  0.79125223
   0.37399378  0.09531919  0.42596273
   0.75031318  0.00113244  0.91823968
   0.60332651  0.90563134  0.50018116
   0.99243498  0.64811149  0.33334121
   0.63702825  0.97301078  0.63826064
   0.46650787  0.32204400  0.01638036
   0.16446824  0.37198319  0.84210556
   0.00955741  0.31056754  0.66278353
   0.64185790  0.09306379  0.20540648
   0.73109042  0.53858567  0.52564939
   0.71308986  0.79455554  0.52625086
   0.70607333  0.97600825  0.39039596
   0.08047666  0.89336732  0.92022976
   0.58020376  0.73445489  0.13176434
   0.12767359  0.81006195  0.20790090
   0.22123459  0.26549080  0.67162443
   0.36962319  0.51001222  0.90930033
   0.01689248  0.24939032  0.89979710
   0.74192202  0.41462011  0.74560016
   0.41944419  0.57640819  0.10165575
   0.15682955  0.94235674  0.43952281
   0.89839384  0.12044440  0.42565650
   0.18846186  0.98765317  0.13664232
   0.78855943  0.66500879  0.09832751
   0.86416032  0.21765563  0.21347746
   0.01866919  0.60921347  0.18337344
   0.33017856  0.45942288  0.71386382
   0.62822802  0.21395499  0.63932860
   0.34213920  0.62699011  0.31256154
   0.82899908  0.43041306  0.15457159
   0.96271225  0.78932966  0.36593854
   0.44544073  0.67226446  0.74168145
   0.29466254  0.08970821  0.54771642
   0.43918832  0.10042333  0.14038145
   0.39819317  0.18535643  0.78542634
   0.31422634  0.02831792  0.31487617
   0.58237829  0.53745611  0.31397536
   0.52804526  0.77579672  0.38257363
   0.03618488  0.89782084  0.64972396
   0.31015293  0.93891115  0.98884975
   0.92160578  0.70533547  0.57315890
   0.67173619  0.23018481  0.02811894
   0.39824996  0.40457932  0.21753874
   0.81055862  0.83652429  0.94581530
   0.07348554  0.55125693  0.71664272
   0.39895881  0.46689370  0.45430043
   0.38596649  0.87824980  0.80816621
   0.25300595  0.19600607  0.97074542
   0.59700914  0.32900078  0.23350405
   0.35879735  0.80549234  0.19091397
   0.01574533  0.44789889  0.02644418
   0.79304816  0.95946789  0.77237255
   0.19583480  0.04685401  0.78131093
   0.87939329  0.55348505  0.35720813
   0.79635955  0.17002997  0.83931637
   0.07533648  0.12200226  0.57378730
   0.81231627  0.30443407  0.53308478
   0.41405953  0.23449225  0.38009747
   0.80116591  0.48006931  0.95675526
   0.85736750  0.58906143  0.75811266
   0.85560294  0.09224029  0.62346414
   0.95024705  0.96199150  0.22589389
   0.75910681  0.87616946  0.17569462
   0.25252113  0.74264062  0.00468183
   0.58988291  0.49647110  0.87286245
   0.82231460  0.06734300  0.04651084
   0.22719791  0.73257428  0.76364911
   0.21133225  0.45177459  0.32279672
   0.66706748  0.65004080  0.69522223
   0.06225087  0.24005260  0.12988394
   0.50392328  0.03827495  0.48458239
   0.54913465  0.47596001  0.63832643
   0.22394748  0.38837925  0.07516095
   0.61844719  0.91120426  0.99048579
   0.15429157  0.65256159  0.37971234
   0.99210446  0.65434027  0.95266720
   0.60937614  0.05431805  0.82188282
   0.24703186  0.87610726  0.59350074
   0.99340800  0.30982160  0.39981981
   0.65426183  0.69277082  0.91008693
   0.31297572  0.65524873  0.54456035
   0.10026987  0.12086493  0.30817047
   0.15169692  0.46381746  0.52442291
   0.61101396  0.35532196  0.44692483
   0.48598474  0.82730389  0.58285414
 
 position of ions in cartesian coordinates  (Angst):
   6.77967539  1.67283612  4.27078321
   8.06297904  4.37575120  3.56408492
   4.68842423  0.69419381  9.93017843
   5.68645089  6.88646114  5.73674763
   2.31207389  6.36828046  1.74288820
   7.88715898  7.79227048  3.55678789
   9.50509223  9.55405103  5.58580104
   3.47154700  8.66814468  4.24718198
   0.46719578  0.64387581  0.38654530
   1.92702142  2.83275520  4.71706320
   1.38593724  7.57012508  6.04603475
   0.45715231  4.26521437  2.59726705
   4.76857165  7.62256540 10.03891097
   8.96681611  2.84071059  0.16949794
  10.04865249  4.46184283  8.64581678
   1.91138279  6.07995343  9.42349988
  10.09074596  8.37917777  8.53365482
   6.91925199  5.14907262  1.09403873
   9.97727307  5.08075340  5.75432073
   4.54759178  3.29011025  6.17173786
   4.72481116  0.28877777  7.15685479
  10.06323617  8.46279034  0.99106036
   5.62103622  9.74120883  2.28322538
   2.90437230  2.03724652  2.01807187
   6.65944689  3.24975248  9.07764176
  10.37043681  0.97630406  8.16458700
   6.65962754  8.87089626  8.05844447
   7.02049767  3.82801647  6.59132601
   3.80472478  8.16034517  7.17360761
   3.92857529  4.55116384  0.56452901
   1.71776373  0.02603965  6.42433476
   5.27728688  4.30875246  3.52519385
   7.56679045  1.05846793  7.55167969
   9.88128965  2.23009234  5.96459568
   8.30052899  0.47889520  2.12300473
   2.64071448  2.16237462  8.44547043
  10.09353031  2.00680043  3.31019854
   2.53059595  9.15249761  9.21499924
   7.35874458  8.34618610  0.46051467
   9.59310213  5.79880250  0.55883682
   5.85249893  2.25063104  1.46295492
   5.18617150  6.98813546  2.45546354
   8.37709710  6.77618446  6.46030872
   2.80233940  5.66791825  4.39930458
   1.29310759  3.30764972 10.43580986
   2.58621888  9.02888728  1.04793502
   1.82403322  4.41232056  7.13643386
   7.56493140  5.98936184  8.83027182
   1.13484105 10.22010530  2.93389911
   4.90414263  5.38521885  8.35949799
   3.95120557  1.00703734  4.50025215
   7.92698121  0.01196415  9.70110723
   6.37408219  9.56790147  5.28436222
  10.48497299  6.84723092  3.52171542
   6.73013764 10.27975831  6.74315767
   4.92860738  3.40236159  0.17305681
   1.73758991  3.92996396  8.89675816
   0.10097303  3.28111391  7.00223945
   6.78116234  0.98320935  2.17009824
   7.72389471  5.69010190  5.55343145
   7.53372060  8.39439718  5.55978596
   7.45959170 10.31142621  4.12449295
   0.85022764  9.43833338  9.72213223
   6.12979276  7.75943994  1.39207668
   1.34885828  8.55822072  2.19645154
   2.33732059  2.80488289  7.09564263
   3.90503079  5.38822635  9.60666401
   0.17846735  2.63478295  9.50626329
   7.83832948  4.38041860  7.87718858
   4.43138455  6.08969295  1.07398250
   1.65688801  9.95590158  4.64351305
   9.49143801  1.27248259  4.49701688
   1.99108004 10.43445363  1.44361195
   8.33104889  7.02574914  1.03881994
   9.12976445  2.29950923  2.25536731
   0.19723805  6.43627730  1.93732142
   3.48830230  4.85375520  7.54189750
   6.63716405  2.26041232  6.75444058
   3.61466523  6.62408564  3.30218037
   8.75828962  4.54726949  1.63303285
  10.17095543  8.33918625  3.86610284
   4.70603523  7.10240455  7.83578782
   3.11307924  0.94775797  5.78656733
   4.63997922  1.06096210  1.48311548
   4.20686968  1.95827150  8.29794810
   3.31976884  0.29917588  3.32663423
   6.15276643  5.67816823  3.31711726
   5.57874353  8.19621210  4.04185083
   0.38228955  9.48538432  6.86426644
   3.27673364  9.91949925 10.44709537
   9.73666977  7.45179633  6.05536452
   7.09682338  2.43187871  0.29707366
   4.20746968  4.27433868  2.29827434
   8.56346803  8.83779259  9.99244082
   0.77636708  5.82397249  7.57125628
   4.21495861  4.93268370  4.79963703
   4.07769609  9.27861830  8.53819246
   2.67298172  2.07078389 10.25582495
   6.30733983  3.47585922  2.46694610
   3.79065686  8.50994326  2.01698634
   0.16634776  4.73200542  0.27938005
   8.37847184 10.13667903  8.16003617
   2.06897444  0.49500772  8.25446922
   9.29069921  5.84751232  3.77386696
   8.41345634  1.79634908  8.86729064
   0.79592215  1.28894122  6.06200347
   8.58203743  3.21631449  5.63198557
   4.37449609  2.47738640  4.01569047
   8.46423504  5.07188266 10.10802040
   9.05799904  6.22337309  8.00938184
   9.03935660  0.97450913  6.58683422
  10.03926179 10.16334069  2.38654555
   8.01988496  9.25663980  1.85619545
   2.66785966  7.84592139  0.04946308
   6.23205199  5.24516588  9.22170154
   8.68766870  0.71147188  0.49138218
   2.40032243  7.73957153  8.06787390
   2.23270340  4.77295184  3.41031399
   7.04749894  6.86761382  7.34495096
   0.65767401  2.53613089  1.37221039
   5.32389736  0.40437090  5.11956290
   5.80155084  5.02846829  6.74385269
   2.36598201  4.10318665  0.79406768
   6.53383065  9.62677878 10.46437993
   1.63007449  6.89424575  4.01162165
  10.48148101  6.91303733 10.06483044
   6.43799588  0.57386455  8.68310700
   2.60986603  9.25598265  6.27027399
  10.49525286  3.27323318  4.22405492
   6.91220859  7.31905212  9.61497434
   3.30655612  6.92263509  5.75322375
   1.05934081  1.27692544  3.25578914
   1.60266225  4.90018356  5.54047385
   6.45529933  3.75393976  4.72171457
   5.13437849  8.74038008  6.15779371
 


--------------------------------------------------------------------------------------------------------


 k-point  1 :   0.0000 0.0000 0.0000  plane waves:   39223
 k-point  2 :   0.5000 0.0000 0.0000  plane waves:   39210
 k-point  3 :   0.0000 0.5000 0.0000  plane waves:   39210
 k-point  4 :   0.5000 0.5000 0.0000  plane waves:   39356
 k-point  5 :   0.0000 0.0000 0.5000  plane waves:   39210
 k-point  6 :   0.5000 0.0000 0.5000  plane waves:   39356
 k-point  7 :   0.0000 0.5000 0.5000  plane waves:   39356
 k-point  8 :   0.5000 0.5000 0.5000  plane waves:   39456

 maximum and minimum number of plane-waves per node :      3318     3238

 maximum number of plane-waves:     39456
 maximum index in each direction: 
   IXMAX=   21   IYMAX=   21   IZMAX=   21
   IXMIN=  -21   IYMIN=  -21   IZMIN=  -21


 real space projection operators:
  total allocation   :      46271.45 KBytes
  max/ min on nodes  :       3896.28       3777.45


 parallel 3D FFT for wavefunctions:
    minimum data exchange during FFTs selected (reduces bandwidth)
 parallel 3D FFT for charge:
    minimum data exchange during FFTs selected (reduces bandwidth)


 total amount of memory used by VASP MPI-rank0   132691. kBytes
=======================================================================

   base      :      30000. kBytes
   nonlr-proj:      20267. kBytes
   fftplans  :      16056. kBytes
   grid      :       9274. kBytes
   one-center:        186. kBytes
   wavefun   :      56908. kBytes
 
     INWAV:  cpu time    0.0000: real time    0.0000
 Broyden mixing: mesh for mixing (old mesh)
   NGX = 43   NGY = 43   NGZ = 43
  (NGX  =168   NGY  =168   NGZ  =168)
  gives a total of  79507 points

 initial charge density was supplied:
 charge density of overlapping atoms calculated
 number of electron     864.0000000 magnetization 
 keeping initial charge density in first step


--------------------------------------------------------------------------------------------------------


 Maximum index for non-local projection operator          614
 Maximum index for augmentation-charges         4264 (set IRDMAX)


--------------------------------------------------------------------------------------------------------


 First call to EWALD:  gamma=   0.168
 Maximum number of real-space cells 3x 3x 3
 Maximum number of reciprocal cells 3x 3x 3

    FEWALD:  cpu time    0.0068: real time    0.0068


--------------------------------------- Iteration      1(   1)  ---------------------------------------


    POTLOK:  cpu time    0.0715: real time    0.0813
    SETDIJ:  cpu time    0.2553: real time    0.2600
     EDDAV:  cpu time   26.1967: real time   26.2715
       DOS:  cpu time    0.0027: real time    0.0027
    --------------------------------------------
      LOOP:  cpu time   26.5262: real time   26.6155

 eigenvalue-minimisations  :  8320
 total energy-change (2. order) : 0.1032248E+05  (-0.4944143E+05)
 number of electron     864.0000000 magnetization 
 augmentation part      864.0000000 magnetization 

 Free energy of the ion-electron system (eV)
  ---------------------------------------------------
  alpha Z        PSCENC =      4052.29761577
  Ewald energy   TEWEN  =    -56336.67224240
  -Hartree energ DENC   =    -12006.26397381
  -exchange      EXHF   =         0.00000000
  -V(xc)+E(xc)   XCENC  =      3272.29001948
  PAW double counting   =     50594.51003143   -49994.65612350
  entropy T*S    EENTRO =        -0.02583988
  eigenvalues    EBANDS =      5772.45920093
  atomic energy  EATOM  =     64968.54023382
  Solvation  Ediel_sol  =         0.00000000
  ---------------------------------------------------
  free energy    TOTEN  =     10322.47892186 eV

  energy without entropy =    10322.50476175  energy(sigma->0) =    10322.49184181


--------------------------------------------------------------------------------------------------------




--------------------------------------- Iteration      1(   2)  ---------------------------------------


     EDDAV:  cpu time   27.9347: real time   28.7953
       DOS:  cpu time    0.0010: real time    0.0010
    --------------------------------------------
      LOOP:  cpu time   27.9357: real time   28.7964

 eigenvalue-minimisations  :  9424
 total energy-change (2. order) :-0.1014784E+05  (-0.9768202E+04)
 number of electron     864.0000000 magnetization 
 augmentation part      864.0000000 magnetization 

 Free energy of the ion-electron system (eV)
  ---------------------------------------------------
  alpha Z        PSCENC =      4052.29761577
  Ewald energy   TEWEN  =    -56336.67224240
  -Hartree energ DENC   =    -12006.26397381
  -exchange      EXHF   =         0.00000000
  -V(xc)+E(xc)   XCENC  =      3272.29001948
  PAW double counting   =     50594.51003143   -49994.65612350
  entropy T*S    EENTRO =        -0.00000000
  eigenvalues    EBANDS =     -4375.40375031
  atomic energy  EATOM  =     64968.54023382
  Solvation  Ediel_sol  =         0.00000000
  ---------------------------------------------------
  free energy    TOTEN  =       174.64181050 eV

  energy without entropy =      174.64181050  energy(sigma->0) =      174.64181050


--------------------------------------------------------------------------------------------------------




--------------------------------------- Iteration      1(   3)  ---------------------------------------


     EDDAV:  cpu time   29.1267: real time   30.0166
       DOS:  cpu time    0.0010: real time    0.0011
    --------------------------------------------
      LOOP:  cpu time   29.1277: real time   30.0177

 eigenvalue-minimisations  :  9840
 total energy-change (2. order) :-0.1135768E+04  (-0.1126860E+04)
 number of electron     864.0000000 magnetization 
 augmentation part      864.0000000 magnetization 

 Free energy of the ion-electron system (eV)
  ---------------------------------------------------
  alpha Z        PSCENC =      4052.29761577
  Ewald energy   TEWEN  =    -56336.67224240
  -Hartree energ DENC   =    -12006.26397381
  -exchange      EXHF   =         0.00000000
  -V(xc)+E(xc)   XCENC  =      3272.29001948
  PAW double counting   =     50594.51003143   -49994.65612350
  entropy T*S    EENTRO =        -0.00000000
  eigenvalues    EBANDS =     -5511.17131431
  atomic energy  EATOM  =     64968.54023382
  Solvation  Ediel_sol  =         0.00000000
  ---------------------------------------------------
  free energy    TOTEN  =      -961.12575350 eV

  energy without entropy =     -961.12575350  energy(sigma->0) =     -961.12575350


--------------------------------------------------------------------------------------------------------




--------------------------------------- Iteration      1(   4)  ---------------------------------------


     EDDAV:  cpu time   34.6046: real time   34.8757
       DOS:  cpu time    0.0011: real time    0.0011
    --------------------------------------------
      LOOP:  cpu time   34.6057: real time   34.8768

 eigenvalue-minimisations  : 12000
 total energy-change (2. order) :-0.5850126E+02  (-0.5830426E+02)
 number of electron     864.0000000 magnetization 
 augmentation part      864.0000000 magnetization 

 Free energy of the ion-electron system (eV)
  ---------------------------------------------------
  alpha Z        PSCENC =      4052.29761577
  Ewald energy   TEWEN  =    -56336.67224240
  -Hartree energ DENC   =    -12006.26397381
  -exchange      EXHF   =         0.00000000
  -V(xc)+E(xc)   XCENC  =      3272.29001948
  PAW double counting   =     50594.51003143   -49994.65612350
  entropy T*S    EENTRO =        -0.00000000
  eigenvalues    EBANDS =     -5569.67257420
  atomic energy  EATOM  =     64968.54023382
  Solvation  Ediel_sol  =         0.00000000
  ---------------------------------------------------
  free energy    TOTEN  =     -1019.62701339 eV

  energy without entropy =    -1019.62701339  energy(sigma->0) =    -1019.62701339


--------------------------------------------------------------------------------------------------------




--------------------------------------- Iteration      1(   5)  ---------------------------------------


     EDDAV:  cpu time   37.4897: real time   38.6569
       DOS:  cpu time    0.0012: real time    0.0012
    CHARGE:  cpu time    0.8472: real time    0.8630
    MIXING:  cpu time    0.0035: real time    0.0039
    --------------------------------------------
      LOOP:  cpu time   38.3416: real time   39.5250

 eigenvalue-minimisations  : 13632
 total energy-change (2. order) :-0.4275695E+01  (-0.4273421E+01)
 number of electron     864.0000007 magnetization 
 augmentation part      133.9217675 magnetization 

 Broyden mixing:
  rms(total) = 0.87051E+01    rms(broyden)= 0.87046E+01
  rms(prec ) = 0.10327E+02
  weight for this iteration     100.00

 Free energy of the ion-electron system (eV)
  ---------------------------------------------------
  alpha Z        PSCENC =      4052.29761577
  Ewald energy   TEWEN  =    -56336.67224240
  -Hartree energ DENC   =    -12006.26397381
  -exchange      EXHF   =         0.00000000
  -V(xc)+E(xc)   XCENC  =      3272.29001948
  PAW double counting   =     50594.51003143   -49994.65612350
  entropy T*S    EENTRO =        -0.00000000
  eigenvalues    EBANDS =     -5573.94826905
  atomic energy  EATOM  =     64968.54023382
  Solvation  Ediel_sol  =         0.00000000
  ---------------------------------------------------
  free energy    TOTEN  =     -1023.90270823 eV

  energy without entropy =    -1023.90270823  energy(sigma->0) =    -1023.90270823


--------------------------------------------------------------------------------------------------------




--------------------------------------- Iteration      1(   6)  ---------------------------------------


    POTLOK:  cpu time    0.0744: real time    0.0823
    SETDIJ:  cpu time    0.2569: real time    0.2579
     EDDAV:  cpu time   30.0230: real time   30.0916
       DOS:  cpu time    0.0011: real time    0.0011
    CHARGE:  cpu time    0.8453: real time    0.8457
    MIXING:  cpu time    0.0043: real time    0.0045
    --------------------------------------------
      LOOP:  cpu time   31.2050: real time   31.2831

 eigenvalue-minimisations  : 10008
 total energy-change (2. order) : 0.1294021E+03  (-0.5274057E+02)
 number of electron     864.0000006 magnetization 
 augmentation part      123.2541719 magnetization 

 Broyden mixing:
  rms(total) = 0.36934E+01    rms(broyden)= 0.36927E+01
  rms(prec ) = 0.38941E+01
  weight for this iteration     100.00

 eigenvalues of (default mixing * dielectric matrix)
  average eigenvalue GAMMA=   1.1615
  1.1615

 Free energy of the ion-electron system (eV)
  ---------------------------------------------------
  alpha Z        PSCENC =      4052.29761577
  Ewald energy   TEWEN  =    -56336.67224240
  -Hartree energ DENC   =    -13107.85117371
  -exchange      EXHF   =         0.00000000
  -V(xc)+E(xc)   XCENC  =      3351.18633457
  PAW double counting   =     68489.16564219   -68024.74302980
  entropy T*S    EENTRO =        -0.00000000
  eigenvalues    EBANDS =     -4286.42398820
  atomic energy  EATOM  =     64968.54023382
  Solvation  Ediel_sol  =         0.00000000
  ---------------------------------------------------
  free energy    TOTEN  =      -894.50060774 eV

  energy without entropy =     -894.50060774  energy(sigma->0) =     -894.50060774


--------------------------------------------------------------------------------------------------------




--------------------------------------- Iteration      1(   7)  ---------------------------------------


    POTLOK:  cpu time    0.0720: real time    0.0829
    SETDIJ:  cpu time    0.2588: real time    0.2634
     EDDAV:  cpu time   31.1373: real time   32.0546
       DOS:  cpu time    0.0010: real time    0.0010
    CHARGE:  cpu time    0.8312: real time    0.8473
    MIXING:  cpu time    0.0035: real time    0.0035
    --------------------------------------------
      LOOP:  cpu time   32.3038: real time   33.2527

 eigenvalue-minimisations  : 10856
 total energy-change (2. order) :-0.1741747E+01  (-0.6253152E+01)
 number of electron     864.0000006 magnetization 
 augmentation part      120.9645549 magnetization 

 Broyden mixing:
  rms(total) = 0.16587E+01    rms(broyden)= 0.16586E+01
  rms(prec ) = 0.17995E+01
  weight for this iteration     100.00

 eigenvalues of (default mixing * dielectric matrix)
  average eigenvalue GAMMA=   1.2859
  1.2859  1.2859

 Free energy of the ion-electron system (eV)
  ---------------------------------------------------
  alpha Z        PSCENC =      4052.29761577
  Ewald energy   TEWEN  =    -56336.67224240
  -Hartree energ DENC   =    -13233.69649892
  -exchange      EXHF   =         0.00000000
  -V(xc)+E(xc)   XCENC  =      3360.58976848
  PAW double counting   =     86821.49530629   -86421.15756614
  entropy T*S    EENTRO =        -0.00000000
  eigenvalues    EBANDS =     -4107.63897130
  atomic energy  EATOM  =     64968.54023382
  Solvation  Ediel_sol  =         0.00000000
  ---------------------------------------------------
  free energy    TOTEN  =      -896.24235438 eV

  energy without entropy =     -896.24235438  energy(sigma->0) =     -896.24235438


--------------------------------------------------------------------------------------------------------




--------------------------------------- Iteration      1(   8)  ---------------------------------------


    POTLOK:  cpu time    0.0688: real time    0.0785
    SETDIJ:  cpu time    0.2574: real time    0.2622
     EDDAV:  cpu time   32.3324: real time   33.4017
       DOS:  cpu time    0.0011: real time    0.0011
    CHARGE:  cpu time    0.8243: real time    0.8386
    MIXING:  cpu time    0.0043: real time    0.0043
    --------------------------------------------
      LOOP:  cpu time   33.4882: real time   34.5865

 eigenvalue-minimisations  : 11368
 total energy-change (2. order) : 0.5827229E+00  (-0.1008053E+01)
 number of electron     864.0000006 magnetization 
 augmentation part      121.1398890 magnetization 

 Broyden mixing:
  rms(total) = 0.69743E+00    rms(broyden)= 0.69736E+00
  rms(prec ) = 0.79544E+00
  weight for this iteration     100.00

 eigenvalues of (default mixing * dielectric matrix)
  average eigenvalue GAMMA=   1.3945
  2.1481  1.0178  1.0178

 Free energy of the ion-electron system (eV)
  ---------------------------------------------------
  alpha Z        PSCENC =      4052.29761577
  Ewald energy   TEWEN  =    -56336.67224240
  -Hartree energ DENC   =    -13194.69016713
  -exchange      EXHF   =         0.00000000
  -V(xc)+E(xc)   XCENC  =      3358.45448538
  PAW double counting   =     96030.28126702   -95661.32059254
  entropy T*S    EENTRO =        -0.00000000
  eigenvalues    EBANDS =     -4112.55023145
  atomic energy  EATOM  =     64968.54023382
  Solvation  Ediel_sol  =         0.00000000
  ---------------------------------------------------
  free energy    TOTEN  =      -895.65963152 eV

  energy without entropy =     -895.65963152  energy(sigma->0) =     -895.65963152


--------------------------------------------------------------------------------------------------------




--------------------------------------- Iteration      1(   9)  ---------------------------------------


    POTLOK:  cpu time    0.0742: real time    0.0823
    SETDIJ:  cpu time    0.2587: real time    0.2588
     EDDAV:  cpu time   30.1557: real time   30.2069
       DOS:  cpu time    0.0011: real time    0.0011
    CHARGE:  cpu time    0.8851: real time    0.8860
    MIXING:  cpu time    0.0052: real time    0.0052
    --------------------------------------------
      LOOP:  cpu time   31.3799: real time   31.4403

 eigenvalue-minimisations  : 10096
 total energy-change (2. order) : 0.1765941E+00  (-0.2160658E+00)
 number of electron     864.0000006 magnetization 
 augmentation part      120.5149315 magnetization 

 Broyden mixing:
  rms(total) = 0.19717E+00    rms(broyden)= 0.19715E+00
  rms(prec ) = 0.22749E+00
  weight for this iteration     100.00

 eigenvalues of (default mixing * dielectric matrix)
  average eigenvalue GAMMA=   1.3904
  2.2631  1.3468  0.9759  0.9759

 Free energy of the ion-electron system (eV)
  ---------------------------------------------------
  alpha Z        PSCENC =      4052.29761577
  Ewald energy   TEWEN  =    -56336.67224240
  -Hartree energ DENC   =    -13255.64924616
  -exchange      EXHF   =         0.00000000
  -V(xc)+E(xc)   XCENC  =      3363.23211393
  PAW double counting   =    103045.79463529  -102696.62749966
  entropy T*S    EENTRO =        -0.00000000
  eigenvalues    EBANDS =     -4036.39864797
  atomic energy  EATOM  =     64968.54023382
  Solvation  Ediel_sol  =         0.00000000
  ---------------------------------------------------
  free energy    TOTEN  =      -895.48303738 eV

  energy without entropy =     -895.48303738  energy(sigma->0) =     -895.48303738


--------------------------------------------------------------------------------------------------------




--------------------------------------- Iteration      1(  10)  ---------------------------------------


    POTLOK:  cpu time    0.0726: real time    0.0823
    SETDIJ:  cpu time    0.2550: real time    0.2591
     EDDAV:  cpu time   33.6200: real time   33.9030
       DOS:  cpu time    0.0011: real time    0.0011
    CHARGE:  cpu time    0.8568: real time    0.8572
    MIXING:  cpu time    0.0049: real time    0.0049
    --------------------------------------------
      LOOP:  cpu time   34.8105: real time   35.1077

 eigenvalue-minimisations  : 11624
 total energy-change (2. order) :-0.5778873E-01  (-0.7559516E-01)
 number of electron     864.0000006 magnetization 
 augmentation part      120.3726673 magnetization 

 Broyden mixing:
  rms(total) = 0.14112E+00    rms(broyden)= 0.14110E+00
  rms(prec ) = 0.15911E+00
  weight for this iteration     100.00

 eigenvalues of (default mixing * dielectric matrix)
  average eigenvalue GAMMA=   1.3541
  2.4029  1.3618  1.2503  0.8778  0.8778

 Free energy of the ion-electron system (eV)
  ---------------------------------------------------
  alpha Z        PSCENC =      4052.29761577
  Ewald energy   TEWEN  =    -56336.67224240
  -Hartree energ DENC   =    -13262.31555049
  -exchange      EXHF   =         0.00000000
  -V(xc)+E(xc)   XCENC  =      3363.80831249
  PAW double counting   =    103888.91209613  -103540.12593595
  entropy T*S    EENTRO =        -0.00000000
  eigenvalues    EBANDS =     -4029.98535549
  atomic energy  EATOM  =     64968.54023382
  Solvation  Ediel_sol  =         0.00000000
  ---------------------------------------------------
  free energy    TOTEN  =      -895.54082611 eV

  energy without entropy =     -895.54082611  energy(sigma->0) =     -895.54082611


--------------------------------------------------------------------------------------------------------




--------------------------------------- Iteration      1(  11)  ---------------------------------------


    POTLOK:  cpu time    0.0735: real time    0.0815
    SETDIJ:  cpu time    0.2579: real time    0.2579
     EDDAV:  cpu time   32.1525: real time   32.2011
       DOS:  cpu time    0.0011: real time    0.0011
    CHARGE:  cpu time    0.8551: real time    0.8553
    MIXING:  cpu time    0.0042: real time    0.0042
    --------------------------------------------
      LOOP:  cpu time   33.3443: real time   33.4011

 eigenvalue-minimisations  : 10904
 total energy-change (2. order) : 0.7495275E-03  (-0.1276989E-01)
 number of electron     864.0000006 magnetization 
 augmentation part      120.3190945 magnetization 

 Broyden mixing:
  rms(total) = 0.70464E-01    rms(broyden)= 0.70457E-01
  rms(prec ) = 0.78178E-01
  weight for this iteration     100.00

 eigenvalues of (default mixing * dielectric matrix)
  average eigenvalue GAMMA=   1.4277
  2.3094  2.3094  1.0397  1.0397  0.9339  0.9339

 Free energy of the ion-electron system (eV)
  ---------------------------------------------------
  alpha Z        PSCENC =      4052.29761577
  Ewald energy   TEWEN  =    -56336.67224240
  -Hartree energ DENC   =    -13270.44486914
  -exchange      EXHF   =         0.00000000
  -V(xc)+E(xc)   XCENC  =      3364.39827343
  PAW double counting   =    103880.13609783  -103530.25462498
  entropy T*S    EENTRO =        -0.00000000
  eigenvalues    EBANDS =     -4023.54056092
  atomic energy  EATOM  =     64968.54023382
  Solvation  Ediel_sol  =         0.00000000
  ---------------------------------------------------
  free energy    TOTEN  =      -895.54007658 eV

  energy without entropy =     -895.54007658  energy(sigma->0) =     -895.54007658


--------------------------------------------------------------------------------------------------------




--------------------------------------- Iteration      1(  12)  ---------------------------------------


    POTLOK:  cpu time    0.0745: real time    0.0819
    SETDIJ:  cpu time    0.2604: real time    0.2610
     EDDAV:  cpu time   31.9001: real time   32.0305
       DOS:  cpu time    0.0011: real time    0.0011
    CHARGE:  cpu time    0.8538: real time    0.8543
    MIXING:  cpu time    0.0037: real time    0.0037
    --------------------------------------------
      LOOP:  cpu time   33.0936: real time   33.2326

 eigenvalue-minimisations  : 10856
 total energy-change (2. order) :-0.6469647E-03  (-0.3359689E-02)
 number of electron     864.0000006 magnetization 
 augmentation part      120.3541616 magnetization 

 Broyden mixing:
  rms(total) = 0.15289E-01    rms(broyden)= 0.15280E-01
  rms(prec ) = 0.19256E-01
  weight for this iteration     100.00

 eigenvalues of (default mixing * dielectric matrix)
  average eigenvalue GAMMA=   1.4260
  2.6037  2.3966  1.1309  1.0067  1.0067  0.9187  0.9187

 Free energy of the ion-electron system (eV)
  ---------------------------------------------------
  alpha Z        PSCENC =      4052.29761577
  Ewald energy   TEWEN  =    -56336.67224240
  -Hartree energ DENC   =    -13268.51342337
  -exchange      EXHF   =         0.00000000
  -V(xc)+E(xc)   XCENC  =      3364.23514508
  PAW double counting   =    103497.34499119  -103145.07604939
  entropy T*S    EENTRO =        -0.00000000
  eigenvalues    EBANDS =     -4027.69699425
  atomic energy  EATOM  =     64968.54023382
  Solvation  Ediel_sol  =         0.00000000
  ---------------------------------------------------
  free energy    TOTEN  =      -895.54072355 eV

  energy without entropy =     -895.54072355  energy(sigma->0) =     -895.54072355


--------------------------------------------------------------------------------------------------------




--------------------------------------- Iteration      1(  13)  ---------------------------------------


    POTLOK:  cpu time    0.0727: real time    0.0817
    SETDIJ:  cpu time    0.2596: real time    0.2599
     EDDAV:  cpu time   35.5710: real time   35.6945
       DOS:  cpu time    0.0011: real time    0.0011
    CHARGE:  cpu time    0.8735: real time    0.8755
    MIXING:  cpu time    0.0039: real time    0.0039
    --------------------------------------------
      LOOP:  cpu time   36.7819: real time   36.9167

 eigenvalue-minimisations  : 12432
 total energy-change (2. order) :-0.5352904E-03  (-0.5344072E-03)
 number of electron     864.0000006 magnetization 
 augmentation part      120.3487166 magnetization 

 Broyden mixing:
  rms(total) = 0.10233E-01    rms(broyden)= 0.10232E-01
  rms(prec ) = 0.11584E-01
  weight for this iteration     100.00

 eigenvalues of (default mixing * dielectric matrix)
  average eigenvalue GAMMA=   1.3795
  2.5715  2.5163  1.3028  0.9244  0.9244  0.9169  0.9169  0.9631

 Free energy of the ion-electron system (eV)
  ---------------------------------------------------
  alpha Z        PSCENC =      4052.29761577
  Ewald energy   TEWEN  =    -56336.67224240
  -Hartree energ DENC   =    -13270.65831524
  -exchange      EXHF   =         0.00000000
  -V(xc)+E(xc)   XCENC  =      3364.37236041
  PAW double counting   =    103456.14533487  -103103.25290629
  entropy T*S    EENTRO =        -0.00000000
  eigenvalues    EBANDS =     -4026.31333979
  atomic energy  EATOM  =     64968.54023382
  Solvation  Ediel_sol  =         0.00000000
  ---------------------------------------------------
  free energy    TOTEN  =      -895.54125884 eV

  energy without entropy =     -895.54125884  energy(sigma->0) =     -895.54125884


--------------------------------------------------------------------------------------------------------




--------------------------------------- Iteration      1(  14)  ---------------------------------------


    POTLOK:  cpu time    0.0747: real time    0.0827
    SETDIJ:  cpu time    0.2585: real time    0.2586
     EDDAV:  cpu time   32.6594: real time   32.7101
       DOS:  cpu time    0.0010: real time    0.0010
    CHARGE:  cpu time    0.8524: real time    0.8526
    MIXING:  cpu time    0.0039: real time    0.0039
    --------------------------------------------
      LOOP:  cpu time   33.8498: real time   33.9088

 eigenvalue-minimisations  : 11120
 total energy-change (2. order) :-0.8067960E-04  (-0.1218000E-03)
 number of electron     864.0000006 magnetization 
 augmentation part      120.3494334 magnetization 

 Broyden mixing:
  rms(total) = 0.75302E-02    rms(broyden)= 0.75297E-02
  rms(prec ) = 0.84421E-02
  weight for this iteration     100.00

 eigenvalues of (default mixing * dielectric matrix)
  average eigenvalue GAMMA=   1.3711
  2.8154  2.3716  1.5660  0.9890  0.9890  0.8916  0.8916  0.9131  0.9131

 Free energy of the ion-electron system (eV)
  ---------------------------------------------------
  alpha Z        PSCENC =      4052.29761577
  Ewald energy   TEWEN  =    -56336.67224240
  -Hartree energ DENC   =    -13270.97443217
  -exchange      EXHF   =         0.00000000
  -V(xc)+E(xc)   XCENC  =      3364.38864666
  PAW double counting   =    103450.11827348  -103097.10018624
  entropy T*S    EENTRO =        -0.00000000
  eigenvalues    EBANDS =     -4026.13924845
  atomic energy  EATOM  =     64968.54023382
  Solvation  Ediel_sol  =         0.00000000
  ---------------------------------------------------
  free energy    TOTEN  =      -895.54133952 eV

  energy without entropy =     -895.54133952  energy(sigma->0) =     -895.54133952


--------------------------------------------------------------------------------------------------------




--------------------------------------- Iteration      1(  15)  ---------------------------------------


    POTLOK:  cpu time    0.0736: real time    0.0808
    SETDIJ:  cpu time    0.2581: real time    0.2582
     EDDAV:  cpu time   29.7705: real time   29.8565
       DOS:  cpu time    0.0011: real time    0.0011
    CHARGE:  cpu time    0.8466: real time    0.8486
    MIXING:  cpu time    0.0040: real time    0.0040
    --------------------------------------------
      LOOP:  cpu time   30.9539: real time   31.0492

 eigenvalue-minimisations  :  9856
 total energy-change (2. order) : 0.1947692E-04  (-0.2141675E-04)
 number of electron     864.0000006 magnetization 
 augmentation part      120.3478826 magnetization 

 Broyden mixing:
  rms(total) = 0.36902E-02    rms(broyden)= 0.36895E-02
  rms(prec ) = 0.40437E-02
  weight for this iteration     100.00

 eigenvalues of (default mixing * dielectric matrix)
  average eigenvalue GAMMA=   1.4262
  2.8743  2.4030  2.4030  0.9739  0.9887  0.9887  0.9069  0.9069  0.9081  0.9081

 Free energy of the ion-electron system (eV)
  ---------------------------------------------------
  alpha Z        PSCENC =      4052.29761577
  Ewald energy   TEWEN  =    -56336.67224240
  -Hartree energ DENC   =    -13271.36151115
  -exchange      EXHF   =         0.00000000
  -V(xc)+E(xc)   XCENC  =      3364.41341939
  PAW double counting   =    103469.51760533  -103116.48669299
  entropy T*S    EENTRO =        -0.00000000
  eigenvalues    EBANDS =     -4025.78974782
  atomic energy  EATOM  =     64968.54023382
  Solvation  Ediel_sol  =         0.00000000
  ---------------------------------------------------
  free energy    TOTEN  =      -895.54132004 eV

  energy without entropy =     -895.54132004  energy(sigma->0) =     -895.54132004


--------------------------------------------------------------------------------------------------------




--------------------------------------- Iteration      1(  16)  ---------------------------------------


    POTLOK:  cpu time    0.0748: real time    0.0803
    SETDIJ:  cpu time    0.2570: real time    0.2576
     EDDAV:  cpu time   35.3850: real time   35.5297
       DOS:  cpu time    0.0011: real time    0.0011
    CHARGE:  cpu time    0.8854: real time    0.8872
    MIXING:  cpu time    0.0060: real time    0.0060
    --------------------------------------------
[...]
   -.429E+02 -.185E+02 0.959E+02   0.403E+02 0.155E+02 -.909E+02   0.412E+01 0.363E+01 -.938E+01   -.189E-03 0.333E-03 0.178E-03
   -.218E+02 -.103E+02 -.631E+02   0.165E+02 0.576E+00 0.677E+02   0.847E+01 0.122E+02 -.144E+01   -.767E-03 0.368E-03 -.897E-04
   -.246E+02 -.790E+02 -.185E+02   0.404E+02 0.102E+03 0.230E+02   -.147E+02 -.222E+02 -.529E+01   0.114E-02 0.609E-03 0.202E-03
   -.244E+02 -.151E+02 0.101E+02   0.476E+02 0.274E+02 -.173E+02   -.229E+02 -.136E+02 0.761E+01   -.815E-03 0.184E-03 0.265E-03
   0.115E+03 0.737E+02 -.491E+02   -.104E+03 -.776E+02 0.425E+02   -.164E+02 0.322E+01 0.926E+01   -.738E-04 0.264E-03 -.501E-03
   0.142E+02 0.710E+02 0.963E+01   -.307E+02 -.722E+02 -.107E+02   0.157E+02 -.332E+00 0.278E+00   0.622E-03 -.764E-03 -.553E-03
   -.596E+02 -.270E+02 0.168E+02   0.739E+02 0.202E+02 -.300E+02   -.128E+02 0.983E+01 0.132E+02   -.583E-03 0.401E-03 0.344E-04
   -.254E+02 -.875E+02 0.238E+02   0.154E+02 0.105E+03 -.222E+02   0.122E+02 -.193E+02 -.257E+01   0.946E-04 -.818E-03 0.530E-03
   -.981E+01 0.253E+02 -.308E+02   0.194E+02 -.230E+02 0.482E+02   -.763E+01 -.473E+01 -.177E+02   0.566E-03 -.579E-03 0.106E-03
   0.571E+01 -.507E+02 -.377E+02   0.108E+02 0.601E+02 0.440E+02   -.150E+02 -.937E+01 -.852E+01   0.113E-02 0.743E-03 0.606E-03
   -.625E+02 0.390E+02 0.182E+02   0.745E+02 -.470E+02 -.472E+01   -.143E+02 0.771E+01 -.161E+02   0.119E-02 -.147E-03 0.802E-03
   0.974E+01 0.861E+02 0.372E+02   0.654E+01 -.798E+02 -.361E+02   -.153E+02 -.921E+01 -.141E+01   0.647E-04 -.271E-03 -.528E-03
   -.403E+02 -.569E+02 0.163E+02   0.484E+02 0.520E+02 -.451E+01   -.525E+01 0.524E+01 -.121E+02   0.603E-03 0.735E-03 -.819E-04
   -.622E+02 -.207E+02 -.989E+01   0.739E+02 0.153E+02 0.108E+02   -.823E+01 0.195E+01 -.252E+01   -.547E-03 -.607E-03 -.151E-03
   -.128E+03 0.588E+02 0.116E+02   0.141E+03 -.736E+02 -.291E+02   -.941E+01 0.143E+02 0.187E+02   -.114E-02 0.456E-03 0.265E-03
   -.734E+01 0.207E+02 -.528E+02   0.360E+01 -.318E+02 0.625E+02   0.439E+01 0.114E+02 -.116E+02   0.472E-03 0.611E-03 0.598E-03
   -.246E+01 -.780E+02 0.159E+02   -.169E+02 0.659E+02 -.142E+02   0.223E+02 0.142E+02 -.932E+00   -.421E-03 -.343E-03 -.198E-03
   -.146E+02 -.279E+02 0.174E+02   0.255E+02 0.414E+02 -.735E+01   -.116E+02 -.135E+02 -.112E+02   -.537E-03 0.192E-03 0.701E-03
   -.914E+01 0.224E+02 0.345E+02   0.102E+02 -.133E+02 -.421E+02   -.289E+01 -.783E+01 0.727E+01   0.176E-03 -.672E-04 0.313E-03
   0.410E+02 0.386E+02 -.106E+02   -.503E+02 -.324E+02 -.581E+00   0.725E+01 -.452E+01 0.122E+02   -.562E-03 -.336E-03 -.151E-03
   -.136E+01 -.659E+01 0.551E+02   0.656E+01 0.267E+02 -.667E+02   -.562E+01 -.198E+02 0.122E+02   0.215E-03 -.833E-03 -.187E-03
   0.344E+02 -.232E+02 0.205E+02   -.387E+02 0.913E+01 -.211E+02   0.183E+01 0.152E+02 -.309E+01   -.401E-03 -.105E-02 0.486E-03
   -.533E+02 -.878E+02 -.696E+01   0.773E+02 0.884E+02 0.122E+02   -.247E+02 0.212E+01 -.584E+01   -.719E-03 -.632E-03 0.215E-03
   0.578E+02 0.573E+01 0.669E+02   -.586E+02 -.263E+02 -.735E+02   -.256E+01 0.220E+02 0.818E+01   -.159E-03 -.282E-03 0.678E-03
   0.535E+02 -.292E+02 -.800E+02   -.641E+02 0.165E+02 0.808E+02   0.105E+02 0.167E+02 -.868E+00   -.102E-03 -.145E-03 -.117E-02
   -.103E+02 -.484E+02 -.627E+02   0.176E+02 0.421E+02 0.727E+02   -.914E+01 0.779E+01 -.975E+01   -.699E-03 0.121E-03 -.233E-03
   0.575E+02 0.276E+02 0.335E+02   -.572E+02 -.520E+02 -.430E+02   -.205E+01 0.204E+02 0.535E+01   0.122E-02 0.315E-03 0.523E-03
   0.941E+02 0.250E+02 -.712E+02   -.958E+02 -.332E+02 0.943E+02   -.228E+01 0.753E+01 -.209E+02   0.205E-03 -.756E-03 0.553E-03
   0.717E+00 0.740E+02 -.115E+02   0.102E+02 -.632E+02 0.887E+01   -.106E+02 -.131E+02 0.132E+01   -.423E-03 0.104E-02 -.316E-03
   0.740E+02 0.824E+01 -.369E+02   -.897E+02 -.249E+02 0.354E+02   0.150E+02 0.189E+02 0.401E+01   0.742E-03 -.161E-03 0.107E-03
   -.323E+02 0.103E+03 0.282E+02   0.249E+02 -.123E+03 -.519E+02   0.339E+01 0.121E+02 0.168E+02   0.576E-03 -.210E-04 -.176E-03
   -.245E+02 -.104E+02 -.391E+02   0.200E+01 0.145E+02 0.416E+02   0.218E+02 -.269E+01 0.905E+00   -.350E-03 0.389E-03 -.272E-03
   -.238E+02 0.517E+02 -.174E+02   0.183E+02 -.583E+02 0.279E+02   0.700E+01 0.708E+01 -.125E+02   0.272E-03 -.135E-03 -.634E-03
   0.843E+01 -.250E+02 0.862E+02   0.162E+01 0.272E+02 -.783E+02   -.105E+02 -.319E+01 -.102E+02   0.118E-03 0.739E-03 0.976E-04
   0.521E+02 0.625E+02 -.209E+02   -.572E+02 -.471E+02 0.912E+01   0.347E+01 -.200E+02 0.158E+02   -.176E-03 -.156E-03 -.474E-03
   -.568E+02 0.684E+01 0.318E+00   0.488E+02 -.521E+01 0.188E+02   0.103E+02 0.183E+01 -.184E+02   0.483E-03 -.903E-03 0.975E-04
   0.877E+02 -.919E+02 -.550E+02   -.108E+03 0.104E+03 0.523E+02   0.173E+02 -.977E+01 0.217E+01   -.712E-03 0.598E-03 -.129E-03
   0.904E+02 -.569E+02 -.233E+01   -.835E+02 0.722E+02 -.190E+01   -.116E+02 -.156E+02 0.451E+01   0.712E-03 -.306E-04 -.180E-03
   -.306E+02 -.340E+02 0.279E+02   0.387E+02 0.406E+02 -.380E+02   -.909E+01 -.756E+01 0.112E+02   -.374E-03 0.150E-03 0.293E-03
   0.563E+02 -.868E+02 -.101E+03   -.746E+02 0.850E+02 0.109E+03   0.176E+02 0.355E+01 -.505E+01   -.734E-03 0.116E-03 0.202E-03
   -.187E+02 -.533E+02 -.525E+02   0.214E+02 0.437E+02 0.414E+02   0.440E+01 0.795E+01 0.152E+02   0.439E-03 0.893E-05 -.575E-03
   0.431E+02 -.466E+01 -.493E+02   -.418E+02 0.239E+02 0.637E+02   -.166E+01 -.180E+02 -.122E+02   0.266E-03 -.409E-03 -.892E-03
   -.190E+02 0.129E+02 -.427E+02   0.114E+02 -.678E+01 0.407E+02   0.766E+01 -.593E+01 0.425E+01   -.907E-03 0.531E-03 -.147E-03
   -.198E+02 0.856E+02 -.477E+02   0.234E+02 -.919E+02 0.488E+02   -.139E+01 0.715E+01 -.137E+00   0.539E-03 0.554E-03 -.198E-03
   -.270E+01 0.392E+02 -.269E+02   0.178E+02 -.311E+02 0.320E+02   -.155E+02 -.588E+01 -.459E+01   0.743E-03 0.314E-03 -.531E-03
   -.252E+02 -.153E+02 -.208E+02   0.146E+02 0.204E+02 0.781E+01   0.125E+02 -.615E+01 0.145E+02   0.804E-04 -.641E-03 -.694E-04
   0.269E+02 0.235E+02 -.411E+02   -.182E+02 -.253E+02 0.431E+02   -.114E+02 0.143E+01 0.114E+01   -.101E-03 -.104E-02 -.769E-03
   0.580E+02 -.605E+02 0.191E+02   -.600E+02 0.598E+02 -.208E+02   -.528E+00 0.370E+01 0.418E+01   0.644E-03 0.782E-04 0.542E-04
 -----------------------------------------------------------------------------------------------
   0.318E+02 -.887E+02 -.485E+02   0.213E-12 -.348E-12 -.135E-12   -.318E+02 0.888E+02 0.485E+02   -.343E-03 -.155E-03 -.103E-02
 
 
 POSITION                                       TOTAL-FORCE (eV/Angst)
 -----------------------------------------------------------------------------------
      6.77968      1.67284      4.27078         1.931063      2.192531      0.663887
      8.06298      4.37575      3.56408         0.049917     -2.582453      1.431863
      4.68842      0.69419      9.93018         0.631836      1.019870      1.360611
      5.68645      6.88646      5.73675        -0.377920     -5.124839     -2.617681
      2.31207      6.36828      1.74289        -0.895937      0.751523      0.588658
      7.88716      7.79227      3.55679         0.701421     -0.335974     -1.174297
      9.50509      9.55405      5.58580        -2.179638      1.889661     -3.654356
      3.47155      8.66814      4.24718        -2.272177     -0.116257     -0.134965
      0.46720      0.64388      0.38655        -0.785725      0.987661     -1.205376
      1.92702      2.83276      4.71706         1.137731     -0.346645      1.136120
      1.38594      7.57013      6.04603        -3.469834     -0.113233      1.026515
      0.45715      4.26521      2.59727        -0.855456      2.961326     -4.436393
      4.76857      7.62257     10.03891         0.125326      0.182459      1.111959
      8.96682      2.84071      0.16950         3.555479      2.289929      1.099269
     10.04865      4.46184      8.64582        -0.722260      0.666489      0.180225
      1.91138      6.07995      9.42350        -2.278041      0.684769     -0.409727
     10.09075      8.37918      8.53365        -0.755776     -2.380775     -1.791989
      6.91925      5.14907      1.09404        -2.046858      0.731154     -1.556539
      9.97727      5.08075      5.75432         0.648775     -1.106245      0.514980
      4.54759      3.29011      6.17174        -1.992448      0.087450      0.970156
      4.72481      0.28878      7.15685        -1.197880      0.050958      0.280165
     10.06324      8.46279      0.99106         0.756571     -0.233999      0.755896
      5.62104      9.74121      2.28323        -0.668647      1.214562      0.103516
      2.90437      2.03725      2.01807        -1.133253      1.097324     -0.806462
      6.65945      3.24975      9.07764        -2.872901     -4.323819      1.430633
     10.37044      0.97630      8.16459         1.266123     -1.228857      1.352997
      6.65963      8.87090      8.05844        -0.929630     -3.621137      2.116223
      7.02050      3.82802      6.59133         5.078617      5.010896     -6.932352
      3.80472      8.16035      7.17361        -4.923271      1.549091     -4.055802
      3.92858      4.55116      0.56453         1.443763      0.524615      2.471806
      1.71776      0.02604      6.42433        -1.685753     -2.163100     -2.467166
      5.27729      4.30875      3.52519        -3.001707     -1.272698      2.417232
      7.56679      1.05847      7.55168         2.543932     -2.601302     -2.045830
      9.88129      2.23009      5.96460         0.134034     -0.506598     -3.256329
      8.30053      0.47890      2.12300         3.711808     -4.455415     -0.602576
      2.64071      2.16237      8.44547        -0.008316     -1.490096      6.431195
     10.09353      2.00680      3.31020         7.610003     -3.517006      3.056621
      2.53060      9.15250      9.21500        -3.850811     -0.616685     -1.078983
      7.35874      8.34619      0.46051         4.316058     -2.769984     -0.033868
      9.59310      5.79880      0.55884        -0.618824      2.692449      1.641651
      5.85250      2.25063      1.46295         0.872608      0.404829     -3.559210
      5.18617      6.98814      2.45546        -5.870895     -1.545407      3.110805
      8.37710      6.77618      6.46031        -0.868744      2.934831      2.416845
      2.80234      5.66792      4.39930         2.853400      6.481488      7.039373
      1.29311      3.30765     10.43581        -0.724656     -0.390690      1.839506
      2.58622      9.02889      1.04794        -0.034222      0.583527      5.613252
      1.82403      4.41232      7.13643        -0.229158      2.445224      2.733243
      7.56493      5.98936      8.83027         4.882405      1.462114     -2.358043
      1.13484     10.22011      2.93390         0.019581     -2.834927      3.262460
      4.90414      5.38522      8.35950        -4.324120      1.785512     -6.782635
      3.95121      1.00704      4.50025         1.838886     -0.372013     -1.071267
      7.92698      0.01196      9.70111        -1.041878     -0.883728      1.540697
      6.37408      9.56790      5.28436         1.751851     -0.290266     -1.508086
     10.48497      6.84723      3.52172         4.313427      2.656341     -1.186894
      6.73014     10.27976      6.74316         1.553885      4.347207     -4.573808
      4.92861      3.40236      0.17306         1.991844     -2.166713     -0.287203
      1.73759      3.92996      8.89676         2.287296      0.704572      0.161200
      0.10097      3.28111      7.00224        -1.326194      0.532207     -1.316901
      6.78116      0.98321      2.17010         0.337493      1.268408      0.797353
      7.72389      5.69010      5.55343         0.912738     -2.105940     -2.124379
      7.53372      8.39440      5.55979         0.403769     -1.539057      1.267194
      7.45959     10.31143      4.12449        -0.226720     -2.471629      0.036907
      0.85023      9.43833      9.72213         2.376325      0.490114      0.014114
      6.12979      7.75944      1.39208        -1.005660     -1.083333      1.269656
      1.34886      8.55822      2.19645         1.205296     -0.008873      0.036925
      2.33732      2.80488      7.09564         0.284900      1.866644     -5.973449
      3.90503      5.38823      9.60666         0.002977     -0.479956      3.182284
      0.17847      2.63478      9.50626        -1.599738     -5.109867      0.283538
      7.83833      4.38042      7.87719         1.213094     -1.472128     -1.452273
      4.43138      6.08969      1.07398         2.516219      1.874071      0.189273
      1.65689      9.95590      4.64351        -4.212141     -0.727479     -4.254841
      9.49144      1.27248      4.49702        -2.496838     -2.749635      1.419383
      1.99108     10.43445      1.44361        -1.243749      5.198848      2.990318
      8.33105      7.02575      1.03882         0.890167     -1.401215      1.549203
      9.12976      2.29951      2.25537        -7.638833     -1.523874     -3.123527
      0.19724      6.43628      1.93732        -2.200132     -0.380198     -0.043335
      3.48830      4.85376      7.54190         0.157835     -0.380872     -2.403509
      6.63716      2.26041      6.75444        -1.466160     -0.804526      1.447186
      3.61467      6.62409      3.30218         5.765368      1.839645     -0.813743
      8.75829      4.54727      1.63303         2.393788      1.409051      0.742123
     10.17096      8.33919      3.86610        -2.201649     -0.145551     -0.713153
      4.70604      7.10240      7.83579         3.882584     -5.146426      3.559315
      3.11308      0.94776      5.78657        -0.759742      1.856664      2.495202
      4.63998      1.06096      1.48312         2.606677      2.118102     -0.918811
      4.20687      1.95827      8.29795         2.275026      2.068290     -0.790753
      3.31977      0.29918      3.32663         0.942197     -2.123508     -1.591742
      6.15277      5.67817      3.31712         0.306953      5.114235     -2.515695
      5.57874      8.19621      4.04185         1.456571      0.686374     -4.339538
      0.38229      9.48538      6.86427         3.163054      2.419803      3.130268
      3.27673      9.91950     10.44710         1.222589      0.934373     -0.757742
      9.73667      7.45180      6.05536         0.308698     -1.311876      0.321489
      7.09682      2.43188      0.29707        -5.363755     -0.731209      2.636089
      4.20747      4.27434      2.29827        -0.905643     -1.486767     -0.777195
      8.56347      8.83779      9.99244         1.542225      2.981592     -0.044789
      0.77637      5.82397      7.57126         2.208052     -2.141875     -1.000594
      4.21496      4.93268      4.79964         1.914158     -2.438397     -0.320708
      4.07770      9.27862      8.53819         1.563642     -0.028834     -2.151811
      2.67298      2.07078     10.25582        -2.287055     -0.229229     -2.644694
      6.30734      3.47586      2.46695         0.968591     -2.829904     -0.302603
      3.79066      8.50994      2.01699         2.848583      0.373381     -0.258539
      0.16635      4.73201      0.27938         3.481157     -3.480600     -1.626792
      8.37847     10.13668      8.16004         3.129804     -0.536639      1.285086
      2.06897      0.49501      8.25447         0.652462      0.341920     -1.936268
      9.29070      5.84751      3.77387         2.986903      2.112190      0.820339
      8.41346      1.79635      8.86729        -0.737674     -0.035993     -1.217200
      0.79592      1.28894      6.06200        -1.793770      1.322553     -0.311941
      8.58204      3.21631      5.63199        -2.058015      1.687496      0.977447
      4.37450      2.47739      4.01569        -0.422551      0.258986      0.528139
      8.46424      5.07188     10.10802        -2.527393      1.142465     -3.732284
      9.05800      6.22337      8.00938        -0.701158      2.633623     -0.630734
      9.03936      0.97451      6.58683        -3.380822      1.364096      1.532796
     10.03926     10.16334      2.38655        -0.085913      3.946569     -0.081119
      8.01988      9.25664      1.85620        -1.797674      1.540243      0.195791
      2.66786      7.84592      0.04946        -1.838190     -4.043334     -4.098627
      6.23205      5.24517      9.22170        -3.907004     -0.676642      2.232984
      8.68767      0.71147      0.49138         0.337311     -2.298752     -1.321091
      2.40032      7.73957      8.06787        -0.742396      2.220649      2.507066
      2.23270      4.77295      3.41031        -3.953478     -8.136684     -6.860022
      7.04750      6.86761      7.34495        -0.702193      1.344847      3.408643
      0.65767      2.53613      1.37221         1.530706      0.472986     -1.981103
      5.32390      0.40437      5.11956        -0.437521     -0.982537     -2.296339
      5.80155      5.02847      6.74385        -1.540807     -4.555957      3.948716
      2.36598      4.10319      0.79407         2.293176      3.463422      0.743403
      6.53383      9.62678     10.46438        -2.730524      2.815268     -0.468906
      1.63007      6.89425      4.01162        -4.643074     -0.358943      0.275448
     10.48148      6.91304     10.06483        -1.009180     -0.973844      1.117071
      6.43800      0.57386      8.68311        -0.710095      1.794914      2.882528
      2.60987      9.25598      6.27027         7.034189     -1.602251      4.130750
     10.49525      3.27323      4.22405        -0.360327      1.309868      2.145782
      6.91221      7.31905      9.61497        -0.007341      0.161820      2.266605
      3.30656      6.92264      5.75322         2.201803      0.827387      0.992894
      1.05934      1.27693      3.25579        -0.396637      2.278925      0.468751
      1.60266      4.90018      5.54047         1.913338     -1.074129      1.494067
      6.45530      3.75394      4.72171        -2.728820     -0.384645      3.143908
      5.13438      8.74038      6.15779        -2.474754      2.921577      2.458990
 -----------------------------------------------------------------------------------
    total drift:                               -0.000320      0.036982     -0.002277


--------------------------------------------------------------------------------------------------------



  FREE ENERGIE OF THE ION-ELECTRON SYSTEM (eV)
  ---------------------------------------------------
  free  energy   TOTEN  =      -895.54131781 eV

  energy  without entropy=     -895.54131781  energy(sigma->0) =     -895.54131781
 


--------------------------------------------------------------------------------------------------------


    POTLOK:  cpu time    0.3277: real time    0.3279


--------------------------------------------------------------------------------------------------------


     LOOP+:  cpu time  614.3767: real time  621.0037
    4ORBIT:  cpu time    0.0000: real time    0.0000

 total amount of memory used by VASP MPI-rank0   132691. kBytes
=======================================================================

   base      :      30000. kBytes
   nonlr-proj:      20267. kBytes
   fftplans  :      16056. kBytes
   grid      :       9274. kBytes
   one-center:        186. kBytes
   wavefun   :      56908. kBytes
 
  
  
 General timing and accounting informations for this job:
 ========================================================
  
                  Total CPU time used (sec):      632.094
                            User time (sec):      627.599
                          System time (sec):        4.495
                         Elapsed time (sec):      639.016
  
                   Maximum memory used (kb):      259676.
                   Average memory used (kb):           0.
  
                          Minor page faults:        66082
                          Major page faults:            0
                 Voluntary context switches:          340
