<?xml version="1.0" encoding="ISO-8859-1"?>
<modeling>
 <generator>
  <i name="program" type="string">vasp </i>
  <i name="version" type="string">5.4.4.18Apr17-6-g9f103f2a35  </i>
  <i name="subversion" type="string">(build Oct 31 2019 15:01:46) complex            parallel </i>
  <i name="platform" type="string">LinuxIFC </i>
  <i name="date" type="string">2024 05 01 </i>
  <i name="time" type="string">01:18:39 </i>
 </generator>
 <incar>
  <i type="int" name="ISTART">     0</i>
  <i type="string" name="PREC">anormal</i>
  <i type="logical" name="ADDGRID"> T  </i>
  <i type="int" name="IBRION">    -1</i>
  <i name="EDIFF">      0.00000100</i>
  <i name="EDIFFG">     -0.01000000</i>
  <i type="int" name="NSW">     1</i>
  <i type="int" name="ISIF">     2</i>
  <i type="int" name="ISYM">     2</i>
  <i name="ENCUT">    600.00000000</i>
  <i name="POTIM">      1.00000000</i>
  <i type="string" name="LREAL"> Auto.</i>
  <i type="int" name="ISMEAR">     0</i>
  <i name="SIGMA">      0.05000000</i>
  <i name="KSPACING">      0.25000000</i>
  <i type="logical" name="LWAVE"> F  </i>
  <i type="logical" name="LCHARG"> F  </i>
  <i type="logical" name="LSCALAPACK"> F  </i>
  <v type="int" name="KPOINT_BSE">    -1     0     0     0</v>
 </incar>
 <structure name="primitive_cell" >
  <crystal>
   <varray name="basis" >
    <v>      13.79398668       0.00000000       0.00000000 </v>
    <v>      -6.89699334      11.94594288       0.00000000 </v>
    <v>       0.00000000       0.00000000      27.81022107 </v>
   </varray>
   <i name="volume">   4582.62876984 </i>
   <varray name="rec_basis" >
    <v>       0.07249536       0.04185521       0.00000000 </v>
    <v>       0.00000000       0.08371043       0.00000000 </v>
    <v>       0.00000000       0.00000000       0.03595800 </v>
   </varray>
  </crystal>
  <varray name="positions" >
   <v>       0.07947029       0.16849486      -0.45202066 </v>
   <v>      -0.00145502       0.24919219      -0.49650634 </v>
   <v>       0.25166042       0.25578521      -0.49567021 </v>
   <v>       0.17008342       0.33010928      -0.39532953 </v>
   <v>      -0.08257060       0.07212395      -0.39569561 </v>
   <v>       0.00133443      -0.00519238       0.49752433 </v>
   <v>       0.16716148       0.08632106      -0.39517176 </v>
   <v>       0.16624855       0.33175103       0.45841458 </v>
   <v>      -0.07849127       0.08225404       0.45400587 </v>
   <v>      -0.16382937       0.17314559      -0.45355272 </v>
   <v>       0.08603066      -0.07442932      -0.45667441 </v>
   <v>       0.33063946       0.41028470      -0.45414990 </v>
   <v>       0.17342153       0.08167139       0.45278628 </v>
   <v>      -0.16341489      -0.08323333      -0.45963178 </v>
   <v>       0.08384656       0.41854845      -0.45596020 </v>
   <v>       0.33171349       0.16550625      -0.45521079 </v>
   <v>       0.23802774       0.49474739       0.49862335 </v>
   <v>       0.09090985       0.17387973       0.39842936 </v>
   <v>      -0.25054926      -0.00227367       0.49942823 </v>
   <v>      -0.08174776       0.33597775      -0.39221496 </v>
   <v>      -0.08475864      -0.16588259      -0.39570124 </v>
   <v>       0.24436864      -0.00465892       0.49539559 </v>
   <v>       0.41747678       0.32530505      -0.39400005 </v>
   <v>      -0.08497731       0.33623649       0.45729039 </v>
   <v>       0.42002256       0.33148330       0.45954877 </v>
   <v>      -0.07291443      -0.16789327       0.45578350 </v>
   <v>       0.07047132       0.41095557       0.39940091 </v>
   <v>       0.00491569      -0.49695821      -0.49910765 </v>
   <v>       0.49162058       0.24967762      -0.49855780 </v>
   <v>      -0.32618211      -0.15624653      -0.39399980 </v>
   <v>      -0.24409046      -0.24618754       0.49825782 </v>
   <v>       0.32823784       0.40600415       0.39601972 </v>
   <v>       0.32157057       0.16612178       0.39561721 </v>
   <v>       0.49512023       0.49945352       0.49990068 </v>
   <v>      -0.33386813       0.08068241      -0.39734599 </v>
   <v>       0.16471478      -0.16028014      -0.39598602 </v>
   <v>      -0.16200949      -0.08216589       0.39359349 </v>
   <v>      -0.25992788       0.25079399      -0.49617820 </v>
   <v>      -0.17219116       0.16786147       0.39532258 </v>
   <v>       0.41638638      -0.41668123      -0.39450699 </v>
   <v>       0.41186263       0.08229173      -0.39573666 </v>
   <v>       0.16407140      -0.41290927      -0.39350365 </v>
   <v>      -0.00852449      -0.26076338       0.49820382 </v>
   <v>       0.08346009      -0.08999079       0.39219663 </v>
   <v>      -0.32539815      -0.16715675       0.45709056 </v>
   <v>       0.41556181      -0.41795841       0.45749609 </v>
   <v>      -0.33411208       0.08542457       0.45453630 </v>
   <v>      -0.16234088       0.41707831      -0.45157895 </v>
   <v>       0.41332866       0.08354650       0.45658182 </v>
   <v>      -0.41516100      -0.08161147      -0.45806838 </v>
   <v>      -0.16526532      -0.32943504      -0.45460605 </v>
   <v>       0.32856835      -0.33100458      -0.45320380 </v>
   <v>       0.16377767      -0.40599323       0.45432320 </v>
   <v>      -0.41906678       0.40816984      -0.45632032 </v>
   <v>       0.17353130      -0.16505927       0.45191952 </v>
   <v>       0.33959306      -0.08522351      -0.45841977 </v>
   <v>      -0.41200948       0.16207265      -0.45358641 </v>
   <v>       0.08558366      -0.33295485      -0.45519272 </v>
   <v>      -0.42051823      -0.33467836      -0.45720499 </v>
   <v>      -0.39715117      -0.06945044       0.39005226 </v>
   <v>      -0.15874037       0.42326132       0.39829391 </v>
   <v>       0.48913347      -0.25511399       0.49951475 </v>
   <v>      -0.08342431      -0.42208021      -0.39582268 </v>
   <v>       0.32856582      -0.33836556       0.39704764 </v>
   <v>      -0.42396159       0.40184578       0.39756841 </v>
   <v>       0.24896708      -0.25039626       0.49944766 </v>
   <v>       0.49715657      -0.00265326       0.49681507 </v>
   <v>      -0.34067632      -0.41470159      -0.39950198 </v>
   <v>      -0.33492145       0.33773686      -0.39625233 </v>
   <v>      -0.17332194      -0.34140405       0.39314521 </v>
   <v>       0.33201473      -0.08203563       0.38872763 </v>
   <v>      -0.33005932       0.33149261       0.45791281 </v>
   <v>      -0.09077261      -0.41603662       0.46076597 </v>
   <v>      -0.33434556      -0.42075890       0.45545000 </v>
   <v>      -0.25490443       0.49452779       0.49956912 </v>
   <v>       0.41757867      -0.15645759      -0.39743444 </v>
   <v>       0.07831237      -0.32658304       0.39315420 </v>
   <v>      -0.41996958       0.16527320       0.39559074 </v>
   <v>      -0.41798307      -0.33377660       0.39546258 </v>
   <v>       0.42073622      -0.16314241       0.44913520 </v>
  </varray>
 </structure>
 <varray name="primitive_index" >
  <v type="int" >        1 </v>
  <v type="int" >       66 </v>
  <v type="int" >       70 </v>
  <v type="int" >       50 </v>
  <v type="int" >       61 </v>
  <v type="int" >       65 </v>
  <v type="int" >       49 </v>
  <v type="int" >       18 </v>
  <v type="int" >       29 </v>
  <v type="int" >       13 </v>
  <v type="int" >        4 </v>
  <v type="int" >        6 </v>
  <v type="int" >       17 </v>
  <v type="int" >       16 </v>
  <v type="int" >        2 </v>
  <v type="int" >        5 </v>
  <v type="int" >       71 </v>
  <v type="int" >       33 </v>
  <v type="int" >       77 </v>
  <v type="int" >       62 </v>
  <v type="int" >       64 </v>
  <v type="int" >       69 </v>
  <v type="int" >       54 </v>
  <v type="int" >       30 </v>
  <v type="int" >       22 </v>
  <v type="int" >       32 </v>
  <v type="int" >       34 </v>
  <v type="int" >       67 </v>
  <v type="int" >       74 </v>
  <v type="int" >       60 </v>
  <v type="int" >       80 </v>
  <v type="int" >       38 </v>
  <v type="int" >       37 </v>
  <v type="int" >       75 </v>
  <v type="int" >       57 </v>
  <v type="int" >       52 </v>
  <v type="int" >       48 </v>
  <v type="int" >       78 </v>
  <v type="int" >       45 </v>
  <v type="int" >       55 </v>
  <v type="int" >       53 </v>
  <v type="int" >       51 </v>
  <v type="int" >       68 </v>
  <v type="int" >       36 </v>
  <v type="int" >       28 </v>
  <v type="int" >       23 </v>
  <v type="int" >       25 </v>
  <v type="int" >       14 </v>
  <v type="int" >       21 </v>
  <v type="int" >       12 </v>
  <v type="int" >       15 </v>
  <v type="int" >        7 </v>
  <v type="int" >       19 </v>
  <v type="int" >       10 </v>
  <v type="int" >       20 </v>
  <v type="int" >        8 </v>
  <v type="int" >        9 </v>
  <v type="int" >        3 </v>
  <v type="int" >       11 </v>
  <v type="int" >       44 </v>
  <v type="int" >       46 </v>
  <v type="int" >       76 </v>
  <v type="int" >       63 </v>
  <v type="int" >       39 </v>
  <v type="int" >       42 </v>
  <v type="int" >       72 </v>
  <v type="int" >       73 </v>
  <v type="int" >       59 </v>
  <v type="int" >       58 </v>
  <v type="int" >       47 </v>
  <v type="int" >       40 </v>
  <v type="int" >       26 </v>
  <v type="int" >       31 </v>
  <v type="int" >       27 </v>
  <v type="int" >       79 </v>
  <v type="int" >       56 </v>
  <v type="int" >       35 </v>
  <v type="int" >       41 </v>
  <v type="int" >       43 </v>
  <v type="int" >       24 </v>
 </varray>
 <kpoints>
  <generation param="Gamma">
   <v type="int" name="divisions">       3        3        1 </v>
   <v name="usershift">      0.00000000       0.00000000       0.00000000 </v>
   <v name="genvec1">      0.33333333      -0.00000000       0.00000000 </v>
   <v name="genvec2">      0.00000000       0.33333333       0.00000000 </v>
   <v name="genvec3">      0.00000000       0.00000000       1.00000000 </v>
   <v name="shift">      0.00000000       0.00000000       0.00000000 </v>
  </generation>
  <varray name="kpointlist" >
   <v>       0.00000000       0.00000000       0.00000000 </v>
   <v>       0.33333333      -0.00000000       0.00000000 </v>
   <v>       0.00000000       0.33333333       0.00000000 </v>
   <v>       0.33333333       0.33333333       0.00000000 </v>
   <v>      -0.33333333       0.33333333       0.00000000 </v>
  </varray>
  <varray name="weights" >
   <v>       0.11111111 </v>
   <v>       0.22222222 </v>
   <v>       0.22222222 </v>
   <v>       0.22222222 </v>
   <v>       0.22222222 </v>
  </varray>
 </kpoints>
 <parameters>
  <separator name="general" >
   <i type="string" name="SYSTEM">unknown system</i>
   <i type="logical" name="LCOMPAT"> F  </i>
  </separator>
  <separator name="electronic" >
   <i type="string" name="PREC">anorma</i>
   <i name="ENMAX">    600.00000000</i>
   <i name="ENAUG">    644.87300000</i>
   <i name="EDIFF">      0.00000100</i>
   <i type="int" name="IALGO">    38</i>
   <i type="int" name="IWAVPR">    10</i>
   <i type="int" name="NBANDS">   384</i>
   <i name="NELECT">    640.00000000</i>
   <i type="int" name="TURBO">     0</i>
   <i type="int" name="IRESTART">     0</i>
   <i type="int" name="NREBOOT">     0</i>
   <i type="int" name="NMIN">     0</i>
   <i name="EREF">      0.00000000</i>
   <separator name="electronic smearing" >
    <i type="int" name="ISMEAR">     0</i>
    <i name="SIGMA">      0.05000000</i>
    <i name="KSPACING">      0.25000000</i>
    <i type="logical" name="KGAMMA"> T  </i>
   </separator>
   <separator name="electronic projectors" >
    <i type="logical" name="LREAL"> T  </i>
    <v name="ROPT">     -0.00025000     -0.00025000     -0.00025000</v>
    <i type="int" name="LMAXPAW">  -100</i>
    <i type="int" name="LMAXMIX">     2</i>
    <i type="logical" name="NLSPLINE"> F  </i>
   </separator>
   <separator name="electronic startup" >
    <i type="int" name="ISTART">     0</i>
    <i type="int" name="ICHARG">     2</i>
    <i type="int" name="INIWAV">     1</i>
   </separator>
   <separator name="electronic spin" >
    <i type="int" name="ISPIN">     1</i>
    <i type="logical" name="LNONCOLLINEAR"> F  </i>
    <v name="MAGMOM">      1.00000000      1.00000000      1.00000000      1.00000000      1.00000000      1.00000000      1.00000000      1.00000000      1.00000000      1.00000000      1.00000000      1.00000000      1.00000000      1.00000000      1.00000000      1.00000000      1.00000000      1.00000000      1.00000000      1.00000000
      1.00000000      1.00000000      1.00000000      1.00000000      1.00000000      1.00000000      1.00000000      1.00000000      1.00000000      1.00000000      1.00000000      1.00000000      1.00000000      1.00000000      1.00000000      1.00000000      1.00000000      1.00000000      1.00000000      1.00000000
      1.00000000      1.00000000      1.00000000      1.00000000      1.00000000      1.00000000      1.00000000      1.00000000      1.00000000      1.00000000      1.00000000      1.00000000      1.00000000      1.00000000      1.00000000      1.00000000      1.00000000      1.00000000      1.00000000      1.00000000
      1.00000000      1.00000000      1.00000000      1.00000000      1.00000000      1.00000000      1.00000000      1.00000000      1.00000000      1.00000000      1.00000000      1.00000000      1.00000000      1.00000000      1.00000000      1.00000000      1.00000000      1.00000000      1.00000000      1.00000000
</v>
    <i name="NUPDOWN">     -1.00000000</i>
    <i type="logical" name="LSORBIT"> F  </i>
    <v name="SAXIS">      0.00000000      0.00000000      1.00000000</v>
    <i type="logical" name="LSPIRAL"> F  </i>
    <v name="QSPIRAL">      0.00000000      0.00000000      0.00000000</v>
    <i type="logical" name="LZEROZ"> F  </i>
   </separator>
   <separator name="electronic exchange-correlation" >
    <i type="logical" name="LASPH"> F  </i>
    <i type="logical" name="LMETAGGA"> F  </i>
   </separator>
   <separator name="electronic convergence" >
    <i type="int" name="NELM">    60</i>
    <i type="int" name="NELMDL">    -5</i>
    <i type="int" name="NELMIN">     2</i>
    <i name="ENINI">    600.00000000</i>
    <separator name="electronic convergence detail" >
     <i type="logical" name="LDIAG"> T  </i>
     <i type="logical" name="LSUBROT"> F  </i>
     <i name="WEIMIN">      0.00000000</i>
     <i name="EBREAK">      0.00000000</i>
     <i name="DEPER">      0.30000000</i>
     <i type="int" name="NRMM">     4</i>
     <i name="TIME">      0.40000000</i>
    </separator>
   </separator>
   <separator name="electronic mixer" >
    <i name="AMIX">      0.40000000</i>
    <i name="BMIX">      1.00000000</i>
    <i name="AMIN">      0.10000000</i>
    <i name="AMIX_MAG">      1.60000000</i>
    <i name="BMIX_MAG">      1.00000000</i>
    <separator name="electronic mixer details" >
     <i type="int" name="IMIX">     4</i>
     <i type="logical" name="MIXFIRST"> F  </i>
     <i type="int" name="MAXMIX">   -45</i>
     <i name="WC">    100.00000000</i>
     <i type="int" name="INIMIX">     1</i>
     <i type="int" name="MIXPRE">     1</i>
     <i type="int" name="MREMOVE">     5</i>
    </separator>
   </separator>
   <separator name="electronic dipolcorrection" >
    <i type="logical" name="LDIPOL"> F  </i>
    <i type="logical" name="LMONO"> F  </i>
    <i type="int" name="IDIPOL">     0</i>
    <i name="EPSILON">      1.00000000</i>
    <v name="DIPOL">   -100.00000000   -100.00000000   -100.00000000</v>
    <i name="EFIELD">      0.00000000</i>
   </separator>
  </separator>
  <separator name="grids" >
   <i type="int" name="NGX">   112</i>
   <i type="int" name="NGY">   112</i>
   <i type="int" name="NGZ">   224</i>
   <i type="int" name="NGXF">   224</i>
   <i type="int" name="NGYF">   224</i>
   <i type="int" name="NGZF">   448</i>
   <i type="logical" name="ADDGRID"> T  </i>
  </separator>
  <separator name="ionic" >
   <i type="int" name="NSW">     1</i>
   <i type="int" name="IBRION">    -1</i>
   <i type="int" name="MDALGO">     0</i>
   <i type="int" name="ISIF">     2</i>
   <i name="PSTRESS">      0.00000000</i>
   <i name="EDIFFG">     -0.01000000</i>
   <i type="int" name="NFREE">     0</i>
   <i name="POTIM">      1.00000000</i>
   <i name="SMASS">     -3.00000000</i>
   <i name="SCALEE">      1.00000000</i>
  </separator>
  <separator name="ionic md" >
   <i name="TEBEG">      0.00010000</i>
   <i name="TEEND">      0.00010000</i>
   <i type="int" name="NBLOCK">     1</i>
   <i type="int" name="KBLOCK">     1</i>
   <i type="int" name="NPACO">   256</i>
   <i name="APACO">     16.00000000</i>
  </separator>
  <separator name="symmetry" >
   <i type="int" name="ISYM">     2</i>
   <i name="SYMPREC">      0.00001000</i>
  </separator>
  <separator name="dos" >
   <i type="int" name="LORBIT">     0</i>
   <v name="RWIGS">     -1.00000000     -1.00000000     -1.00000000</v>
   <i type="int" name="NEDOS">   301</i>
   <i name="EMIN">     10.00000000</i>
   <i name="EMAX">    -10.00000000</i>
   <i name="EFERMI">      0.00000000</i>
  </separator>
  <separator name="writing" >
   <i type="int" name="NWRITE">     2</i>
   <i type="logical" name="LWAVE"> F  </i>
   <i type="logical" name="LDOWNSAMPLE"> F  </i>
   <i type="logical" name="LCHARG"> F  </i>
   <i type="logical" name="LPARD"> F  </i>
   <i type="logical" name="LVTOT"> F  </i>
   <i type="logical" name="LVHAR"> F  </i>
   <i type="logical" name="LELF"> F  </i>
   <i type="logical" name="LOPTICS"> F  </i>
   <v name="STM">      0.00000000      0.00000000      0.00000000      0.00000000      0.00000000      0.00000000      0.00000000</v>
  </separator>
  <separator name="performance" >
   <i type="int" name="NPAR">     4</i>
   <i type="int" name="NSIM">     4</i>
   <i type="int" name="NBLK">    -1</i>
   <i type="logical" name="LPLANE"> T  </i>
   <i type="logical" name="LSCALAPACK"> F  </i>
   <i type="logical" name="LSCAAWARE"> F  </i>
   <i type="logical" name="LSCALU"> F  </i>
   <i type="logical" name="LASYNC"> F  </i>
   <i type="logical" name="LORBITALREAL"> F  </i>
  </separator>
  <separator name="miscellaneous" >
   <i type="int" name="IDIOT">     3</i>
   <i type="int" name="ISPECIAL">     0</i>
   <i type="logical" name="LMUSIC"> F  </i>
   <v name="POMASS">     44.95600000     35.45300000     12.01100000</v>
   <v name="DARWINR">      0.00000000      0.00000000      0.00000000</v>
   <v name="DARWINV">      1.00000000      1.00000000      1.00000000</v>
   <i type="logical" name="LCORR"> T  </i>
  </separator>
  <i type="logical" name="GGA_COMPAT"> T  </i>
  <i type="logical" name="LBERRY"> F  </i>
  <i type="int" name="ICORELEVEL">     0</i>
  <i type="logical" name="LDAU"> F  </i>
  <i type="int" name="I_CONSTRAINED_M">     0</i>
  <separator name="electronic exchange-correlation" >
   <i type="string" name="GGA">--</i>
   <i type="int" name="VOSKOWN">     0</i>
   <i type="logical" name="LHFCALC"> F  </i>
   <i type="string" name="PRECFOCK"></i>
   <i type="logical" name="LSYMGRAD"> F  </i>
   <i type="logical" name="LHFONE"> F  </i>
   <i type="logical" name="LRHFCALC"> F  </i>
   <i type="logical" name="LTHOMAS"> F  </i>
   <i type="logical" name="LMODELHF"> F  </i>
   <i name="ENCUT4O">     -1.00000000</i>
   <i type="int" name="EXXOEP">     0</i>
   <i type="int" name="FOURORBIT">     0</i>
   <i name="AEXX">      0.00000000</i>
   <i name="HFALPHA">      0.00000000</i>
   <i name="MCALPHA">      0.00000000</i>
   <i name="ALDAX">      1.00000000</i>
   <i name="AGGAX">      1.00000000</i>
   <i name="ALDAC">      1.00000000</i>
   <i name="AGGAC">      1.00000000</i>
   <i type="int" name="NKREDX">     1</i>
   <i type="int" name="NKREDY">     1</i>
   <i type="int" name="NKREDZ">     1</i>
   <i type="logical" name="SHIFTRED"> F  </i>
   <i type="logical" name="ODDONLY"> F  </i>
   <i type="logical" name="EVENONLY"> F  </i>
   <i type="int" name="LMAXFOCK">     0</i>
   <i type="int" name="NMAXFOCKAE">     0</i>
   <i type="logical" name="LFOCKAEDFT"> F  </i>
   <i name="HFSCREEN">      0.00000000</i>
   <i name="HFSCREENC">      0.00000000</i>
   <i type="int" name="NBANDSGWLOW">     0</i>
  </separator>
  <separator name="vdW DFT" >
   <i type="logical" name="LUSE_VDW"> F  </i>
   <i name="Zab_VDW">     -0.84910000</i>
   <i name="PARAM1">      0.12340000</i>
   <i name="PARAM2">      1.00000000</i>
   <i name="PARAM3">      0.00000000</i>
  </separator>
  <separator name="model GW" >
   <i type="int" name="MODEL_GW">     0</i>
   <i name="MODEL_EPS0">     34.36971577</i>
   <i name="MODEL_ALPHA">      1.00000000</i>
  </separator>
  <separator name="linear response parameters" >
   <i type="logical" name="LEPSILON"> F  </i>
   <i type="logical" name="LRPA"> F  </i>
   <i type="logical" name="LNABLA"> F  </i>
   <i type="logical" name="LVEL"> F  </i>
   <i type="int" name="KINTER">     0</i>
   <i name="CSHIFT">      0.10000000</i>
   <i name="OMEGAMAX">     -1.00000000</i>
   <i name="DEG_THRESHOLD">      0.00200000</i>
   <i name="RTIME">     -0.10000000</i>
   <i name="WPLASMAI">      0.00000000</i>
   <v name="DFIELD">      0.00000000      0.00000000      0.00000000</v>
   <v name="WPLASMA">      0.00000000      0.00000000      0.00000000      0.00000000      0.00000000      0.00000000      0.00000000      0.00000000      0.00000000</v>
  </separator>
  <separator name="orbital magnetization" >
   <i type="logical" name="NUCIND"> F  </i>
   <v name="MAGPOS">      0.00000000      0.00000000      0.00000000</v>
   <i type="logical" name="LNICSALL"> T  </i>
   <i type="logical" name="ORBITALMAG"> F  </i>
   <i type="logical" name="LMAGBLOCH"> F  </i>
   <i type="logical" name="LCHIMAG"> F  </i>
   <i type="logical" name="LGAUGE"> T  </i>
   <i type="int" name="MAGATOM">     0</i>
   <v name="MAGDIPOL">      0.00000000      0.00000000      0.00000000</v>
   <v name="AVECCONST">      0.00000000      0.00000000      0.00000000</v>
  </separator>
  <separator name="response functions" >
   <i type="logical" name="LADDER"> F  </i>
   <i type="logical" name="LRPAFORCE"> F  </i>
   <i type="logical" name="LFXC"> F  </i>
   <i type="logical" name="LHARTREE"> T  </i>
   <i type="int" name="IBSE">     0</i>
   <v type="int" name="KPOINT">    -1     0     0     0</v>
   <i type="logical" name="LTCTE"> F  </i>
   <i type="logical" name="LTETE"> F  </i>
   <i type="logical" name="LTRIPLET"> F  </i>
   <i type="logical" name="LFXCEPS"> F  </i>
   <i type="logical" name="LFXHEG"> F  </i>
   <i type="int" name="NATURALO">     2</i>
   <i type="logical" name="L2ORDER"> F  </i>
   <i type="logical" name="LMP2LT"> F  </i>
   <i type="logical" name="LUSEW"> F  </i>
   <i name="ENCUTGW">     -2.00000000</i>
   <i name="ENCUTGWSOFT">     -2.00000000</i>
   <i name="ENCUTLF">     -1.00000000</i>
   <i type="int" name="LMAXMP2">    -1</i>
   <i name="SCISSOR">      0.00000000</i>
   <i type="int" name="NOMEGA">     0</i>
   <i type="int" name="NOMEGAR">     0</i>
   <i type="int" name="NBANDSGW">    -1</i>
   <i type="int" name="NBANDSO">    -1</i>
   <i type="int" name="NBANDSV">    -1</i>
   <i type="int" name="NELM">     1</i>
   <i type="int" name="NELMHF">     1</i>
   <i type="int" name="DIM">     3</i>
   <i type="int" name="ANTIRES">     0</i>
   <i name="OMEGAMAX">    -30.00000000</i>
   <i name="OMEGAMIN">    -30.00000000</i>
   <i name="OMEGATL">   -200.00000000</i>
   <i type="int" name="OMEGAGRID">   140</i>
   <i name="CSHIFT">     -0.10000000</i>
   <i type="logical" name="SELFENERGY"> F  </i>
   <i type="logical" name="LSPECTRAL"> F  </i>
   <i type="logical" name="LSPECTRALGW"> F  </i>
   <i type="logical" name="LSINGLES"> F  </i>
   <i type="logical" name="LFERMIGW"> F  </i>
   <i type="logical" name="ODDONLYGW"> F  </i>
   <i type="logical" name="EVENONLYGW"> F  </i>
   <i type="int" name="NKREDLFX">     1</i>
   <i type="int" name="NKREDLFY">     1</i>
   <i type="int" name="NKREDLFZ">     1</i>
   <i type="int" name="MAXMEM">  2800</i>
   <i type="int" name="TELESCOPE">     0</i>
   <i type="int" name="TAUPAR">     1</i>
   <i type="int" name="OMEGAPAR">    -1</i>
   <i name="LAMBDA">      1.00000000</i>
  </separator>
  <separator name="External order field" >
   <i name="OFIELD_KAPPA">      0.00000000</i>
   <v name="OFIELD_K">      0.00000000      0.00000000      0.00000000</v>
   <i name="OFIELD_Q6_NEAR">      0.00000000</i>
   <i name="OFIELD_Q6_FAR">      0.00000000</i>
   <i name="OFIELD_A">      0.00000000</i>
  </separator>
 </parameters>
 <atominfo>
  <atoms>      80 </atoms>
  <types>       3 </types>
  <array name="atoms" >
   <dimension dim="1">ion</dimension>
   <field type="string">element</field>
   <field type="int">atomtype</field>
   <set>
    <rc><c>Sc</c><c>   1</c></rc>
    <rc><c>Sc</c><c>   1</c></rc>
    <rc><c>Sc</c><c>   1</c></rc>
    <rc><c>Sc</c><c>   1</c></rc>
    <rc><c>Sc</c><c>   1</c></rc>
    <rc><c>Sc</c><c>   1</c></rc>
    <rc><c>Sc</c><c>   1</c></rc>
    <rc><c>Sc</c><c>   1</c></rc>
    <rc><c>Sc</c><c>   1</c></rc>
    <rc><c>Sc</c><c>   1</c></rc>
    <rc><c>Sc</c><c>   1</c></rc>
    <rc><c>Sc</c><c>   1</c></rc>
    <rc><c>Sc</c><c>   1</c></rc>
    <rc><c>Sc</c><c>   1</c></rc>
    <rc><c>Sc</c><c>   1</c></rc>
    <rc><c>Sc</c><c>   1</c></rc>
    <rc><c>Sc</c><c>   1</c></rc>
    <rc><c>Sc</c><c>   1</c></rc>
    <rc><c>Sc</c><c>   1</c></rc>
    <rc><c>Sc</c><c>   1</c></rc>
    <rc><c>Sc</c><c>   1</c></rc>
    <rc><c>Sc</c><c>   1</c></rc>
    <rc><c>Sc</c><c>   1</c></rc>
    <rc><c>Sc</c><c>   1</c></rc>
    <rc><c>Sc</c><c>   1</c></rc>
    <rc><c>Sc</c><c>   1</c></rc>
    <rc><c>Sc</c><c>   1</c></rc>
    <rc><c>Sc</c><c>   1</c></rc>
    <rc><c>Sc</c><c>   1</c></rc>
    <rc><c>Sc</c><c>   1</c></rc>
    <rc><c>Sc</c><c>   1</c></rc>
    <rc><c>Sc</c><c>   1</c></rc>
    <rc><c>Cl</c><c>   2</c></rc>
    <rc><c>Cl</c><c>   2</c></rc>
    <rc><c>Cl</c><c>   2</c></rc>
    <rc><c>Cl</c><c>   2</c></rc>
    <rc><c>Cl</c><c>   2</c></rc>
    <rc><c>Cl</c><c>   2</c></rc>
    <rc><c>Cl</c><c>   2</c></rc>
    <rc><c>Cl</c><c>   2</c></rc>
    <rc><c>Cl</c><c>   2</c></rc>
    <rc><c>Cl</c><c>   2</c></rc>
    <rc><c>Cl</c><c>   2</c></rc>
    <rc><c>Cl</c><c>   2</c></rc>
    <rc><c>Cl</c><c>   2</c></rc>
    <rc><c>Cl</c><c>   2</c></rc>
    <rc><c>Cl</c><c>   2</c></rc>
    <rc><c>Cl</c><c>   2</c></rc>
    <rc><c>Cl</c><c>   2</c></rc>
    <rc><c>Cl</c><c>   2</c></rc>
    <rc><c>Cl</c><c>   2</c></rc>
    <rc><c>Cl</c><c>   2</c></rc>
    <rc><c>Cl</c><c>   2</c></rc>
    <rc><c>Cl</c><c>   2</c></rc>
    <rc><c>Cl</c><c>   2</c></rc>
    <rc><c>Cl</c><c>   2</c></rc>
    <rc><c>Cl</c><c>   2</c></rc>
    <rc><c>Cl</c><c>   2</c></rc>
    <rc><c>Cl</c><c>   2</c></rc>
    <rc><c>Cl</c><c>   2</c></rc>
    <rc><c>Cl</c><c>   2</c></rc>
    <rc><c>Cl</c><c>   2</c></rc>
    <rc><c>Cl</c><c>   2</c></rc>
    <rc><c>Cl</c><c>   2</c></rc>
    <rc><c>C </c><c>   3</c></rc>
    <rc><c>C </c><c>   3</c></rc>
    <rc><c>C </c><c>   3</c></rc>
    <rc><c>C </c><c>   3</c></rc>
    <rc><c>C </c><c>   3</c></rc>
    <rc><c>C </c><c>   3</c></rc>
    <rc><c>C </c><c>   3</c></rc>
    <rc><c>C </c><c>   3</c></rc>
    <rc><c>C </c><c>   3</c></rc>
    <rc><c>C </c><c>   3</c></rc>
    <rc><c>C </c><c>   3</c></rc>
    <rc><c>C </c><c>   3</c></rc>
    <rc><c>C </c><c>   3</c></rc>
    <rc><c>C </c><c>   3</c></rc>
    <rc><c>C </c><c>   3</c></rc>
    <rc><c>C </c><c>   3</c></rc>
   </set>
  </array>
  <array name="atomtypes" >
   <dimension dim="1">type</dimension>
   <field type="int">atomspertype</field>
   <field type="string">element</field>
   <field>mass</field>
   <field>valence</field>
   <field type="string">pseudopotential</field>
   <set>
    <rc><c>  32</c><c>Sc</c><c>     44.95600000</c><c>     11.00000000</c><c>  PAW_PBE Sc_sv 07Sep2000               </c></rc>
    <rc><c>  32</c><c>Cl</c><c>     35.45300000</c><c>      7.00000000</c><c>  PAW_PBE Cl 06Sep2000                  </c></rc>
    <rc><c>  16</c><c>C </c><c>     12.01100000</c><c>      4.00000000</c><c>  PAW_PBE C 08Apr2002                   </c></rc>
   </set>
  </array>
 </atominfo>
 <structure name="initialpos" >
  <crystal>
   <varray name="basis" >
    <v>      13.79398668       0.00000000       0.00000000 </v>
    <v>      -6.89699334      11.94594288       0.00000000 </v>
    <v>       0.00000000       0.00000000      27.81022107 </v>
   </varray>
   <i name="volume">   4582.62876984 </i>
   <varray name="rec_basis" >
    <v>       0.07249536       0.04185521       0.00000000 </v>
    <v>       0.00000000       0.08371043       0.00000000 </v>
    <v>       0.00000000       0.00000000       0.03595800 </v>
   </varray>
  </crystal>
  <varray name="positions" >
   <v>       0.07947029       0.16849486       0.54797934 </v>
   <v>       0.08384656       0.41854845       0.54403980 </v>
   <v>       0.08558366       0.66704515       0.54480728 </v>
   <v>       0.08603066       0.92557068       0.54332559 </v>
   <v>       0.33171349       0.16550625       0.54478921 </v>
   <v>       0.33063946       0.41028470       0.54585010 </v>
   <v>       0.32856835       0.66899542       0.54679620 </v>
   <v>       0.33959306       0.91477649       0.54158023 </v>
   <v>       0.58799052       0.16207265       0.54641359 </v>
   <v>       0.58093322       0.40816984       0.54367968 </v>
   <v>       0.57948177       0.66532164       0.54279501 </v>
   <v>       0.58483900       0.91838853       0.54193162 </v>
   <v>       0.83617063       0.17314559       0.54644728 </v>
   <v>       0.83765912       0.41707831       0.54842105 </v>
   <v>       0.83473468       0.67056496       0.54539395 </v>
   <v>       0.83658511       0.91676667       0.54036822 </v>
   <v>       0.17342153       0.08167139       0.45278628 </v>
   <v>       0.16624855       0.33175103       0.45841458 </v>
   <v>       0.16377767       0.59400677       0.45432320 </v>
   <v>       0.17353130       0.83494073       0.45191952 </v>
   <v>       0.41332866       0.08354650       0.45658182 </v>
   <v>       0.42002256       0.33148330       0.45954877 </v>
   <v>       0.41556181       0.58204159       0.45749609 </v>
   <v>       0.42073622       0.83685759       0.44913520 </v>
   <v>       0.66588792       0.08542457       0.45453630 </v>
   <v>       0.66994068       0.33149261       0.45791281 </v>
   <v>       0.66565444       0.57924110       0.45545000 </v>
   <v>       0.67460185       0.83284325       0.45709056 </v>
   <v>       0.92150873       0.08225404       0.45400587 </v>
   <v>       0.91502269       0.33623649       0.45729039 </v>
   <v>       0.90922739       0.58396338       0.46076597 </v>
   <v>       0.92708557       0.83210673       0.45578350 </v>
   <v>       0.09090985       0.17387973       0.39842936 </v>
   <v>       0.07047132       0.41095557       0.39940091 </v>
   <v>       0.07831237       0.67341696       0.39315420 </v>
   <v>       0.08346009       0.91000921       0.39219663 </v>
   <v>       0.32157057       0.16612178       0.39561721 </v>
   <v>       0.32823784       0.40600415       0.39601972 </v>
   <v>       0.32856582       0.66163444       0.39704764 </v>
   <v>       0.33201473       0.91796437       0.38872763 </v>
   <v>       0.58003042       0.16527320       0.39559074 </v>
   <v>       0.57603841       0.40184578       0.39756841 </v>
   <v>       0.58201693       0.66622340       0.39546258 </v>
   <v>       0.60284883       0.93054956       0.39005226 </v>
   <v>       0.82780884       0.16786147       0.39532258 </v>
   <v>       0.84125963       0.42326132       0.39829391 </v>
   <v>       0.82667806       0.65859595       0.39314521 </v>
   <v>       0.83799051       0.91783411       0.39359349 </v>
   <v>       0.16716148       0.08632106       0.60482824 </v>
   <v>       0.17008342       0.33010928       0.60467047 </v>
   <v>       0.16407140       0.58709073       0.60649635 </v>
   <v>       0.16471478       0.83971986       0.60401398 </v>
   <v>       0.41186263       0.08229173       0.60426334 </v>
   <v>       0.41747678       0.32530505       0.60599995 </v>
   <v>       0.41638638       0.58331877       0.60549301 </v>
   <v>       0.41757867       0.84354241       0.60256556 </v>
   <v>       0.66613187       0.08068241       0.60265401 </v>
   <v>       0.66507855       0.33773686       0.60374767 </v>
   <v>       0.65932368       0.58529841       0.60049802 </v>
   <v>       0.67381789       0.84375347       0.60600020 </v>
   <v>       0.91742940       0.07212395       0.60430439 </v>
   <v>       0.91825224       0.33597775       0.60778504 </v>
   <v>       0.91657569       0.57791979       0.60417732 </v>
   <v>       0.91524136       0.83411741       0.60429876 </v>
   <v>       0.00133443       0.99480762       0.49752433 </v>
   <v>       0.99854498       0.24919219       0.50349366 </v>
   <v>       0.00491569       0.50304179       0.50089235 </v>
   <v>       0.99147551       0.73923662       0.49820382 </v>
   <v>       0.24436864       0.99534108       0.49539559 </v>
   <v>       0.25166042       0.25578521       0.50432979 </v>
   <v>       0.23802774       0.49474739       0.49862335 </v>
   <v>       0.24896708       0.74960374       0.49944766 </v>
   <v>       0.49715657       0.99734674       0.49681507 </v>
   <v>       0.49162058       0.24967762       0.50144220 </v>
   <v>       0.49512023       0.49945352       0.49990068 </v>
   <v>       0.48913347       0.74488601       0.49951475 </v>
   <v>       0.74945074       0.99772633       0.49942823 </v>
   <v>       0.74007212       0.25079399       0.50382180 </v>
   <v>       0.74509557       0.49452779       0.49956912 </v>
   <v>       0.75590954       0.75381246       0.49825782 </v>
  </varray>
  <varray name="velocities" >
   <v>       0.00000000       0.00000000       0.00000000 </v>
   <v>       0.00000000       0.00000000       0.00000000 </v>
   <v>       0.00000000       0.00000000       0.00000000 </v>
   <v>       0.00000000       0.00000000       0.00000000 </v>
   <v>       0.00000000       0.00000000       0.00000000 </v>
   <v>       0.00000000       0.00000000       0.00000000 </v>
   <v>       0.00000000       0.00000000       0.00000000 </v>
   <v>       0.00000000       0.00000000       0.00000000 </v>
   <v>       0.00000000       0.00000000       0.00000000 </v>
   <v>       0.00000000       0.00000000       0.00000000 </v>
   <v>       0.00000000       0.00000000       0.00000000 </v>
   <v>       0.00000000       0.00000000       0.00000000 </v>
   <v>       0.00000000       0.00000000       0.00000000 </v>
   <v>       0.00000000       0.00000000       0.00000000 </v>
   <v>       0.00000000       0.00000000       0.00000000 </v>
   <v>       0.00000000       0.00000000       0.00000000 </v>
   <v>       0.00000000       0.00000000       0.00000000 </v>
   <v>       0.00000000       0.00000000       0.00000000 </v>
   <v>       0.00000000       0.00000000       0.00000000 </v>
   <v>       0.00000000       0.00000000       0.00000000 </v>
   <v>       0.00000000       0.00000000       0.00000000 </v>
   <v>       0.00000000       0.00000000       0.00000000 </v>
   <v>       0.00000000       0.00000000       0.00000000 </v>
   <v>       0.00000000       0.00000000       0.00000000 </v>
   <v>       0.00000000       0.00000000       0.00000000 </v>
   <v>       0.00000000       0.00000000       0.00000000 </v>
   <v>       0.00000000       0.00000000       0.00000000 </v>
   <v>       0.00000000       0.00000000       0.00000000 </v>
   <v>       0.00000000       0.00000000       0.00000000 </v>
   <v>       0.00000000       0.00000000       0.00000000 </v>
   <v>       0.00000000       0.00000000       0.00000000 </v>
   <v>       0.00000000       0.00000000       0.00000000 </v>
   <v>       0.00000000       0.00000000       0.00000000 </v>
   <v>       0.00000000       0.00000000       0.00000000 </v>
   <v>       0.00000000       0.00000000       0.00000000 </v>
   <v>       0.00000000       0.00000000       0.00000000 </v>
   <v>       0.00000000       0.00000000       0.00000000 </v>
   <v>       0.00000000       0.00000000       0.00000000 </v>
   <v>       0.00000000       0.00000000       0.00000000 </v>
   <v>       0.00000000       0.00000000       0.00000000 </v>
   <v>       0.00000000       0.00000000       0.00000000 </v>
   <v>       0.00000000       0.00000000       0.00000000 </v>
   <v>       0.00000000       0.00000000       0.00000000 </v>
   <v>       0.00000000       0.00000000       0.00000000 </v>
   <v>       0.00000000       0.00000000       0.00000000 </v>
   <v>       0.00000000       0.00000000       0.00000000 </v>
   <v>       0.00000000       0.00000000       0.00000000 </v>
   <v>       0.00000000       0.00000000       0.00000000 </v>
   <v>       0.00000000       0.00000000       0.00000000 </v>
   <v>       0.00000000       0.00000000       0.00000000 </v>
   <v>       0.00000000       0.00000000       0.00000000 </v>
   <v>       0.00000000       0.00000000       0.00000000 </v>
   <v>       0.00000000       0.00000000       0.00000000 </v>
   <v>       0.00000000       0.00000000       0.00000000 </v>
   <v>       0.00000000       0.00000000       0.00000000 </v>
   <v>       0.00000000       0.00000000       0.00000000 </v>
   <v>       0.00000000       0.00000000       0.00000000 </v>
   <v>       0.00000000       0.00000000       0.00000000 </v>
   <v>       0.00000000       0.00000000       0.00000000 </v>
   <v>       0.00000000       0.00000000       0.00000000 </v>
   <v>       0.00000000       0.00000000       0.00000000 </v>
   <v>       0.00000000       0.00000000       0.00000000 </v>
   <v>       0.00000000       0.00000000       0.00000000 </v>
   <v>       0.00000000       0.00000000       0.00000000 </v>
   <v>       0.00000000       0.00000000       0.00000000 </v>
   <v>       0.00000000       0.00000000       0.00000000 </v>
   <v>       0.00000000       0.00000000       0.00000000 </v>
   <v>       0.00000000       0.00000000       0.00000000 </v>
   <v>       0.00000000       0.00000000       0.00000000 </v>
   <v>       0.00000000       0.00000000       0.00000000 </v>
   <v>       0.00000000       0.00000000       0.00000000 </v>
   <v>       0.00000000       0.00000000       0.00000000 </v>
   <v>       0.00000000       0.00000000       0.00000000 </v>
   <v>       0.00000000       0.00000000       0.00000000 </v>
   <v>       0.00000000       0.00000000       0.00000000 </v>
   <v>       0.00000000       0.00000000       0.00000000 </v>
   <v>       0.00000000       0.00000000       0.00000000 </v>
   <v>       0.00000000       0.00000000       0.00000000 </v>
   <v>       0.00000000       0.00000000       0.00000000 </v>
   <v>       0.00000000       0.00000000       0.00000000 </v>
  </varray>
 </structure>
 <calculation>
  <scstep>
   <time name="dav">  145.47  145.47</time>
   <time name="total">  147.83  147.84</time>
   <energy>
    <i name="alphaZ">    784.57699423 </i>
    <i name="ewald"> 253278.62759023 </i>
    <i name="hartreedc">-300927.51559321 </i>
    <i name="XCdc">   2503.40714813 </i>
    <i name="pawpsdc">  43679.68029659 </i>
    <i name="pawaedc"> -43417.33247688 </i>
    <i name="eentropy">     -0.06322352 </i>
    <i name="bandstr">    108.38878377 </i>
    <i name="atom">  56210.72393729 </i>
    <i name="e_fr_energy">  12220.49345661 </i>
    <i name="e_wo_entrp">  12220.55668014 </i>
    <i name="e_0_energy">  12220.52506838 </i>
   </energy>
  </scstep>
  <scstep>
   <time name="dav">  175.46  175.48</time>
   <time name="total">  175.47  175.48</time>
   <energy>
    <i name="e_fr_energy">   1735.24056842 </i>
    <i name="e_wo_entrp">   1735.28470359 </i>
    <i name="e_0_energy">   1735.26263601 </i>
   </energy>
  </scstep>
  <scstep>
   <time name="dav">  218.04  218.05</time>
   <time name="total">  218.04  218.05</time>
   <energy>
    <i name="e_fr_energy">   -408.96383937 </i>
    <i name="e_wo_entrp">   -408.96378675 </i>
    <i name="e_0_energy">   -408.96381306 </i>
   </energy>
  </scstep>
  <scstep>
   <time name="dav">  199.02  199.04</time>
   <time name="total">  199.02  199.04</time>
   <energy>
    <i name="e_fr_energy">   -645.54551207 </i>
    <i name="e_wo_entrp">   -645.54551207 </i>
    <i name="e_0_energy">   -645.54551207 </i>
   </energy>
  </scstep>
  <scstep>
   <time name="dav">  198.15  198.17</time>
   <time name="total">  211.42  211.43</time>
   <energy>
    <i name="e_fr_energy">   -655.91681686 </i>
    <i name="e_wo_entrp">   -655.91681686 </i>
    <i name="e_0_energy">   -655.91681686 </i>
   </energy>
  </scstep>
  <scstep>
   <time name="dav">  185.89  185.89</time>
   <time name="total">  201.11  201.12</time>
   <energy>
    <i name="e_fr_energy">   -525.51170152 </i>
    <i name="e_wo_entrp">   -525.51170152 </i>
    <i name="e_0_energy">   -525.51170152 </i>
   </energy>
  </scstep>
  <scstep>
   <time name="dav">  186.76  186.76</time>
   <time name="total">  201.96  201.97</time>
   <energy>
    <i name="e_fr_energy">   -530.21953391 </i>
    <i name="e_wo_entrp">   -530.21953391 </i>
    <i name="e_0_energy">   -530.21953391 </i>
   </energy>
  </scstep>
  <scstep>
   <time name="dav">  191.62  191.62</time>
   <time name="total">  206.83  206.84</time>
   <energy>
    <i name="e_fr_energy">   -528.02972492 </i>
    <i name="e_wo_entrp">   -528.02972492 </i>
    <i name="e_0_energy">   -528.02972492 </i>
   </energy>
  </scstep>
  <scstep>
   <time name="dav">  173.30  173.31</time>
   <time name="total">  188.51  188.53</time>
   <energy>
    <i name="e_fr_energy">   -527.50535037 </i>
    <i name="e_wo_entrp">   -527.50535037 </i>
    <i name="e_0_energy">   -527.50535037 </i>
   </energy>
  </scstep>
  <scstep>
   <time name="dav">  181.19  181.19</time>
   <time name="total">  196.39  196.40</time>
   <energy>
    <i name="e_fr_energy">   -527.38769994 </i>
    <i name="e_wo_entrp">   -527.38769994 </i>
    <i name="e_0_energy">   -527.38769994 </i>
   </energy>
  </scstep>
  <scstep>
   <time name="dav">  182.24  182.24</time>
   <time name="total">  197.00  197.01</time>
   <energy>
    <i name="e_fr_energy">   -527.36670188 </i>
    <i name="e_wo_entrp">   -527.36670188 </i>
    <i name="e_0_energy">   -527.36670188 </i>
   </energy>
  </scstep>
  <scstep>
   <time name="dav">  189.50  189.50</time>
   <time name="total">  204.58  204.59</time>
   <energy>
    <i name="e_fr_energy">   -527.35313021 </i>
    <i name="e_wo_entrp">   -527.35313021 </i>
    <i name="e_0_energy">   -527.35313021 </i>
   </energy>
  </scstep>
  <scstep>
   <time name="dav">  171.07  171.07</time>
   <time name="total">  186.01  186.02</time>
   <energy>
    <i name="e_fr_energy">   -527.35032779 </i>
    <i name="e_wo_entrp">   -527.35032779 </i>
    <i name="e_0_energy">   -527.35032779 </i>
   </energy>
  </scstep>
  <scstep>
   <time name="dav">  171.78  171.78</time>
   <time name="total">  186.88  186.89</time>
   <energy>
    <i name="e_fr_energy">   -527.34884608 </i>
    <i name="e_wo_entrp">   -527.34884608 </i>
    <i name="e_0_energy">   -527.34884608 </i>
   </energy>
  </scstep>
  <scstep>
   <time name="dav">  176.78  176.79</time>
   <time name="total">  191.63  191.65</time>
   <energy>
    <i name="e_fr_energy">   -527.35048716 </i>
    <i name="e_wo_entrp">   -527.35048716 </i>
    <i name="e_0_energy">   -527.35048716 </i>
   </energy>
  </scstep>
  <scstep>
   <time name="dav">  187.16  187.17</time>
   <time name="total">  202.20  202.21</time>
   <energy>
    <i name="e_fr_energy">   -527.35298542 </i>
    <i name="e_wo_entrp">   -527.35298542 </i>
    <i name="e_0_energy">   -527.35298542 </i>
   </energy>
  </scstep>
  <scstep>
   <time name="dav">  158.13  158.13</time>
   <time name="total">  173.16  173.17</time>
   <energy>
    <i name="e_fr_energy">   -527.35673973 </i>
    <i name="e_wo_entrp">   -527.35673973 </i>
    <i name="e_0_energy">   -527.35673973 </i>
   </energy>
  </scstep>
  <scstep>
   <time name="dav">  153.99  153.99</time>
   <time name="total">  169.09  169.10</time>
   <energy>
    <i name="e_fr_energy">   -527.35864971 </i>
    <i name="e_wo_entrp">   -527.35864971 </i>
    <i name="e_0_energy">   -527.35864971 </i>
   </energy>
  </scstep>
  <scstep>
   <time name="dav">  159.78  159.79</time>
   <time name="total">  174.86  174.87</time>
   <energy>
    <i name="e_fr_energy">   -527.35985890 </i>
    <i name="e_wo_entrp">   -527.35985890 </i>
    <i name="e_0_energy">   -527.35985890 </i>
   </energy>
  </scstep>
  <scstep>
   <time name="dav">  146.95  146.95</time>
   <time name="total">  162.16  162.17</time>
   <energy>
    <i name="e_fr_energy">   -527.36086427 </i>
    <i name="e_wo_entrp">   -527.36086427 </i>
    <i name="e_0_energy">   -527.36086427 </i>
   </energy>
  </scstep>
  <scstep>
   <time name="dav">  127.84  127.84</time>
   <time name="total">  142.64  142.65</time>
   <energy>
    <i name="e_fr_energy">   -527.36137472 </i>
    <i name="e_wo_entrp">   -527.36137472 </i>
    <i name="e_0_energy">   -527.36137472 </i>
   </energy>
  </scstep>
  <scstep>
   <time name="dav">  116.56  116.56</time>
   <time name="total">  131.37  131.38</time>
   <energy>
    <i name="e_fr_energy">   -527.36182487 </i>
    <i name="e_wo_entrp">   -527.36182487 </i>
    <i name="e_0_energy">   -527.36182487 </i>
   </energy>
  </scstep>
  <scstep>
   <time name="dav">  115.72  115.73</time>
   <time name="total">  130.53  130.54</time>
   <energy>
    <i name="e_fr_energy">   -527.36229446 </i>
    <i name="e_wo_entrp">   -527.36229446 </i>
    <i name="e_0_energy">   -527.36229446 </i>
   </energy>
  </scstep>
  <scstep>
   <time name="dav">  122.32  122.32</time>
   <time name="total">  136.80  136.81</time>
   <energy>
    <i name="e_fr_energy">   -527.36242867 </i>
    <i name="e_wo_entrp">   -527.36242867 </i>
    <i name="e_0_energy">   -527.36242867 </i>
   </energy>
  </scstep>
  <scstep>
   <time name="dav">  107.76  107.76</time>
   <time name="total">  122.44  122.45</time>
   <energy>
    <i name="e_fr_energy">   -527.36251321 </i>
    <i name="e_wo_entrp">   -527.36251321 </i>
    <i name="e_0_energy">   -527.36251321 </i>
   </energy>
  </scstep>
  <scstep>
   <time name="dav">  109.59  109.59</time>
   <time name="total">  124.45  124.46</time>
   <energy>
    <i name="e_fr_energy">   -527.36256749 </i>
    <i name="e_wo_entrp">   -527.36256749 </i>
    <i name="e_0_energy">   -527.36256749 </i>
   </energy>
  </scstep>
  <scstep>
   <time name="dav">   94.38   94.38</time>
   <time name="total">  108.96  108.96</time>
   <energy>
    <i name="e_fr_energy">   -527.36257279 </i>
    <i name="e_wo_entrp">   -527.36257279 </i>
    <i name="e_0_energy">   -527.36257279 </i>
   </energy>
  </scstep>
  <scstep>
   <time name="dav">   94.92   94.93</time>
   <time name="total">  109.74  109.75</time>
   <energy>
    <i name="e_fr_energy">   -527.36258563 </i>
    <i name="e_wo_entrp">   -527.36258563 </i>
    <i name="e_0_energy">   -527.36258563 </i>
   </energy>
  </scstep>
  <scstep>
   <time name="dav">   95.33   95.33</time>
   <time name="total">  109.93  109.94</time>
   <energy>
    <i name="e_fr_energy">   -527.36259476 </i>
    <i name="e_wo_entrp">   -527.36259476 </i>
    <i name="e_0_energy">   -527.36259476 </i>
   </energy>
  </scstep>
  <scstep>
   <time name="dav">   94.38   94.38</time>
   <time name="total">  109.19  109.20</time>
   <energy>
    <i name="e_fr_energy">   -527.36259827 </i>
    <i name="e_wo_entrp">   -527.36259827 </i>
    <i name="e_0_energy">   -527.36259827 </i>
   </energy>
  </scstep>
  <scstep>
   <time name="dav">   93.87   93.87</time>
   <time name="total">   96.17   96.18</time>
   <energy>
    <i name="alphaZ">    784.57699423 </i>
    <i name="ewald"> 253278.62759023 </i>
    <i name="hartreedc">-301263.75444514 </i>
    <i name="XCdc">   2490.60147237 </i>
    <i name="pawpsdc">  59560.41871287 </i>
    <i name="pawaedc"> -59392.88947206 </i>
    <i name="eentropy">     -0.00000000 </i>
    <i name="bandstr"> -12195.66738893 </i>
    <i name="atom">  56210.72393729 </i>
    <i name="e_fr_energy">   -527.36259915 </i>
    <i name="e_wo_entrp">   -527.36259915 </i>
    <i name="e_0_energy">   -527.36259915 </i>
   </energy>
  </scstep>
  <structure>
   <crystal>
    <varray name="basis" >
     <v>      13.79398668       0.00000000       0.00000000 </v>
     <v>      -6.89699334      11.94594288       0.00000000 </v>
     <v>       0.00000000       0.00000000      27.81022107 </v>
    </varray>
    <i name="volume">   4582.62876984 </i>
    <varray name="rec_basis" >
     <v>       0.07249536       0.04185521       0.00000000 </v>
     <v>       0.00000000       0.08371043       0.00000000 </v>
     <v>       0.00000000       0.00000000       0.03595800 </v>
    </varray>
   </crystal>
   <varray name="positions" >
    <v>       0.07947029       0.16849486       0.54797934 </v>
    <v>       0.08384656       0.41854845       0.54403980 </v>
    <v>       0.08558366       0.66704515       0.54480728 </v>
    <v>       0.08603066       0.92557068       0.54332559 </v>
    <v>       0.33171349       0.16550625       0.54478921 </v>
    <v>       0.33063946       0.41028470       0.54585010 </v>
    <v>       0.32856835       0.66899542       0.54679620 </v>
    <v>       0.33959306       0.91477649       0.54158023 </v>
    <v>       0.58799052       0.16207265       0.54641359 </v>
    <v>       0.58093322       0.40816984       0.54367968 </v>
    <v>       0.57948177       0.66532164       0.54279501 </v>
    <v>       0.58483900       0.91838853       0.54193162 </v>
    <v>       0.83617063       0.17314559       0.54644728 </v>
    <v>       0.83765912       0.41707831       0.54842105 </v>
    <v>       0.83473468       0.67056496       0.54539395 </v>
    <v>       0.83658511       0.91676667       0.54036822 </v>
    <v>       0.17342153       0.08167139       0.45278628 </v>
    <v>       0.16624855       0.33175103       0.45841458 </v>
    <v>       0.16377767       0.59400677       0.45432320 </v>
    <v>       0.17353130       0.83494073       0.45191952 </v>
    <v>       0.41332866       0.08354650       0.45658182 </v>
    <v>       0.42002256       0.33148330       0.45954877 </v>
    <v>       0.41556181       0.58204159       0.45749609 </v>
    <v>       0.42073622       0.83685759       0.44913520 </v>
    <v>       0.66588792       0.08542457       0.45453630 </v>
    <v>       0.66994068       0.33149261       0.45791281 </v>
    <v>       0.66565444       0.57924110       0.45545000 </v>
    <v>       0.67460185       0.83284325       0.45709056 </v>
    <v>       0.92150873       0.08225404       0.45400587 </v>
    <v>       0.91502269       0.33623649       0.45729039 </v>
    <v>       0.90922739       0.58396338       0.46076597 </v>
    <v>       0.92708557       0.83210673       0.45578350 </v>
    <v>       0.09090985       0.17387973       0.39842936 </v>
    <v>       0.07047132       0.41095557       0.39940091 </v>
    <v>       0.07831237       0.67341696       0.39315420 </v>
    <v>       0.08346009       0.91000921       0.39219663 </v>
    <v>       0.32157057       0.16612178       0.39561721 </v>
    <v>       0.32823784       0.40600415       0.39601972 </v>
    <v>       0.32856582       0.66163444       0.39704764 </v>
    <v>       0.33201473       0.91796437       0.38872763 </v>
    <v>       0.58003042       0.16527320       0.39559074 </v>
    <v>       0.57603841       0.40184578       0.39756841 </v>
    <v>       0.58201693       0.66622340       0.39546258 </v>
    <v>       0.60284883       0.93054956       0.39005226 </v>
    <v>       0.82780884       0.16786147       0.39532258 </v>
    <v>       0.84125963       0.42326132       0.39829391 </v>
    <v>       0.82667806       0.65859595       0.39314521 </v>
    <v>       0.83799051       0.91783411       0.39359349 </v>
    <v>       0.16716148       0.08632106       0.60482824 </v>
    <v>       0.17008342       0.33010928       0.60467047 </v>
    <v>       0.16407140       0.58709073       0.60649635 </v>
    <v>       0.16471478       0.83971986       0.60401398 </v>
    <v>       0.41186263       0.08229173       0.60426334 </v>
    <v>       0.41747678       0.32530505       0.60599995 </v>
    <v>       0.41638638       0.58331877       0.60549301 </v>
    <v>       0.41757867       0.84354241       0.60256556 </v>
    <v>       0.66613187       0.08068241       0.60265401 </v>
    <v>       0.66507855       0.33773686       0.60374767 </v>
    <v>       0.65932368       0.58529841       0.60049802 </v>
    <v>       0.67381789       0.84375347       0.60600020 </v>
    <v>       0.91742940       0.07212395       0.60430439 </v>
    <v>       0.91825224       0.33597775       0.60778504 </v>
    <v>       0.91657569       0.57791979       0.60417732 </v>
    <v>       0.91524136       0.83411741       0.60429876 </v>
    <v>       0.00133443       0.99480762       0.49752433 </v>
    <v>       0.99854498       0.24919219       0.50349366 </v>
    <v>       0.00491569       0.50304179       0.50089235 </v>
    <v>       0.99147551       0.73923662       0.49820382 </v>
    <v>       0.24436864       0.99534108       0.49539559 </v>
    <v>       0.25166042       0.25578521       0.50432979 </v>
    <v>       0.23802774       0.49474739       0.49862335 </v>
    <v>       0.24896708       0.74960374       0.49944766 </v>
    <v>       0.49715657       0.99734674       0.49681507 </v>
    <v>       0.49162058       0.24967762       0.50144220 </v>
    <v>       0.49512023       0.49945352       0.49990068 </v>
    <v>       0.48913347       0.74488601       0.49951475 </v>
    <v>       0.74945074       0.99772633       0.49942823 </v>
    <v>       0.74007212       0.25079399       0.50382180 </v>
    <v>       0.74509557       0.49452779       0.49956912 </v>
    <v>       0.75590954       0.75381246       0.49825782 </v>
   </varray>
  </structure>
  <varray name="forces" >
   <v>       0.60664681      -0.04600106      -0.99733936 </v>
   <v>       0.28206490       0.29031927       0.04313447 </v>
   <v>      -0.44341829       0.37714381      -0.17526355 </v>
   <v>       0.33444112      -0.74331087       0.02468933 </v>
   <v>      -0.09801388       0.21714722       0.06466684 </v>
   <v>      -0.04061366       0.68210745       0.00589990 </v>
   <v>       0.68581508      -0.37755199      -0.93898886 </v>
   <v>      -1.06800775       0.11333381       0.04476955 </v>
   <v>      -1.26362961       0.30658831      -0.22033565 </v>
   <v>      -0.39562921       0.84680285       0.37493440 </v>
   <v>      -0.12276028       0.14315420       0.35723044 </v>
   <v>       0.42705884      -0.67562218      -0.07771876 </v>
   <v>       0.53095305      -0.76715504      -0.45792933 </v>
   <v>      -0.53158304       0.01843978      -0.77326743 </v>
   <v>      -0.14340163      -0.16186750      -0.08647327 </v>
   <v>      -0.17092504      -0.12941775       0.77611852 </v>
   <v>      -1.20035810      -0.22944939       0.86372721 </v>
   <v>       0.04744815       0.68254832      -0.18259421 </v>
   <v>       0.58567140      -1.37662060       0.16883635 </v>
   <v>      -0.56080459      -0.17750791       0.42654905 </v>
   <v>       0.28732027       0.14546718      -0.60195898 </v>
   <v>      -1.10320507       0.35052643      -0.93699620 </v>
   <v>      -0.43347557      -0.43986329      -0.48699883 </v>
   <v>       0.39459033      -0.27733623       0.63802898 </v>
   <v>       0.37745738      -0.29106350       0.01189636 </v>
   <v>      -0.55562507       0.29969388      -0.40596640 </v>
   <v>      -0.13528223       0.08368864      -0.19342591 </v>
   <v>      -0.53329410       0.10403466      -1.17052140 </v>
   <v>      -0.47230317       0.09460638       0.24017187 </v>
   <v>       0.31408147       0.05695436       0.08153060 </v>
   <v>       0.69852229      -0.44355432      -1.44807149 </v>
   <v>      -0.90734115      -0.25527361      -0.76218987 </v>
   <v>      -0.38919097      -0.45055204      -0.43552219 </v>
   <v>       0.52107416       0.27547725      -0.41518940 </v>
   <v>       0.30706109      -0.44461868       0.20306933 </v>
   <v>      -0.18634626       0.34749375       0.13784763 </v>
   <v>       1.06018664       0.22233879      -0.43497316 </v>
   <v>      -0.07740503       0.49584212       0.27861723 </v>
   <v>       0.08590894       0.14000759      -0.47820471 </v>
   <v>       0.22162736       0.04685773       0.51107625 </v>
   <v>      -0.06358573       0.09901996       0.13254343 </v>
   <v>       0.01174756       0.49705493      -0.11416915 </v>
   <v>      -0.00942017      -0.06498345       0.22218711 </v>
   <v>      -0.58145265      -0.66410593       0.62284569 </v>
   <v>       0.40206882       0.23947122       0.27119803 </v>
   <v>      -0.43952087      -0.38989784      -0.06104885 </v>
   <v>       0.01379209       0.12743416       0.44229500 </v>
   <v>       0.05023545      -0.03559171       0.29900310 </v>
   <v>       0.02013907      -0.29296136       0.07745600 </v>
   <v>      -0.47454775       0.28032082       0.52338919 </v>
   <v>       0.21504688      -0.13645660       0.05037295 </v>
   <v>       0.21813451      -0.21006453      -0.28312859 </v>
   <v>       0.31199724      -0.15356073      -0.11043617 </v>
   <v>      -0.21707840       0.33503958      -0.01223564 </v>
   <v>      -0.14349942       0.12406793      -0.13958224 </v>
   <v>       0.31409677      -0.40817450       0.38292466 </v>
   <v>       0.06821808       0.05451525       0.59994691 </v>
   <v>       0.28283686      -0.35290847       0.44449382 </v>
   <v>       0.42946481      -0.16192686       0.40146869 </v>
   <v>      -0.25218073      -0.42089607      -0.58138222 </v>
   <v>      -0.49996320       0.50762620       0.18758644 </v>
   <v>       0.09173247      -0.27241809       0.02435037 </v>
   <v>      -0.26346339       0.53076343       0.38400675 </v>
   <v>       0.16469994      -0.07834613      -0.10698143 </v>
   <v>      -0.20913307       0.56583426       0.25198174 </v>
   <v>      -0.38376673      -0.31479684      -0.23408271 </v>
   <v>      -0.80368001      -0.38158797       0.37851004 </v>
   <v>       0.30867526       1.20686586       0.90931587 </v>
   <v>       0.48903305       0.37194517       0.59718023 </v>
   <v>       0.13155195      -0.93779452      -0.48735092 </v>
   <v>       0.64793978       0.62820015       0.65162749 </v>
   <v>      -0.14231146       0.49004706      -0.14236854 </v>
   <v>       0.17667110       0.28699237       0.23427695 </v>
   <v>       0.98108035      -0.66074025      -0.01713955 </v>
   <v>       0.57615512       0.09057734       0.17376039 </v>
   <v>       0.62013464       0.68896265       0.08366174 </v>
   <v>      -0.11710119       0.32713439      -0.10010507 </v>
   <v>       1.43277375      -0.21175771      -0.29614470 </v>
   <v>       0.00496195       0.20693996       0.47353389 </v>
   <v>      -0.29779828      -0.56365099       0.29337397 </v>
  </varray>
  <varray name="stress" >
   <v>       2.17105917       0.05900242       0.11771905 </v>
   <v>       0.05900239       2.41358133      -0.39182398 </v>
   <v>       0.11771906      -0.39182397       0.60004919 </v>
  </varray>
  <energy>
   <i name="e_fr_energy">   -527.36259915 </i>
   <i name="e_wo_entrp">   -527.36259915 </i>
   <i name="e_0_energy">     -0.00000000 </i>
  </energy>
  <time name="totalsc"> 5311.04 5311.37</time>
  <eigenvalues>
   <array>
    <dimension dim="1">band</dimension>
    <dimension dim="2">kpoint</dimension>
    <dimension dim="3">spin</dimension>
    <field>eigene</field>
    <field>occ</field>
    <set>
     <set comment="spin 1">
      <set comment="kpoint 1">
       <r>  -51.8000    1.0000 </r>
       <r>  -51.6488    1.0000 </r>
       <r>  -51.6295    1.0000 </r>
       <r>  -51.6183    1.0000 </r>
       <r>  -51.5945    1.0000 </r>
       <r>  -51.5739    1.0000 </r>
       <r>  -51.5604    1.0000 </r>
       <r>  -51.5314    1.0000 </r>
       <r>  -51.5209    1.0000 </r>
       <r>  -51.4907    1.0000 </r>
       <r>  -51.4823    1.0000 </r>
       <r>  -51.4797    1.0000 </r>
       <r>  -51.4691    1.0000 </r>
       <r>  -51.4617    1.0000 </r>
       <r>  -51.4526    1.0000 </r>
       <r>  -51.4396    1.0000 </r>
       <r>  -51.4300    1.0000 </r>
       <r>  -51.4151    1.0000 </r>
       <r>  -51.4103    1.0000 </r>
       <r>  -51.3466    1.0000 </r>
       <r>  -51.3448    1.0000 </r>
       <r>  -51.2991    1.0000 </r>
       <r>  -51.2815    1.0000 </r>
       <r>  -51.2757    1.0000 </r>
       <r>  -51.1875    1.0000 </r>
       <r>  -51.1694    1.0000 </r>
       <r>  -51.1643    1.0000 </r>
       <r>  -51.1486    1.0000 </r>
       <r>  -51.1051    1.0000 </r>
       <r>  -51.0868    1.0000 </r>
       <r>  -51.0201    1.0000 </r>
       <r>  -50.8992    1.0000 </r>
       <r>  -30.4813    1.0000 </r>
       <r>  -30.4607    1.0000 </r>
       <r>  -30.4236    1.0000 </r>
       <r>  -30.4109    1.0000 </r>
       <r>  -30.3773    1.0000 </r>
       <r>  -30.3647    1.0000 </r>
       <r>  -30.3419    1.0000 </r>
       <r>  -30.3328    1.0000 </r>
       <r>  -30.3228    1.0000 </r>
       <r>  -30.3077    1.0000 </r>
       <r>  -30.3053    1.0000 </r>
       <r>  -30.2882    1.0000 </r>
       <r>  -30.2808    1.0000 </r>
       <r>  -30.2801    1.0000 </r>
       <r>  -30.2642    1.0000 </r>
       <r>  -30.2527    1.0000 </r>
       <r>  -30.2459    1.0000 </r>
       <r>  -30.2434    1.0000 </r>
       <r>  -30.2363    1.0000 </r>
       <r>  -30.2315    1.0000 </r>
       <r>  -30.2249    1.0000 </r>
       <r>  -30.2235    1.0000 </r>
       <r>  -30.2180    1.0000 </r>
       <r>  -30.2115    1.0000 </r>
       <r>  -30.2090    1.0000 </r>
       <r>  -30.2011    1.0000 </r>
       <r>  -30.1944    1.0000 </r>
       <r>  -30.1864    1.0000 </r>
       <r>  -30.1844    1.0000 </r>
       <r>  -30.1820    1.0000 </r>
       <r>  -30.1767    1.0000 </r>
       <r>  -30.1752    1.0000 </r>
       <r>  -30.1695    1.0000 </r>
       <r>  -30.1636    1.0000 </r>
       <r>  -30.1600    1.0000 </r>
       <r>  -30.1537    1.0000 </r>
       <r>  -30.1479    1.0000 </r>
       <r>  -30.1452    1.0000 </r>
       <r>  -30.1373    1.0000 </r>
       <r>  -30.1260    1.0000 </r>
       <r>  -30.1189    1.0000 </r>
       <r>  -30.1178    1.0000 </r>
       <r>  -30.1100    1.0000 </r>
       <r>  -30.1031    1.0000 </r>
       <r>  -30.0954    1.0000 </r>
       <r>  -30.0861    1.0000 </r>
       <r>  -30.0770    1.0000 </r>
       <r>  -30.0695    1.0000 </r>
       <r>  -30.0691    1.0000 </r>
       <r>  -30.0665    1.0000 </r>
       <r>  -30.0621    1.0000 </r>
       <r>  -30.0586    1.0000 </r>
       <r>  -30.0527    1.0000 </r>
       <r>  -30.0419    1.0000 </r>
       <r>  -30.0390    1.0000 </r>
       <r>  -30.0330    1.0000 </r>
       <r>  -30.0306    1.0000 </r>
       <r>  -30.0276    1.0000 </r>
       <r>  -30.0133    1.0000 </r>
       <r>  -30.0073    1.0000 </r>
       <r>  -29.9869    1.0000 </r>
       <r>  -29.9812    1.0000 </r>
       <r>  -29.9724    1.0000 </r>
       <r>  -29.9682    1.0000 </r>
       <r>  -29.9538    1.0000 </r>
       <r>  -29.9499    1.0000 </r>
       <r>  -29.9431    1.0000 </r>
       <r>  -29.9385    1.0000 </r>
       <r>  -29.9285    1.0000 </r>
       <r>  -29.9249    1.0000 </r>
       <r>  -29.9022    1.0000 </r>
       <r>  -29.8991    1.0000 </r>
       <r>  -29.8929    1.0000 </r>
       <r>  -29.8746    1.0000 </r>
       <r>  -29.8641    1.0000 </r>
       <r>  -29.8549    1.0000 </r>
       <r>  -29.8351    1.0000 </r>
       <r>  -29.8188    1.0000 </r>
       <r>  -29.8107    1.0000 </r>
       <r>  -29.8094    1.0000 </r>
       <r>  -29.8018    1.0000 </r>
       <r>  -29.7916    1.0000 </r>
       <r>  -29.7813    1.0000 </r>
       <r>  -29.7715    1.0000 </r>
       <r>  -29.7550    1.0000 </r>
       <r>  -29.7439    1.0000 </r>
       <r>  -29.7405    1.0000 </r>
       <r>  -29.7315    1.0000 </r>
       <r>  -29.7174    1.0000 </r>
       <r>  -29.6871    1.0000 </r>
       <r>  -29.6719    1.0000 </r>
       <r>  -29.6622    1.0000 </r>
       <r>  -29.6389    1.0000 </r>
       <r>  -29.6011    1.0000 </r>
       <r>  -29.5637    1.0000 </r>
       <r>  -29.5424    1.0000 </r>
       <r>  -18.6431    1.0000 </r>
       <r>  -18.4662    1.0000 </r>
       <r>  -18.4231    1.0000 </r>
       <r>  -18.3796    1.0000 </r>
       <r>  -18.3521    1.0000 </r>
       <r>  -18.3124    1.0000 </r>
       <r>  -18.2464    1.0000 </r>
       <r>  -18.2304    1.0000 </r>
       <r>  -18.1865    1.0000 </r>
       <r>  -18.1747    1.0000 </r>
       <r>  -18.1657    1.0000 </r>
       <r>  -18.1576    1.0000 </r>
       <r>  -18.0979    1.0000 </r>
       <r>  -18.0816    1.0000 </r>
       <r>  -18.0682    1.0000 </r>
       <r>  -18.0530    1.0000 </r>
       <r>  -17.9752    1.0000 </r>
       <r>  -17.9684    1.0000 </r>
       <r>  -17.9577    1.0000 </r>
       <r>  -17.9448    1.0000 </r>
       <r>  -17.8693    1.0000 </r>
       <r>  -17.8643    1.0000 </r>
       <r>  -17.8287    1.0000 </r>
       <r>  -17.8276    1.0000 </r>
       <r>  -17.7944    1.0000 </r>
       <r>  -17.7835    1.0000 </r>
       <r>  -17.7491    1.0000 </r>
       <r>  -17.7056    1.0000 </r>
       <r>  -17.6366    1.0000 </r>
       <r>  -17.5812    1.0000 </r>
       <r>  -17.5805    1.0000 </r>
       <r>  -17.5267    1.0000 </r>
       <r>  -11.7969    1.0000 </r>
       <r>  -11.4688    1.0000 </r>
       <r>  -11.4345    1.0000 </r>
       <r>  -11.3707    1.0000 </r>
       <r>  -11.3428    1.0000 </r>
       <r>  -11.3036    1.0000 </r>
       <r>  -11.2719    1.0000 </r>
       <r>  -11.0311    1.0000 </r>
       <r>  -10.9475    1.0000 </r>
       <r>  -10.9323    1.0000 </r>
       <r>  -10.8887    1.0000 </r>
       <r>  -10.8579    1.0000 </r>
       <r>  -10.8311    1.0000 </r>
       <r>  -10.8216    1.0000 </r>
       <r>  -10.7709    1.0000 </r>
       <r>  -10.6268    1.0000 </r>
       <r>   -8.0560    1.0000 </r>
       <r>   -7.9941    1.0000 </r>
       <r>   -7.9625    1.0000 </r>
       <r>   -7.7864    1.0000 </r>
       <r>   -7.7354    1.0000 </r>
       <r>   -7.6985    1.0000 </r>
       <r>   -7.6035    1.0000 </r>
       <r>   -7.5938    1.0000 </r>
       <r>   -7.5452    1.0000 </r>
       <r>   -7.5134    1.0000 </r>
       <r>   -7.4812    1.0000 </r>
       <r>   -7.4410    1.0000 </r>
       <r>   -7.4289    1.0000 </r>
       <r>   -7.3969    1.0000 </r>
       <r>   -7.3755    1.0000 </r>
       <r>   -7.3301    1.0000 </r>
       <r>   -7.2932    1.0000 </r>
       <r>   -7.2744    1.0000 </r>
       <r>   -7.2250    1.0000 </r>
       <r>   -7.1918    1.0000 </r>
       <r>   -7.1283    1.0000 </r>
       <r>   -7.0832    1.0000 </r>
       <r>   -7.0418    1.0000 </r>
       <r>   -6.9902    1.0000 </r>
       <r>   -6.9665    1.0000 </r>
       <r>   -6.9511    1.0000 </r>
       <r>   -6.9468    1.0000 </r>
       <r>   -6.9342    1.0000 </r>
       <r>   -6.8875    1.0000 </r>
       <r>   -6.8649    1.0000 </r>
       <r>   -6.8441    1.0000 </r>
       <r>   -6.8400    1.0000 </r>
       <r>   -6.8148    1.0000 </r>
       <r>   -6.7906    1.0000 </r>
       <r>   -6.7659    1.0000 </r>
       <r>   -6.7642    1.0000 </r>
       <r>   -6.7448    1.0000 </r>
       <r>   -6.7430    1.0000 </r>
       <r>   -6.7208    1.0000 </r>
       <r>   -6.7038    1.0000 </r>
       <r>   -6.6920    1.0000 </r>
       <r>   -6.6619    1.0000 </r>
       <r>   -6.6471    1.0000 </r>
       <r>   -6.6376    1.0000 </r>
       <r>   -6.6140    1.0000 </r>
       <r>   -6.6116    1.0000 </r>
       <r>   -6.5971    1.0000 </r>
       <r>   -6.5841    1.0000 </r>
       <r>   -6.5539    1.0000 </r>
       <r>   -6.5502    1.0000 </r>
       <r>   -6.5334    1.0000 </r>
       <r>   -6.5308    1.0000 </r>
       <r>   -6.5101    1.0000 </r>
       <r>   -6.4992    1.0000 </r>
       <r>   -6.4750    1.0000 </r>
       <r>   -6.4659    1.0000 </r>
       <r>   -6.4560    1.0000 </r>
       <r>   -6.4483    1.0000 </r>
       <r>   -6.4326    1.0000 </r>
       <r>   -6.4317    1.0000 </r>
       <r>   -6.4113    1.0000 </r>
       <r>   -6.3951    1.0000 </r>
       <r>   -6.3763    1.0000 </r>
       <r>   -6.3633    1.0000 </r>
       <r>   -6.3519    1.0000 </r>
       <r>   -6.3259    1.0000 </r>
       <r>   -6.3235    1.0000 </r>
       <r>   -6.3027    1.0000 </r>
       <r>   -6.2830    1.0000 </r>
       <r>   -6.2531    1.0000 </r>
       <r>   -6.2091    1.0000 </r>
       <r>   -6.2011    1.0000 </r>
       <r>   -6.1655    1.0000 </r>
       <r>   -6.1030    1.0000 </r>
       <r>   -5.9616    1.0000 </r>
       <r>   -5.9317    1.0000 </r>
       <r>   -5.8499    1.0000 </r>
       <r>   -5.7740    1.0000 </r>
       <r>   -5.7486    1.0000 </r>
       <r>   -5.7240    1.0000 </r>
       <r>   -5.7015    1.0000 </r>
       <r>   -5.6698    1.0000 </r>
       <r>   -5.6568    1.0000 </r>
       <r>   -5.6102    1.0000 </r>
       <r>   -5.5596    1.0000 </r>
       <r>   -5.5341    1.0000 </r>
       <r>   -5.4479    1.0000 </r>
       <r>   -5.4093    1.0000 </r>
       <r>   -5.4058    1.0000 </r>
       <r>   -5.3688    1.0000 </r>
       <r>   -5.3574    1.0000 </r>
       <r>   -5.3273    1.0000 </r>
       <r>   -5.3047    1.0000 </r>
       <r>   -5.2826    1.0000 </r>
       <r>   -5.1357    1.0000 </r>
       <r>   -5.0980    1.0000 </r>
       <r>   -4.8972    1.0000 </r>
       <r>   -4.8224    1.0000 </r>
       <r>   -4.7782    1.0000 </r>
       <r>   -4.6126    1.0000 </r>
       <r>   -4.6042    1.0000 </r>
       <r>   -4.5838    1.0000 </r>
       <r>   -4.5389    1.0000 </r>
       <r>   -4.5077    1.0000 </r>
       <r>   -4.4915    1.0000 </r>
       <r>   -4.2093    1.0000 </r>
       <r>   -4.1984    1.0000 </r>
       <r>   -4.1338    1.0000 </r>
       <r>   -4.1257    1.0000 </r>
       <r>   -4.0946    1.0000 </r>
       <r>   -4.0672    1.0000 </r>
       <r>   -4.0572    1.0000 </r>
       <r>   -4.0475    1.0000 </r>
       <r>   -4.0008    1.0000 </r>
       <r>   -3.9863    1.0000 </r>
       <r>   -3.9703    1.0000 </r>
       <r>   -3.9627    1.0000 </r>
       <r>   -3.9299    1.0000 </r>
       <r>   -3.8918    1.0000 </r>
       <r>   -3.8736    1.0000 </r>
       <r>   -3.8388    1.0000 </r>
       <r>   -3.8073    1.0000 </r>
       <r>   -3.7543    1.0000 </r>
       <r>   -3.7408    1.0000 </r>
       <r>   -3.7150    1.0000 </r>
       <r>   -3.6701    1.0000 </r>
       <r>   -3.6115    1.0000 </r>
       <r>   -3.5915    1.0000 </r>
       <r>   -3.5740    1.0000 </r>
       <r>   -3.5605    1.0000 </r>
       <r>   -3.5182    1.0000 </r>
       <r>   -3.4633    1.0000 </r>
       <r>   -3.4012    1.0000 </r>
       <r>   -3.3782    1.0000 </r>
       <r>   -3.3429    1.0000 </r>
       <r>   -3.3109    1.0000 </r>
       <r>   -3.3003    1.0000 </r>
       <r>   -3.2710    1.0000 </r>
       <r>   -3.2382    1.0000 </r>
       <r>   -3.2178    1.0000 </r>
       <r>   -3.1526    1.0000 </r>
       <r>   -3.1033    1.0000 </r>
       <r>   -2.9577    1.0000 </r>
       <r>   -2.9264    1.0000 </r>
       <r>   -2.0946    0.0000 </r>
       <r>   -2.0796    0.0000 </r>
       <r>   -2.0566    0.0000 </r>
       <r>   -1.5090    0.0000 </r>
       <r>   -1.4807    0.0000 </r>
       <r>   -1.4419    0.0000 </r>
       <r>   -1.4069    0.0000 </r>
       <r>   -1.3608    0.0000 </r>
       <r>   -1.3457    0.0000 </r>
       <r>   -0.6597    0.0000 </r>
       <r>   -0.6452    0.0000 </r>
       <r>   -0.5998    0.0000 </r>
       <r>   -0.5775    0.0000 </r>
       <r>   -0.5464    0.0000 </r>
       <r>   -0.5225    0.0000 </r>
       <r>   -0.4933    0.0000 </r>
       <r>   -0.4808    0.0000 </r>
       <r>   -0.4712    0.0000 </r>
       <r>   -0.4043    0.0000 </r>
       <r>   -0.3877    0.0000 </r>
       <r>   -0.3609    0.0000 </r>
       <r>   -0.3281    0.0000 </r>
       <r>   -0.2815    0.0000 </r>
       <r>   -0.2208    0.0000 </r>
       <r>    0.0982    0.0000 </r>
       <r>    0.1322    0.0000 </r>
       <r>    0.1447    0.0000 </r>
       <r>    0.1627    0.0000 </r>
       <r>    0.1890    0.0000 </r>
       <r>    0.2248    0.0000 </r>
       <r>    0.2406    0.0000 </r>
       <r>    0.2491    0.0000 </r>
       <r>    0.2646    0.0000 </r>
       <r>    0.3004    0.0000 </r>
       <r>    0.3382    0.0000 </r>
       <r>    0.4083    0.0000 </r>
       <r>    0.5466    0.0000 </r>
       <r>    0.5735    0.0000 </r>
       <r>    0.5979    0.0000 </r>
       <r>    0.6489    0.0000 </r>
       <r>    0.6617    0.0000 </r>
       <r>    0.6834    0.0000 </r>
       <r>    0.6854    0.0000 </r>
       <r>    0.7267    0.0000 </r>
       <r>    0.7404    0.0000 </r>
       <r>    0.7675    0.0000 </r>
       <r>    0.7906    0.0000 </r>
       <r>    0.8134    0.0000 </r>
       <r>    0.8419    0.0000 </r>
       <r>    0.8431    0.0000 </r>
       <r>    0.8597    0.0000 </r>
       <r>    0.8789    0.0000 </r>
       <r>    0.8930    0.0000 </r>
       <r>    0.9080    0.0000 </r>
       <r>    0.9247    0.0000 </r>
       <r>    0.9321    0.0000 </r>
       <r>    0.9437    0.0000 </r>
       <r>    0.9618    0.0000 </r>
       <r>    0.9910    0.0000 </r>
       <r>    1.0131    0.0000 </r>
       <r>    1.0219    0.0000 </r>
       <r>    1.0466    0.0000 </r>
       <r>    1.0701    0.0000 </r>
       <r>    1.0995    0.0000 </r>
      </set>
      <set comment="kpoint 2">
       <r>  -51.8000    1.0000 </r>
       <r>  -51.6488    1.0000 </r>
       <r>  -51.6295    1.0000 </r>
       <r>  -51.6183    1.0000 </r>
       <r>  -51.5945    1.0000 </r>
       <r>  -51.5739    1.0000 </r>
       <r>  -51.5604    1.0000 </r>
       <r>  -51.5314    1.0000 </r>
       <r>  -51.5209    1.0000 </r>
       <r>  -51.4907    1.0000 </r>
       <r>  -51.4823    1.0000 </r>
       <r>  -51.4797    1.0000 </r>
       <r>  -51.4691    1.0000 </r>
       <r>  -51.4617    1.0000 </r>
       <r>  -51.4526    1.0000 </r>
       <r>  -51.4396    1.0000 </r>
       <r>  -51.4300    1.0000 </r>
       <r>  -51.4151    1.0000 </r>
       <r>  -51.4103    1.0000 </r>
       <r>  -51.3466    1.0000 </r>
       <r>  -51.3448    1.0000 </r>
       <r>  -51.2991    1.0000 </r>
       <r>  -51.2815    1.0000 </r>
       <r>  -51.2757    1.0000 </r>
       <r>  -51.1875    1.0000 </r>
       <r>  -51.1694    1.0000 </r>
       <r>  -51.1643    1.0000 </r>
       <r>  -51.1486    1.0000 </r>
       <r>  -51.1051    1.0000 </r>
       <r>  -51.0868    1.0000 </r>
       <r>  -51.0201    1.0000 </r>
       <r>  -50.8992    1.0000 </r>
       <r>  -30.4810    1.0000 </r>
       <r>  -30.4607    1.0000 </r>
       <r>  -30.4232    1.0000 </r>
       <r>  -30.4113    1.0000 </r>
       <r>  -30.3771    1.0000 </r>
       <r>  -30.3639    1.0000 </r>
       <r>  -30.3402    1.0000 </r>
       <r>  -30.3321    1.0000 </r>
       <r>  -30.3222    1.0000 </r>
       <r>  -30.3080    1.0000 </r>
       <r>  -30.3056    1.0000 </r>
       <r>  -30.2910    1.0000 </r>
       <r>  -30.2826    1.0000 </r>
       <r>  -30.2786    1.0000 </r>
       <r>  -30.2685    1.0000 </r>
       <r>  -30.2515    1.0000 </r>
       <r>  -30.2474    1.0000 </r>
       <r>  -30.2372    1.0000 </r>
       <r>  -30.2356    1.0000 </r>
       <r>  -30.2308    1.0000 </r>
       <r>  -30.2269    1.0000 </r>
       <r>  -30.2237    1.0000 </r>
       <r>  -30.2200    1.0000 </r>
       <r>  -30.2142    1.0000 </r>
       <r>  -30.2105    1.0000 </r>
       <r>  -30.2000    1.0000 </r>
       <r>  -30.1899    1.0000 </r>
       <r>  -30.1853    1.0000 </r>
       <r>  -30.1842    1.0000 </r>
       <r>  -30.1823    1.0000 </r>
       <r>  -30.1792    1.0000 </r>
       <r>  -30.1775    1.0000 </r>
       <r>  -30.1694    1.0000 </r>
       <r>  -30.1630    1.0000 </r>
       <r>  -30.1603    1.0000 </r>
       <r>  -30.1580    1.0000 </r>
       <r>  -30.1528    1.0000 </r>
       <r>  -30.1448    1.0000 </r>
       <r>  -30.1366    1.0000 </r>
       <r>  -30.1268    1.0000 </r>
       <r>  -30.1194    1.0000 </r>
       <r>  -30.1090    1.0000 </r>
       <r>  -30.1076    1.0000 </r>
       <r>  -30.0997    1.0000 </r>
       <r>  -30.0969    1.0000 </r>
       <r>  -30.0851    1.0000 </r>
       <r>  -30.0781    1.0000 </r>
       <r>  -30.0700    1.0000 </r>
       <r>  -30.0677    1.0000 </r>
       <r>  -30.0661    1.0000 </r>
       <r>  -30.0620    1.0000 </r>
       <r>  -30.0562    1.0000 </r>
       <r>  -30.0493    1.0000 </r>
       <r>  -30.0449    1.0000 </r>
       <r>  -30.0430    1.0000 </r>
       <r>  -30.0333    1.0000 </r>
       <r>  -30.0308    1.0000 </r>
       <r>  -30.0277    1.0000 </r>
       <r>  -30.0132    1.0000 </r>
       <r>  -30.0075    1.0000 </r>
       <r>  -29.9876    1.0000 </r>
       <r>  -29.9813    1.0000 </r>
       <r>  -29.9725    1.0000 </r>
       <r>  -29.9691    1.0000 </r>
       <r>  -29.9530    1.0000 </r>
       <r>  -29.9502    1.0000 </r>
       <r>  -29.9433    1.0000 </r>
       <r>  -29.9380    1.0000 </r>
       <r>  -29.9283    1.0000 </r>
       <r>  -29.9242    1.0000 </r>
       <r>  -29.9019    1.0000 </r>
       <r>  -29.8993    1.0000 </r>
       <r>  -29.8927    1.0000 </r>
       <r>  -29.8746    1.0000 </r>
       <r>  -29.8642    1.0000 </r>
       <r>  -29.8547    1.0000 </r>
       <r>  -29.8350    1.0000 </r>
       <r>  -29.8195    1.0000 </r>
       <r>  -29.8112    1.0000 </r>
       <r>  -29.8089    1.0000 </r>
       <r>  -29.8018    1.0000 </r>
       <r>  -29.7915    1.0000 </r>
       <r>  -29.7789    1.0000 </r>
       <r>  -29.7722    1.0000 </r>
       <r>  -29.7554    1.0000 </r>
       <r>  -29.7444    1.0000 </r>
       <r>  -29.7405    1.0000 </r>
       <r>  -29.7320    1.0000 </r>
       <r>  -29.7174    1.0000 </r>
       <r>  -29.6868    1.0000 </r>
       <r>  -29.6723    1.0000 </r>
       <r>  -29.6621    1.0000 </r>
       <r>  -29.6392    1.0000 </r>
       <r>  -29.6011    1.0000 </r>
       <r>  -29.5638    1.0000 </r>
       <r>  -29.5425    1.0000 </r>
       <r>  -18.6312    1.0000 </r>
       <r>  -18.4886    1.0000 </r>
       <r>  -18.4128    1.0000 </r>
       <r>  -18.4007    1.0000 </r>
       <r>  -18.3360    1.0000 </r>
       <r>  -18.2889    1.0000 </r>
       <r>  -18.2776    1.0000 </r>
       <r>  -18.2298    1.0000 </r>
       <r>  -18.2275    1.0000 </r>
       <r>  -18.1785    1.0000 </r>
       <r>  -18.1419    1.0000 </r>
       <r>  -18.1300    1.0000 </r>
       <r>  -18.0930    1.0000 </r>
       <r>  -18.0756    1.0000 </r>
       <r>  -18.0677    1.0000 </r>
       <r>  -18.0316    1.0000 </r>
       <r>  -17.9815    1.0000 </r>
       <r>  -17.9696    1.0000 </r>
       <r>  -17.9457    1.0000 </r>
       <r>  -17.9440    1.0000 </r>
       <r>  -17.8946    1.0000 </r>
       <r>  -17.8796    1.0000 </r>
       <r>  -17.8254    1.0000 </r>
       <r>  -17.8241    1.0000 </r>
       <r>  -17.8020    1.0000 </r>
       <r>  -17.7776    1.0000 </r>
       <r>  -17.7490    1.0000 </r>
       <r>  -17.6995    1.0000 </r>
       <r>  -17.6399    1.0000 </r>
       <r>  -17.5853    1.0000 </r>
       <r>  -17.5802    1.0000 </r>
       <r>  -17.5221    1.0000 </r>
       <r>  -11.7501    1.0000 </r>
       <r>  -11.6088    1.0000 </r>
       <r>  -11.4461    1.0000 </r>
       <r>  -11.4038    1.0000 </r>
       <r>  -11.2750    1.0000 </r>
       <r>  -11.2285    1.0000 </r>
       <r>  -11.1216    1.0000 </r>
       <r>  -11.0992    1.0000 </r>
       <r>  -11.0456    1.0000 </r>
       <r>  -10.9349    1.0000 </r>
       <r>  -10.8896    1.0000 </r>
       <r>  -10.8628    1.0000 </r>
       <r>  -10.8541    1.0000 </r>
[...]
       <r>   -32.3330     0.0000    64.0000 </r>
       <r>   -32.1390     0.0000    64.0000 </r>
       <r>   -31.9450     0.0000    64.0000 </r>
       <r>   -31.7511     0.0000    64.0000 </r>
       <r>   -31.5571     0.0000    64.0000 </r>
       <r>   -31.3631     0.0000    64.0000 </r>
       <r>   -31.1692     0.0000    64.0000 </r>
       <r>   -30.9752     0.0000    64.0000 </r>
       <r>   -30.7813     0.0000    64.0000 </r>
       <r>   -30.5873     0.0155    64.0030 </r>
       <r>   -30.3933    42.6112    72.2681 </r>
       <r>   -30.1994   227.0705   116.3117 </r>
       <r>   -30.0054   336.7546   181.6301 </r>
       <r>   -29.8114   210.0672   222.3757 </r>
       <r>   -29.6175   141.8079   249.8815 </r>
       <r>   -29.4235    31.5403   255.9992 </r>
       <r>   -29.2295     0.0043   256.0000 </r>
       <r>   -29.0356     0.0000   256.0000 </r>
       <r>   -28.8416     0.0000   256.0000 </r>
       <r>   -28.6476     0.0000   256.0000 </r>
       <r>   -28.4537     0.0000   256.0000 </r>
       <r>   -28.2597     0.0000   256.0000 </r>
       <r>   -28.0657     0.0000   256.0000 </r>
       <r>   -27.8718     0.0000   256.0000 </r>
       <r>   -27.6778     0.0000   256.0000 </r>
       <r>   -27.4839     0.0000   256.0000 </r>
       <r>   -27.2899     0.0000   256.0000 </r>
       <r>   -27.0959     0.0000   256.0000 </r>
       <r>   -26.9020     0.0000   256.0000 </r>
       <r>   -26.7080     0.0000   256.0000 </r>
       <r>   -26.5140     0.0000   256.0000 </r>
       <r>   -26.3201     0.0000   256.0000 </r>
       <r>   -26.1261     0.0000   256.0000 </r>
       <r>   -25.9321     0.0000   256.0000 </r>
       <r>   -25.7382     0.0000   256.0000 </r>
       <r>   -25.5442     0.0000   256.0000 </r>
       <r>   -25.3502     0.0000   256.0000 </r>
       <r>   -25.1563     0.0000   256.0000 </r>
       <r>   -24.9623     0.0000   256.0000 </r>
       <r>   -24.7684     0.0000   256.0000 </r>
       <r>   -24.5744     0.0000   256.0000 </r>
       <r>   -24.3804     0.0000   256.0000 </r>
       <r>   -24.1865     0.0000   256.0000 </r>
       <r>   -23.9925     0.0000   256.0000 </r>
       <r>   -23.7985     0.0000   256.0000 </r>
       <r>   -23.6046     0.0000   256.0000 </r>
       <r>   -23.4106     0.0000   256.0000 </r>
       <r>   -23.2166     0.0000   256.0000 </r>
       <r>   -23.0227     0.0000   256.0000 </r>
       <r>   -22.8287     0.0000   256.0000 </r>
       <r>   -22.6347     0.0000   256.0000 </r>
       <r>   -22.4408     0.0000   256.0000 </r>
       <r>   -22.2468     0.0000   256.0000 </r>
       <r>   -22.0528     0.0000   256.0000 </r>
       <r>   -21.8589     0.0000   256.0000 </r>
       <r>   -21.6649     0.0000   256.0000 </r>
       <r>   -21.4710     0.0000   256.0000 </r>
       <r>   -21.2770     0.0000   256.0000 </r>
       <r>   -21.0830     0.0000   256.0000 </r>
       <r>   -20.8891     0.0000   256.0000 </r>
       <r>   -20.6951     0.0000   256.0000 </r>
       <r>   -20.5011     0.0000   256.0000 </r>
       <r>   -20.3072     0.0000   256.0000 </r>
       <r>   -20.1132     0.0000   256.0000 </r>
       <r>   -19.9192     0.0000   256.0000 </r>
       <r>   -19.7253     0.0000   256.0000 </r>
       <r>   -19.5313     0.0000   256.0000 </r>
       <r>   -19.3373     0.0000   256.0000 </r>
       <r>   -19.1434     0.0000   256.0000 </r>
       <r>   -18.9494     0.0000   256.0000 </r>
       <r>   -18.7554     0.0030   256.0006 </r>
       <r>   -18.5615    10.2015   257.9793 </r>
       <r>   -18.3675    31.6986   264.1277 </r>
       <r>   -18.1736    57.3263   275.2470 </r>
       <r>   -17.9796    77.6282   290.3041 </r>
       <r>   -17.7856    81.8998   306.1898 </r>
       <r>   -17.5917    47.6142   315.4252 </r>
       <r>   -17.3977    23.5836   319.9996 </r>
       <r>   -17.2037     0.0021   320.0000 </r>
       <r>   -17.0098     0.0000   320.0000 </r>
       <r>   -16.8158     0.0000   320.0000 </r>
       <r>   -16.6218     0.0000   320.0000 </r>
       <r>   -16.4279     0.0000   320.0000 </r>
       <r>   -16.2339     0.0000   320.0000 </r>
       <r>   -16.0399     0.0000   320.0000 </r>
       <r>   -15.8460     0.0000   320.0000 </r>
       <r>   -15.6520     0.0000   320.0000 </r>
       <r>   -15.4581     0.0000   320.0000 </r>
       <r>   -15.2641     0.0000   320.0000 </r>
       <r>   -15.0701     0.0000   320.0000 </r>
       <r>   -14.8762     0.0000   320.0000 </r>
       <r>   -14.6822     0.0000   320.0000 </r>
       <r>   -14.4882     0.0000   320.0000 </r>
       <r>   -14.2943     0.0000   320.0000 </r>
       <r>   -14.1003     0.0000   320.0000 </r>
       <r>   -13.9063     0.0000   320.0000 </r>
       <r>   -13.7124     0.0000   320.0000 </r>
       <r>   -13.5184     0.0000   320.0000 </r>
       <r>   -13.3244     0.0000   320.0000 </r>
       <r>   -13.1305     0.0000   320.0000 </r>
       <r>   -12.9365     0.0000   320.0000 </r>
       <r>   -12.7425     0.0000   320.0000 </r>
       <r>   -12.5486     0.0000   320.0000 </r>
       <r>   -12.3546     0.0000   320.0000 </r>
       <r>   -12.1607     0.0000   320.0000 </r>
       <r>   -11.9667     0.0000   320.0000 </r>
       <r>   -11.7727     2.9885   320.5797 </r>
       <r>   -11.5788    14.3225   323.3577 </r>
       <r>   -11.3848    19.5593   327.1515 </r>
       <r>   -11.1908    24.4612   331.8962 </r>
       <r>   -10.9969    30.5456   337.8209 </r>
       <r>   -10.8029    46.3990   346.8207 </r>
       <r>   -10.6089    22.4942   351.1838 </r>
       <r>   -10.4150     4.2082   352.0000 </r>
       <r>   -10.2210     0.0000   352.0000 </r>
       <r>   -10.0270     0.0000   352.0000 </r>
       <r>    -9.8331     0.0000   352.0000 </r>
       <r>    -9.6391     0.0000   352.0000 </r>
       <r>    -9.4451     0.0000   352.0000 </r>
       <r>    -9.2512     0.0000   352.0000 </r>
       <r>    -9.0572     0.0000   352.0000 </r>
       <r>    -8.8633     0.0000   352.0000 </r>
       <r>    -8.6693     0.0000   352.0000 </r>
       <r>    -8.4753     0.0000   352.0000 </r>
       <r>    -8.2814     0.0000   352.0000 </r>
       <r>    -8.0874     0.2242   352.0435 </r>
       <r>    -7.8934    15.2437   355.0002 </r>
       <r>    -7.6995    30.4969   360.9155 </r>
       <r>    -7.5055    61.7281   372.8886 </r>
       <r>    -7.3115    71.8052   386.8163 </r>
       <r>    -7.1176    55.8491   397.6490 </r>
       <r>    -6.9236    65.6934   410.3912 </r>
       <r>    -6.7296   105.3017   430.8160 </r>
       <r>    -6.5357   111.9093   452.5225 </r>
       <r>    -6.3417   105.3182   472.9504 </r>
       <r>    -6.1478    79.6952   488.4085 </r>
       <r>    -5.9538    54.8553   499.0485 </r>
       <r>    -5.7598    66.4783   511.9429 </r>
       <r>    -5.5659    59.0313   523.3929 </r>
       <r>    -5.3719    55.8563   534.2270 </r>
       <r>    -5.1779    39.8340   541.9534 </r>
       <r>    -4.9840    10.5599   544.0017 </r>
       <r>    -4.7900    13.1212   546.5467 </r>
       <r>    -4.5960    42.9984   554.8869 </r>
       <r>    -4.4021    40.0570   562.6565 </r>
       <r>    -4.2081    28.6695   568.2174 </r>
       <r>    -4.0141    34.3544   574.8809 </r>
       <r>    -3.8202    72.5725   588.9574 </r>
       <r>    -3.6262    77.5477   603.9989 </r>
       <r>    -3.4322    86.2681   620.7319 </r>
       <r>    -3.2383    60.5480   632.4761 </r>
       <r>    -3.0443    28.4210   637.9887 </r>
       <r>    -2.8504    10.3476   639.9958 </r>
       <r>    -2.6564     0.0216   640.0000 </r>
       <r>    -2.4624     0.0000   640.0000 </r>
       <r>    -2.2685     0.0000   640.0000 </r>
       <r>    -2.0745     1.9903   640.3860 </r>
       <r>    -1.8805     8.7221   642.0778 </r>
       <r>    -1.6866    25.1064   646.9476 </r>
       <r>    -1.4926    10.5963   649.0029 </r>
       <r>    -1.2986    18.8313   652.6555 </r>
       <r>    -1.1047    25.5487   657.6110 </r>
       <r>    -0.9107    31.9824   663.8145 </r>
       <r>    -0.7167    11.1163   665.9707 </r>
       <r>    -0.5228    30.2115   671.8306 </r>
       <r>    -0.3288    38.0923   679.2192 </r>
       <r>    -0.1348    26.8943   684.4357 </r>
       <r>     0.0591    31.7871   690.6013 </r>
       <r>     0.2531    35.3862   697.4650 </r>
       <r>     0.4470    37.6206   704.7620 </r>
       <r>     0.6410    64.7518   717.3216 </r>
       <r>     0.8350   114.5305   739.5364 </r>
       <r>     1.0289   118.8099   762.5814 </r>
       <r>     1.2229    27.9356   767.9999 </r>
       <r>     1.4169     0.0007   768.0000 </r>
       <r>     1.6108     0.0000   768.0000 </r>
       <r>     1.8048     0.0000   768.0000 </r>
       <r>     1.9988     0.0000   768.0000 </r>
       <r>     2.1927     0.0000   768.0000 </r>
       <r>     2.3867     0.0000   768.0000 </r>
       <r>     2.5807     0.0000   768.0000 </r>
       <r>     2.7746     0.0000   768.0000 </r>
       <r>     2.9686     0.0000   768.0000 </r>
       <r>     3.1625     0.0000   768.0000 </r>
       <r>     3.3565     0.0000   768.0000 </r>
       <r>     3.5505     0.0000   768.0000 </r>
       <r>     3.7444     0.0000   768.0000 </r>
      </set>
     </set>
    </array>
   </total>
  </dos>
 </calculation>
 <structure name="finalpos" >
  <crystal>
   <varray name="basis" >
    <v>      13.79398668       0.00000000       0.00000000 </v>
    <v>      -6.89699334      11.94594288       0.00000000 </v>
    <v>       0.00000000       0.00000000      27.81022107 </v>
   </varray>
   <i name="volume">   4582.62876984 </i>
   <varray name="rec_basis" >
    <v>       0.07249536       0.04185521       0.00000000 </v>
    <v>       0.00000000       0.08371043       0.00000000 </v>
    <v>       0.00000000       0.00000000       0.03595800 </v>
   </varray>
  </crystal>
  <varray name="positions" >
   <v>       0.07947029       0.16849486       0.54797934 </v>
   <v>       0.08384656       0.41854845       0.54403980 </v>
   <v>       0.08558366       0.66704515       0.54480728 </v>
   <v>       0.08603066       0.92557068       0.54332559 </v>
   <v>       0.33171349       0.16550625       0.54478921 </v>
   <v>       0.33063946       0.41028470       0.54585010 </v>
   <v>       0.32856835       0.66899542       0.54679620 </v>
   <v>       0.33959306       0.91477649       0.54158023 </v>
   <v>       0.58799052       0.16207265       0.54641359 </v>
   <v>       0.58093322       0.40816984       0.54367968 </v>
   <v>       0.57948177       0.66532164       0.54279501 </v>
   <v>       0.58483900       0.91838853       0.54193162 </v>
   <v>       0.83617063       0.17314559       0.54644728 </v>
   <v>       0.83765912       0.41707831       0.54842105 </v>
   <v>       0.83473468       0.67056496       0.54539395 </v>
   <v>       0.83658511       0.91676667       0.54036822 </v>
   <v>       0.17342153       0.08167139       0.45278628 </v>
   <v>       0.16624855       0.33175103       0.45841458 </v>
   <v>       0.16377767       0.59400677       0.45432320 </v>
   <v>       0.17353130       0.83494073       0.45191952 </v>
   <v>       0.41332866       0.08354650       0.45658182 </v>
   <v>       0.42002256       0.33148330       0.45954877 </v>
   <v>       0.41556181       0.58204159       0.45749609 </v>
   <v>       0.42073622       0.83685759       0.44913520 </v>
   <v>       0.66588792       0.08542457       0.45453630 </v>
   <v>       0.66994068       0.33149261       0.45791281 </v>
   <v>       0.66565444       0.57924110       0.45545000 </v>
   <v>       0.67460185       0.83284325       0.45709056 </v>
   <v>       0.92150873       0.08225404       0.45400587 </v>
   <v>       0.91502269       0.33623649       0.45729039 </v>
   <v>       0.90922739       0.58396338       0.46076597 </v>
   <v>       0.92708557       0.83210673       0.45578350 </v>
   <v>       0.09090985       0.17387973       0.39842936 </v>
   <v>       0.07047132       0.41095557       0.39940091 </v>
   <v>       0.07831237       0.67341696       0.39315420 </v>
   <v>       0.08346009       0.91000921       0.39219663 </v>
   <v>       0.32157057       0.16612178       0.39561721 </v>
   <v>       0.32823784       0.40600415       0.39601972 </v>
   <v>       0.32856582       0.66163444       0.39704764 </v>
   <v>       0.33201473       0.91796437       0.38872763 </v>
   <v>       0.58003042       0.16527320       0.39559074 </v>
   <v>       0.57603841       0.40184578       0.39756841 </v>
   <v>       0.58201693       0.66622340       0.39546258 </v>
   <v>       0.60284883       0.93054956       0.39005226 </v>
   <v>       0.82780884       0.16786147       0.39532258 </v>
   <v>       0.84125963       0.42326132       0.39829391 </v>
   <v>       0.82667806       0.65859595       0.39314521 </v>
   <v>       0.83799051       0.91783411       0.39359349 </v>
   <v>       0.16716148       0.08632106       0.60482824 </v>
   <v>       0.17008342       0.33010928       0.60467047 </v>
   <v>       0.16407140       0.58709073       0.60649635 </v>
   <v>       0.16471478       0.83971986       0.60401398 </v>
   <v>       0.41186263       0.08229173       0.60426334 </v>
   <v>       0.41747678       0.32530505       0.60599995 </v>
   <v>       0.41638638       0.58331877       0.60549301 </v>
   <v>       0.41757867       0.84354241       0.60256556 </v>
   <v>       0.66613187       0.08068241       0.60265401 </v>
   <v>       0.66507855       0.33773686       0.60374767 </v>
   <v>       0.65932368       0.58529841       0.60049802 </v>
   <v>       0.67381789       0.84375347       0.60600020 </v>
   <v>       0.91742940       0.07212395       0.60430439 </v>
   <v>       0.91825224       0.33597775       0.60778504 </v>
   <v>       0.91657569       0.57791979       0.60417732 </v>
   <v>       0.91524136       0.83411741       0.60429876 </v>
   <v>       0.00133443       0.99480762       0.49752433 </v>
   <v>       0.99854498       0.24919219       0.50349366 </v>
   <v>       0.00491569       0.50304179       0.50089235 </v>
   <v>       0.99147551       0.73923662       0.49820382 </v>
   <v>       0.24436864       0.99534108       0.49539559 </v>
   <v>       0.25166042       0.25578521       0.50432979 </v>
   <v>       0.23802774       0.49474739       0.49862335 </v>
   <v>       0.24896708       0.74960374       0.49944766 </v>
   <v>       0.49715657       0.99734674       0.49681507 </v>
   <v>       0.49162058       0.24967762       0.50144220 </v>
   <v>       0.49512023       0.49945352       0.49990068 </v>
   <v>       0.48913347       0.74488601       0.49951475 </v>
   <v>       0.74945074       0.99772633       0.49942823 </v>
   <v>       0.74007212       0.25079399       0.50382180 </v>
   <v>       0.74509557       0.49452779       0.49956912 </v>
   <v>       0.75590954       0.75381246       0.49825782 </v>
  </varray>
  <varray name="velocities" >
   <v>       0.00000000       0.00000000       0.00000000 </v>
   <v>       0.00000000       0.00000000       0.00000000 </v>
   <v>       0.00000000       0.00000000       0.00000000 </v>
   <v>       0.00000000       0.00000000       0.00000000 </v>
   <v>       0.00000000       0.00000000       0.00000000 </v>
   <v>       0.00000000       0.00000000       0.00000000 </v>
   <v>       0.00000000       0.00000000       0.00000000 </v>
   <v>       0.00000000       0.00000000       0.00000000 </v>
   <v>       0.00000000       0.00000000       0.00000000 </v>
   <v>       0.00000000       0.00000000       0.00000000 </v>
   <v>       0.00000000       0.00000000       0.00000000 </v>
   <v>       0.00000000       0.00000000       0.00000000 </v>
   <v>       0.00000000       0.00000000       0.00000000 </v>
   <v>       0.00000000       0.00000000       0.00000000 </v>
   <v>       0.00000000       0.00000000       0.00000000 </v>
   <v>       0.00000000       0.00000000       0.00000000 </v>
   <v>       0.00000000       0.00000000       0.00000000 </v>
   <v>       0.00000000       0.00000000       0.00000000 </v>
   <v>       0.00000000       0.00000000       0.00000000 </v>
   <v>       0.00000000       0.00000000       0.00000000 </v>
   <v>       0.00000000       0.00000000       0.00000000 </v>
   <v>       0.00000000       0.00000000       0.00000000 </v>
   <v>       0.00000000       0.00000000       0.00000000 </v>
   <v>       0.00000000       0.00000000       0.00000000 </v>
   <v>       0.00000000       0.00000000       0.00000000 </v>
   <v>       0.00000000       0.00000000       0.00000000 </v>
   <v>       0.00000000       0.00000000       0.00000000 </v>
   <v>       0.00000000       0.00000000       0.00000000 </v>
   <v>       0.00000000       0.00000000       0.00000000 </v>
   <v>       0.00000000       0.00000000       0.00000000 </v>
   <v>       0.00000000       0.00000000       0.00000000 </v>
   <v>       0.00000000       0.00000000       0.00000000 </v>
   <v>       0.00000000       0.00000000       0.00000000 </v>
   <v>       0.00000000       0.00000000       0.00000000 </v>
   <v>       0.00000000       0.00000000       0.00000000 </v>
   <v>       0.00000000       0.00000000       0.00000000 </v>
   <v>       0.00000000       0.00000000       0.00000000 </v>
   <v>       0.00000000       0.00000000       0.00000000 </v>
   <v>       0.00000000       0.00000000       0.00000000 </v>
   <v>       0.00000000       0.00000000       0.00000000 </v>
   <v>       0.00000000       0.00000000       0.00000000 </v>
   <v>       0.00000000       0.00000000       0.00000000 </v>
   <v>       0.00000000       0.00000000       0.00000000 </v>
   <v>       0.00000000       0.00000000       0.00000000 </v>
   <v>       0.00000000       0.00000000       0.00000000 </v>
   <v>       0.00000000       0.00000000       0.00000000 </v>
   <v>       0.00000000       0.00000000       0.00000000 </v>
   <v>       0.00000000       0.00000000       0.00000000 </v>
   <v>       0.00000000       0.00000000       0.00000000 </v>
   <v>       0.00000000       0.00000000       0.00000000 </v>
   <v>       0.00000000       0.00000000       0.00000000 </v>
   <v>       0.00000000       0.00000000       0.00000000 </v>
   <v>       0.00000000       0.00000000       0.00000000 </v>
   <v>       0.00000000       0.00000000       0.00000000 </v>
   <v>       0.00000000       0.00000000       0.00000000 </v>
   <v>       0.00000000       0.00000000       0.00000000 </v>
   <v>       0.00000000       0.00000000       0.00000000 </v>
   <v>       0.00000000       0.00000000       0.00000000 </v>
   <v>       0.00000000       0.00000000       0.00000000 </v>
   <v>       0.00000000       0.00000000       0.00000000 </v>
   <v>       0.00000000       0.00000000       0.00000000 </v>
   <v>       0.00000000       0.00000000       0.00000000 </v>
   <v>       0.00000000       0.00000000       0.00000000 </v>
   <v>       0.00000000       0.00000000       0.00000000 </v>
   <v>       0.00000000       0.00000000       0.00000000 </v>
   <v>       0.00000000       0.00000000       0.00000000 </v>
   <v>       0.00000000       0.00000000       0.00000000 </v>
   <v>       0.00000000       0.00000000       0.00000000 </v>
   <v>       0.00000000       0.00000000       0.00000000 </v>
   <v>       0.00000000       0.00000000       0.00000000 </v>
   <v>       0.00000000       0.00000000       0.00000000 </v>
   <v>       0.00000000       0.00000000       0.00000000 </v>
   <v>       0.00000000       0.00000000       0.00000000 </v>
   <v>       0.00000000       0.00000000       0.00000000 </v>
   <v>       0.00000000       0.00000000       0.00000000 </v>
   <v>       0.00000000       0.00000000       0.00000000 </v>
   <v>       0.00000000       0.00000000       0.00000000 </v>
   <v>       0.00000000       0.00000000       0.00000000 </v>
   <v>       0.00000000       0.00000000       0.00000000 </v>
   <v>       0.00000000       0.00000000       0.00000000 </v>
  </varray>
 </structure>
</modeling>
