 running on   52 total cores
 distrk:  each k-point on   52 cores,    1 groups
 distr:  one band on   13 cores,    4 groups
 using from now: INCAR     
 vasp.5.4.4.18Apr17-6-g9f103f2a35 (build Oct 31 2019 15:01:46) complex          
  
 POSCAR found type information on POSCAR  Sc Cl C 
 POSCAR found :  3 types and      80 ions
 scaLAPACK is switched off
 LDA part: xc-table for Pade appr. of Perdew
 generate k-points for:    3    3    1
 POSCAR, INCAR and KPOINTS ok, starting setup
 FFT: planning ...
 WAVECAR not read
 entering main loop
       N       E                     dE             d eps       ncg     rms          rms(c)
DAV:   1     0.121874817193E+05    0.12187E+05   -0.26809E+05  4424   0.152E+03
DAV:   2     0.170163633729E+04   -0.10486E+05   -0.10226E+05  5264   0.522E+02
DAV:   3    -0.416742740645E+03   -0.21184E+04   -0.20335E+04  6800   0.283E+02
DAV:   4    -0.645725188381E+03   -0.22898E+03   -0.22468E+03  6088   0.977E+01
DAV:   5    -0.655699679124E+03   -0.99745E+01   -0.99244E+01  6080   0.274E+01    0.691E+01
DAV:   6    -0.525273723961E+03    0.13043E+03   -0.69618E+02  5832   0.495E+01    0.301E+01
DAV:   7    -0.530126602731E+03   -0.48529E+01   -0.86475E+01  5880   0.226E+01    0.152E+01
DAV:   8    -0.527881532978E+03    0.22451E+01   -0.95839E+00  5872   0.708E+00    0.923E+00
DAV:   9    -0.527344149830E+03    0.53738E+00   -0.36328E+00  5336   0.381E+00    0.305E+00
DAV:  10    -0.527221412038E+03    0.12274E+00   -0.59395E-01  5696   0.196E+00    0.170E+00
DAV:  11    -0.527199990623E+03    0.21421E-01   -0.17601E-01  5800   0.809E-01    0.753E-01
DAV:  12    -0.527186217327E+03    0.13773E-01   -0.30615E-02  6104   0.480E-01    0.284E-01
DAV:  13    -0.527183466609E+03    0.27507E-02   -0.78625E-03  5272   0.238E-01    0.169E-01
DAV:  14    -0.527182028697E+03    0.14379E-02   -0.58693E-03  5320   0.150E-01    0.165E-01
DAV:  15    -0.527183704281E+03   -0.16756E-02   -0.19030E-03  5424   0.918E-02    0.103E-01
DAV:  16    -0.527186023506E+03   -0.23192E-02   -0.10323E-03  5944   0.560E-02    0.569E-02
DAV:  17    -0.527189659845E+03   -0.36363E-02   -0.77753E-04  5040   0.528E-02    0.332E-02
DAV:  18    -0.527191664550E+03   -0.20047E-02   -0.25518E-04  4872   0.295E-02    0.233E-02
DAV:  19    -0.527192854798E+03   -0.11902E-02   -0.11306E-04  5160   0.179E-02    0.157E-02
DAV:  20    -0.527193925077E+03   -0.10703E-02   -0.35416E-05  4624   0.129E-02    0.982E-03
DAV:  21    -0.527194412322E+03   -0.48724E-03   -0.14878E-05  3896   0.743E-03    0.720E-03
DAV:  22    -0.527194894602E+03   -0.48228E-03   -0.55196E-06  3472   0.469E-03    0.406E-03
DAV:  23    -0.527195362494E+03   -0.46789E-03   -0.13336E-05  3536   0.457E-03    0.280E-03
DAV:  24    -0.527195495475E+03   -0.13298E-03   -0.32438E-06  3664   0.297E-03    0.271E-03
DAV:  25    -0.527195587267E+03   -0.91792E-04   -0.19574E-06  3096   0.235E-03    0.178E-03
DAV:  26    -0.527195643358E+03   -0.56091E-04   -0.13522E-06  3104   0.196E-03    0.139E-03
DAV:  27    -0.527195653629E+03   -0.10271E-04   -0.23140E-07  2640   0.160E-03    0.864E-04
DAV:  28    -0.527195669968E+03   -0.16340E-04   -0.43798E-07  2728   0.127E-03    0.625E-04
DAV:  29    -0.527195676649E+03   -0.66805E-05   -0.21835E-07  2616   0.141E-03    0.420E-04
DAV:  30    -0.527195682465E+03   -0.58168E-05   -0.23395E-07  2648   0.927E-04    0.435E-04
DAV:  31    -0.527195684649E+03   -0.21837E-05   -0.13647E-07  2424   0.111E-03    0.329E-04
DAV:  32    -0.527195686253E+03   -0.16037E-05   -0.12087E-07  2576   0.619E-04    0.190E-04
DAV:  33    -0.527195686774E+03   -0.52110E-06   -0.67404E-08  2400   0.809E-04
   1 F= -.52719569E+03 E0= -.52719569E+03  d E =-.435919E-17
