 vasp.5.4.4.18Apr17-6-g9f103f2a35 (build Oct 31 2019 15:01:46) complex          
  
 executed on             LinuxIFC date 2024.04.30  00:42:52
 running on   52 total cores
 distrk:  each k-point on   52 cores,    1 groups
 distr:  one band on NCORES_PER_BAND=  13 cores,    4 groups


--------------------------------------------------------------------------------------------------------


 INCAR:
 POTCAR:    PAW_PBE Sc_sv 07Sep2000               
 POTCAR:    PAW_PBE Cl 06Sep2000                  
 POTCAR:    PAW_PBE C 08Apr2002                   
 POTCAR:    PAW_PBE Sc_sv 07Sep2000               
   VRHFIN =Sc: 3p4s3d                                                           
   LEXCH  = PE                                                                  
   EATOM  =  1273.2868 eV,   93.5839 Ry                                         
                                                                                
   TITEL  = PAW_PBE Sc_sv 07Sep2000                                             
   LULTRA =        F    use ultrasoft PP ?                                      
   IUNSCR =        1    unscreen: 0-lin 1-nonlin 2-no                           
   RPACOR =    2.200    partial core radius                                     
   POMASS =   44.956; ZVAL   =   11.000    mass and valenz                      
   RCORE  =    2.500    outmost cutoff radius                                   
   RWIGS  =    2.700; RWIGS  =    1.429    wigner-seitz radius (au A)           
   ENMAX  =  222.660; ENMIN  =  166.995 eV                                      
   RCLOC  =    1.805    cutoff for local pot                                    
   LCOR   =        T    correct aug charges                                     
   LPAW   =        T    paw PP                                                  
   EAUG   =  443.063                                                            
   RMAX   =    2.551    core radius for proj-oper                               
   RAUG   =    1.300    factor for augmentation sphere                          
   RDEP   =    2.650    radius for radial grids                                 
   RDEPT  =    2.038    core radius for aug-charge                              
                                                                                
   Atomic configuration                                                         
    8 entries                                                                   
     n  l   j            E        occ.                                          
     1  0  0.50     -4394.2533   2.0000                                         
     2  0  0.50      -471.0040   2.0000                                         
     2  1  1.50      -384.9788   6.0000                                         
     3  0  0.50       -52.1410   2.0000                                         
     4  0  0.50        -3.5584   1.0000                                         
     3  1  1.50       -30.8841   6.0000                                         
     3  2  2.50        -1.3655   2.0000                                         
     4  3  2.50        -1.3606   0.0000                                         
   Description                                                                  
     l       E           TYP  RCUT    TYP  RCUT                                 
     0    -52.1409870     23  1.800                                             
     0     -3.5583698     23  2.500                                             
     1    -30.8840697     23  2.300                                             
     1      4.0817478     23  2.300                                             
     2     -1.3655397     23  2.500                                             
     2      0.3564476     23  2.500                                             
  local pseudopotential read in
  partial core-charges read in
  partial kinetic energy density read in
  atomic valenz-charges read in
  non local Contribution for L=           0  read in
    real space projection operators read in
  non local Contribution for L=           0  read in
    real space projection operators read in
  non local Contribution for L=           1  read in
    real space projection operators read in
  non local Contribution for L=           1  read in
    real space projection operators read in
  non local Contribution for L=           2  read in
    real space projection operators read in
  non local Contribution for L=           2  read in
    real space projection operators read in
    PAW grid and wavefunctions read in
 
   number of l-projection  operators is LMAX  =           6
   number of lm-projection operators is LMMAX =          18
 
 POTCAR:    PAW_PBE Cl 06Sep2000                  
   VRHFIN =Cl: s2p5                                                             
   LEXCH  = PE                                                                  
   EATOM  =   409.7259 eV,   30.1140 Ry                                         
                                                                                
   TITEL  = PAW_PBE Cl 06Sep2000                                                
   LULTRA =        F    use ultrasoft PP ?                                      
   IUNSCR =        1    unscreen: 0-lin 1-nonlin 2-no                           
   RPACOR =    1.500    partial core radius                                     
   POMASS =   35.453; ZVAL   =    7.000    mass and valenz                      
   RCORE  =    1.900    outmost cutoff radius                                   
   RWIGS  =    2.100; RWIGS  =    1.111    wigner-seitz radius (au A)           
   ENMAX  =  262.472; ENMIN  =  196.854 eV                                      
   ICORE  =        2    local potential                                         
   LCOR   =        T    correct aug charges                                     
   LPAW   =        T    paw PP                                                  
   EAUG   =  356.192                                                            
   DEXC   =    0.000                                                            
   RMAX   =    1.945    core radius for proj-oper                               
   RAUG   =    1.300    factor for augmentation sphere                          
   RDEP   =    2.020    radius for radial grids                                 
   RDEPT  =    1.678    core radius for aug-charge                              
                                                                                
   Atomic configuration                                                         
    6 entries                                                                   
     n  l   j            E        occ.                                          
     1  0  0.50     -2751.1850   2.0000                                         
     2  0  0.50      -252.6861   2.0000                                         
     2  1  1.50      -191.6157   6.0000                                         
     3  0  0.50       -20.6916   2.0000                                         
     3  1  0.50        -8.5949   5.0000                                         
     3  2  1.50        -8.1635   0.0000                                         
   Description                                                                  
     l       E           TYP  RCUT    TYP  RCUT                                 
     0    -20.6915656     23  1.900                                             
     0    -22.0521482     23  1.900                                             
     1     -8.5948577     23  1.900                                             
     1     -5.3847331     23  1.900                                             
     2     -8.1634956     23  1.900                                             
  local pseudopotential read in
  partial core-charges read in
  partial kinetic energy density read in
  atomic valenz-charges read in
  non local Contribution for L=           0  read in
    real space projection operators read in
  non local Contribution for L=           0  read in
    real space projection operators read in
  non local Contribution for L=           1  read in
    real space projection operators read in
  non local Contribution for L=           1  read in
    real space projection operators read in
    PAW grid and wavefunctions read in
 
   number of l-projection  operators is LMAX  =           4
   number of lm-projection operators is LMMAX =           8
 
 POTCAR:    PAW_PBE C 08Apr2002                   
   VRHFIN =C: s2p2                                                              
   LEXCH  = PE                                                                  
   EATOM  =   147.1560 eV,   10.8157 Ry                                         
                                                                                
   TITEL  = PAW_PBE C 08Apr2002                                                 
   LULTRA =        F    use ultrasoft PP ?                                      
   IUNSCR =        1    unscreen: 0-lin 1-nonlin 2-no                           
   RPACOR =    1.200    partial core radius                                     
   POMASS =   12.011; ZVAL   =    4.000    mass and valenz                      
   RCORE  =    1.500    outmost cutoff radius                                   
   RWIGS  =    1.630; RWIGS  =    0.863    wigner-seitz radius (au A)           
   ENMAX  =  400.000; ENMIN  =  300.000 eV                                      
   ICORE  =        2    local potential                                         
   LCOR   =        T    correct aug charges                                     
   LPAW   =        T    paw PP                                                  
   EAUG   =  644.873                                                            
   DEXC   =    0.000                                                            
   RMAX   =    1.529    core radius for proj-oper                               
   RAUG   =    1.300    factor for augmentation sphere                          
   RDEP   =    1.501    radius for radial grids                                 
   RDEPT  =    1.300    core radius for aug-charge                              
                                                                                
   Atomic configuration                                                         
    4 entries                                                                   
     n  l   j            E        occ.                                          
     1  0  0.50      -273.3789   2.0000                                         
     2  0  0.50       -13.7508   2.0000                                         
     2  1  0.50        -5.2854   2.0000                                         
     3  2  1.50        -5.4423   0.0000                                         
   Description                                                                  
     l       E           TYP  RCUT    TYP  RCUT                                 
     0    -13.7508458     23  1.200                                             
     0     -8.2022199     23  1.200                                             
     1     -5.2854383     23  1.500                                             
     1     34.0145650     23  1.500                                             
     2     -5.4423304      7  1.500                                             
  local pseudopotential read in
  partial core-charges read in
  partial kinetic energy density read in
  atomic valenz-charges read in
  non local Contribution for L=           0  read in
    real space projection operators read in
  non local Contribution for L=           0  read in
    real space projection operators read in
  non local Contribution for L=           1  read in
    real space projection operators read in
  non local Contribution for L=           1  read in
    real space projection operators read in
    PAW grid and wavefunctions read in
 
   number of l-projection  operators is LMAX  =           4
   number of lm-projection operators is LMMAX =           8
 
 Optimization of the real space projectors (new method)

 maximal supplied QI-value         = 15.12
 optimisation between [QCUT,QGAM] = [ 12.55, 25.10] = [ 44.09,176.36] Ry 
 Optimized for a Real-space Cutoff    1.56 Angstroem

   l    n(q)    QCUT    max X(q) W(low)/X(q) W(high)/X(q)  e(spline) 
   0     12    12.548     2.962    0.12E-05    0.11E-06    0.46E-07
   0     12    12.548    26.414    0.30E-04    0.15E-05    0.76E-07
   1     11    12.548     3.969    0.45E-05    0.12E-05    0.60E-07
   1     11    12.548     5.137    0.15E-04    0.18E-04    0.36E-06
   2     11    12.548   143.970    0.20E-03    0.19E-03    0.76E-06
   2     11    12.548   121.201    0.20E-03    0.19E-03    0.76E-06
 Optimization of the real space projectors (new method)

 maximal supplied QI-value         = 19.84
 optimisation between [QCUT,QGAM] = [ 12.50, 25.00] = [ 43.76,175.03] Ry 
 Optimized for a Real-space Cutoff    1.20 Angstroem

   l    n(q)    QCUT    max X(q) W(low)/X(q) W(high)/X(q)  e(spline) 
   0      9    12.501   168.010    0.44E-04    0.61E-04    0.77E-07
   0      9    12.501   164.674    0.43E-04    0.60E-04    0.75E-07
   1      8    12.501    69.222    0.11E-03    0.13E-03    0.91E-07
   1      8    12.501    56.786    0.11E-03    0.13E-03    0.90E-07
 Optimization of the real space projectors (new method)

 maximal supplied QI-value         = 25.13
 optimisation between [QCUT,QGAM] = [ 12.32, 24.88] = [ 42.47,173.37] Ry 
 Optimized for a Real-space Cutoff    1.16 Angstroem

   l    n(q)    QCUT    max X(q) W(low)/X(q) W(high)/X(q)  e(spline) 
   0      9    12.315   115.676    0.19E-03    0.80E-05    0.34E-06
   0      9    12.315    87.132    0.19E-03    0.82E-05    0.34E-06
   1      8    12.315     4.429    0.18E-03    0.13E-03    0.22E-06
   1      8    12.315     2.733    0.14E-03    0.10E-03    0.18E-06
  PAW_PBE Sc_sv 07Sep2000               :
 energy of atom  1       EATOM=-1273.2868
 kinetic energy error for atom=    0.0014 (will be added to EATOM!!)
  PAW_PBE Cl 06Sep2000                  :
 energy of atom  2       EATOM= -409.7259
 kinetic energy error for atom=    0.0013 (will be added to EATOM!!)
  PAW_PBE C 08Apr2002                   :
 energy of atom  3       EATOM= -147.1560
 kinetic energy error for atom=    0.0057 (will be added to EATOM!!)
 
 
 POSCAR: Sc Cl  C                                
  positions in cartesian coordinates
  No initial velocities read in
 exchange correlation table for  LEXCH =        8
   RHO(1)=    0.500       N(1)  =     2000
   RHO(2)=  100.500       N(2)  =     4000
 


--------------------------------------------------------------------------------------------------------


 ion  position               nearest neighbor table
   1  0.086  0.169  0.546-  70 2.30  66 2.38  65 2.46  49 2.54  61 2.63  50 2.66  17 3.15  29 3.23
                            18 3.24   5 3.30   6 3.43
   2  0.081  0.417  0.544-  67 2.26  71 2.33  66 2.43  62 2.63  51 2.70  50 2.70  19 3.06  30 3.10
                            18 3.21
   3  0.086  0.679  0.545-  68 2.20  72 2.36  67 2.41  52 2.49  63 2.63  51 2.64  31 3.12  19 3.15
                            20 3.16   4 3.33  15 3.41
   4  0.080  0.917  0.542-  65 2.25  68 2.27  69 2.31  64 2.51  49 2.62  52 2.75  32 3.09  20 3.12
                            17 3.17   3 3.33  15 3.42   5 3.43
   5  0.325  0.169  0.546-  69 2.31  70 2.32  74 2.34  49 2.60  54 2.63  53 2.68  17 3.12  22 3.25
                            21 3.28   1 3.30   4 3.43
   6  0.332  0.421  0.546-  71 2.23  70 2.37  75 2.50  50 2.58  55 2.63  54 2.68  23 3.14  18 3.27
                            22 3.31   7 3.41   1 3.43
   7  0.337  0.670  0.551-  76 2.37  72 2.41  56 2.51  71 2.52  55 2.52  51 2.60  24 3.17  23 3.32
                            19 3.33  12 3.37   6 3.41
   8  0.339  0.924  0.544-  69 2.35  72 2.37  73 2.41  53 2.46  52 2.64  56 2.80  21 3.12  20 3.16
                            24 3.23   9 3.34  12 3.38
   9  0.580  0.167  0.542-  78 2.33  73 2.34  74 2.46  58 2.54  53 2.55  57 2.61  21 3.07  26 3.17
                            25 3.21   8 3.34  13 3.35  14 3.41
  10  0.582  0.423  0.543-  79 2.20  75 2.24  74 2.38  58 2.53  54 2.64  59 2.75  27 3.09  22 3.21
                            26 3.29  11 3.31  15 3.43
  11  0.588  0.665  0.545-  75 2.26  76 2.37  80 2.42  59 2.53  55 2.54  60 2.66  28 3.14  23 3.22
                            27 3.26  10 3.31  16 3.34  15 3.37
  12  0.580  0.915  0.543-  76 2.29  77 2.32  73 2.43  56 2.59  57 2.71  60 2.72  24 3.10  25 3.15
                            28 3.20  13 3.31   7 3.37   8 3.38
  13  0.818  0.157  0.544-  77 2.33  78 2.35  66 2.54  57 2.59  61 2.61  62 2.64  25 3.12  30 3.17
                            29 3.24  12 3.31   9 3.35
  14  0.828  0.414  0.545-  79 2.31  67 2.36  78 2.41  63 2.49  58 2.50  62 2.66  31 3.09  30 3.16
                            26 3.26   9 3.41
  15  0.834  0.668  0.543-  68 2.28  80 2.34  79 2.38  63 2.47  59 2.50  64 2.67  31 3.10  32 3.17
                            27 3.25  11 3.37  16 3.40   3 3.41   4 3.42  10 3.43
  16  0.827  0.911  0.544-  80 2.30  77 2.32  60 2.46  65 2.55  61 2.59  64 2.66  28 3.16  32 3.17
                            29 3.30  11 3.34  15 3.40
  17  0.170  0.091  0.456-  65 2.22  70 2.30  69 2.37  33 2.48  36 2.54  37 2.68   5 3.12   1 3.15
                             4 3.17  22 3.36  18 3.39  29 3.42
  18  0.164  0.334  0.453-  66 2.30  71 2.35  70 2.36  34 2.53  38 2.59  33 2.65   2 3.21   1 3.24
                             6 3.27  29 3.36  17 3.39  30 3.40
  19  0.160  0.580  0.459-  67 2.26  72 2.36  71 2.41  39 2.53  35 2.56  34 2.64   2 3.06   3 3.15
                             7 3.33  31 3.35  30 3.39  24 3.42
  20  0.173  0.843  0.456-  69 2.32  72 2.41  68 2.45  36 2.51  35 2.54  40 2.76   4 3.12   3 3.16
                             8 3.16  21 3.38
  21  0.420  0.086  0.456-  73 2.21  74 2.33  69 2.40  37 2.59  40 2.63  41 2.79   9 3.07   8 3.12
                             5 3.28  26 3.34  20 3.38  25 3.41
  22  0.416  0.333  0.453-  74 2.22  70 2.41  38 2.48  75 2.48  42 2.50  37 2.54  10 3.21   5 3.25
                             6 3.31  27 3.36  17 3.36  23 3.42  26 3.42
  23  0.416  0.580  0.457-  75 2.33  71 2.36  76 2.37  38 2.54  39 2.62  43 2.70   6 3.14  11 3.22
                             7 3.32  24 3.32  28 3.39  22 3.42
  24  0.415  0.820  0.457-  76 2.26  72 2.27  73 2.45  39 2.61  44 2.71  40 2.73  12 3.10   7 3.17
                             8 3.23  23 3.32  28 3.40  19 3.42
  25  0.662  0.077  0.454-  73 2.21  78 2.34  77 2.37  41 2.57  45 2.68  44 2.70  13 3.12  12 3.15
                             9 3.21  21 3.41
  26  0.661  0.328  0.452-  78 2.32  79 2.43  74 2.46  41 2.52  42 2.64  46 2.65   9 3.17  14 3.26
                            10 3.29  21 3.34  27 3.37  22 3.42
  27  0.663  0.573  0.453-  75 2.24  79 2.35  80 2.49  47 2.50  42 2.57  43 2.67  10 3.09  15 3.25
                            11 3.26  22 3.36  26 3.37
  28  0.663  0.824  0.455-  80 2.27  77 2.36  76 2.36  44 2.54  43 2.61  48 2.68  11 3.14  16 3.16
                            12 3.20  23 3.39  24 3.40
  29  0.921  0.089  0.454-  66 2.22  65 2.42  77 2.45  45 2.54  33 2.58  48 2.71   1 3.23  13 3.24
                            16 3.30  18 3.36  30 3.38  17 3.42
  30  0.916  0.332  0.458-  66 2.30  78 2.33  67 2.39  34 2.56  46 2.60  45 2.75   2 3.10  14 3.16
                            13 3.17  29 3.38  19 3.39  18 3.40  31 3.42
  31  0.917  0.580  0.459-  67 2.30  68 2.37  79 2.42  46 2.53  35 2.61  47 2.75  14 3.09  15 3.10
                             3 3.12  19 3.35  30 3.42
  32  0.919  0.837  0.455-  65 2.25  80 2.26  68 2.41  47 2.55  36 2.57  48 2.65   4 3.09  15 3.17
                            16 3.17
  33  0.087  0.159  0.395-  17 2.48  29 2.58  18 2.65
  34  0.077  0.413  0.397-  18 2.53  30 2.56  19 2.64
  35  0.087  0.673  0.401-  20 2.54  19 2.56  31 2.61
  36  0.090  0.924  0.400-  20 2.51  17 2.54  32 2.57
  37  0.341  0.169  0.394-  22 2.54  21 2.59  17 2.68
  38  0.338  0.418  0.398-  22 2.48  23 2.54  18 2.59
  39  0.316  0.651  0.398-  19 2.53  24 2.61  23 2.62
  40  0.349  0.925  0.392-  21 2.63  24 2.73  20 2.76
  41  0.598  0.172  0.391-  26 2.52  25 2.57  21 2.79
  42  0.571  0.410  0.393-  22 2.50  27 2.57  26 2.64
  43  0.583  0.664  0.391-  28 2.61  27 2.67  23 2.70
  44  0.585  0.901  0.393-  28 2.54  25 2.70  24 2.71
  45  0.835  0.160  0.392-  29 2.54  25 2.68  30 2.75
  46  0.843  0.425  0.398-  31 2.53  30 2.60  26 2.65
  47  0.827  0.671  0.398-  27 2.50  32 2.55  31 2.75
  48  0.832  0.914  0.392-  32 2.65  28 2.68  29 2.71
  49  0.157  0.080  0.606-   1 2.54   5 2.60   4 2.62
  50  0.171  0.337  0.608-   6 2.58   1 2.66   2 2.70
  51  0.162  0.589  0.607-   7 2.60   3 2.64   2 2.70
  52  0.171  0.831  0.606-   3 2.49   8 2.64   4 2.75
  53  0.418  0.079  0.602-   8 2.46   9 2.55   5 2.68
  54  0.420  0.336  0.608-   5 2.63  10 2.64   6 2.68
  55  0.428  0.591  0.605-   7 2.52  11 2.54   6 2.63
  56  0.427  0.832  0.609-   7 2.51  12 2.59   8 2.80
  57  0.659  0.086  0.607-  13 2.59   9 2.61  12 2.71
  58  0.661  0.334  0.599-  14 2.50  10 2.53   9 2.54
  59  0.683  0.602  0.605-  15 2.50  11 2.53  10 2.75
  60  0.678  0.839  0.605-  16 2.46  11 2.66  12 2.72
  61  0.910  0.080  0.603-  16 2.59  13 2.61   1 2.63
  62  0.913  0.325  0.605-   2 2.63  13 2.64  14 2.66
  63  0.906  0.579  0.599-  15 2.47  14 2.49   3 2.63
  64  0.928  0.840  0.604-   4 2.51  16 2.66  15 2.67
  65  0.008  0.999  0.496-  17 2.22  32 2.25   4 2.25  29 2.42   1 2.46  16 2.55
  66  0.000  0.246  0.497-  29 2.22  18 2.30  30 2.30   1 2.38   2 2.43  13 2.54
  67  0.001  0.501  0.503-  19 2.26   2 2.26  31 2.30  14 2.36  30 2.39   3 2.41
  68  0.000  0.750  0.504-   3 2.20   4 2.27  15 2.28  31 2.37  32 2.41  20 2.45
  69  0.250  0.005  0.502-   5 2.31   4 2.31  20 2.32   8 2.35  17 2.37  21 2.40
  70  0.247  0.253  0.501-  17 2.30   1 2.30   5 2.32  18 2.36   6 2.37  22 2.41
  71  0.249  0.494  0.502-   6 2.23   2 2.33  18 2.35  23 2.36  19 2.41   7 2.52
  72  0.255  0.752  0.501-  24 2.27  19 2.36   3 2.36   8 2.37  20 2.41   7 2.41
  73  0.504  0.007  0.494-  25 2.21  21 2.21   9 2.34   8 2.41  12 2.43  24 2.45
  74  0.488  0.253  0.499-  22 2.22  21 2.33   5 2.34  10 2.38  26 2.46   9 2.46
  75  0.511  0.509  0.500-  27 2.24  10 2.24  11 2.26  23 2.33  22 2.48   6 2.50
  76  0.499  0.748  0.502-  24 2.26  12 2.29  28 2.36   7 2.37  23 2.37  11 2.37
  77  0.746  0.993  0.499-  12 2.32  16 2.32  13 2.33  28 2.36  25 2.37  29 2.45
  78  0.744  0.246  0.497-  26 2.32  30 2.33   9 2.33  25 2.34  13 2.35  14 2.41
  79  0.740  0.492  0.503-  10 2.20  14 2.31  27 2.35  15 2.38  31 2.42  26 2.43
  80  0.756  0.754  0.497-  32 2.26  28 2.27  16 2.30  15 2.34  11 2.42  27 2.49
 
  LATTYP: Found a hexagonal cell.
 ALAT       =    13.7939866762
 C/A-ratio  =     2.0161119278
  
  Lattice vectors:
  
 A1 = (  13.7939866800,   0.0000000000,   0.0000000000)
 A2 = (  -6.8969933400,  11.9459428800,   0.0000000000)
 A3 = (   0.0000000000,   0.0000000000,  27.8102210700)


Analysis of symmetry for initial positions (statically):
=====================================================================
 Subroutine PRICEL returns:
 Original cell was already a primitive cell.
 

 Routine SETGRP: Setting up the symmetry group for a 
 hexagonal supercell.


 Subroutine GETGRP returns: Found  1 space group operations
 (whereof  1 operations were pure point group operations)
 out of a pool of 24 trial point group operations.


The static configuration has the point symmetry C_1 .


Analysis of symmetry for dynamics (positions and initial velocities):
=====================================================================
 Subroutine PRICEL returns:
 Original cell was already a primitive cell.
 

 Routine SETGRP: Setting up the symmetry group for a 
 hexagonal supercell.


 Subroutine GETGRP returns: Found  1 space group operations
 (whereof  1 operations were pure point group operations)
 out of a pool of 24 trial point group operations.


The dynamic configuration has the point symmetry C_1 .


 Subroutine INISYM returns: Found  1 space group operations
 (whereof  1 operations are pure point group operations),
 and found     1 'primitive' translations

 
 

Automatic generation of k-mesh.
 generate k-points for:    3    3    1
Space group operators:
 irot       det(A)        alpha          n_x          n_y          n_z        tau_x        tau_y        tau_z
    1     1.000000     0.000000     1.000000     0.000000     0.000000     0.000000     0.000000     0.000000
 
 Subroutine IBZKPT returns following result:
 ===========================================
 
 Found      5 irreducible k-points:
 
 Following reciprocal coordinates:
            Coordinates               Weight
  0.000000  0.000000  0.000000      1.000000
  0.333333 -0.000000  0.000000      2.000000
  0.000000  0.333333  0.000000      2.000000
  0.333333  0.333333  0.000000      2.000000
 -0.333333  0.333333  0.000000      2.000000
 
 Following cartesian coordinates:
            Coordinates               Weight
  0.000000  0.000000  0.000000      1.000000
  0.024165  0.013952  0.000000      2.000000
  0.000000  0.027903  0.000000      2.000000
  0.024165  0.041855  0.000000      2.000000
 -0.024165  0.013952  0.000000      2.000000
 


--------------------------------------------------------------------------------------------------------




 Dimension of arrays:
   k-points           NKPTS =      5   k-points in BZ     NKDIM =      5   number of bands    NBANDS=    384
   number of dos      NEDOS =    301   number of ions     NIONS =     80
   non local maximal  LDIM  =      6   non local SUM 2l+1 LMDIM =     18
   total plane-waves  NPLWV = ******
   max r-space proj   IRMAX =   9806   max aug-charges    IRDMAX= 216835
   dimension x,y,z NGX =   112 NGY =  112 NGZ =  224
   dimension x,y,z NGXF=   224 NGYF=  224 NGZF=  448
   support grid    NGXF=   448 NGYF=  448 NGZF=  896
   ions per type =              32  32  16
   NGX,Y,Z   is equivalent  to a cutoff of  13.50, 13.50, 13.39 a.u.
   NGXF,Y,Z  is equivalent  to a cutoff of  27.00, 27.00, 26.78 a.u.

 SYSTEM =  unknown system                          
 POSCAR =  Sc Cl  C                                

 Startparameter for this run:
   NWRITE =      2    write-flag & timer
   PREC   = anorma    normal or accurate (medium, high low for compatibility)
   ISTART =      0    job   : 0-new  1-cont  2-samecut
   ICHARG =      2    charge: 1-file 2-atom 10-const
   ISPIN  =      1    spin polarized calculation?
   LNONCOLLINEAR =      F non collinear calculations
   LSORBIT =      F    spin-orbit coupling
   INIWAV =      1    electr: 0-lowe 1-rand  2-diag
   LASPH  =      F    aspherical Exc in radial PAW
   METAGGA=      F    non-selfconsistent MetaGGA calc.

 Electronic Relaxation 1
   ENCUT  =  600.0 eV  44.10 Ry    6.64 a.u.  27.55 27.55 55.54*2*pi/ulx,y,z
   ENINI  =  600.0     initial cutoff
   ENAUG  =  644.9 eV  augmentation charge cutoff
   NELM   =     60;   NELMIN=  2; NELMDL= -5     # of ELM steps 
   EDIFF  = 0.1E-05   stopping-criterion for ELM
   LREAL  =      T    real-space projection
   NLSPLINE    = F    spline interpolate recip. space projectors
   LCOMPAT=      F    compatible to vasp.4.4
   GGA_COMPAT  = T    GGA compatible to vasp.4.4-vasp.4.6
   LMAXPAW     = -100 max onsite density
   LMAXMIX     =    2 max onsite mixed and CHGCAR
   VOSKOWN=      0    Vosko Wilk Nusair interpolation
   ROPT   =   -0.00025  -0.00025  -0.00025
 Ionic relaxation
   EDIFFG = -.1E-01   stopping-criterion for IOM
   NSW    =      1    number of steps for IOM
   NBLOCK =      1;   KBLOCK =      1    inner block; outer block 
   IBRION =     -1    ionic relax: 0-MD 1-quasi-New 2-CG
   NFREE  =      0    steps in history (QN), initial steepest desc. (CG)
   ISIF   =      2    stress and relaxation
   IWAVPR =     10    prediction:  0-non 1-charg 2-wave 3-comb
   ISYM   =      2    0-nonsym 1-usesym 2-fastsym
   LCORR  =      T    Harris-Foulkes like correction to forces

   POTIM  = 1.0000    time-step for ionic-motion
   TEIN   =    0.0    initial temperature
   TEBEG  =    0.0;   TEEND  =   0.0 temperature during run
   SMASS  =  -3.00    Nose mass-parameter (am)
   estimated Nose-frequenzy (Omega)   =  0.10E-29 period in steps =****** mass=  -0.435E-26a.u.
   SCALEE = 1.0000    scale energy and forces
   NPACO  =    256;   APACO  = 16.0  distance and # of slots for P.C.
   PSTRESS=    0.0 pullay stress

  Mass of Ions in am
   POMASS =  44.96 35.45 12.01
  Ionic Valenz
   ZVAL   =  11.00  7.00  4.00
  Atomic Wigner-Seitz radii
   RWIGS  =  -1.00 -1.00 -1.00
  virtual crystal weights 
   VCA    =   1.00  1.00  1.00
   NELECT =     640.0000    total number of electrons
   NUPDOWN=      -1.0000    fix difference up-down

 DOS related values:
   EMIN   =  10.00;   EMAX   =-10.00  energy-range for DOS
   EFERMI =   0.00
   ISMEAR =     0;   SIGMA  =   0.05  broadening in eV -4-tet -1-fermi 0-gaus

 Electronic relaxation 2 (details)
   IALGO  =     38    algorithm
   LDIAG  =      T    sub-space diagonalisation (order eigenvalues)
   LSUBROT=      F    optimize rotation matrix (better conditioning)
   TURBO    =      0    0=normal 1=particle mesh
   IRESTART =      0    0=no restart 2=restart with 2 vectors
   NREBOOT  =      0    no. of reboots
   NMIN     =      0    reboot dimension
   EREF     =   0.00    reference energy to select bands
   IMIX   =      4    mixing-type and parameters
     AMIX     =   0.40;   BMIX     =  1.00
     AMIX_MAG =   1.60;   BMIX_MAG =  1.00
     AMIN     =   0.10
     WC   =   100.;   INIMIX=   1;  MIXPRE=   1;  MAXMIX= -45

 Intra band minimization:
   WEIMIN = 0.0000     energy-eigenvalue tresh-hold
   EBREAK =  0.65E-09  absolut break condition
   DEPER  =   0.30     relativ break condition  

   TIME   =   0.40     timestep for ELM

  volume/ion in A,a.u.               =      57.28       386.56
  Fermi-wavevector in a.u.,A,eV,Ry     =   0.849369  1.605075  9.815628  0.721428
  Thomas-Fermi vector in A             =   1.965179
 
 Write flags
   LWAVE        =      F    write WAVECAR
   LDOWNSAMPLE  =      F    k-point downsampling of WAVECAR
   LCHARG       =      F    write CHGCAR
   LVTOT        =      F    write LOCPOT, total local potential
   LVHAR        =      F    write LOCPOT, Hartree potential only
   LELF         =      F    write electronic localiz. function (ELF)
   LORBIT       =      0    0 simple, 1 ext, 2 COOP (PROOUT), +10 PAW based schemes


 Dipole corrections
   LMONO  =      F    monopole corrections only (constant potential shift)
   LDIPOL =      F    correct potential (dipole corrections)
   IDIPOL =      0    1-x, 2-y, 3-z, 4-all directions 
   EPSILON=  1.0000000 bulk dielectric constant

 Exchange correlation treatment:
   GGA     =    --    GGA type
   LEXCH   =     8    internal setting for exchange type
   VOSKOWN=      0    Vosko Wilk Nusair interpolation
   LHFCALC =     F    Hartree Fock is set to
   LHFONE  =     F    Hartree Fock one center treatment
   AEXX    =    0.0000 exact exchange contribution

 Linear response parameters
   LEPSILON=     F    determine dielectric tensor
   LRPA    =     F    only Hartree local field effects (RPA)
   LNABLA  =     F    use nabla operator in PAW spheres
   LVEL    =     F    velocity operator in full k-point grid
   LINTERFAST=   F  fast interpolation
   KINTER  =     0    interpolate to denser k-point grid
   CSHIFT  =0.1000    complex shift for real part using Kramers Kronig
   OMEGAMAX=  -1.0    maximum frequency
   DEG_THRESHOLD= 0.2000000E-02 threshold for treating states as degnerate
   RTIME   =   -0.100 relaxation time in fs
  (WPLASMAI=    0.000 imaginary part of plasma frequency in eV, 0.658/RTIME)
   DFIELD  = 0.0000000 0.0000000 0.0000000 field for delta impulse in time
 
 Orbital magnetization related:
   ORBITALMAG=     F  switch on orbital magnetization
   LCHIMAG   =     F  perturbation theory with respect to B field
   DQ        =  0.001000  dq finite difference perturbation B field
   LLRAUG    =     F  two centre corrections for induced B field



--------------------------------------------------------------------------------------------------------


 Static calculation
 charge density and potential will be updated during run
 non-spin polarized calculation
 Variant of blocked Davidson
 Davidson routine will perform the subspace rotation
 perform sub-space diagonalisation
    after iterative eigenvector-optimisation
 modified Broyden-mixing scheme, WC =      100.0
 initial mixing is a Kerker type mixing with AMIX =  0.4000 and BMIX =      1.0000
 Hartree-type preconditioning will be used
 using additional bands           64
 real space projection scheme for non local part
 use partial core corrections
 calculate Harris-corrections to forces 
   (improved forces if not selfconsistent)
 use gradient corrections 
 use of overlap-Matrix (Vanderbilt PP)
 Gauss-broadening in eV      SIGMA  =   0.05


--------------------------------------------------------------------------------------------------------


  energy-cutoff  :      600.00
  volume of cell :     4582.63
      direct lattice vectors                 reciprocal lattice vectors
    13.793986680  0.000000000  0.000000000     0.072495358  0.041855214  0.000000000
    -6.896993340 11.945942880  0.000000000     0.000000000  0.083710429  0.000000000
     0.000000000  0.000000000 27.810221070     0.000000000  0.000000000  0.035958003

  length of vectors
    13.793986680 13.793986676 27.810221070     0.083710429  0.083710429  0.035958003


 
 k-points in units of 2pi/SCALE and weight: read from INCAR                         
   0.00000000  0.00000000  0.00000000       0.111
   0.02416512  0.01395174  0.00000000       0.222
   0.00000000  0.02790348  0.00000000       0.222
   0.02416512  0.04185521  0.00000000       0.222
  -0.02416512  0.01395174  0.00000000       0.222
 
 k-points in reciprocal lattice and weights: read from INCAR                         
   0.00000000  0.00000000  0.00000000       0.111
   0.33333333 -0.00000000  0.00000000       0.222
   0.00000000  0.33333333  0.00000000       0.222
   0.33333333  0.33333333  0.00000000       0.222
  -0.33333333  0.33333333  0.00000000       0.222
 
 position of ions in fractional coordinates (direct lattice) 
   0.08621631  0.16921162  0.54572530
   0.08052999  0.41693237  0.54407482
   0.08582640  0.67851287  0.54467598
   0.08047911  0.91726780  0.54239271
   0.32543507  0.16871293  0.54615500
   0.33164808  0.42059422  0.54609506
   0.33713724  0.67049853  0.55130775
   0.33942827  0.92350343  0.54411089
   0.58037073  0.16672394  0.54247090
   0.58223993  0.42264660  0.54328245
   0.58839893  0.66548109  0.54543604
   0.58029886  0.91524178  0.54271249
   0.81817636  0.15732932  0.54359895
   0.82829019  0.41385359  0.54473433
   0.83364946  0.66772519  0.54332722
   0.82721413  0.91127773  0.54436793
   0.16957568  0.09095702  0.45628764
   0.16386198  0.33377971  0.45331201
   0.15956517  0.58013205  0.45916299
   0.17258474  0.84316234  0.45596209
   0.41974363  0.08589090  0.45622422
   0.41564180  0.33253828  0.45300178
   0.41573465  0.58036191  0.45653402
   0.41465495  0.82047767  0.45709038
   0.66246282  0.07746265  0.45350161
   0.66136765  0.32756379  0.45189595
   0.66292939  0.57279791  0.45268551
   0.66310210  0.82388977  0.45536988
   0.92103298  0.08916816  0.45364534
   0.91620863  0.33170104  0.45766467
   0.91655165  0.57992511  0.45936872
   0.91890639  0.83663608  0.45549218
   0.08741937  0.15915562  0.39504338
   0.07748761  0.41333885  0.39682386
   0.08712892  0.67325677  0.40098034
   0.08991014  0.92440665  0.39961970
   0.34089962  0.16930122  0.39434387
   0.33818882  0.41768879  0.39775587
   0.31562113  0.65138229  0.39795367
   0.34887473  0.92453214  0.39192752
   0.59814195  0.17154439  0.39131117
   0.57113053  0.41010701  0.39259836
   0.58325098  0.66427418  0.39128837
   0.58514720  0.90125864  0.39280539
   0.83483181  0.16002130  0.39195376
   0.84303949  0.42495292  0.39756122
   0.82742940  0.67091957  0.39794231
   0.83182092  0.91416973  0.39170109
   0.15729525  0.07964192  0.60553561
   0.17087326  0.33745090  0.60815378
   0.16228335  0.58870965  0.60701550
   0.17123952  0.83143684  0.60558930
   0.41843033  0.07884784  0.60216684
   0.41950521  0.33556249  0.60761019
   0.42761245  0.59147968  0.60538810
   0.42722183  0.83176114  0.60880491
   0.65866615  0.08610679  0.60672387
   0.66104799  0.33367306  0.59901848
   0.68264640  0.60158416  0.60525520
   0.67844027  0.83896431  0.60543107
   0.91005677  0.07978705  0.60270937
   0.91296751  0.32525272  0.60506311
   0.90607792  0.57946440  0.59913357
   0.92761707  0.83953632  0.60433663
   0.00825774  0.99927937  0.49576284
   0.00005562  0.24573525  0.49663435
   0.00104695  0.50111890  0.50322480
   0.00024515  0.74974921  0.50355975
   0.24991149  0.00486950  0.50233129
   0.24726987  0.25306123  0.50054701
   0.24879573  0.49400216  0.50199847
   0.25475713  0.75232213  0.50070364
   0.50368466  0.00706992  0.49399080
   0.48768989  0.25294952  0.49884608
   0.51124931  0.50928577  0.49965526
   0.49919351  0.74785132  0.50239235
   0.74561862  0.99268548  0.49912600
   0.74376391  0.24582580  0.49659547
   0.74049170  0.49240210  0.50276596
   0.75606816  0.75365134  0.49696902
 
 position of ions in cartesian coordinates  (Angst):
   0.02221515  2.02139236 15.17674133
  -1.76475011  4.98065028 15.13084099
  -3.49581044  8.10547595 15.14755937
  -5.21626214 10.95762870 15.08406129
   3.32543511  2.01543504 15.18869138
   1.67391365  5.02439456 15.18702431
   0.02604271  8.00973712 15.33199038
  -1.68732801 11.03211924 15.13184426
   6.85573227  1.99167466 15.08623552
   5.11641906  5.04891214 15.10880491
   3.52654831  7.94979909 15.16869679
   1.69221826 10.93342598 15.09295423
  10.20081458  1.87944708 15.11760707
   8.57107833  4.94387138 15.14918209
   6.89405338  7.97660699 15.11005021
   5.12550434 10.88607167 15.13899256
   1.71179473  1.08656739 12.68946017
  -0.04176647  3.98731333 12.60670711
  -1.80012708  6.93022437 12.76942430
  -3.43465342 10.07236910 12.68040661
   5.19754900  1.02604782 12.68769647
   3.43984317  3.97248335 12.59807971
   1.73188607  6.93297020 12.69631208
   0.06091589  9.80137936 12.71178441
   8.60374395  0.92536442 12.61197991
   6.86369132  3.91305828 12.56732625
   5.19385587  6.84261109 12.58928403
   3.46445927  9.84214018 12.66393699
  12.08972443  1.06519771 12.61597712
  10.35042983  3.96248169 12.72775562
   8.64316162  6.92775228 12.77514576
   6.90510907  9.99440677 12.66733818
   0.10816643  1.90126395 10.98624385
  -1.78193229  4.93772235 11.03575938
  -3.44159232  8.04268688 11.15135193
  -5.13540720 11.04290905 11.11351229
   3.53469541  2.02246275 10.96679024
   1.78417525  4.98968644 11.06167865
  -0.13890561  7.78137562 11.06717951
  -1.56411871 11.04440815 10.89959097
   7.06762150  2.04925954 10.88245016
   5.04966158  4.89911495 10.91824726
   3.46386161  7.93538142 10.88181601
   1.85553782 10.76638429 10.92400479
  10.41199311  1.91160528 10.90032075
   8.69797803  5.07646335 11.05626529
   6.78622232  8.01476691 11.06686351
   5.16910414 10.92061942 10.89329378
   1.62043877  0.95139783 16.84007905
   0.02962680  4.03116921 16.91289097
  -1.82179225  7.03269188 16.88123527
  -3.37233867  9.93229698 16.84157218
   5.22800942  0.94191182 16.74639293
   3.47227699  4.00861038 16.89777360
   1.81904896  7.06578249 16.83597685
   0.15644117  9.93617112 16.93099908
   8.49175408  1.02862685 16.87312490
   6.81714638  3.98603928 16.65883622
   5.26729342  7.18649002 16.83228094
   3.57206486 10.02221971 16.83717185
  12.00302022  0.95313157 16.76148090
  10.35019585  3.88545037 16.82693882
   8.50186472  6.92224858 16.66203692
   7.00526105 10.02905293 16.80673518
  -6.77811595 11.93733422 13.78727426
  -1.69406712  2.93553922 13.81151105
  -3.44177207  5.98633779 13.99479300
  -5.16763364  8.95646121 14.00410803
   3.41369091  0.05817077 13.96994433
   1.66547559  3.02305505 13.92032314
   0.02475546  5.90132153 13.96068849
  -1.67464431  8.98719721 13.92467894
   6.89905832  0.08445686 13.73799331
   4.98259673  3.02172049 13.87301966
   3.53962567  6.08389866 13.89552317
   1.72794306  8.93378921 13.97164244
   3.43850813 11.85856401 13.88080447
   8.56401050  2.93662096 13.81042984
   6.81823861  5.88220735 13.98203252
   5.23126582  9.00307586 13.82081835
 


--------------------------------------------------------------------------------------------------------


 k-point  1 :   0.0000 0.0000 0.0000  plane waves:  153003
 k-point  2 :   0.3333-0.0000 0.0000  plane waves:  152954
 k-point  3 :   0.0000 0.3333 0.0000  plane waves:  152954
 k-point  4 :   0.3333 0.3333 0.0000  plane waves:  152898
 k-point  5 :  -0.3333 0.3333 0.0000  plane waves:  152954

 maximum and minimum number of plane-waves per node :     11814    11730

 maximum number of plane-waves:    153003
 maximum index in each direction: 
   IXMAX=   27   IYMAX=   27   IZMAX=   55
   IXMIN=  -27   IYMIN=  -27   IZMIN=  -55


 real space projection operators:
  total allocation   :      55008.19 KBytes
  max/ min on nodes  :       4458.28       3874.59


 parallel 3D FFT for wavefunctions:
    minimum data exchange during FFTs selected (reduces bandwidth)
 parallel 3D FFT for charge:
    minimum data exchange during FFTs selected (reduces bandwidth)


 total amount of memory used by VASP MPI-rank0   253920. kBytes
=======================================================================

   base      :      30000. kBytes
   nonlr-proj:      18736. kBytes
   fftplans  :      72602. kBytes
   grid      :      41267. kBytes
   one-center:        108. kBytes
   wavefun   :      91207. kBytes
 
     INWAV:  cpu time    0.0000: real time    0.0000
 Broyden mixing: mesh for mixing (old mesh)
   NGX = 55   NGY = 55   NGZ =111
  (NGX  =224   NGY  =224   NGZ  =448)
  gives a total of 335775 points

 initial charge density was supplied:
 charge density of overlapping atoms calculated
 number of electron     640.0000000 magnetization 
 keeping initial charge density in first step


--------------------------------------------------------------------------------------------------------


 Maximum index for non-local projection operator          947
 Maximum index for augmentation-charges         4800 (set IRDMAX)


--------------------------------------------------------------------------------------------------------


 First call to EWALD:  gamma=   0.107
 Maximum number of real-space cells 4x 4x 2
 Maximum number of reciprocal cells 2x 2x 4

    FEWALD:  cpu time    0.0067: real time    0.0067


--------------------------------------- Iteration      1(   1)  ---------------------------------------


    POTLOK:  cpu time    1.3285: real time    1.3455
    SETDIJ:  cpu time    1.4154: real time    1.4154
     EDDAV:  cpu time  148.5074: real time  148.5098
       DOS:  cpu time    0.0021: real time    0.0021
    --------------------------------------------
      LOOP:  cpu time  151.2534: real time  151.2729

 eigenvalue-minimisations  :  4424
 total energy-change (2. order) : 0.1218748E+05  (-0.2680888E+05)
 number of electron     640.0000000 magnetization 
 augmentation part      640.0000000 magnetization 

 Free energy of the ion-electron system (eV)
  ---------------------------------------------------
  alpha Z        PSCENC =       784.57699423
  Ewald energy   TEWEN  =    252934.99781968
  -Hartree energ DENC   =   -300590.42064522
  -exchange      EXHF   =         0.00000000
  -V(xc)+E(xc)   XCENC  =      2503.09289806
  PAW double counting   =     43679.68029659   -43417.33247688
  entropy T*S    EENTRO =        -0.06196838
  eigenvalues    EBANDS =        82.22486398
  atomic energy  EATOM  =     56210.72393729
  Solvation  Ediel_sol  =         0.00000000
  ---------------------------------------------------
  free energy    TOTEN  =     12187.48171934 eV

  energy without entropy =    12187.54368772  energy(sigma->0) =    12187.51270353


--------------------------------------------------------------------------------------------------------




--------------------------------------- Iteration      1(   2)  ---------------------------------------


     EDDAV:  cpu time  165.9050: real time  165.9217
       DOS:  cpu time    0.0020: real time    0.0019
    --------------------------------------------
      LOOP:  cpu time  165.9070: real time  165.9236

 eigenvalue-minimisations  :  5264
 total energy-change (2. order) :-0.1048585E+05  (-0.1022642E+05)
 number of electron     640.0000000 magnetization 
 augmentation part      640.0000000 magnetization 

 Free energy of the ion-electron system (eV)
  ---------------------------------------------------
  alpha Z        PSCENC =       784.57699423
  Ewald energy   TEWEN  =    252934.99781968
  -Hartree energ DENC   =   -300590.42064522
  -exchange      EXHF   =         0.00000000
  -V(xc)+E(xc)   XCENC  =      2503.09289806
  PAW double counting   =     43679.68029659   -43417.33247688
  entropy T*S    EENTRO =        -0.04703308
  eigenvalues    EBANDS =    -10403.63545337
  atomic energy  EATOM  =     56210.72393729
  Solvation  Ediel_sol  =         0.00000000
  ---------------------------------------------------
  free energy    TOTEN  =      1701.63633729 eV

  energy without entropy =     1701.68337037  energy(sigma->0) =     1701.65985383


--------------------------------------------------------------------------------------------------------




--------------------------------------- Iteration      1(   3)  ---------------------------------------


     EDDAV:  cpu time  205.1861: real time  205.1985
       DOS:  cpu time    0.0012: real time    0.0012
    --------------------------------------------
      LOOP:  cpu time  205.1873: real time  205.1997

 eigenvalue-minimisations  :  6800
 total energy-change (2. order) :-0.2118379E+04  (-0.2033473E+04)
 number of electron     640.0000000 magnetization 
 augmentation part      640.0000000 magnetization 

 Free energy of the ion-electron system (eV)
  ---------------------------------------------------
  alpha Z        PSCENC =       784.57699423
  Ewald energy   TEWEN  =    252934.99781968
  -Hartree energ DENC   =   -300590.42064522
  -exchange      EXHF   =         0.00000000
  -V(xc)+E(xc)   XCENC  =      2503.09289806
  PAW double counting   =     43679.68029659   -43417.33247688
  entropy T*S    EENTRO =        -0.00000000
  eigenvalues    EBANDS =    -12522.06156439
  atomic energy  EATOM  =     56210.72393729
  Solvation  Ediel_sol  =         0.00000000
  ---------------------------------------------------
  free energy    TOTEN  =      -416.74274065 eV

  energy without entropy =     -416.74274065  energy(sigma->0) =     -416.74274065


--------------------------------------------------------------------------------------------------------




--------------------------------------- Iteration      1(   4)  ---------------------------------------


     EDDAV:  cpu time  186.9761: real time  186.9876
       DOS:  cpu time    0.0013: real time    0.0013
    --------------------------------------------
      LOOP:  cpu time  186.9775: real time  186.9889

 eigenvalue-minimisations  :  6088
 total energy-change (2. order) :-0.2289824E+03  (-0.2246797E+03)
 number of electron     640.0000000 magnetization 
 augmentation part      640.0000000 magnetization 

 Free energy of the ion-electron system (eV)
  ---------------------------------------------------
  alpha Z        PSCENC =       784.57699423
  Ewald energy   TEWEN  =    252934.99781968
  -Hartree energ DENC   =   -300590.42064522
  -exchange      EXHF   =         0.00000000
  -V(xc)+E(xc)   XCENC  =      2503.09289806
  PAW double counting   =     43679.68029659   -43417.33247688
  entropy T*S    EENTRO =        -0.00000000
  eigenvalues    EBANDS =    -12751.04401212
  atomic energy  EATOM  =     56210.72393729
  Solvation  Ediel_sol  =         0.00000000
  ---------------------------------------------------
  free energy    TOTEN  =      -645.72518838 eV

  energy without entropy =     -645.72518838  energy(sigma->0) =     -645.72518838


--------------------------------------------------------------------------------------------------------




--------------------------------------- Iteration      1(   5)  ---------------------------------------


     EDDAV:  cpu time  186.7100: real time  186.7210
       DOS:  cpu time    0.0012: real time    0.0011
    CHARGE:  cpu time   10.8524: real time   10.8525
    MIXING:  cpu time    0.2650: real time    0.2651
    --------------------------------------------
      LOOP:  cpu time  197.8286: real time  197.8398

 eigenvalue-minimisations  :  6080
 total energy-change (2. order) :-0.9974491E+01  (-0.9924370E+01)
 number of electron     640.0000003 magnetization 
 augmentation part       59.2019068 magnetization 

 Broyden mixing:
  rms(total) = 0.69141E+01    rms(broyden)= 0.69139E+01
  rms(prec ) = 0.72783E+01
  weight for this iteration     100.00

 Free energy of the ion-electron system (eV)
  ---------------------------------------------------
  alpha Z        PSCENC =       784.57699423
  Ewald energy   TEWEN  =    252934.99781968
  -Hartree energ DENC   =   -300590.42064522
  -exchange      EXHF   =         0.00000000
  -V(xc)+E(xc)   XCENC  =      2503.09289806
  PAW double counting   =     43679.68029659   -43417.33247688
  entropy T*S    EENTRO =        -0.00000000
  eigenvalues    EBANDS =    -12761.01850286
  atomic energy  EATOM  =     56210.72393729
  Solvation  Ediel_sol  =         0.00000000
  ---------------------------------------------------
  free energy    TOTEN  =      -655.69967912 eV

  energy without entropy =     -655.69967912  energy(sigma->0) =     -655.69967912


--------------------------------------------------------------------------------------------------------




--------------------------------------- Iteration      1(   6)  ---------------------------------------


    POTLOK:  cpu time    1.3595: real time    1.3722
    SETDIJ:  cpu time    1.3750: real time    1.3750
     EDDAV:  cpu time  188.9468: real time  188.9506
       DOS:  cpu time    0.0012: real time    0.0012
    CHARGE:  cpu time   10.5476: real time   10.5487
    MIXING:  cpu time    0.2673: real time    0.2673
    --------------------------------------------
      LOOP:  cpu time  202.4974: real time  202.5151

 eigenvalue-minimisations  :  5832
 total energy-change (2. order) : 0.1304260E+03  (-0.6961822E+02)
 number of electron     640.0000004 magnetization 
 augmentation part       70.0429284 magnetization 

 Broyden mixing:
  rms(total) = 0.30067E+01    rms(broyden)= 0.30066E+01
  rms(prec ) = 0.30390E+01
  weight for this iteration     100.00

 eigenvalues of (default mixing * dielectric matrix)
  average eigenvalue GAMMA=   0.9519
  0.9519

 Free energy of the ion-electron system (eV)
  ---------------------------------------------------
  alpha Z        PSCENC =       784.57699423
  Ewald energy   TEWEN  =    252934.99781968
  -Hartree energ DENC   =   -300399.43868043
  -exchange      EXHF   =         0.00000000
  -V(xc)+E(xc)   XCENC  =      2492.55463456
  PAW double counting   =     49165.44806316   -48957.65211366
  entropy T*S    EENTRO =        -0.00000000
  eigenvalues    EBANDS =    -12756.48437879
  atomic energy  EATOM  =     56210.72393729
  Solvation  Ediel_sol  =         0.00000000
  ---------------------------------------------------
  free energy    TOTEN  =      -525.27372396 eV

  energy without entropy =     -525.27372396  energy(sigma->0) =     -525.27372396


--------------------------------------------------------------------------------------------------------




--------------------------------------- Iteration      1(   7)  ---------------------------------------


    POTLOK:  cpu time    1.3593: real time    1.3674
    SETDIJ:  cpu time    1.3786: real time    1.3786
     EDDAV:  cpu time  190.0509: real time  190.0602
       DOS:  cpu time    0.0014: real time    0.0014
    CHARGE:  cpu time   10.5201: real time   10.5202
    MIXING:  cpu time    0.2654: real time    0.2654
    --------------------------------------------
      LOOP:  cpu time  203.5758: real time  203.5932

 eigenvalue-minimisations  :  5880
 total energy-change (2. order) :-0.4852879E+01  (-0.8647489E+01)
 number of electron     640.0000004 magnetization 
 augmentation part       69.5235816 magnetization 

 Broyden mixing:
  rms(total) = 0.15183E+01    rms(broyden)= 0.15183E+01
  rms(prec ) = 0.15542E+01
  weight for this iteration     100.00

 eigenvalues of (default mixing * dielectric matrix)
  average eigenvalue GAMMA=   1.0037
  1.0037  1.0037

 Free energy of the ion-electron system (eV)
  ---------------------------------------------------
  alpha Z        PSCENC =       784.57699423
  Ewald energy   TEWEN  =    252934.99781968
  -Hartree energ DENC   =   -300498.71245559
  -exchange      EXHF   =         0.00000000
  -V(xc)+E(xc)   XCENC  =      2488.54247461
  PAW double counting   =     54137.81301589   -53944.35611795
  entropy T*S    EENTRO =        -0.00000000
  eigenvalues    EBANDS =    -12643.71227088
  atomic energy  EATOM  =     56210.72393729
  Solvation  Ediel_sol  =         0.00000000
  ---------------------------------------------------
  free energy    TOTEN  =      -530.12660273 eV

  energy without entropy =     -530.12660273  energy(sigma->0) =     -530.12660273


--------------------------------------------------------------------------------------------------------




--------------------------------------- Iteration      1(   8)  ---------------------------------------


    POTLOK:  cpu time    1.3624: real time    1.3715
    SETDIJ:  cpu time    1.3705: real time    1.3705
     EDDAV:  cpu time  189.9448: real time  189.9510
       DOS:  cpu time    0.0011: real time    0.0011
    CHARGE:  cpu time   10.5579: real time   10.5580
    MIXING:  cpu time    0.2716: real time    0.2716
    --------------------------------------------
      LOOP:  cpu time  203.5083: real time  203.5237

 eigenvalue-minimisations  :  5872
 total energy-change (2. order) : 0.2245070E+01  (-0.9583850E+00)
 number of electron     640.0000004 magnetization 
 augmentation part       69.2476519 magnetization 

 Broyden mixing:
  rms(total) = 0.92310E+00    rms(broyden)= 0.92310E+00
  rms(prec ) = 0.93910E+00
  weight for this iteration     100.00

 eigenvalues of (default mixing * dielectric matrix)
  average eigenvalue GAMMA=   1.4383
  2.5755  0.8697  0.8697

 Free energy of the ion-electron system (eV)
  ---------------------------------------------------
  alpha Z        PSCENC =       784.57699423
  Ewald energy   TEWEN  =    252934.99781968
  -Hartree energ DENC   =   -300570.00270478
  -exchange      EXHF   =         0.00000000
  -V(xc)+E(xc)   XCENC  =      2488.56217304
  PAW double counting   =     56067.46287797   -55884.69502546
  entropy T*S    EENTRO =        -0.00000000
  eigenvalues    EBANDS =    -12559.50760495
  atomic energy  EATOM  =     56210.72393729
  Solvation  Ediel_sol  =         0.00000000
  ---------------------------------------------------
  free energy    TOTEN  =      -527.88153298 eV

  energy without entropy =     -527.88153298  energy(sigma->0) =     -527.88153298


--------------------------------------------------------------------------------------------------------




--------------------------------------- Iteration      1(   9)  ---------------------------------------


    POTLOK:  cpu time    1.3591: real time    1.3674
    SETDIJ:  cpu time    1.3752: real time    1.3752
     EDDAV:  cpu time  175.5397: real time  175.5421
       DOS:  cpu time    0.0010: real time    0.0010
    CHARGE:  cpu time   10.5563: real time   10.5568
    MIXING:  cpu time    0.2628: real time    0.2628
    --------------------------------------------
      LOOP:  cpu time  189.0943: real time  189.1054

 eigenvalue-minimisations  :  5336
 total energy-change (2. order) : 0.5373831E+00  (-0.3632759E+00)
 number of electron     640.0000004 magnetization 
 augmentation part       69.9879208 magnetization 

 Broyden mixing:
  rms(total) = 0.30518E+00    rms(broyden)= 0.30517E+00
  rms(prec ) = 0.31743E+00
  weight for this iteration     100.00

 eigenvalues of (default mixing * dielectric matrix)
  average eigenvalue GAMMA=   1.2264
  2.1146  0.8686  0.8686  1.0541

 Free energy of the ion-electron system (eV)
  ---------------------------------------------------
  alpha Z        PSCENC =       784.57699423
  Ewald energy   TEWEN  =    252934.99781968
  -Hartree energ DENC   =   -300700.89486192
  -exchange      EXHF   =         0.00000000
  -V(xc)+E(xc)   XCENC  =      2487.98540498
  PAW double counting   =     59874.68050026   -59709.27925728
  entropy T*S    EENTRO =        -0.00000000
  eigenvalues    EBANDS =    -12410.13468705
  atomic energy  EATOM  =     56210.72393729
  Solvation  Ediel_sol  =         0.00000000
  ---------------------------------------------------
  free energy    TOTEN  =      -527.34414983 eV

  energy without entropy =     -527.34414983  energy(sigma->0) =     -527.34414983


--------------------------------------------------------------------------------------------------------




--------------------------------------- Iteration      1(  10)  ---------------------------------------


    POTLOK:  cpu time    1.3538: real time    1.3672
    SETDIJ:  cpu time    1.3736: real time    1.3736
     EDDAV:  cpu time  185.1643: real time  185.1715
       DOS:  cpu time    0.0015: real time    0.0015
    CHARGE:  cpu time   10.5453: real time   10.5454
    MIXING:  cpu time    0.2680: real time    0.2680
    --------------------------------------------
      LOOP:  cpu time  198.7065: real time  198.7272

 eigenvalue-minimisations  :  5696
 total energy-change (2. order) : 0.1227378E+00  (-0.5939535E-01)
 number of electron     640.0000004 magnetization 
 augmentation part       69.7780241 magnetization 

 Broyden mixing:
  rms(total) = 0.17044E+00    rms(broyden)= 0.17044E+00
  rms(prec ) = 0.17696E+00
  weight for this iteration     100.00

 eigenvalues of (default mixing * dielectric matrix)
  average eigenvalue GAMMA=   1.2482
  1.8944  1.8944  0.8982  0.8982  0.6557

 Free energy of the ion-electron system (eV)
  ---------------------------------------------------
  alpha Z        PSCENC =       784.57699423
  Ewald energy   TEWEN  =    252934.99781968
  -Hartree energ DENC   =   -300727.12399501
  -exchange      EXHF   =         0.00000000
  -V(xc)+E(xc)   XCENC  =      2488.65029643
  PAW double counting   =     59239.84992225   -59071.65259977
  entropy T*S    EENTRO =        -0.00000000
  eigenvalues    EBANDS =    -12387.24378714
  atomic energy  EATOM  =     56210.72393729
  Solvation  Ediel_sol  =         0.00000000
  ---------------------------------------------------
  free energy    TOTEN  =      -527.22141204 eV

  energy without entropy =     -527.22141204  energy(sigma->0) =     -527.22141204


--------------------------------------------------------------------------------------------------------




--------------------------------------- Iteration      1(  11)  ---------------------------------------


    POTLOK:  cpu time    1.3486: real time    1.3709
    SETDIJ:  cpu time    1.3620: real time    1.3620
     EDDAV:  cpu time  187.7425: real time  187.7462
       DOS:  cpu time    0.0012: real time    0.0012
    CHARGE:  cpu time   10.5506: real time   10.5506
    MIXING:  cpu time    0.2750: real time    0.2750
    --------------------------------------------
      LOOP:  cpu time  201.2799: real time  201.3060

 eigenvalue-minimisations  :  5800
 total energy-change (2. order) : 0.2142141E-01  (-0.1760083E-01)
 number of electron     640.0000004 magnetization 
 augmentation part       69.7013633 magnetization 

 Broyden mixing:
  rms(total) = 0.75272E-01    rms(broyden)= 0.75271E-01
  rms(prec ) = 0.81180E-01
  weight for this iteration     100.00

 eigenvalues of (default mixing * dielectric matrix)
  average eigenvalue GAMMA=   1.2783
  2.5239  1.6583  0.8904  0.8904  0.9553  0.7516

 Free energy of the ion-electron system (eV)
  ---------------------------------------------------
  alpha Z        PSCENC =       784.57699423
  Ewald energy   TEWEN  =    252934.99781968
  -Hartree energ DENC   =   -300780.77308981
  -exchange      EXHF   =         0.00000000
  -V(xc)+E(xc)   XCENC  =      2489.28991433
  PAW double counting   =     59366.56777981   -59198.58182428
  entropy T*S    EENTRO =        -0.00000000
  eigenvalues    EBANDS =    -12334.00152188
  atomic energy  EATOM  =     56210.72393729
  Solvation  Ediel_sol  =         0.00000000
  ---------------------------------------------------
  free energy    TOTEN  =      -527.19999062 eV

  energy without entropy =     -527.19999062  energy(sigma->0) =     -527.19999062


--------------------------------------------------------------------------------------------------------




--------------------------------------- Iteration      1(  12)  ---------------------------------------


    POTLOK:  cpu time    1.3599: real time    1.3679
    SETDIJ:  cpu time    1.3621: real time    1.3622
     EDDAV:  cpu time  195.8198: real time  195.8261
       DOS:  cpu time    0.0011: real time    0.0011
    CHARGE:  cpu time   10.7367: real time   10.7368
    MIXING:  cpu time    0.2684: real time    0.2684
    --------------------------------------------
      LOOP:  cpu time  209.5480: real time  209.5624

 eigenvalue-minimisations  :  6104
 total energy-change (2. order) : 0.1377330E-01  (-0.3061472E-02)
 number of electron     640.0000004 magnetization 
 augmentation part       69.7235153 magnetization 

 Broyden mixing:
  rms(total) = 0.28425E-01    rms(broyden)= 0.28425E-01
  rms(prec ) = 0.35515E-01
  weight for this iteration     100.00

 eigenvalues of (default mixing * dielectric matrix)
  average eigenvalue GAMMA=   1.2919
  2.2661  2.2661  0.9468  0.9468  0.9498  0.9498  0.7178

 Free energy of the ion-electron system (eV)
  ---------------------------------------------------
  alpha Z        PSCENC =       784.57699423
  Ewald energy   TEWEN  =    252934.99781968
  -Hartree energ DENC   =   -300812.30182227
  -exchange      EXHF   =         0.00000000
  -V(xc)+E(xc)   XCENC  =      2489.60556484
  PAW double counting   =     59506.18404678   -59338.65911996
  entropy T*S    EENTRO =        -0.00000000
  eigenvalues    EBANDS =    -12302.31363792
  atomic energy  EATOM  =     56210.72393729
  Solvation  Ediel_sol  =         0.00000000
  ---------------------------------------------------
  free energy    TOTEN  =      -527.18621733 eV

  energy without entropy =     -527.18621733  energy(sigma->0) =     -527.18621733


--------------------------------------------------------------------------------------------------------




--------------------------------------- Iteration      1(  13)  ---------------------------------------


    POTLOK:  cpu time    1.3532: real time    1.3651
    SETDIJ:  cpu time    1.3620: real time    1.3648
     EDDAV:  cpu time  173.5937: real time  173.5981
       DOS:  cpu time    0.0013: real time    0.0013
    CHARGE:  cpu time   10.9227: real time   10.9227
    MIXING:  cpu time    0.2674: real time    0.2674
    --------------------------------------------
      LOOP:  cpu time  187.5002: real time  187.5195

 eigenvalue-minimisations  :  5272
 total energy-change (2. order) : 0.2750718E-02  (-0.7862497E-03)
 number of electron     640.0000004 magnetization 
 augmentation part       69.7292395 magnetization 

 Broyden mixing:
  rms(total) = 0.16893E-01    rms(broyden)= 0.16892E-01
  rms(prec ) = 0.23671E-01
  weight for this iteration     100.00

 eigenvalues of (default mixing * dielectric matrix)
  average eigenvalue GAMMA=   1.3323
  2.7553  2.0997  1.5021  0.9058  0.9058  0.9040  0.9040  0.6819

 Free energy of the ion-electron system (eV)
  ---------------------------------------------------
  alpha Z        PSCENC =       784.57699423
  Ewald energy   TEWEN  =    252934.99781968
  -Hartree energ DENC   =   -300835.09771912
  -exchange      EXHF   =         0.00000000
  -V(xc)+E(xc)   XCENC  =      2489.80565051
  PAW double counting   =     59455.88274446   -59288.14312697
  entropy T*S    EENTRO =        -0.00000000
  eigenvalues    EBANDS =    -12279.92976668
  atomic energy  EATOM  =     56210.72393729
  Solvation  Ediel_sol  =         0.00000000
  ---------------------------------------------------
  free energy    TOTEN  =      -527.18346661 eV

  energy without entropy =     -527.18346661  energy(sigma->0) =     -527.18346661


--------------------------------------------------------------------------------------------------------




--------------------------------------- Iteration      1(  14)  ---------------------------------------


    POTLOK:  cpu time    1.3595: real time    1.3679
    SETDIJ:  cpu time    1.3621: real time    1.3621
     EDDAV:  cpu time  174.9333: real time  174.9370
       DOS:  cpu time    0.0013: real time    0.0012
    CHARGE:  cpu time   10.6389: real time   10.6389
    MIXING:  cpu time    0.2709: real time    0.2709
    --------------------------------------------
      LOOP:  cpu time  188.5660: real time  188.5781

 eigenvalue-minimisations  :  5320
 total energy-change (2. order) : 0.1437913E-02  (-0.5869278E-03)
 number of electron     640.0000004 magnetization 
 augmentation part       69.7369486 magnetization 

 Broyden mixing:
  rms(total) = 0.16456E-01    rms(broyden)= 0.16456E-01
  rms(prec ) = 0.19960E-01
  weight for this iteration     100.00

 eigenvalues of (default mixing * dielectric matrix)
  average eigenvalue GAMMA=   1.3433
  2.6325  2.6325  1.6977  0.9411  0.9411  0.9254  0.9254  0.6969  0.6969

 Free energy of the ion-electron system (eV)
  ---------------------------------------------------
  alpha Z        PSCENC =       784.57699423
  Ewald energy   TEWEN  =    252934.99781968
  -Hartree energ DENC   =   -300861.16230450
  -exchange      EXHF   =         0.00000000
  -V(xc)+E(xc)   XCENC  =      2489.96638396
  PAW double counting   =     59460.51768743   -59292.80655350
  entropy T*S    EENTRO =        -0.00000000
  eigenvalues    EBANDS =    -12253.99599329
  atomic energy  EATOM  =     56210.72393729
  Solvation  Ediel_sol  =         0.00000000
  ---------------------------------------------------
  free energy    TOTEN  =      -527.18202870 eV

  energy without entropy =     -527.18202870  energy(sigma->0) =     -527.18202870


--------------------------------------------------------------------------------------------------------




--------------------------------------- Iteration      1(  15)  ---------------------------------------


    POTLOK:  cpu time    1.3590: real time    1.3675
    SETDIJ:  cpu time    1.3609: real time    1.3609
     EDDAV:  cpu time  177.7136: real time  177.7172
       DOS:  cpu time    0.0012: real time    0.0012
    CHARGE:  cpu time   10.5535: real time   10.5536
    MIXING:  cpu time    0.2726: real time    0.2726
    --------------------------------------------
      LOOP:  cpu time  191.2608: real time  191.2730

 eigenvalue-minimisations  :  5424
 total energy-change (2. order) :-0.1675584E-02  (-0.1902999E-03)
 number of electron     640.0000004 magnetization 
 augmentation part       69.7382187 magnetization 

 Broyden mixing:
  rms(total) = 0.10343E-01    rms(broyden)= 0.10343E-01
  rms(prec ) = 0.13097E-01
  weight for this iteration     100.00

 eigenvalues of (default mixing * dielectric matrix)
  average eigenvalue GAMMA=   1.3617
  2.8428  2.8428  1.4144  1.4144  0.9330  0.9330  0.8813  0.8813  0.8244  0.6499

 Free energy of the ion-electron system (eV)
  ---------------------------------------------------
  alpha Z        PSCENC =       784.57699423
  Ewald energy   TEWEN  =    252934.99781968
  -Hartree energ DENC   =   -300877.97764439
  -exchange      EXHF   =         0.00000000
  -V(xc)+E(xc)   XCENC  =      2490.04132718
  PAW double counting   =     59429.90296970   -59262.09483633
  entropy T*S    EENTRO =        -0.00000000
  eigenvalues    EBANDS =    -12237.35427163
  atomic energy  EATOM  =     56210.72393729
  Solvation  Ediel_sol  =         0.00000000
  ---------------------------------------------------
  free energy    TOTEN  =      -527.18370428 eV

  energy without entropy =     -527.18370428  energy(sigma->0) =     -527.18370428


--------------------------------------------------------------------------------------------------------




--------------------------------------- Iteration      1(  16)  ---------------------------------------


    POTLOK:  cpu time    1.3587: real time    1.3673
    SETDIJ:  cpu time    1.3574: real time    1.3576
     EDDAV:  cpu time  188.6987: real time  188.7025
       DOS:  cpu time    0.0009: real time    0.0009
    CHARGE:  cpu time   10.4535: real time   10.4537
    MIXING:  cpu time    0.2698: real time    0.2698
    --------------------------------------------
      LOOP:  cpu time  202.1391: real time  202.1518

 eigenvalue-minimisations  :  5944
 total energy-change (2. order) :-0.2319225E-02  (-0.1032349E-03)
 number of electron     640.0000004 magnetization 
 augmentation part       69.7372058 magnetization 

 Broyden mixing:
  rms(total) = 0.56863E-02    rms(broyden)= 0.56862E-02
  rms(prec ) = 0.78883E-02
  weight for this iteration     100.00

 eigenvalues of (default mixing * dielectric matrix)
  average eigenvalue GAMMA=   1.4280
  3.6271  2.4027  2.2648  1.2911  1.0311  0.9722  0.9722  0.8817  0.8817  0.7161
  0.6668

 Free energy of the ion-electron system (eV)
  ---------------------------------------------------
  alpha Z        PSCENC =       784.57699423
  Ewald energy   TEWEN  =    252934.99781968
  -Hartree energ DENC   =   -300890.54631361
  -exchange      EXHF   =         0.00000000
  -V(xc)+E(xc)   XCENC  =      2490.09653589
  PAW double counting   =     59415.83818672   -59248.01271638
  entropy T*S    EENTRO =        -0.00000000
  eigenvalues    EBANDS =    -12224.86046733
  atomic energy  EATOM  =     56210.72393729
  Solvation  Ediel_sol  =         0.00000000
  ---------------------------------------------------
  free energy    TOTEN  =      -527.18602351 eV

  energy without entropy =     -527.18602351  energy(sigma->0) =     -527.18602351


--------------------------------------------------------------------------------------------------------




--------------------------------------- Iteration      1(  17)  ---------------------------------------


    POTLOK:  cpu time    1.3570: real time    1.3680
    SETDIJ:  cpu time    1.3559: real time    1.3559
     EDDAV:  cpu time  164.9149: real time  164.9164
       DOS:  cpu time    0.0010: real time    0.0010
    CHARGE:  cpu time   10.6760: real time   10.6761
    MIXING:  cpu time    0.2760: real time    0.2760
    --------------------------------------------
      LOOP:  cpu time  178.5808: real time  178.5933

 eigenvalue-minimisations  :  5040
 total energy-change (2. order) :-0.3636339E-02  (-0.7775268E-04)
 number of electron     640.0000004 magnetization 
 augmentation part       69.7373674 magnetization 

 Broyden mixing:
  rms(total) = 0.33189E-02    rms(broyden)= 0.33187E-02
  rms(prec ) = 0.46244E-02
  weight for this iteration     100.00

 eigenvalues of (default mixing * dielectric matrix)
  average eigenvalue GAMMA=   1.4845
  4.3958  2.7273  2.3644  1.3546  1.0989  0.9433  0.9433  0.8884  0.8884  0.7795
  0.7795  0.6504

 Free energy of the ion-electron system (eV)
  ---------------------------------------------------
  alpha Z        PSCENC =       784.57699423
  Ewald energy   TEWEN  =    252934.99781968
  -Hartree energ DENC   =   -300903.91117420
  -exchange      EXHF   =         0.00000000
  -V(xc)+E(xc)   XCENC  =      2490.13568113
  PAW double counting   =     59416.92282940   -59249.15352063
  entropy T*S    EENTRO =        -0.00000000
  eigenvalues    EBANDS =    -12211.48222675
  atomic energy  EATOM  =     56210.72393729
  Solvation  Ediel_sol  =         0.00000000
  ---------------------------------------------------
  free energy    TOTEN  =      -527.18965984 eV

  energy without entropy =     -527.18965984  energy(sigma->0) =     -527.18965984


--------------------------------------------------------------------------------------------------------




--------------------------------------- Iteration      1(  18)  ---------------------------------------


    POTLOK:  cpu time    1.3619: real time    1.3714
    SETDIJ:  cpu time    1.3555: real time    1.3581
     EDDAV:  cpu time  160.4975: real time  160.4993
       DOS:  cpu time    0.0009: real time    0.0009
    CHARGE:  cpu time   11.0573: real time   11.0574
    MIXING:  cpu time    0.2690: real time    0.2690
    --------------------------------------------
      LOOP:  cpu time  174.5421: real time  174.5561

 eigenvalue-minimisations  :  4872
 total energy-change (2. order) :-0.2004705E-02  (-0.2551784E-04)
 number of electron     640.0000004 magnetization 
 augmentation part       69.7381984 magnetization 

 Broyden mixing:
  rms(total) = 0.23294E-02    rms(broyden)= 0.23293E-02
  rms(prec ) = 0.30481E-02
  weight for this iteration     100.00

 eigenvalues of (default mixing * dielectric matrix)
  average eigenvalue GAMMA=   1.5045
  4.7085  2.7417  2.2146  1.7799  1.0975  1.0975  0.9658  0.9658  0.9073  0.9073
  0.8025  0.6557  0.7139

 Free energy of the ion-electron system (eV)
  ---------------------------------------------------
  alpha Z        PSCENC =       784.57699423
  Ewald energy   TEWEN  =    252934.99781968
  -Hartree energ DENC   =   -300911.31377358
  -exchange      EXHF   =         0.00000000
  -V(xc)+E(xc)   XCENC  =      2490.15489869
  PAW double counting   =     59412.56605848   -59244.80280533
  entropy T*S    EENTRO =        -0.00000000
  eigenvalues    EBANDS =    -12204.09479401
  atomic energy  EATOM  =     56210.72393729
  Solvation  Ediel_sol  =         0.00000000
  ---------------------------------------------------
  free energy    TOTEN  =      -527.19166455 eV

  energy without entropy =     -527.19166455  energy(sigma->0) =     -527.19166455


--------------------------------------------------------------------------------------------------------




--------------------------------------- Iteration      1(  19)  ---------------------------------------


    POTLOK:  cpu time    1.3633: real time    1.3719
    SETDIJ:  cpu time    1.3594: real time    1.3594
     EDDAV:  cpu time  168.0999: real time  168.1060
       DOS:  cpu time    0.0009: real time    0.0009
    CHARGE:  cpu time   11.1119: real time   11.1120
    MIXING:  cpu time    0.2756: real time    0.2756
    --------------------------------------------
      LOOP:  cpu time  182.2110: real time  182.2259

 eigenvalue-minimisations  :  5160
 total energy-change (2. order) :-0.1190247E-02  (-0.1130636E-04)
 number of electron     640.0000004 magnetization 
 augmentation part       69.7375433 magnetization 

 Broyden mixing:
  rms(total) = 0.15749E-02    rms(broyden)= 0.15748E-02
  rms(prec ) = 0.21174E-02
  weight for this iteration     100.00

 eigenvalues of (default mixing * dielectric matrix)
  average eigenvalue GAMMA=   1.5648
  5.3649  2.9422  2.2115  2.2115  1.1920  1.1920  0.9963  0.9963  0.8891  0.8891
  0.8345  0.8345  0.7097  0.6433

 Free energy of the ion-electron system (eV)
  ---------------------------------------------------
  alpha Z        PSCENC =       784.57699423
  Ewald energy   TEWEN  =    252934.99781968
  -Hartree energ DENC   =   -300914.60629809
  -exchange      EXHF   =         0.00000000
  -V(xc)+E(xc)   XCENC  =      2490.16551951
  PAW double counting   =     59412.18011861   -59244.41279895
  entropy T*S    EENTRO =        -0.00000000
  eigenvalues    EBANDS =    -12200.81814707
  atomic energy  EATOM  =     56210.72393729
  Solvation  Ediel_sol  =         0.00000000
  ---------------------------------------------------
  free energy    TOTEN  =      -527.19285480 eV

  energy without entropy =     -527.19285480  energy(sigma->0) =     -527.19285480


--------------------------------------------------------------------------------------------------------




--------------------------------------- Iteration      1(  20)  ---------------------------------------


    POTLOK:  cpu time    1.3644: real time    1.3730
    SETDIJ:  cpu time    1.3577: real time    1.3577
     EDDAV:  cpu time  154.0681: real time  154.0696
       DOS:  cpu time    0.0010: real time    0.0010
    CHARGE:  cpu time   10.6946: real time   10.6947
    MIXING:  cpu time    0.2739: real time    0.2739
    --------------------------------------------
      LOOP:  cpu time  167.7596: real time  167.7698

 eigenvalue-minimisations  :  4624
 total energy-change (2. order) :-0.1070280E-02  (-0.3541639E-05)
 number of electron     640.0000004 magnetization 
 augmentation part       69.7372779 magnetization 

 Broyden mixing:
  rms(total) = 0.98160E-03    rms(broyden)= 0.98148E-03
  rms(prec ) = 0.13131E-02
  weight for this iteration     100.00

 eigenvalues of (default mixing * dielectric matrix)
  average eigenvalue GAMMA=   1.6018
  6.1755  3.0855  2.4625  2.0393  1.3999  1.0536  1.0536  1.0276  1.0276  0.8857
  0.8857  0.8088  0.7784  0.7106  0.6326

 Free energy of the ion-electron system (eV)
  ---------------------------------------------------
  alpha Z        PSCENC =       784.57699423
  Ewald energy   TEWEN  =    252934.99781968
  -Hartree energ DENC   =   -300917.30642425
  -exchange      EXHF   =         0.00000000
  -V(xc)+E(xc)   XCENC  =      2490.16810109
  PAW double counting   =     59412.58607811   -59244.82081543
  entropy T*S    EENTRO =        -0.00000000
  eigenvalues    EBANDS =    -12198.11961580
  atomic energy  EATOM  =     56210.72393729
  Solvation  Ediel_sol  =         0.00000000
  ---------------------------------------------------
  free energy    TOTEN  =      -527.19392508 eV

  energy without entropy =     -527.19392508  energy(sigma->0) =     -527.19392508


--------------------------------------------------------------------------------------------------------




--------------------------------------- Iteration      1(  21)  ---------------------------------------


    POTLOK:  cpu time    1.3507: real time    1.3593
    SETDIJ:  cpu time    1.3858: real time    1.3858
     EDDAV:  cpu time  130.9003: real time  130.9015
       DOS:  cpu time    0.0008: real time    0.0008
    CHARGE:  cpu time   10.9649: real time   10.9650
    MIXING:  cpu time    0.2754: real time    0.2754
    --------------------------------------------
      LOOP:  cpu time  144.8780: real time  144.8878

 eigenvalue-minimisations  :  3896
 total energy-change (2. order) :-0.4872448E-03  (-0.1487753E-05)
 number of electron     640.0000004 magnetization 
 augmentation part       69.7375617 magnetization 

 Broyden mixing:
  rms(total) = 0.71965E-03    rms(broyden)= 0.71949E-03
  rms(prec ) = 0.94949E-03
  weight for this iteration     100.00

 eigenvalues of (default mixing * dielectric matrix)
  average eigenvalue GAMMA=   1.6100
  6.4965  3.0551  2.4937  1.7997  1.7997  1.2139  1.2139  1.0227  1.0227  0.8819
  0.8819  0.9063  0.8253  0.8253  0.6868  0.6353

 Free energy of the ion-electron system (eV)
  ---------------------------------------------------
  alpha Z        PSCENC =       784.57699423
  Ewald energy   TEWEN  =    252934.99781968
  -Hartree energ DENC   =   -300918.64045990
  -exchange      EXHF   =         0.00000000
  -V(xc)+E(xc)   XCENC  =      2490.16801292
[...]
    -6.896993340 11.945942880  0.000000000     0.000000000  0.083710429  0.000000000
     0.000000000  0.000000000 27.810221070     0.000000000  0.000000000  0.035958003

  length of vectors
    13.793986680 13.793986676 27.810221070     0.083710429  0.083710429  0.035958003


 FORCES acting on ions
    electron-ion (+dipol)            ewald-force                    non-local-force                 convergence-correction
 -----------------------------------------------------------------------------------------------
   0.512E+02 -.804E+01 -.111E+04   -.512E+02 0.804E+01 0.111E+04   -.475E+00 -.855E-01 0.447E+01   -.179E-04 -.103E-04 0.842E-05
   -.378E+01 0.167E+02 -.110E+04   0.396E+01 -.163E+02 0.109E+04   0.180E+00 -.476E+00 0.454E+01   0.246E-04 0.624E-05 -.318E-04
   -.357E+02 0.259E+02 -.108E+04   0.360E+02 -.257E+02 0.108E+04   0.193E+00 -.811E+00 0.402E+01   0.853E-05 0.632E-06 0.559E-04
   -.212E+02 -.892E+01 -.105E+04   0.210E+02 0.910E+01 0.104E+04   0.477E+00 0.114E+00 0.454E+01   0.122E-04 0.178E-05 0.673E-04
   -.223E+02 -.112E+02 -.114E+04   0.227E+02 0.113E+02 0.113E+04   0.267E+00 0.606E-01 0.497E+01   0.105E-05 -.267E-04 0.135E-04
   -.115E+02 0.527E+01 -.111E+04   0.105E+02 -.610E+01 0.110E+04   0.113E+01 0.409E+00 0.432E+01   -.234E-04 0.142E-04 -.215E-04
   0.333E+02 0.281E+02 -.118E+04   -.336E+02 -.278E+02 0.118E+04   -.147E+00 -.603E+00 0.363E+01   0.304E-06 -.201E-04 -.954E-05
   -.114E+02 0.270E+02 -.106E+04   0.999E+01 -.274E+02 0.105E+04   0.915E+00 -.325E+00 0.442E+01   -.931E-05 -.500E-05 0.317E-04
   0.283E+01 -.120E+02 -.103E+04   -.255E+01 0.121E+02 0.103E+04   -.259E+00 0.289E-01 0.414E+01   0.183E-04 0.339E-05 0.365E-04
   0.168E+02 0.271E+02 -.108E+04   -.166E+02 -.277E+02 0.107E+04   -.227E+00 -.980E-01 0.512E+01   0.461E-05 0.119E-05 0.476E-04
   0.169E+02 -.719E+01 -.108E+04   -.170E+02 0.723E+01 0.108E+04   -.351E-01 0.268E+00 0.427E+01   0.194E-06 0.153E-04 0.217E-04
   0.580E+01 -.170E+02 -.104E+04   -.459E+01 0.166E+02 0.103E+04   -.568E+00 0.392E+00 0.466E+01   0.178E-04 0.844E-05 0.174E-04
   -.324E+02 -.231E+02 -.105E+04   0.329E+02 0.227E+02 0.105E+04   0.290E+00 0.558E+00 0.396E+01   0.649E-05 -.167E-04 0.156E-04
   -.363E+02 0.283E+02 -.108E+04   0.360E+02 -.280E+02 0.108E+04   0.400E+00 -.565E+00 0.398E+01   -.174E-05 -.129E-04 0.231E-04
   0.502E+01 -.350E+01 -.103E+04   -.509E+01 0.408E+01 0.102E+04   -.690E-01 -.220E+00 0.380E+01   0.705E-06 -.286E-05 0.725E-04
   -.211E+02 -.450E+02 -.105E+04   0.208E+02 0.450E+02 0.104E+04   0.864E+00 0.440E+00 0.381E+01   -.153E-04 0.152E-04 0.461E-04
   -.267E+02 -.598E+01 0.106E+04   0.262E+02 0.515E+01 -.105E+04   0.796E+00 0.355E+00 -.442E+01   0.194E-04 -.158E-04 -.456E-04
   0.240E+01 -.136E+02 0.112E+04   -.234E+01 0.133E+02 -.111E+04   0.262E+00 0.242E+00 -.465E+01   -.132E-04 0.299E-04 0.164E-04
   -.148E+02 -.139E+02 0.987E+03   0.154E+02 0.146E+02 -.983E+03   0.152E-01 -.176E+00 -.410E+01   0.370E-04 -.298E-04 0.122E-04
   -.368E+02 0.158E+02 0.109E+04   0.371E+02 -.157E+02 -.108E+04   0.183E+00 -.302E+00 -.407E+01   0.268E-05 0.147E-04 -.521E-05
   0.506E+01 0.207E+02 0.107E+04   -.571E+01 -.210E+02 -.107E+04   -.145E-01 0.321E+00 -.439E+01   0.159E-05 -.244E-05 -.181E-04
   0.215E+02 -.263E+01 0.108E+04   -.210E+02 0.150E+01 -.108E+04   -.674E+00 0.758E+00 -.385E+01   -.162E-04 0.108E-04 -.172E-05
   0.235E+02 -.187E+02 0.104E+04   -.232E+02 0.188E+02 -.104E+04   -.276E+00 0.168E+00 -.442E+01   -.256E-04 -.122E-04 0.284E-04
   0.251E+02 -.134E+02 0.107E+04   -.260E+02 0.139E+02 -.106E+04   0.287E+00 0.282E+00 -.438E+01   0.177E-04 0.282E-05 -.503E-05
   -.248E+02 0.109E+02 0.113E+04   0.246E+02 -.109E+02 -.113E+04   0.556E+00 0.264E-01 -.435E+01   0.557E-05 -.255E-05 -.124E-04
   -.134E+02 -.180E+02 0.114E+04   0.139E+02 0.179E+02 -.114E+04   -.399E+00 0.592E+00 -.417E+01   0.340E-06 -.771E-05 0.106E-05
   -.178E+02 -.190E+02 0.114E+04   0.174E+02 0.200E+02 -.113E+04   0.134E+00 -.386E-01 -.419E+01   -.132E-04 0.721E-05 0.404E-05
   0.147E+01 -.141E+02 0.107E+04   -.723E+00 0.150E+02 -.107E+04   -.402E+00 -.414E+00 -.378E+01   -.122E-04 0.279E-04 -.230E-04
   0.218E+02 0.283E+02 0.108E+04   -.217E+02 -.288E+02 -.108E+04   -.934E-01 -.569E+00 -.372E+01   -.144E-04 -.379E-05 0.781E-05
   0.141E+02 0.119E+02 0.102E+04   -.140E+02 -.127E+02 -.102E+04   -.272E+00 0.440E+00 -.410E+01   0.225E-04 -.189E-04 0.133E-04
   0.116E+02 -.127E+02 0.102E+04   -.114E+02 0.129E+02 -.102E+04   -.517E+00 0.243E+00 -.435E+01   -.527E-06 0.136E-05 -.658E-05
   -.539E+01 0.127E+02 0.110E+04   0.429E+01 -.123E+02 -.109E+04   0.682E+00 -.413E+00 -.431E+01   0.812E-05 0.862E-05 -.630E-04
   0.890E+01 -.989E+01 0.147E+04   -.877E+01 0.963E+01 -.147E+04   -.520E+00 0.869E+00 0.166E+01   0.693E-05 -.383E-05 -.147E-04
   0.647E+01 -.138E+02 0.145E+04   -.655E+01 0.139E+02 -.146E+04   0.106E+00 0.132E+00 0.187E+01   0.515E-05 0.267E-05 -.106E-04
   0.640E+01 -.490E+01 0.142E+04   -.635E+01 0.492E+01 -.142E+04   -.291E+00 -.226E+00 0.177E+01   -.538E-06 0.272E-06 -.133E-04
   -.868E+01 0.205E+02 0.144E+04   0.870E+01 -.204E+02 -.144E+04   0.166E+00 -.382E+00 0.135E+01   -.897E-05 0.187E-05 -.594E-05
   0.122E+01 0.256E+02 0.147E+04   -.113E+01 -.257E+02 -.147E+04   -.314E+00 -.722E-01 0.208E+01   -.106E-04 -.545E-05 -.274E-05
   0.266E+02 -.749E+01 0.145E+04   -.264E+02 0.759E+01 -.145E+04   -.731E+00 -.416E-01 0.142E+01   -.308E-05 -.263E-05 -.112E-04
   0.556E+01 -.825E+01 0.144E+04   -.572E+01 0.818E+01 -.144E+04   0.698E+00 0.513E+00 0.198E+01   -.336E-05 -.861E-05 -.739E-06
   -.229E+00 0.218E+02 0.146E+04   0.423E+00 -.216E+02 -.146E+04   -.583E+00 -.452E+00 0.289E+01   -.744E-05 -.184E-06 0.578E-05
   0.148E+01 0.133E+02 0.148E+04   -.136E+01 -.133E+02 -.149E+04   -.570E+00 -.125E+00 0.218E+01   -.904E-06 -.435E-05 0.102E-04
   -.259E+02 -.670E+01 0.149E+04   0.257E+02 0.669E+01 -.149E+04   0.916E+00 0.277E+00 0.190E+01   -.108E-04 0.983E-06 -.282E-05
   0.116E+02 0.190E+01 0.148E+04   -.115E+02 -.168E+01 -.148E+04   -.243E+00 -.494E+00 0.272E+01   0.154E-05 0.254E-05 0.208E-05
   0.240E+02 -.594E+01 0.146E+04   -.238E+02 0.581E+01 -.146E+04   -.768E+00 0.451E+00 0.252E+01   0.590E-05 -.253E-05 0.142E-04
   0.961E+01 -.135E+02 0.147E+04   -.957E+01 0.133E+02 -.147E+04   -.176E+00 0.475E+00 0.252E+01   0.635E-05 -.280E-06 0.479E-05
   -.163E+01 -.823E+01 0.144E+04   0.183E+01 0.840E+01 -.144E+04   -.530E+00 -.397E+00 0.196E+01   0.846E-05 0.600E-05 -.557E-05
   -.385E+02 0.427E+01 0.144E+04   0.383E+02 -.411E+01 -.144E+04   0.102E+01 -.526E+00 0.174E+01   0.254E-05 0.152E-04 -.108E-05
   -.201E+01 -.495E+01 0.146E+04   0.188E+01 0.489E+01 -.147E+04   0.295E+00 0.142E+00 0.277E+01   0.938E-05 -.353E-05 0.655E-05
   -.822E+01 0.170E+01 -.147E+04   0.804E+01 -.186E+01 0.147E+04   0.509E+00 0.350E+00 -.197E+01   -.120E-05 -.243E-04 0.808E-06
   0.187E+02 0.898E+00 -.147E+04   -.187E+02 -.890E+00 0.147E+04   -.172E+00 -.867E-01 -.254E+01   -.149E-05 -.847E-05 -.133E-04
   0.102E+02 0.213E+02 -.146E+04   -.104E+02 -.213E+02 0.146E+04   0.479E+00 -.368E+00 -.239E+01   -.985E-05 0.152E-04 -.194E-04
   -.533E+00 -.162E+02 -.146E+04   0.532E+00 0.161E+02 0.147E+04   -.843E-01 0.575E+00 -.209E+01   -.975E-05 0.583E-05 -.944E-05
   0.142E+02 -.160E+02 -.145E+04   -.141E+02 0.159E+02 0.145E+04   -.475E+00 0.526E+00 -.156E+01   0.758E-05 -.653E-05 0.117E-04
   -.652E+01 0.183E+01 -.147E+04   0.661E+01 -.185E+01 0.147E+04   -.207E+00 0.619E-01 -.243E+01   0.184E-04 -.882E-06 -.797E-06
   -.149E+01 0.183E+02 -.146E+04   0.160E+01 -.183E+02 0.146E+04   -.159E+00 -.475E+00 -.180E+01   0.123E-04 0.161E-04 -.212E-05
   0.147E+02 -.199E+02 -.148E+04   -.146E+02 0.199E+02 0.148E+04   -.489E+00 0.309E+00 -.233E+01   0.697E-05 0.172E-04 0.275E-05
   -.450E+01 -.184E+01 -.147E+04   0.442E+01 0.189E+01 0.147E+04   0.341E+00 -.181E+00 -.261E+01   -.113E-05 -.846E-05 0.922E-05
   0.279E+01 0.540E+01 -.143E+04   -.285E+01 -.544E+01 0.143E+04   0.159E+00 -.110E+00 -.122E+01   -.318E-05 -.297E-05 0.542E-05
   -.282E-01 0.265E+02 -.148E+04   0.139E+00 -.262E+02 0.148E+04   -.487E+00 -.949E+00 -.177E+01   0.663E-05 0.105E-04 0.260E-05
   0.201E+02 -.769E+01 -.146E+04   -.199E+02 0.782E+01 0.147E+04   -.786E+00 -.322E+00 -.205E+01   0.519E-05 0.725E-05 0.126E-04
   -.129E+01 -.205E+02 -.143E+04   0.125E+01 0.205E+02 0.143E+04   0.173E+00 0.313E+00 -.226E+01   -.720E-05 -.195E-04 0.635E-05
   -.556E+01 -.266E+01 -.145E+04   0.569E+01 0.256E+01 0.145E+04   -.263E+00 0.272E+00 -.249E+01   -.124E-04 -.126E-04 -.556E-05
   -.254E+02 0.950E+01 -.143E+04   0.252E+02 -.953E+01 0.144E+04   0.739E+00 0.119E+00 -.112E+01   -.103E-04 0.118E-04 0.125E-05
   0.986E+00 -.159E+01 -.146E+04   -.858E+00 0.173E+01 0.146E+04   -.537E+00 -.425E+00 -.211E+01   -.223E-06 0.277E-05 0.659E-05
   0.350E+02 -.110E+02 0.238E+02   -.346E+02 0.108E+02 -.242E+02   -.130E+01 0.611E+00 0.140E+01   0.365E-05 -.627E-05 -.748E-06
   0.945E+01 -.840E-01 -.134E+01   -.923E+01 -.904E-01 0.991E+00   -.721E+00 0.635E+00 0.982E+00   -.299E-05 0.176E-05 -.146E-05
   0.416E+01 0.212E+01 -.405E+02   -.404E+01 -.200E+01 0.407E+02   -.380E+00 -.494E+00 -.707E+00   0.237E-05 0.298E-05 -.978E-08
   -.126E+01 -.626E+00 -.427E+01   0.118E+01 0.526E+00 0.465E+01   0.145E+00 0.189E+00 -.132E+01   -.382E-06 0.596E-05 0.602E-05
   -.119E+02 0.255E+00 -.197E+02   0.117E+02 -.218E+00 0.199E+02   0.969E+00 -.397E+00 -.536E+00   -.368E-05 -.467E-05 0.215E-05
   -.117E+01 -.191E+02 -.817E+01   0.107E+01 0.190E+02 0.817E+01   0.318E+00 0.119E+00 0.218E+00   -.528E-06 0.870E-06 -.768E-05
   0.968E+01 -.179E+02 -.181E+02   -.954E+01 0.175E+02 0.181E+02   -.402E+00 0.755E+00 -.349E-01   -.358E-05 0.364E-05 -.813E-05
   0.845E+00 0.314E+01 -.429E+01   -.724E+00 -.312E+01 0.408E+01   -.233E+00 0.308E-01 0.530E+00   -.565E-06 0.122E-05 0.201E-05
   -.218E+00 0.247E+02 0.516E+02   0.206E+00 -.245E+02 -.523E+02   0.111E+00 -.108E+01 0.218E+01   0.150E-05 -.170E-05 0.602E-06
   -.138E+02 0.162E+01 -.813E+01   0.132E+02 -.160E+01 0.815E+01   0.193E+01 -.285E+00 -.940E-02   -.281E-07 0.466E-06 0.449E-06
   0.241E+02 0.140E+02 0.108E+01   -.238E+02 -.136E+02 -.108E+01   -.122E+01 -.817E+00 0.145E-01   0.157E-05 0.128E-05 -.168E-05
   -.204E+00 0.107E+02 -.217E+02   0.234E+00 -.106E+02 0.217E+02   -.130E+00 -.658E-01 -.252E+00   0.115E-05 0.262E-05 0.109E-05
   -.114E+02 -.873E+01 0.201E+02   0.114E+02 0.854E+01 -.201E+02   -.308E+00 0.662E+00 0.348E+00   -.215E-05 -.224E-05 0.425E-05
   -.721E+01 -.691E+01 0.291E+02   0.715E+01 0.690E+01 -.294E+02   0.233E+00 0.104E+00 0.852E+00   0.212E-05 -.299E-05 0.224E-05
   -.140E+02 0.799E+00 -.101E+02   0.137E+02 -.101E+01 0.105E+02   0.104E+01 0.746E+00 -.161E+01   -.307E-05 0.159E-05 0.643E-05
   0.204E+01 0.131E+02 0.344E+02   -.188E+01 -.127E+02 -.347E+02   -.588E+00 -.709E+00 0.114E+01   0.159E-05 0.865E-06 0.245E-06
 -----------------------------------------------------------------------------------------------
   0.125E+00 -.359E+00 -.519E+01   -.568E-12 -.229E-12 0.142E-12   -.126E+00 0.356E+00 0.519E+01   0.447E-04 -.115E-04 0.286E-03
 
 
 POSITION                                       TOTAL-FORCE (eV/Angst)
 -----------------------------------------------------------------------------------
      0.02222      2.02139     15.17674        -0.550540     -0.090086     -0.566587
     -1.76475      4.98065     15.13084         0.365911     -0.142055      0.752969
     -3.49581      8.10548     15.14756         0.442898     -0.667828      0.440409
     -5.21626     10.95763     15.08406         0.291307      0.291678      0.432805
      3.32544      2.01544     15.18869         0.666902      0.230574     -0.321998
      1.67391      5.02439     15.18702         0.124511     -0.426629     -0.220601
      0.02604      8.00974     15.33199        -0.415484     -0.307027     -1.102948
     -1.68733     11.03212     15.13184        -0.509967     -0.686672     -0.329730
      6.85573      1.99167     15.08624         0.019300      0.113683     -0.355004
      5.11642      5.04891     15.10880        -0.042716     -0.664742      0.131532
      3.52655      7.94980     15.16870        -0.090327      0.305341     -0.593926
      1.69222     10.93343     15.09295         0.642686      0.033476      0.227056
     10.20081      1.87945     15.11761         0.825193      0.201017     -0.073405
      8.57108      4.94387     15.14918         0.024915     -0.233680     -0.218969
      6.89405      7.97661     15.11005        -0.135647      0.365911     -0.307986
      5.12550     10.88607     15.13899         0.542536      0.468060     -0.691659
      1.71179      1.08657     12.68946         0.256675     -0.480451      0.173945
     -0.04177      3.98731     12.60671         0.326673     -0.120803      0.875103
     -1.80013      6.93022     12.76942         0.568583      0.485788      0.069840
     -3.43465     10.07237     12.68041         0.436990     -0.196950      0.143238
      5.19755      1.02605     12.68770        -0.666955     -0.009475     -0.681105
      3.43984      3.97248     12.59808        -0.121817     -0.369580      1.163166
      1.73189      6.93297     12.69631         0.035670      0.241529      0.301054
      0.06092      9.80138     12.71178        -0.568054      0.733499     -0.747105
      8.60374      0.92536     12.61198         0.365476      0.021823     -0.623499
      6.86369      3.91306     12.56733         0.124004      0.404082      0.683444
      5.19386      6.84261     12.58928        -0.248430      0.952955      0.470578
      3.46446      9.84214     12.66394         0.348910      0.554185     -0.401326
     12.08972      1.06520     12.61598        -0.005551     -1.019809      0.099189
     10.35043      3.96248     12.72776        -0.118842     -0.394925     -0.465337
      8.64316      6.92775     12.77515        -0.308852      0.495585     -0.385850
      6.90511      9.99441     12.66734        -0.414111      0.043495     -0.315720
      0.10817      1.90126     10.98624        -0.392442      0.605438     -0.399450
     -1.78193      4.93772     11.03576         0.027524      0.163429     -0.228959
     -3.44159      8.04269     11.15135        -0.236802     -0.209462     -0.370222
     -5.13541     11.04291     11.11351         0.187159     -0.369981     -0.746020
      3.53470      2.02246     10.96679        -0.227135     -0.174516     -0.030720
      1.78418      4.98969     11.06168        -0.590734      0.061578     -0.650065
     -0.13891      7.78138     11.06718         0.535949      0.445018     -0.120780
     -1.56412     11.04441     10.89959        -0.389515     -0.316632      0.637976
      7.06762      2.04926     10.88245        -0.449871     -0.146333      0.100240
      5.04966      4.89911     10.91825         0.710486      0.261522     -0.179476
      3.46386      7.93538     10.88182        -0.202940     -0.275335      0.539843
      1.85554     10.76638     10.92400        -0.558441      0.325187      0.348266
     10.41199      1.91161     10.90032        -0.135054      0.324990      0.365489
      8.69798      5.07646     11.05627        -0.321329     -0.230847     -0.153907
      6.78622      8.01477     11.06686         0.848064     -0.363716     -0.376286
      5.16910     10.92062     10.89329         0.164480      0.086327      0.561330
      1.62044      0.95140     16.84008         0.331387      0.198386      0.078915
      0.02963      4.03117     16.91289        -0.170157     -0.078272     -0.382144
     -1.82179      7.03269     16.88124         0.277884     -0.318504     -0.213743
     -3.37234      9.93230     16.84157        -0.085737      0.421687     -0.036741
      5.22801      0.94191     16.74639        -0.323551      0.397331      0.487775
      3.47228      4.00861     16.89777        -0.120056      0.043965     -0.280169
      1.81905      7.06578     16.83598        -0.050817     -0.404522      0.317552
      0.15644      9.93617     16.93100        -0.354532      0.346090     -0.239055
      8.49175      1.02863     16.87312         0.260733     -0.131986     -0.485916
      6.81715      3.98604     16.65884         0.101561     -0.147013      0.829533
      5.26729      7.18649     16.83228        -0.376509     -0.706425      0.233008
      3.57206     10.02222     16.83717        -0.595081     -0.193600      0.014433
     12.00302      0.95313     16.76148         0.129236      0.260151     -0.063917
     10.35020      3.88545     16.82694        -0.133210      0.171474     -0.298181
      8.50186      6.92225     16.66204         0.619990      0.093310      0.963979
      7.00526     10.02905     16.80674        -0.409232     -0.287698      0.006015
     -6.77812     11.93733     13.78727        -0.894106      0.444290      0.960235
     -1.69407      2.93554     13.81151        -0.503193      0.461039      0.636761
     -3.44177      5.98634     13.99479        -0.263414     -0.372028     -0.513331
     -5.16763      8.95646     14.00411         0.071064      0.089918     -0.933905
      3.41369      0.05817     13.96994         0.792113     -0.359781     -0.372346
      1.66548      3.02306     13.92032         0.221007      0.084486      0.225789
      0.02476      5.90132     13.96069        -0.265627      0.401204      0.007370
     -1.67464      8.98720     13.92468        -0.111936      0.049119      0.318302
      6.89906      0.08446     13.73799         0.098834     -0.804855      1.530094
      4.98260      3.02172     13.87302         1.312918     -0.263209      0.008521
      3.53963      6.08390     13.89552        -0.917785     -0.416623      0.017561
      1.72794      8.93379     13.97164        -0.099859     -0.014409     -0.199960
      3.43851     11.85856     13.88080        -0.273068      0.465219      0.288618
      8.56401      2.93662     13.81043         0.175719      0.096079      0.576944
      6.81824      5.88221     13.98203         0.805979      0.540512     -1.180721
      5.23127      9.00308     13.82082        -0.431798     -0.383971      0.839891
 -----------------------------------------------------------------------------------
    total drift:                               -0.001235     -0.003357     -0.003135


--------------------------------------------------------------------------------------------------------



  FREE ENERGIE OF THE ION-ELECTRON SYSTEM (eV)
  ---------------------------------------------------
  free  energy   TOTEN  =      -527.19568677 eV

  energy  without entropy=     -527.19568677  energy(sigma->0) =     -527.19568677
 


--------------------------------------------------------------------------------------------------------


    POTLOK:  cpu time    2.6630: real time    2.6674


--------------------------------------------------------------------------------------------------------


     LOOP+:  cpu time 5492.3226: real time 5492.8273
    4ORBIT:  cpu time    0.0000: real time    0.0000

 total amount of memory used by VASP MPI-rank0   253920. kBytes
=======================================================================

   base      :      30000. kBytes
   nonlr-proj:      18736. kBytes
   fftplans  :      72602. kBytes
   grid      :      41267. kBytes
   one-center:        108. kBytes
   wavefun   :      91207. kBytes
 
  
  
 General timing and accounting informations for this job:
 ========================================================
  
                  Total CPU time used (sec):     5546.935
                            User time (sec):     5473.798
                          System time (sec):       73.137
                         Elapsed time (sec):     5547.560
  
                   Maximum memory used (kb):      453116.
                   Average memory used (kb):           0.
  
                          Minor page faults:       294062
                          Major page faults:            0
                 Voluntary context switches:         2351
