 vasp.5.4.4.18Apr17-6-g9f103f2a35 (build Mar 16 2023 09:39:13) complex          
  
 executed on             LinuxIFC date 2024.04.30  16:04:57
 running on   48 total cores
 distrk:  each k-point on   48 cores,    1 groups
 distr:  one band on NCORES_PER_BAND=  12 cores,    4 groups


--------------------------------------------------------------------------------------------------------


 INCAR:
 POTCAR:    PAW_PBE Ca_sv 06Sep2000               
 POTCAR:    PAW_PBE Si 05Jan2001                  
 POTCAR:    PAW_PBE O 08Apr2002                   
 POTCAR:    PAW_PBE Ca_sv 06Sep2000               
   SHA256 =  a47365830e737f14e0e6c5cf1ed81b94e081eecf0a33df105380881bc9da05d5 Ca
   COPYR  = (c) Copyright 06Sep2000 Georg Kresse                                
   COPYR  = This file is part of the software VASP. Any use, copying, and all ot
   COPYR  = If you do not have a valid VASP license, you may not use, copy or di
   VRHFIN =Ca: 3s3p4s                                                           
   LEXCH  = PE                                                                  
   EATOM  =  1006.0909 eV,   73.9456 Ry                                         
                                                                                
   TITEL  = PAW_PBE Ca_sv 06Sep2000                                             
   LULTRA =        F    use ultrasoft PP ?                                      
   IUNSCR =        1    unscreen: 0-lin 1-nonlin 2-no                           
   RPACOR =    2.000    partial core radius                                     
   POMASS =   40.078; ZVAL   =   10.000    mass and valenz                      
   RCORE  =    2.300    outmost cutoff radius                                   
   RWIGS  =    2.500; RWIGS  =    1.323    wigner-seitz radius (au A)           
   ENMAX  =  266.622; ENMIN  =  199.967 eV                                      
   RCLOC  =    1.808    cutoff for local pot                                    
   LCOR   =        T    correct aug charges                                     
   LPAW   =        T    paw PP                                                  
   EAUG   =  420.852                                                            
   RMAX   =    2.359    core radius for proj-oper                               
   RAUG   =    1.300    factor for augmentation sphere                          
   RDEP   =    2.392    radius for radial grids                                 
   RDEPT  =    1.987    core radius for aug-charge                              
                                                                                
   Atomic configuration                                                         
    7 entries                                                                   
     n  l   j            E        occ.                                          
     1  0  0.50     -3949.1705   2.0000                                         
     2  0  0.50      -414.3434   2.0000                                         
     2  1  1.50      -334.7047   6.0000                                         
     3  0  0.50       -47.0896   2.0000                                         
     4  0  0.50        -3.7663   2.0000                                         
     3  1  1.50       -28.0061   6.0000                                         
     3  2  1.50        -4.0817   0.0000                                         
   Description                                                                  
     l       E           TYP  RCUT    TYP  RCUT                                 
     0    -47.0896403     23  2.300                                             
     0     -3.7663320     23  2.300                                             
     1    -28.0060855     23  2.300                                             
     1      6.8029130     23  2.300                                             
     2     -4.0817478     23  2.300                                             
     2      0.4464412     23  2.300                                             
  local pseudopotential read in
  partial core-charges read in
  partial kinetic energy density read in
  atomic valenz-charges read in
  non local Contribution for L=           0  read in
    real space projection operators read in
  non local Contribution for L=           0  read in
    real space projection operators read in
  non local Contribution for L=           1  read in
    real space projection operators read in
  non local Contribution for L=           1  read in
    real space projection operators read in
  non local Contribution for L=           2  read in
    real space projection operators read in
  non local Contribution for L=           2  read in
    real space projection operators read in
    PAW grid and wavefunctions read in
 
   number of l-projection  operators is LMAX  =           6
   number of lm-projection operators is LMMAX =          18
 
 POTCAR:    PAW_PBE Si 05Jan2001                  
   SHA256 =  79d9987ad8750f624c4d6acb2a16d13abf6a777132adc04dc6c8399be72b42bb Si
   COPYR  = (c) Copyright 05Jan2001 Georg Kresse                                
   COPYR  = This file is part of the software VASP. Any use, copying, and all ot
   COPYR  = If you do not have a valid VASP license, you may not use, copy or di
   VRHFIN =Si: s2p2                                                             
   LEXCH  = PE                                                                  
   EATOM  =   103.0669 eV,    7.5752 Ry                                         
                                                                                
   TITEL  = PAW_PBE Si 05Jan2001                                                
   LULTRA =        F    use ultrasoft PP ?                                      
   IUNSCR =        1    unscreen: 0-lin 1-nonlin 2-no                           
   RPACOR =    1.500    partial core radius                                     
   POMASS =   28.085; ZVAL   =    4.000    mass and valenz                      
   RCORE  =    1.900    outmost cutoff radius                                   
   RWIGS  =    2.480; RWIGS  =    1.312    wigner-seitz radius (au A)           
   ENMAX  =  245.345; ENMIN  =  184.009 eV                                      
   ICORE  =        2    local potential                                         
   LCOR   =        T    correct aug charges                                     
   LPAW   =        T    paw PP                                                  
   EAUG   =  322.069                                                            
   DEXC   =    0.000                                                            
   RMAX   =    1.950    core radius for proj-oper                               
   RAUG   =    1.300    factor for augmentation sphere                          
   RDEP   =    1.993    radius for radial grids                                 
   RDEPT  =    1.837    core radius for aug-charge                              
                                                                                
   Atomic configuration                                                         
    6 entries                                                                   
     n  l   j            E        occ.                                          
     1  0  0.50     -1785.8828   2.0000                                         
     2  0  0.50      -139.4969   2.0000                                         
     2  1  1.50       -95.5546   6.0000                                         
     3  0  0.50       -10.8127   2.0000                                         
     3  1  0.50        -4.0811   2.0000                                         
     3  2  1.50        -4.0817   0.0000                                         
   Description                                                                  
     l       E           TYP  RCUT    TYP  RCUT                                 
     0    -10.8127223     23  1.900                                             
     0     -7.6451159     23  1.900                                             
     1     -4.0811372     23  1.900                                             
     1      2.4879257     23  1.900                                             
     2     -4.0817478      7  1.900                                             
  local pseudopotential read in
  partial core-charges read in
  partial kinetic energy density read in
  atomic valenz-charges read in
  non local Contribution for L=           0  read in
    real space projection operators read in
  non local Contribution for L=           0  read in
    real space projection operators read in
  non local Contribution for L=           1  read in
    real space projection operators read in
  non local Contribution for L=           1  read in
    real space projection operators read in
    PAW grid and wavefunctions read in
 
   number of l-projection  operators is LMAX  =           4
   number of lm-projection operators is LMMAX =           8
 
 POTCAR:    PAW_PBE O 08Apr2002                   
   SHA256 =  818f92134a0a090dccd8ba1447fa70422a3b330e708bb4f08108d8ae51209ddf O/
   COPYR  = (c) Copyright 08Apr2002 Georg Kresse                                
   COPYR  = This file is part of the software VASP. Any use, copying, and all ot
   COPYR  = If you do not have a valid VASP license, you may not use, copy or di
   VRHFIN =O: s2p4                                                              
   LEXCH  = PE                                                                  
   EATOM  =   432.3788 eV,   31.7789 Ry                                         
                                                                                
   TITEL  = PAW_PBE O 08Apr2002                                                 
   LULTRA =        F    use ultrasoft PP ?                                      
   IUNSCR =        1    unscreen: 0-lin 1-nonlin 2-no                           
   RPACOR =    1.200    partial core radius                                     
   POMASS =   16.000; ZVAL   =    6.000    mass and valenz                      
   RCORE  =    1.520    outmost cutoff radius                                   
   RWIGS  =    1.550; RWIGS  =    0.820    wigner-seitz radius (au A)           
   ENMAX  =  400.000; ENMIN  =  300.000 eV                                      
   ICORE  =        2    local potential                                         
   LCOR   =        T    correct aug charges                                     
   LPAW   =        T    paw PP                                                  
   EAUG   =  605.392                                                            
   DEXC   =    0.000                                                            
   RMAX   =    1.553    core radius for proj-oper                               
   RAUG   =    1.300    factor for augmentation sphere                          
   RDEP   =    1.550    radius for radial grids                                 
   RDEPT  =    1.329    core radius for aug-charge                              
                                                                                
   Atomic configuration                                                         
    4 entries                                                                   
     n  l   j            E        occ.                                          
     1  0  0.50      -514.6923   2.0000                                         
     2  0  0.50       -23.9615   2.0000                                         
     2  1  0.50        -9.0305   4.0000                                         
     3  2  1.50        -9.5241   0.0000                                         
   Description                                                                  
     l       E           TYP  RCUT    TYP  RCUT                                 
     0    -23.9615318     23  1.200                                             
     0     -9.5240782     23  1.200                                             
     1     -9.0304911     23  1.520                                             
     1      8.1634956     23  1.520                                             
     2     -9.5240782      7  1.500                                             
  local pseudopotential read in
  partial core-charges read in
  partial kinetic energy density read in
  kinetic energy density of atom read in
  atomic valenz-charges read in
  non local Contribution for L=           0  read in
    real space projection operators read in
  non local Contribution for L=           0  read in
    real space projection operators read in
  non local Contribution for L=           1  read in
    real space projection operators read in
  non local Contribution for L=           1  read in
    real space projection operators read in
    PAW grid and wavefunctions read in
 
   number of l-projection  operators is LMAX  =           4
   number of lm-projection operators is LMMAX =           8
 
 Optimization of the real space projectors (new method)

 maximal supplied QI-value         = 16.25
 optimisation between [QCUT,QGAM] = [ 12.51, 25.03] = [ 43.85,175.40] Ry 
 Optimized for a Real-space Cutoff    1.47 Angstroem

   l    n(q)    QCUT    max X(q) W(low)/X(q) W(high)/X(q)  e(spline) 
   0     11    12.514    11.817    0.25E-04    0.32E-05    0.87E-07
   0     11    12.514     8.461    0.39E-04    0.59E-05    0.18E-06
   1     11    12.514     3.957    0.97E-05    0.57E-05    0.28E-07
   1     11    12.514     4.314    0.42E-04    0.14E-04    0.23E-06
   2     10    12.514    14.565    0.79E-04    0.50E-03    0.16E-05
   2     10    12.514    14.552    0.75E-04    0.48E-03    0.15E-05
 Optimization of the real space projectors (new method)

 maximal supplied QI-value         = 19.84
 optimisation between [QCUT,QGAM] = [ 12.50, 25.00] = [ 43.76,175.03] Ry 
 Optimized for a Real-space Cutoff    1.16 Angstroem

   l    n(q)    QCUT    max X(q) W(low)/X(q) W(high)/X(q)  e(spline) 
   0      9    12.501   159.560    0.10E-03    0.83E-04    0.71E-07
   0      9    12.501   115.863    0.99E-04    0.81E-04    0.70E-07
   1      8    12.501    88.339    0.20E-03    0.25E-03    0.76E-07
   1      8    12.501    48.592    0.20E-03    0.24E-03    0.75E-07
 Optimization of the real space projectors (new method)

 maximal supplied QI-value         = 24.76
 optimisation between [QCUT,QGAM] = [ 12.38, 25.00] = [ 42.90,175.06] Ry 
 Optimized for a Real-space Cutoff    1.16 Angstroem

   l    n(q)    QCUT    max X(q) W(low)/X(q) W(high)/X(q)  e(spline) 
   0      9    12.378    20.381    0.16E-03    0.67E-05    0.31E-06
   0      9    12.378    15.268    0.17E-03    0.81E-05    0.33E-06
   1      8    12.378     5.964    0.20E-03    0.16E-03    0.30E-06
   1      8    12.378     5.382    0.18E-03    0.14E-03    0.26E-06
  PAW_PBE Ca_sv 06Sep2000               :
 energy of atom  1       EATOM=-1006.0909
 kinetic energy error for atom=    0.0012 (will be added to EATOM!!)
  PAW_PBE Si 05Jan2001                  :
 energy of atom  2       EATOM= -103.0669
 kinetic energy error for atom=    0.0003 (will be added to EATOM!!)
  PAW_PBE O 08Apr2002                   :
 energy of atom  3       EATOM= -432.3788
 kinetic energy error for atom=    0.0168 (will be added to EATOM!!)
 
 
 POSCAR: Ca Si  O                                
  positions in direct lattice
  No initial velocities read in
 exchange correlation table for  LEXCH =        8
   RHO(1)=    0.500       N(1)  =     2000
   RHO(2)=  100.500       N(2)  =     4000
 


--------------------------------------------------------------------------------------------------------


 ion  position               nearest neighbor table
   1  0.958  0.899  0.495-  71 2.07 103 2.15 104 2.29 129 2.31  47 2.62  41 3.08
   2  0.699  0.385  0.600- 125 2.29 122 2.39  68 2.53  53 2.88  54 3.11  42 3.14  52 3.15
   3  0.201  0.325  0.503- 106 2.02 130 2.18  32 3.13
   4  0.424  0.205  0.306-  74 2.28  83 2.34  57 2.48  60 2.53
   5  0.121  0.606  0.402-  65 2.22 117 2.25  56 2.40 105 2.50
   6  0.672  0.486  0.082- 123 2.05  70 2.28 116 2.34 115 2.38  39 2.89
   7  0.892  0.231  0.993-  85 2.21  59 2.34  95 2.36 113 2.47  37 3.10  39 3.15
   8  0.721  0.120  0.414-  97 2.21 134 2.32  83 2.34  50 3.02  37 3.11
   9  0.278  0.807  0.606-  56 2.13  82 2.41  77 2.42
  10  0.021  0.412  0.783- 127 2.12  62 2.23  67 2.23  33 2.96
  11  0.375  0.353  0.745-  93 2.19 135 2.35  73 2.39  24 3.06
  12  0.872  0.162  0.707- 128 2.04 113 2.45  71 2.51  59 2.56  42 2.81
  13  0.753  0.730  0.628-  94 2.16  78 2.44  61 2.46 131 2.54  34 2.97  36 3.01  40 3.09
  14  0.402  0.683  0.073-  58 2.18 120 2.42  28 2.90
  15  0.043  0.701  0.685-  99 2.20 127 2.31 103 2.31  56 2.46  81 2.47  94 2.56  49 2.77
  16  0.400  0.138  0.011- 107 2.24 102 2.41  87 2.44 100 2.47  30 3.06
  17  0.631  0.030  0.803- 102 2.23  90 2.31  92 2.43  46 2.80  34 2.91
  18  0.429  0.501  0.485- 135 2.28 130 2.28  68 2.40  73 2.52
  19  0.951  0.372  0.284-  80 2.05  95 2.42  98 2.45 105 2.55
  20  0.686  0.933  0.185-  89 2.15 134 2.29 112 2.31 133 2.41 119 2.42  31 2.76
  21  0.808  0.634  0.271- 123 2.17 105 2.28 116 2.41  40 3.11
  22  0.167  0.112  0.223- 101 2.42 107 2.47
  23  0.906  0.726  0.994-  75 2.33 112 2.41  88 2.42 116 2.46  38 2.89  39 3.07  34 3.08
  24  0.355  0.109  0.747-  92 2.26 126 2.32  93 2.53  11 3.06
  25  0.018  0.979  0.934-  75 2.11  88 2.15
  26  0.386  0.810  0.319-  82 2.26  58 2.28  69 2.35  77 2.51
  27  0.123  0.501  0.072-  79 1.93  84 2.51 120 2.57  39 2.98  30 2.99  32 3.02
  28  0.402  0.508  0.225- 120 1.53  70 1.65  57 1.76  69 1.88  32 2.90  14 2.90
  29  0.232  0.783  0.902-  81 1.63 110 1.69 121 1.77 118 1.81  43 2.90  35 2.90  44 2.93
  30  0.214  0.296  0.992- 108 1.54  79 1.55 100 1.60  72 1.91  27 2.99  16 3.06
  31  0.628  0.838  0.995- 133 1.59  89 1.60 124 1.62  55 1.80  20 2.76  34 2.91  35 2.95
  32  0.214  0.378  0.259- 117 1.46 106 1.55  72 1.65  57 1.82  28 2.90  27 3.02   3 3.13
  33  0.119  0.198  0.766- 113 1.63 111 1.64  93 1.66  67 2.01  10 2.96  47 3.10
  34  0.785  0.858  0.825-  90 1.54  75 1.62  55 1.66  94 1.90  17 2.91  31 2.91  13 2.97  23 3.08

  35  0.447  0.851  0.846- 124 1.51  92 1.64  86 1.68 118 1.69  29 2.90  31 2.95  44 3.05
  36  0.544  0.772  0.518-  77 1.49 132 1.62  78 1.66 131 2.23  50 2.32  13 3.01
  37  0.873  0.130  0.218-  97 1.56  85 1.71  91 1.74 119 1.86   7 3.10   8 3.11
  38  0.935  0.869  0.172- 119 1.65  88 1.66 112 1.67  96 1.74  23 2.89  41 3.01
  39  0.893  0.482  0.014-  84 1.53 116 1.62  95 1.66 115 1.69   6 2.89  27 2.98  23 3.07  53 3.12
                             7 3.15
  40  0.880  0.564  0.498- 105 1.66  99 1.66  61 1.76 125 1.87  13 3.09  21 3.11
  41  0.126  0.862  0.318- 101 1.65 129 1.66  65 1.66  96 1.67  38 3.01   1 3.08
  42  0.936  0.316  0.557-  98 1.56 128 1.63 125 1.66  67 1.84  12 2.81   2 3.14
  43  0.260  0.898  0.101-  58 1.59 107 1.67 101 1.74 121 2.02  29 2.90
  44  0.374  0.622  0.808- 110 1.61  86 1.63  66 1.63  64 1.77  54 2.71  29 2.93  35 3.05  49 3.06

  45  0.673  0.402  0.323- 123 1.64  68 1.69  80 1.82  60 2.33
  46  0.644  0.232  0.898-  76 1.59  59 1.62  63 1.70 102 1.87  17 2.80  53 2.83  48 2.93
  47  0.088  0.996  0.627- 103 1.62 109 1.68 111 1.72  71 1.84   1 2.62  33 3.10
  48  0.632  0.186  0.127-  60 1.62  87 1.68  91 1.70  76 1.72  46 2.93
  49  0.208  0.561  0.640-  56 1.55 127 1.57 130 1.62  66 1.67  15 2.77  44 3.06
  50  0.665  0.887  0.437- 104 1.52 134 1.55  78 1.69 132 2.07  36 2.32   8 3.02
  51  0.306  0.037  0.478-  74 1.58  82 1.59 109 1.78 126 1.90
  52  0.512  0.225  0.548-  83 1.47  73 1.69 122 1.71 126 2.02   2 3.15
  53  0.746  0.418  0.823-  62 1.54 115 1.60 114 1.69  63 1.69  46 2.83   2 2.88  54 3.08  39 3.12

  54  0.560  0.547  0.727- 131 1.64  64 1.70 114 1.70 135 1.80  44 2.71  53 3.08   2 3.11
  55  0.685  0.787  0.874-  34 1.66  31 1.80
  56  0.197  0.662  0.569-  49 1.55   9 2.13   5 2.40  15 2.46
  57  0.356  0.390  0.286-  28 1.76  32 1.82   4 2.48
  58  0.366  0.839  0.140-  43 1.59  14 2.18  26 2.28
  59  0.758  0.175  0.876-  46 1.62   7 2.34  12 2.56
  60  0.608  0.252  0.236-  48 1.62  45 2.33   4 2.53
  61  0.740  0.581  0.500-  40 1.76  13 2.46
  62  0.850  0.363  0.788-  53 1.54  10 2.23
  63  0.636  0.340  0.818-  53 1.69  46 1.70
  64  0.491  0.551  0.843-  54 1.70  44 1.77
  65  0.194  0.766  0.379-  41 1.66   5 2.22
  66  0.327  0.566  0.700-  44 1.63  49 1.67
  67  0.038  0.286  0.658-  42 1.84  33 2.01  10 2.23
  68  0.602  0.439  0.432-  45 1.69  18 2.40   2 2.53
  69  0.422  0.626  0.315-  28 1.88  26 2.35
  70  0.500  0.510  0.137-  28 1.65   6 2.28
  71  0.962  0.045  0.572-  47 1.84   1 2.07  12 2.51
  72  0.202  0.316  0.143-  32 1.65  30 1.91
  73  0.413  0.316  0.562-  52 1.69  11 2.39  18 2.52
  74  0.284  0.126  0.391-  51 1.58   4 2.28
  75  0.877  0.890  0.911-  34 1.62  25 2.11  23 2.33
  76  0.621  0.269  0.018-  46 1.59  48 1.72
  77  0.429  0.746  0.504-  36 1.49   9 2.42  26 2.51
  78  0.626  0.865  0.565-  36 1.66  50 1.69  13 2.44
  79  0.139  0.390  0.967-  30 1.55  27 1.93
  80  0.801  0.334  0.338-  45 1.82  19 2.05
  81  0.145  0.814  0.810-  29 1.63  15 2.47
  82  0.327  0.914  0.454-  51 1.59  26 2.26   9 2.41
  83  0.547  0.182  0.445-  52 1.47   8 2.34   4 2.34
  84  0.975  0.537  0.942-  39 1.53  27 2.51
  85  0.974  0.154  0.130-  37 1.71   7 2.21
  86  0.420  0.740  0.776-  44 1.63  35 1.68
  87  0.561  0.075  0.100-  48 1.68  16 2.44
  88  0.014  0.869  0.066-  38 1.66  25 2.15  23 2.42
  89  0.595  0.806  0.114-  31 1.60  20 2.15
  90  0.751  0.916  0.722-  34 1.54  17 2.31
  91  0.760  0.143  0.138-  48 1.70  37 1.74
  92  0.453  0.959  0.773-  35 1.64  24 2.26  17 2.43
  93  0.226  0.263  0.723-  33 1.66  11 2.19  24 2.53
  94  0.859  0.741  0.764-  34 1.90  13 2.16  15 2.56
  95  0.940  0.385  0.091-  39 1.66   7 2.36  19 2.42
  96  0.009  0.814  0.275-  41 1.67  38 1.74
  97  0.881  0.121  0.342-  37 1.56   8 2.21
  98  0.990  0.279  0.452-  42 1.56  19 2.45
  99  0.934  0.673  0.550-  40 1.66  15 2.20
 100  0.333  0.312  0.948-  30 1.60  16 2.47
 101  0.180  0.920  0.212-  41 1.65  43 1.74  22 2.42
 102  0.520  0.157  0.861-  46 1.87  17 2.23  16 2.41
 103  0.079  0.868  0.613-  47 1.62   1 2.15  15 2.31
 104  0.786  0.882  0.436-  50 1.52   1 2.29
 105  0.931  0.552  0.376-  40 1.66  21 2.28   5 2.50  19 2.55
 106  0.197  0.291  0.345-  32 1.55   3 2.02
 107  0.300  0.024  0.106-  43 1.67  16 2.24  22 2.47
 108  0.176  0.181  0.971-  30 1.54
 109  0.202  0.044  0.576-  47 1.68  51 1.78
 110  0.282  0.658  0.890-  44 1.61  29 1.69
 111  0.132  0.072  0.732-  33 1.64  47 1.72
 112  0.818  0.812  0.142-  38 1.67  20 2.31  23 2.41
 113  0.010  0.209  0.837-  33 1.63  12 2.45   7 2.47
 114  0.687  0.528  0.770-  53 1.69  54 1.70
 115  0.790  0.432  0.943-  53 1.60  39 1.69   6 2.38
 116  0.839  0.570  0.092-  39 1.62   6 2.34  21 2.41  23 2.46
 117  0.146  0.466  0.294-  32 1.46   5 2.25
 118  0.326  0.892  0.891-  35 1.69  29 1.81
 119  0.872  0.985  0.184-  38 1.65  37 1.86  20 2.42
 120  0.304  0.542  0.160-  28 1.53  14 2.42  27 2.57
 121  0.186  0.770  0.035-  29 1.77  43 2.02
 122  0.627  0.209  0.620-  52 1.71   2 2.39
 123  0.700  0.501  0.242-  45 1.64   6 2.05  21 2.17
 124  0.512  0.818  0.942-  35 1.51  31 1.62
 125  0.873  0.432  0.568-  42 1.66  40 1.87   2 2.29
 126  0.406  0.106  0.569-  51 1.90  52 2.02  24 2.32
 127  0.118  0.537  0.724-  49 1.57  10 2.12  15 2.31
 128  0.847  0.221  0.558-  42 1.63  12 2.04
 129  0.080  0.972  0.376-  41 1.66   1 2.31
 130  0.261  0.482  0.553-  49 1.62   3 2.18  18 2.28
 131  0.570  0.642  0.637-  54 1.64  36 2.23  13 2.54
 132  0.612  0.732  0.415-  36 1.62  50 2.07
 133  0.665  0.960  0.996-  31 1.59  20 2.41
 134  0.628  0.971  0.354-  50 1.55  20 2.29   8 2.32
 135  0.501  0.447  0.643-  54 1.80  18 2.28  11 2.35
 

IMPORTANT INFORMATION: All symmetrisations will be switched off!
NOSYMM: (Re-)initialisation of all symmetry stuff for point group C_1.

 
 

Automatic generation of k-mesh.
 generate k-points for:    2    2    2
Space group operators:
 irot       det(A)        alpha          n_x          n_y          n_z        tau_x        tau_y        tau_z
    1     1.000000     0.000001     1.000000     0.000000     0.000000     0.000000     0.000000     0.000000
 
 Subroutine IBZKPT returns following result:
 ===========================================
 
 Found      8 irreducible k-points:
 
 Following reciprocal coordinates:
            Coordinates               Weight
  0.000000  0.000000  0.000000      1.000000
  0.500000  0.000000  0.000000      1.000000
  0.000000  0.500000  0.000000      1.000000
  0.500000  0.500000  0.000000      1.000000
  0.000000  0.000000  0.500000      1.000000
  0.500000  0.000000  0.500000      1.000000
  0.000000  0.500000  0.500000      1.000000
  0.500000  0.500000  0.500000      1.000000
 
 Following cartesian coordinates:
            Coordinates               Weight
  0.000000  0.000000  0.000000      1.000000
  0.039917  0.000000  0.000000      1.000000
  0.000000  0.039917  0.000000      1.000000
  0.039917  0.039917  0.000000      1.000000
  0.000000  0.000000  0.039917      1.000000
  0.039917  0.000000  0.039917      1.000000
  0.000000  0.039917  0.039917      1.000000
  0.039917  0.039917  0.039917      1.000000
 


--------------------------------------------------------------------------------------------------------




 Dimension of arrays:
   k-points           NKPTS =      8   k-points in BZ     NKDIM =      8   number of bands    NBANDS=    520
   number of dos      NEDOS =    301   number of ions     NIONS =    135
   non local maximal  LDIM  =      6   non local SUM 2l+1 LMDIM =     18
   total plane-waves  NPLWV = ******
   max r-space proj   IRMAX =   6830   max aug-charges    IRDMAX= 194386
   dimension x,y,z NGX =   100 NGY =  100 NGZ =  100
   dimension x,y,z NGXF=   200 NGYF=  200 NGZF=  200
   support grid    NGXF=   400 NGYF=  400 NGZF=  400
   ions per type =              27  27  81
   NGX,Y,Z   is equivalent  to a cutoff of  13.27, 13.27, 13.27 a.u.
   NGXF,Y,Z  is equivalent  to a cutoff of  26.54, 26.54, 26.54 a.u.

 SYSTEM =  unknown system                          
 POSCAR =  Ca Si  O                                

 Startparameter for this run:
   NWRITE =      2    write-flag & timer
   PREC   = a         normal or accurate (medium, high low for compatibility)
   ISTART =      0    job   : 0-new  1-cont  2-samecut
   ICHARG =      2    charge: 1-file 2-atom 10-const
   ISPIN  =      1    spin polarized calculation?
   LNONCOLLINEAR =      F non collinear calculations
   LSORBIT =      F    spin-orbit coupling
   INIWAV =      1    electr: 0-lowe 1-rand  2-diag
   LASPH  =      F    aspherical Exc in radial PAW
   METAGGA=      F    non-selfconsistent MetaGGA calc.

 Electronic Relaxation 1
   ENCUT  =  600.0 eV  44.10 Ry    6.64 a.u.  25.02 25.02 25.02*2*pi/ulx,y,z
   ENINI  =  600.0     initial cutoff
   ENAUG  =  605.4 eV  augmentation charge cutoff
   NELM   =     60;   NELMIN=  2; NELMDL= -5     # of ELM steps 
   EDIFF  = 0.1E-05   stopping-criterion for ELM
   LREAL  =      T    real-space projection
   NLSPLINE    = F    spline interpolate recip. space projectors
   LCOMPAT=      F    compatible to vasp.4.4
   GGA_COMPAT  = T    GGA compatible to vasp.4.4-vasp.4.6
   LMAXPAW     = -100 max onsite density
   LMAXMIX     =    2 max onsite mixed and CHGCAR
   VOSKOWN=      0    Vosko Wilk Nusair interpolation
   ROPT   =   -0.00025  -0.00025  -0.00025
 Ionic relaxation
   EDIFFG = -.1E-01   stopping-criterion for IOM
   NSW    =      1    number of steps for IOM
   NBLOCK =      1;   KBLOCK =      1    inner block; outer block 
   IBRION =     -1    ionic relax: 0-MD 1-quasi-New 2-CG
   NFREE  =      0    steps in history (QN), initial steepest desc. (CG)
   ISIF   =      2    stress and relaxation
   IWAVPR =     10    prediction:  0-non 1-charg 2-wave 3-comb
   ISYM   =      0    0-nonsym 1-usesym 2-fastsym
   LCORR  =      T    Harris-Foulkes like correction to forces

   POTIM  = 1.0000    time-step for ionic-motion
   TEIN   =    0.0    initial temperature
   TEBEG  =    0.0;   TEEND  =   0.0 temperature during run
   SMASS  =  -3.00    Nose mass-parameter (am)
   estimated Nose-frequenzy (Omega)   =  0.10E-29 period in steps =****** mass=  -0.359E-26a.u.
   SCALEE = 1.0000    scale energy and forces
   NPACO  =    256;   APACO  = 16.0  distance and # of slots for P.C.
   PSTRESS=    0.0 pullay stress

  Mass of Ions in am
   POMASS =  40.08 28.09 16.00
  Ionic Valenz
   ZVAL   =  10.00  4.00  6.00
  Atomic Wigner-Seitz radii
   RWIGS  =  -1.00 -1.00 -1.00
  virtual crystal weights 
   VCA    =   1.00  1.00  1.00
   NELECT =     864.0000    total number of electrons
   NUPDOWN=      -1.0000    fix difference up-down

 DOS related values:
   EMIN   =  10.00;   EMAX   =-10.00  energy-range for DOS
   EFERMI =   0.00
   ISMEAR =     0;   SIGMA  =   0.05  broadening in eV -4-tet -1-fermi 0-gaus

 Electronic relaxation 2 (details)
   IALGO  =     38    algorithm
   LDIAG  =      T    sub-space diagonalisation (order eigenvalues)
   LSUBROT=      F    optimize rotation matrix (better conditioning)
   TURBO    =      0    0=normal 1=particle mesh
   IRESTART =      0    0=no restart 2=restart with 2 vectors
   NREBOOT  =      0    no. of reboots
   NMIN     =      0    reboot dimension
   EREF     =   0.00    reference energy to select bands
   IMIX   =      4    mixing-type and parameters
     AMIX     =   0.40;   BMIX     =  1.00
     AMIX_MAG =   1.60;   BMIX_MAG =  1.00
     AMIN     =   0.10
     WC   =   100.;   INIMIX=   1;  MIXPRE=   1;  MAXMIX= -45

 Intra band minimization:
   WEIMIN = 0.0000     energy-eigenvalue tresh-hold
   EBREAK =  0.48E-09  absolut break condition
   DEPER  =   0.30     relativ break condition  

   TIME   =   0.40     timestep for ELM

  volume/ion in A,a.u.               =      14.56        98.24
  Fermi-wavevector in a.u.,A,eV,Ry     =   1.244795  2.352322 21.082433  1.549515
  Thomas-Fermi vector in A             =   2.379046
 
 Write flags
   LWAVE        =      F    write WAVECAR
   LDOWNSAMPLE  =      F    k-point downsampling of WAVECAR
   LCHARG       =      F    write CHGCAR
   LVTOT        =      F    write LOCPOT, total local potential
   LVHAR        =      F    write LOCPOT, Hartree potential only
   LELF         =      F    write electronic localiz. function (ELF)
   LORBIT       =      0    0 simple, 1 ext, 2 COOP (PROOUT), +10 PAW based schemes


 Dipole corrections
   LMONO  =      F    monopole corrections only (constant potential shift)
   LDIPOL =      F    correct potential (dipole corrections)
   IDIPOL =      0    1-x, 2-y, 3-z, 4-all directions 
   EPSILON=  1.0000000 bulk dielectric constant

 Exchange correlation treatment:
   GGA     =    --    GGA type
   LEXCH   =     8    internal setting for exchange type
   VOSKOWN=      0    Vosko Wilk Nusair interpolation
   LHFCALC =     F    Hartree Fock is set to
   LHFONE  =     F    Hartree Fock one center treatment
   AEXX    =    0.0000 exact exchange contribution

 Linear response parameters
   LEPSILON=     F    determine dielectric tensor
   LRPA    =     F    only Hartree local field effects (RPA)
   LNABLA  =     F    use nabla operator in PAW spheres
   LVEL    =     F    velocity operator in full k-point grid
   LINTERFAST=   F  fast interpolation
   KINTER  =     0    interpolate to denser k-point grid
   CSHIFT  =0.1000    complex shift for real part using Kramers Kronig
   OMEGAMAX=  -1.0    maximum frequency
   DEG_THRESHOLD= 0.2000000E-02 threshold for treating states as degnerate
   RTIME   =   -0.100 relaxation time in fs
  (WPLASMAI=    0.000 imaginary part of plasma frequency in eV, 0.658/RTIME)
   DFIELD  = 0.0000000 0.0000000 0.0000000 field for delta impulse in time
 
 Orbital magnetization related:
   ORBITALMAG=     F  switch on orbital magnetization
   LCHIMAG   =     F  perturbation theory with respect to B field
   DQ        =  0.001000  dq finite difference perturbation B field
   LLRAUG    =     F  two centre corrections for induced B field



--------------------------------------------------------------------------------------------------------


 Static calculation
 charge density and potential will be updated during run
 non-spin polarized calculation
 Variant of blocked Davidson
 Davidson routine will perform the subspace rotation
 perform sub-space diagonalisation
    after iterative eigenvector-optimisation
 modified Broyden-mixing scheme, WC =      100.0
 initial mixing is a Kerker type mixing with AMIX =  0.4000 and BMIX =      1.0000
 Hartree-type preconditioning will be used
 using additional bands           88
 real space projection scheme for non local part
 use partial core corrections
 calculate Harris-corrections to forces 
   (improved forces if not selfconsistent)
 use gradient corrections 
 use of overlap-Matrix (Vanderbilt PP)
 Gauss-broadening in eV      SIGMA  =   0.05


--------------------------------------------------------------------------------------------------------


  energy-cutoff  :      600.00
  volume of cell :     1965.37
      direct lattice vectors                 reciprocal lattice vectors
    12.526070000  0.000000000  0.000000000     0.079833499  0.000000000  0.000000000
     0.000000000 12.526070000  0.000000000     0.000000000  0.079833499  0.000000000
     0.000000000  0.000000000 12.526070000     0.000000000  0.000000000  0.079833499

  length of vectors
    12.526070000 12.526070000 12.526070000     0.079833499  0.079833499  0.079833499


 
 k-points in units of 2pi/SCALE and weight: read from INCAR                         
   0.00000000  0.00000000  0.00000000       0.125
   0.03991675  0.00000000  0.00000000       0.125
   0.00000000  0.03991675  0.00000000       0.125
   0.03991675  0.03991675  0.00000000       0.125
   0.00000000  0.00000000  0.03991675       0.125
   0.03991675  0.00000000  0.03991675       0.125
   0.00000000  0.03991675  0.03991675       0.125
   0.03991675  0.03991675  0.03991675       0.125
 
 k-points in reciprocal lattice and weights: read from INCAR                         
   0.00000000  0.00000000  0.00000000       0.125
   0.50000000  0.00000000  0.00000000       0.125
   0.00000000  0.50000000  0.00000000       0.125
   0.50000000  0.50000000  0.00000000       0.125
   0.00000000  0.00000000  0.50000000       0.125
   0.50000000  0.00000000  0.50000000       0.125
   0.00000000  0.50000000  0.50000000       0.125
   0.50000000  0.50000000  0.50000000       0.125
 
 position of ions in fractional coordinates (direct lattice) 
   0.95832246  0.89900779  0.49468754
   0.69931783  0.38492586  0.60037254
   0.20122001  0.32545115  0.50272810
   0.42443612  0.20543038  0.30630763
   0.12141477  0.60633499  0.40238314
   0.67222027  0.48630047  0.08178322
   0.89242044  0.23120391  0.99323567
   0.72062327  0.11973635  0.41397001
   0.27761488  0.80716706  0.60615372
   0.02108108  0.41189185  0.78299602
   0.37460833  0.35276811  0.74497894
   0.87180015  0.16231084  0.70739873
   0.75278974  0.73010356  0.62816797
   0.40185916  0.68301393  0.07260195
   0.04336860  0.70128749  0.68525287
   0.39980918  0.13781593  0.01050860
   0.63092231  0.03037879  0.80288982
   0.42900085  0.50094382  0.48528730
   0.95105894  0.37156064  0.28401885
   0.68626077  0.93315580  0.18545488
   0.80764903  0.63425930  0.27095029
   0.16740567  0.11243137  0.22258171
   0.90631200  0.72590944  0.99354783
   0.35503086  0.10914568  0.74748495
   0.01768391  0.97907510  0.93380592
   0.38603982  0.80988174  0.31875259
   0.12268384  0.50128415  0.07247961
   0.40178710  0.50809105  0.22466584
   0.23219314  0.78286281  0.90204992
   0.21442626  0.29585483  0.99226927
   0.62834175  0.83832180  0.99524633
   0.21365024  0.37786083  0.25863255
   0.11912410  0.19798548  0.76591142
   0.78530167  0.85841314  0.82504527
   0.44652291  0.85113930  0.84589051
   0.54395447  0.77184751  0.51751250
   0.87312994  0.12971989  0.21822474
   0.93455347  0.86939272  0.17169882
   0.89290458  0.48198993  0.01370834
   0.87953238  0.56374353  0.49761530
   0.12558149  0.86235874  0.31772006
   0.93628692  0.31618641  0.55746290
   0.26002902  0.89756096  0.10100411
   0.37398490  0.62223496  0.80759373
   0.67348774  0.40231313  0.32304746
   0.64360388  0.23168107  0.89837565
   0.08826379  0.99556550  0.62739310
   0.63155237  0.18557040  0.12725418
   0.20785496  0.56079295  0.63979676
   0.66490135  0.88662435  0.43726222
   0.30572596  0.03729837  0.47837333
   0.51183130  0.22508700  0.54846542
   0.74634765  0.41835413  0.82300266
   0.56014586  0.54746083  0.72676377
   0.68504416  0.78695607  0.87407529
   0.19689907  0.66225876  0.56919608
   0.35552208  0.39013349  0.28593099
   0.36605483  0.83913098  0.14010675
   0.75774192  0.17529736  0.87619988
   0.60797859  0.25168628  0.23612613
   0.74014299  0.58113531  0.50041283
   0.85034563  0.36296907  0.78842624
   0.63604862  0.34036276  0.81756970
   0.49089131  0.55133041  0.84332041
   0.19378852  0.76608630  0.37879551
   0.32674724  0.56649026  0.70005932
   0.03806770  0.28587133  0.65841731
   0.60219439  0.43883552  0.43154107
   0.42182441  0.62610080  0.31469638
   0.49999019  0.50950752  0.13681319
   0.96174147  0.04537469  0.57163537
   0.20211438  0.31550635  0.14301974
   0.41342732  0.31584262  0.56222247
   0.28448664  0.12615904  0.39112632
   0.87680778  0.88999404  0.91099317
   0.62054743  0.26863464  0.01797556
   0.42907636  0.74602165  0.50355526
   0.62629918  0.86456918  0.56486855
   0.13881315  0.39043240  0.96672551
   0.80141235  0.33416927  0.33764892
   0.14527850  0.81428765  0.81008652
   0.32652625  0.91426318  0.45355655
   0.54748241  0.18181680  0.44510719
   0.97489140  0.53693180  0.94158833
   0.97357647  0.15432113  0.12958066
   0.41964946  0.73953541  0.77598787
   0.56063261  0.07483893  0.10042704
   0.01410918  0.86939379  0.06605372
   0.59537917  0.80604856  0.11449103
   0.75088768  0.91619665  0.72249437
   0.76026650  0.14261695  0.13785709
   0.45292982  0.95943718  0.77297622
   0.22641820  0.26316096  0.72262836
   0.85900176  0.74071483  0.76360123
   0.93958517  0.38528921  0.09131238
   0.00918239  0.81402649  0.27478722
   0.88139650  0.12053112  0.34180277
   0.98974401  0.27910506  0.45166467
   0.93411103  0.67260558  0.55034952
   0.33304551  0.31222400  0.94834262
   0.18007422  0.92031286  0.21244814
   0.52015895  0.15672209  0.86142307
   0.07905271  0.86752042  0.61295604
   0.78578287  0.88158533  0.43625914
   0.93091743  0.55191241  0.37592839
   0.19684190  0.29072856  0.34543473
   0.29991655  0.02442741  0.10624924
   0.17610753  0.18144484  0.97066146
   0.20246184  0.04423899  0.57573825
   0.28219187  0.65810056  0.89007196
   0.13225913  0.07221714  0.73213807
   0.81826220  0.81197092  0.14182488
   0.01045358  0.20856021  0.83718549
   0.68741641  0.52750192  0.77001529
   0.78987687  0.43203657  0.94271730
   0.83894565  0.56954939  0.09217230
   0.14571605  0.46577975  0.29376946
   0.32630157  0.89241810  0.89147523
   0.87244827  0.98496259  0.18378809
   0.30363225  0.54178048  0.16041650
   0.18593574  0.77014004  0.03493722
   0.62733893  0.20927640  0.61959643
   0.70022051  0.50139807  0.24226189
   0.51190438  0.81825063  0.94211515
   0.87262131  0.43215702  0.56846409
   0.40568021  0.10597835  0.56937417
   0.11807446  0.53698401  0.72400273
   0.84696494  0.22122111  0.55799987
   0.07980655  0.97192708  0.37612167
   0.26068486  0.48152925  0.55274442
   0.57025734  0.64232041  0.63664128
   0.61173918  0.73196361  0.41476490
   0.66540513  0.95960047  0.99629275
   0.62829924  0.97081666  0.35436318
   0.50074382  0.44698398  0.64320596
 
 position of ions in cartesian coordinates  (Angst):
  12.00401422 11.26103453  6.19649077
   8.75970411  4.82160831  7.52030848
   2.52049595  4.07662385  6.29720743
   5.31651658  2.57323532  3.83683084
   1.52084992  7.59499449  5.04027944
   8.42027819  6.09143369  1.02442240
  11.17852094  2.89607637 12.44133959
   9.02657748  1.49982588  5.18541732
   3.47742338 10.11063105  7.59272387
   0.26406307  5.15938609  9.80786290
   4.69237014  4.41879802  9.33165840
  10.92022965  2.03311691  8.86092599
   9.42949698  9.14532836  7.86847596
   5.03371591  8.55548027  0.90941713
   0.54323815  8.78437616  8.58352547
   5.00803775  1.72629195  0.13163146
   7.90297707  0.38052691 10.05705407
   5.37369469  6.27485741  6.07874270
  11.91303087  4.65419456  3.55764002
   8.59615040 11.68877481  2.32302082
  10.11666832  7.94477638  3.39394233
   2.09693512  1.40832316  2.78807407
  11.35252757  9.09279249 12.44524961
   4.44714137  1.36716639  9.36304881
   0.22150993 12.26396318 11.69691827
   4.83556185 10.14463541  3.99271731
   1.53674635  6.27912035  0.90788467
   5.03281333  6.36438406  2.81418004
   2.90846749  9.80619430 11.29914048
   2.68591834  3.70589826 12.42923437
   7.87065272 10.50087756 12.46652519
   2.67619785  4.73311116  3.23964947
   1.49215683  2.47997996  9.59386004
   9.83674368 10.75254305 10.33457480
   5.59317728 10.66143049 10.59568380
   6.81361175  9.66821591  6.48239775
  10.93688681  1.62488047  2.73349842
  11.70628214 10.89007402  2.15071149
  11.18458527  6.03743954  0.17171164
  11.01708416  7.06149094  6.23316405
   1.57304256 10.80196590  3.97978376
  11.72799549  3.96057315  6.98281926
   3.25714174 11.24291142  1.26518453
   4.68456108  7.79415870 10.11597558
   8.43615452  5.03940246  4.04651506
   8.06182722  2.90205330 11.25311632
   1.10559843 12.47052318  7.85876985
   7.91086925  2.32446787  1.59399471
   2.60360583  7.02453176  8.01413896
   8.32860090 11.10591871  5.47717720
   3.82954478  0.46720201  5.99213784
   6.41123463  2.81945552  6.87011622
   9.34880285  5.24033311 10.30898899
   7.01642627  6.85753270  9.10349388
   8.58091104  9.85746684 10.94872824
   2.46637154  8.29549957  7.12978989
   4.45329452  4.88683935  3.58159154
   4.58522842 10.51101342  1.75498694
   9.49152829  2.19578702 10.97534098
   7.61558241  3.15263993  2.95773248
   9.27108295  7.27934156  6.26820613
  10.65148888  4.54657601  9.87588232
   7.96718953  4.26340774 10.24093530
   6.14893892  6.90600337 10.56349054
   2.42740857  9.59605062  4.74481910
   4.09285878  7.09589660  8.76899200
   0.47683867  3.58084434  8.24738135
   7.54312905  5.49688438  5.40551368
   5.28380214  7.84258244  3.94190890
   6.26291217  6.38212683  1.71373161
  12.04684098  0.56836657  7.16034465
   2.53169886  3.95205467  1.79147530
   5.17861950  3.95626675  7.04243801
   3.56349957  1.58027694  4.89927572
  10.98295568 11.14812759 11.41116419
   7.77302054  3.36493627  0.22516315
   5.37464058  9.34471945  6.30756840
   7.84506736 10.82965408  7.07558295
   1.73878325  4.89058358 12.10927145
  10.03854715  4.18582769  4.22941403
   1.81976868 10.19982408 10.14720044
   4.09009066 11.45212465  5.68128114
   6.85780297  2.27744996  5.57544380
  12.21155795  6.72564529 11.79440128
  12.19508706  1.93303733  1.62313639
   5.25655846  9.26347232  9.72007832
   7.02252334  0.93743767  1.25795614
   0.17673254 10.89008744  0.82739346
   7.45776120 10.09662063  1.43412264
   9.40567166 11.47634342  9.05001500
   9.52315136  1.78642995  1.72680756
   5.67343063 12.01797729  9.68235419
   2.83613017  3.29637261  9.05169347
  10.75991620  9.27824575  9.56492247
  11.76930956  4.82615964  1.14378525
   0.11501925 10.19655274  3.44200398
  11.04043424  1.50978120  4.28144548
  12.39760277  3.49608952  5.65758333
  11.70074012  8.42510461  6.89371663
   4.17175139  3.91093965 11.87900600
   2.25562233 11.52790330  2.66114029
   6.51554737  1.96311181 10.79024572
   0.99021979 10.86662152  7.67793022
   9.84277121 11.04279953  5.46461247
  11.66073687  6.91329348  4.70890537
   2.46565544  3.64168632  4.32693966
   3.75677568  0.30597940  1.33088538
   2.20593529  2.27279077 12.15857344
   2.53605119  0.55414067  7.21173764
   3.53475517  8.24341368 11.14910372
   1.65668717  0.90459693  9.17081274
  10.24960954 10.17080464  1.77650842
   0.13094229  2.61243978 10.48664410
   8.61062603  6.60752595  9.64526537
   9.89405299  5.41172029 11.80854295
  10.50869195  7.13421554  1.15455672
   1.82524945  5.83438970  3.67977684
   4.08727630 11.17849163 11.16668118
  10.92834809 12.33771031  2.30214246
   3.80331888  6.78638022  2.00938832
   2.32904413  9.64682810  0.43762602
   7.85809139  2.62141087  7.76110828
   8.77101109  6.28054729  3.03458933
   6.41215011 10.24946464 11.80100033
  10.93051557  5.41322910  7.12062094
   5.08157865  1.32749221  7.13202071
   1.47900899  6.72629932  9.06890890
  10.60914209  2.77103105  6.98954541
   0.99966245 12.17442669  4.71132636
   3.26535679  6.03166905  6.92371530
   7.14308333  8.04575037  7.97461322
   7.66268780  9.16862736  5.19537423
   8.33491122 12.02002262 12.47963275
   7.87012028 12.16051740  4.43877795
   6.27235215  5.59895267  8.05684284
 


--------------------------------------------------------------------------------------------------------


 k-point  1 :   0.0000 0.0000 0.0000  plane waves:   65267
 k-point  2 :   0.5000 0.0000 0.0000  plane waves:   65554
 k-point  3 :   0.0000 0.5000 0.0000  plane waves:   65554
 k-point  4 :   0.5000 0.5000 0.0000  plane waves:   65600
 k-point  5 :   0.0000 0.0000 0.5000  plane waves:   65554
 k-point  6 :   0.5000 0.0000 0.5000  plane waves:   65600
 k-point  7 :   0.0000 0.5000 0.5000  plane waves:   65600
 k-point  8 :   0.5000 0.5000 0.5000  plane waves:   65752

 maximum and minimum number of plane-waves per node :      5500     5389

 maximum number of plane-waves:     65752
 maximum index in each direction: 
   IXMAX=   25   IYMAX=   25   IZMAX=   25
   IXMIN=  -25   IYMIN=  -25   IZMIN=  -25


 real space projection operators:
  total allocation   :      46810.20 KBytes
  max/ min on nodes  :       4265.34       3640.95


 parallel 3D FFT for wavefunctions:
    minimum data exchange during FFTs selected (reduces bandwidth)
 parallel 3D FFT for charge:
    minimum data exchange during FFTs selected (reduces bandwidth)


 total amount of memory used by VASP MPI-rank0   190108. kBytes
=======================================================================

   base      :      30000. kBytes
   nonlr-proj:      20903. kBytes
   fftplans  :      28860. kBytes
   grid      :      16510. kBytes
   one-center:        186. kBytes
   wavefun   :      93649. kBytes
 
     INWAV:  cpu time    0.0000: real time    0.0003
 Broyden mixing: mesh for mixing (old mesh)
   NGX = 51   NGY = 51   NGZ = 51
  (NGX  =200   NGY  =200   NGZ  =200)
  gives a total of 132651 points

 initial charge density was supplied:
 charge density of overlapping atoms calculated
 number of electron     864.0000000 magnetization 
 keeping initial charge density in first step


--------------------------------------------------------------------------------------------------------


 Maximum index for non-local projection operator          837
 Maximum index for augmentation-charges         7069 (set IRDMAX)


--------------------------------------------------------------------------------------------------------


 First call to EWALD:  gamma=   0.142
 Maximum number of real-space cells 3x 3x 3
 Maximum number of reciprocal cells 3x 3x 3

    FEWALD:  cpu time    0.0069: real time    0.0069


--------------------------------------- Iteration      1(   1)  ---------------------------------------


    POTLOK:  cpu time    0.1350: real time    0.1414
    SETDIJ:  cpu time    0.3052: real time    0.3060
     EDDAV:  cpu time   43.7247: real time   43.8516
       DOS:  cpu time    0.0022: real time    0.0022
    --------------------------------------------
      LOOP:  cpu time   44.1671: real time   44.3013

 eigenvalue-minimisations  :  8320
 total energy-change (2. order) : 0.9377071E+04  (-0.4725312E+05)
 number of electron     864.0000000 magnetization 
 augmentation part      864.0000000 magnetization 

 Free energy of the ion-electron system (eV)
  ---------------------------------------------------
  alpha Z        PSCENC =      2431.37857233
  Ewald energy   TEWEN  =    -43166.71244358
  -Hartree energ DENC   =    -19200.28981049
  -exchange      EXHF   =         0.00000000
  -V(xc)+E(xc)   XCENC  =      3151.12685673
  PAW double counting   =     50594.51003143   -49994.65612350
  entropy T*S    EENTRO =        -0.02993017
  eigenvalues    EBANDS =       593.20365092
  atomic energy  EATOM  =     64968.54023382
  Solvation  Ediel_sol  =         0.00000000
  ---------------------------------------------------
  free energy    TOTEN  =      9377.07103749 eV

  energy without entropy =     9377.10096766  energy(sigma->0) =     9377.08600258


--------------------------------------------------------------------------------------------------------




--------------------------------------- Iteration      1(   2)  ---------------------------------------


     EDDAV:  cpu time   50.2030: real time   50.3700
       DOS:  cpu time    0.0009: real time    0.0009
    --------------------------------------------
      LOOP:  cpu time   50.2039: real time   50.3709

 eigenvalue-minimisations  :  9936
 total energy-change (2. order) :-0.9411812E+04  (-0.9134449E+04)
 number of electron     864.0000000 magnetization 
 augmentation part      864.0000000 magnetization 

 Free energy of the ion-electron system (eV)
  ---------------------------------------------------
  alpha Z        PSCENC =      2431.37857233
  Ewald energy   TEWEN  =    -43166.71244358
  -Hartree energ DENC   =    -19200.28981049
  -exchange      EXHF   =         0.00000000
  -V(xc)+E(xc)   XCENC  =      3151.12685673
  PAW double counting   =     50594.51003143   -49994.65612350
  entropy T*S    EENTRO =        -0.00000000
  eigenvalues    EBANDS =     -8818.63875028
  atomic energy  EATOM  =     64968.54023382
  Solvation  Ediel_sol  =         0.00000000
  ---------------------------------------------------
  free energy    TOTEN  =       -34.74143353 eV

  energy without entropy =      -34.74143353  energy(sigma->0) =      -34.74143353


--------------------------------------------------------------------------------------------------------




--------------------------------------- Iteration      1(   3)  ---------------------------------------


     EDDAV:  cpu time   51.3926: real time   51.5844
       DOS:  cpu time    0.0010: real time    0.0009
    --------------------------------------------
      LOOP:  cpu time   51.3936: real time   51.5853

 eigenvalue-minimisations  : 10248
 total energy-change (2. order) :-0.1004277E+04  (-0.9983625E+03)
 number of electron     864.0000000 magnetization 
 augmentation part      864.0000000 magnetization 

 Free energy of the ion-electron system (eV)
  ---------------------------------------------------
  alpha Z        PSCENC =      2431.37857233
  Ewald energy   TEWEN  =    -43166.71244358
  -Hartree energ DENC   =    -19200.28981049
  -exchange      EXHF   =         0.00000000
  -V(xc)+E(xc)   XCENC  =      3151.12685673
  PAW double counting   =     50594.51003143   -49994.65612350
  entropy T*S    EENTRO =        -0.00000000
  eigenvalues    EBANDS =     -9822.91592496
  atomic energy  EATOM  =     64968.54023382
  Solvation  Ediel_sol  =         0.00000000
  ---------------------------------------------------
  free energy    TOTEN  =     -1039.01860821 eV

  energy without entropy =    -1039.01860821  energy(sigma->0) =    -1039.01860821


--------------------------------------------------------------------------------------------------------




--------------------------------------- Iteration      1(   4)  ---------------------------------------


     EDDAV:  cpu time   53.9007: real time   54.0034
       DOS:  cpu time    0.0008: real time    0.0008
    --------------------------------------------
      LOOP:  cpu time   53.9015: real time   54.0042

 eigenvalue-minimisations  : 10832
 total energy-change (2. order) :-0.4825632E+02  (-0.4808120E+02)
 number of electron     864.0000000 magnetization 
 augmentation part      864.0000000 magnetization 

 Free energy of the ion-electron system (eV)
  ---------------------------------------------------
  alpha Z        PSCENC =      2431.37857233
  Ewald energy   TEWEN  =    -43166.71244358
  -Hartree energ DENC   =    -19200.28981049
  -exchange      EXHF   =         0.00000000
  -V(xc)+E(xc)   XCENC  =      3151.12685673
  PAW double counting   =     50594.51003143   -49994.65612350
  entropy T*S    EENTRO =        -0.00000000
  eigenvalues    EBANDS =     -9871.17224213
  atomic energy  EATOM  =     64968.54023382
  Solvation  Ediel_sol  =         0.00000000
  ---------------------------------------------------
  free energy    TOTEN  =     -1087.27492538 eV

  energy without entropy =    -1087.27492538  energy(sigma->0) =    -1087.27492538


--------------------------------------------------------------------------------------------------------




--------------------------------------- Iteration      1(   5)  ---------------------------------------


     EDDAV:  cpu time   72.2351: real time   72.4447
       DOS:  cpu time    0.0010: real time    0.0010
    CHARGE:  cpu time    1.7872: real time    1.7883
    MIXING:  cpu time    0.0085: real time    0.0088
    --------------------------------------------
      LOOP:  cpu time   74.0318: real time   74.2428

 eigenvalue-minimisations  : 15424
 total energy-change (2. order) :-0.5790878E+01  (-0.5787696E+01)
 number of electron     864.0000007 magnetization 
 augmentation part      134.0223957 magnetization 

 Broyden mixing:
  rms(total) = 0.85768E+01    rms(broyden)= 0.85762E+01
  rms(prec ) = 0.10080E+02
  weight for this iteration     100.00

 Free energy of the ion-electron system (eV)
  ---------------------------------------------------
  alpha Z        PSCENC =      2431.37857233
  Ewald energy   TEWEN  =    -43166.71244358
  -Hartree energ DENC   =    -19200.28981049
  -exchange      EXHF   =         0.00000000
  -V(xc)+E(xc)   XCENC  =      3151.12685673
  PAW double counting   =     50594.51003143   -49994.65612350
  entropy T*S    EENTRO =        -0.00000000
  eigenvalues    EBANDS =     -9876.96311979
  atomic energy  EATOM  =     64968.54023382
  Solvation  Ediel_sol  =         0.00000000
  ---------------------------------------------------
  free energy    TOTEN  =     -1093.06580304 eV

  energy without entropy =    -1093.06580304  energy(sigma->0) =    -1093.06580304


--------------------------------------------------------------------------------------------------------




--------------------------------------- Iteration      1(   6)  ---------------------------------------


    POTLOK:  cpu time    0.1303: real time    0.1376
    SETDIJ:  cpu time    0.3024: real time    0.3029
     EDDAV:  cpu time   52.4993: real time   52.6273
       DOS:  cpu time    0.0010: real time    0.0010
    CHARGE:  cpu time    1.7908: real time    1.7948
    MIXING:  cpu time    0.0078: real time    0.0079
    --------------------------------------------
      LOOP:  cpu time   54.7316: real time   54.8715

 eigenvalue-minimisations  : 10496
 total energy-change (2. order) : 0.1515356E+03  (-0.7299139E+02)
 number of electron     864.0000006 magnetization 
 augmentation part      119.9194273 magnetization 

 Broyden mixing:
  rms(total) = 0.37037E+01    rms(broyden)= 0.37027E+01
  rms(prec ) = 0.39129E+01
  weight for this iteration     100.00

 eigenvalues of (default mixing * dielectric matrix)
  average eigenvalue GAMMA=   1.0002
  1.0002

 Free energy of the ion-electron system (eV)
  ---------------------------------------------------
  alpha Z        PSCENC =      2431.37857233
  Ewald energy   TEWEN  =    -43166.71244358
  -Hartree energ DENC   =    -20655.53836741
  -exchange      EXHF   =         0.00000000
  -V(xc)+E(xc)   XCENC  =      3246.75680774
  PAW double counting   =     65547.75289675   -65093.79820881
  entropy T*S    EENTRO =        -0.00000000
  eigenvalues    EBANDS =     -8219.90969721
  atomic energy  EATOM  =     64968.54023382
  Solvation  Ediel_sol  =         0.00000000
  ---------------------------------------------------
  free energy    TOTEN  =      -941.53020636 eV

  energy without entropy =     -941.53020636  energy(sigma->0) =     -941.53020636


--------------------------------------------------------------------------------------------------------




--------------------------------------- Iteration      1(   7)  ---------------------------------------


    POTLOK:  cpu time    0.1305: real time    0.1373
    SETDIJ:  cpu time    0.3021: real time    0.3024
     EDDAV:  cpu time   55.7011: real time   55.9216
       DOS:  cpu time    0.0010: real time    0.0010
    CHARGE:  cpu time    1.7673: real time    1.7721
    MIXING:  cpu time    0.0066: real time    0.0066
    --------------------------------------------
      LOOP:  cpu time   57.9086: real time   58.1410

 eigenvalue-minimisations  : 11256
 total energy-change (2. order) :-0.1825021E+01  (-0.7141791E+01)
 number of electron     864.0000006 magnetization 
 augmentation part      119.0895962 magnetization 

 Broyden mixing:
  rms(total) = 0.18359E+01    rms(broyden)= 0.18359E+01
  rms(prec ) = 0.20049E+01
  weight for this iteration     100.00

 eigenvalues of (default mixing * dielectric matrix)
  average eigenvalue GAMMA=   1.2200
  1.2200  1.2200

 Free energy of the ion-electron system (eV)
  ---------------------------------------------------
  alpha Z        PSCENC =      2431.37857233
  Ewald energy   TEWEN  =    -43166.71244358
  -Hartree energ DENC   =    -20719.76773468
  -exchange      EXHF   =         0.00000000
  -V(xc)+E(xc)   XCENC  =      3249.07560489
  PAW double counting   =     78294.96610195   -77897.95832986
  entropy T*S    EENTRO =        -0.00000000
  eigenvalues    EBANDS =     -8102.87723254
  atomic energy  EATOM  =     64968.54023382
  Solvation  Ediel_sol  =         0.00000000
  ---------------------------------------------------
  free energy    TOTEN  =      -943.35522767 eV

  energy without entropy =     -943.35522767  energy(sigma->0) =     -943.35522767


--------------------------------------------------------------------------------------------------------




--------------------------------------- Iteration      1(   8)  ---------------------------------------


    POTLOK:  cpu time    0.1315: real time    0.1383
    SETDIJ:  cpu time    0.3025: real time    0.3033
     EDDAV:  cpu time   51.2491: real time   51.5238
       DOS:  cpu time    0.0012: real time    0.0012
    CHARGE:  cpu time    1.7776: real time    1.7788
    MIXING:  cpu time    0.0081: real time    0.0081
    --------------------------------------------
      LOOP:  cpu time   53.4701: real time   53.7536

 eigenvalue-minimisations  : 10160
 total energy-change (2. order) : 0.1417924E+01  (-0.1216889E+01)
 number of electron     864.0000006 magnetization 
 augmentation part      119.5810975 magnetization 

 Broyden mixing:
  rms(total) = 0.77859E+00    rms(broyden)= 0.77849E+00
  rms(prec ) = 0.90589E+00
  weight for this iteration     100.00

 eigenvalues of (default mixing * dielectric matrix)
  average eigenvalue GAMMA=   1.3371
  2.1386  0.9364  0.9364

 Free energy of the ion-electron system (eV)
  ---------------------------------------------------
  alpha Z        PSCENC =      2431.37857233
  Ewald energy   TEWEN  =    -43166.71244358
  -Hartree energ DENC   =    -20727.40666604
  -exchange      EXHF   =         0.00000000
  -V(xc)+E(xc)   XCENC  =      3247.97083096
  PAW double counting   =     86073.99733832   -85718.19127077
  entropy T*S    EENTRO =        -0.00000000
  eigenvalues    EBANDS =     -8051.51389916
  atomic energy  EATOM  =     64968.54023382
  Solvation  Ediel_sol  =         0.00000000
  ---------------------------------------------------
  free energy    TOTEN  =      -941.93730412 eV

  energy without entropy =     -941.93730412  energy(sigma->0) =     -941.93730412


--------------------------------------------------------------------------------------------------------




--------------------------------------- Iteration      1(   9)  ---------------------------------------


    POTLOK:  cpu time    0.1301: real time    0.1381
    SETDIJ:  cpu time    0.3037: real time    0.3039
     EDDAV:  cpu time   53.0586: real time   53.1794
       DOS:  cpu time    0.0010: real time    0.0010
    CHARGE:  cpu time    1.7872: real time    1.7885
    MIXING:  cpu time    0.0078: real time    0.0078
    --------------------------------------------
      LOOP:  cpu time   55.2885: real time   55.4187

 eigenvalue-minimisations  : 10680
 total energy-change (2. order) : 0.3840674E+00  (-0.2550737E+00)
 number of electron     864.0000006 magnetization 
 augmentation part      118.8901134 magnetization 

 Broyden mixing:
  rms(total) = 0.23001E+00    rms(broyden)= 0.22999E+00
  rms(prec ) = 0.28210E+00
  weight for this iteration     100.00

 eigenvalues of (default mixing * dielectric matrix)
  average eigenvalue GAMMA=   1.3530
  2.3650  1.2020  0.9224  0.9224

 Free energy of the ion-electron system (eV)
  ---------------------------------------------------
  alpha Z        PSCENC =      2431.37857233
  Ewald energy   TEWEN  =    -43166.71244358
  -Hartree energ DENC   =    -20824.76788133
  -exchange      EXHF   =         0.00000000
  -V(xc)+E(xc)   XCENC  =      3253.72693018
  PAW double counting   =     92400.24864143   -92070.88432109
  entropy T*S    EENTRO =        -0.00000000
  eigenvalues    EBANDS =     -7933.08296843
  atomic energy  EATOM  =     64968.54023382
  Solvation  Ediel_sol  =         0.00000000
  ---------------------------------------------------
  free energy    TOTEN  =      -941.55323668 eV

  energy without entropy =     -941.55323668  energy(sigma->0) =     -941.55323668


--------------------------------------------------------------------------------------------------------




--------------------------------------- Iteration      1(  10)  ---------------------------------------


    POTLOK:  cpu time    0.1305: real time    0.1369
    SETDIJ:  cpu time    0.3040: real time    0.3040
     EDDAV:  cpu time   59.1887: real time   59.3092
       DOS:  cpu time    0.0010: real time    0.0010
    CHARGE:  cpu time    1.7735: real time    1.7745
    MIXING:  cpu time    0.0088: real time    0.0088
    --------------------------------------------
      LOOP:  cpu time   61.4066: real time   61.5344

 eigenvalue-minimisations  : 12176
 total energy-change (2. order) :-0.1265186E+00  (-0.1306590E+00)
 number of electron     864.0000006 magnetization 
 augmentation part      118.7308193 magnetization 

 Broyden mixing:
  rms(total) = 0.14079E+00    rms(broyden)= 0.14075E+00
  rms(prec ) = 0.16807E+00
  weight for this iteration     100.00

 eigenvalues of (default mixing * dielectric matrix)
  average eigenvalue GAMMA=   1.2678
  2.4634  1.1043  1.1043  0.8335  0.8335

 Free energy of the ion-electron system (eV)
  ---------------------------------------------------
  alpha Z        PSCENC =      2431.37857233
  Ewald energy   TEWEN  =    -43166.71244358
  -Hartree energ DENC   =    -20845.32718403
  -exchange      EXHF   =         0.00000000
  -V(xc)+E(xc)   XCENC  =      3254.73607852
  PAW double counting   =     93657.54621102   -93331.24136386
  entropy T*S    EENTRO =        -0.00000000
  eigenvalues    EBANDS =     -7910.59985954
  atomic energy  EATOM  =     64968.54023382
  Solvation  Ediel_sol  =         0.00000000
  ---------------------------------------------------
  free energy    TOTEN  =      -941.67975530 eV

  energy without entropy =     -941.67975530  energy(sigma->0) =     -941.67975530


--------------------------------------------------------------------------------------------------------




--------------------------------------- Iteration      1(  11)  ---------------------------------------


    POTLOK:  cpu time    0.1366: real time    0.1375
    SETDIJ:  cpu time    0.3035: real time    0.3039
     EDDAV:  cpu time   54.7362: real time   54.8552
       DOS:  cpu time    0.0010: real time    0.0010
    CHARGE:  cpu time    1.7806: real time    1.7816
    MIXING:  cpu time    0.0084: real time    0.0084
    --------------------------------------------
      LOOP:  cpu time   56.9662: real time   57.0876

 eigenvalue-minimisations  : 11168
 total energy-change (2. order) :-0.1258600E-01  (-0.1707910E-01)
 number of electron     864.0000006 magnetization 
 augmentation part      118.6911830 magnetization 

 Broyden mixing:
  rms(total) = 0.77224E-01    rms(broyden)= 0.77220E-01
  rms(prec ) = 0.93933E-01
  weight for this iteration     100.00

 eigenvalues of (default mixing * dielectric matrix)
  average eigenvalue GAMMA=   1.3279
  2.5040  1.6701  0.9836  0.9836  0.9129  0.9129

 Free energy of the ion-electron system (eV)
  ---------------------------------------------------
  alpha Z        PSCENC =      2431.37857233
  Ewald energy   TEWEN  =    -43166.71244358
  -Hartree energ DENC   =    -20856.57443378
  -exchange      EXHF   =         0.00000000
  -V(xc)+E(xc)   XCENC  =      3255.34379067
  PAW double counting   =     93777.39872384   -93450.45880928
  entropy T*S    EENTRO =        -0.00000000
  eigenvalues    EBANDS =     -7900.60797533
  atomic energy  EATOM  =     64968.54023382
  Solvation  Ediel_sol  =         0.00000000
  ---------------------------------------------------
  free energy    TOTEN  =      -941.69234130 eV

  energy without entropy =     -941.69234130  energy(sigma->0) =     -941.69234130


--------------------------------------------------------------------------------------------------------




--------------------------------------- Iteration      1(  12)  ---------------------------------------


    POTLOK:  cpu time    0.1311: real time    0.1377
    SETDIJ:  cpu time    0.3025: real time    0.3027
     EDDAV:  cpu time   48.8663: real time   48.9780
       DOS:  cpu time    0.0011: real time    0.0011
    CHARGE:  cpu time    1.7804: real time    1.7862
    MIXING:  cpu time    0.0086: real time    0.0086
    --------------------------------------------
      LOOP:  cpu time   51.0900: real time   51.2144

 eigenvalue-minimisations  :  9624
 total energy-change (2. order) :-0.1550212E-01  (-0.5595291E-02)
 number of electron     864.0000006 magnetization 
 augmentation part      118.6946833 magnetization 

 Broyden mixing:
  rms(total) = 0.30697E-01    rms(broyden)= 0.30690E-01
  rms(prec ) = 0.41845E-01
  weight for this iteration     100.00

 eigenvalues of (default mixing * dielectric matrix)
  average eigenvalue GAMMA=   1.3806
  2.5421  2.5421  1.0021  1.0021  0.8630  0.8630  0.8497

 Free energy of the ion-electron system (eV)
  ---------------------------------------------------
  alpha Z        PSCENC =      2431.37857233
  Ewald energy   TEWEN  =    -43166.71244358
  -Hartree energ DENC   =    -20861.79209913
  -exchange      EXHF   =         0.00000000
  -V(xc)+E(xc)   XCENC  =      3255.49097370
  PAW double counting   =     93670.54093278   -93341.41135068
  entropy T*S    EENTRO =        -0.00000000
  eigenvalues    EBANDS =     -7897.74266267
  atomic energy  EATOM  =     64968.54023382
  Solvation  Ediel_sol  =         0.00000000
  ---------------------------------------------------
  free energy    TOTEN  =      -941.70784343 eV

  energy without entropy =     -941.70784343  energy(sigma->0) =     -941.70784343


--------------------------------------------------------------------------------------------------------




--------------------------------------- Iteration      1(  13)  ---------------------------------------


    POTLOK:  cpu time    0.1300: real time    0.1403
    SETDIJ:  cpu time    0.2993: real time    0.3044
     EDDAV:  cpu time   53.8025: real time   55.1803
       DOS:  cpu time    0.0010: real time    0.0010
    CHARGE:  cpu time    1.7353: real time    1.7745
    MIXING:  cpu time    0.0082: real time    0.0084
    --------------------------------------------
      LOOP:  cpu time   55.9763: real time   57.4088

 eigenvalue-minimisations  : 11032
 total energy-change (2. order) :-0.5486200E-02  (-0.1205594E-02)
 number of electron     864.0000006 magnetization 
 augmentation part      118.6984383 magnetization 

 Broyden mixing:
  rms(total) = 0.17194E-01    rms(broyden)= 0.17193E-01
  rms(prec ) = 0.22963E-01
  weight for this iteration     100.00

 eigenvalues of (default mixing * dielectric matrix)
  average eigenvalue GAMMA=   1.3617
  2.7336  2.5087  0.9087  0.9087  1.0100  1.0100  0.9071  0.9071

 Free energy of the ion-electron system (eV)
  ---------------------------------------------------
  alpha Z        PSCENC =      2431.37857233
  Ewald energy   TEWEN  =    -43166.71244358
  -Hartree energ DENC   =    -20866.26934277
  -exchange      EXHF   =         0.00000000
  -V(xc)+E(xc)   XCENC  =      3255.63875417
  PAW double counting   =     93524.59435836   -93193.76857148
  entropy T*S    EENTRO =        -0.00000000
  eigenvalues    EBANDS =     -7895.11489047
  atomic energy  EATOM  =     64968.54023382
  Solvation  Ediel_sol  =         0.00000000
  ---------------------------------------------------
  free energy    TOTEN  =      -941.71332963 eV

  energy without entropy =     -941.71332963  energy(sigma->0) =     -941.71332963


--------------------------------------------------------------------------------------------------------




--------------------------------------- Iteration      1(  14)  ---------------------------------------


    POTLOK:  cpu time    0.1300: real time    0.1401
    SETDIJ:  cpu time    0.2989: real time    0.3043
     EDDAV:  cpu time   53.9375: real time   55.3552
       DOS:  cpu time    0.0010: real time    0.0010
    CHARGE:  cpu time    1.7640: real time    1.8080
    MIXING:  cpu time    0.0103: real time    0.0104
    --------------------------------------------
      LOOP:  cpu time   56.1417: real time   57.6190

 eigenvalue-minimisations  : 11080
 total energy-change (2. order) :-0.5624506E-03  (-0.7541794E-03)
 number of electron     864.0000006 magnetization 
 augmentation part      118.6963440 magnetization 

 Broyden mixing:
  rms(total) = 0.10869E-01    rms(broyden)= 0.10867E-01
  rms(prec ) = 0.13583E-01
  weight for this iteration     100.00

 eigenvalues of (default mixing * dielectric matrix)
  average eigenvalue GAMMA=   1.2965
  2.8272  2.5069  0.9285  0.9285  1.0355  0.9605  0.9605  0.7605  0.7605

 Free energy of the ion-electron system (eV)
  ---------------------------------------------------
  alpha Z        PSCENC =      2431.37857233
  Ewald energy   TEWEN  =    -43166.71244358
  -Hartree energ DENC   =    -20868.20318257
  -exchange      EXHF   =         0.00000000
  -V(xc)+E(xc)   XCENC  =      3255.72256544
  PAW double counting   =     93507.77327286   -93176.82468358
  entropy T*S    EENTRO =        -0.00000000
  eigenvalues    EBANDS =     -7893.38822680
  atomic energy  EATOM  =     64968.54023382
  Solvation  Ediel_sol  =         0.00000000
  ---------------------------------------------------
  free energy    TOTEN  =      -941.71389208 eV

  energy without entropy =     -941.71389208  energy(sigma->0) =     -941.71389208


--------------------------------------------------------------------------------------------------------




--------------------------------------- Iteration      1(  15)  ---------------------------------------


    POTLOK:  cpu time    0.1321: real time    0.1384
    SETDIJ:  cpu time    0.3038: real time    0.3040
     EDDAV:  cpu time   52.8676: real time   52.9445
       DOS:  cpu time    0.0009: real time    0.0009
    CHARGE:  cpu time    1.7864: real time    1.7877
    MIXING:  cpu time    0.0106: real time    0.0106
    --------------------------------------------
      LOOP:  cpu time   55.1014: real time   55.1862

 eigenvalue-minimisations  : 10656
 total energy-change (2. order) :-0.1033200E-03  (-0.1234133E-03)
 number of electron     864.0000006 magnetization 
 augmentation part      118.6983074 magnetization 

 Broyden mixing:
  rms(total) = 0.59559E-02    rms(broyden)= 0.59552E-02
  rms(prec ) = 0.80322E-02
  weight for this iteration     100.00

 eigenvalues of (default mixing * dielectric matrix)
  average eigenvalue GAMMA=   1.3929
  3.0904  2.2272  2.2272  0.8894  0.9785  0.9785  0.9098  0.9098  0.8593  0.8593

 Free energy of the ion-electron system (eV)
  ---------------------------------------------------
  alpha Z        PSCENC =      2431.37857233
  Ewald energy   TEWEN  =    -43166.71244358
  -Hartree energ DENC   =    -20868.61834294
  -exchange      EXHF   =         0.00000000
  -V(xc)+E(xc)   XCENC  =      3255.73386532
  PAW double counting   =     93501.07204166   -93170.10826392
  entropy T*S    EENTRO =        -0.00000000
  eigenvalues    EBANDS =     -7892.99965808
  atomic energy  EATOM  =     64968.54023382
  Solvation  Ediel_sol  =         0.00000000
  ---------------------------------------------------
  free energy    TOTEN  =      -941.71399540 eV

  energy without entropy =     -941.71399540  energy(sigma->0) =     -941.71399540


--------------------------------------------------------------------------------------------------------




--------------------------------------- Iteration      1(  16)  ---------------------------------------


    POTLOK:  cpu time    0.1315: real time    0.1385
    SETDIJ:  cpu time    0.3031: real time    0.3032
     EDDAV:  cpu time   48.6819: real time   48.9018
       DOS:  cpu time    0.0012: real time    0.0012
    CHARGE:  cpu time    1.7878: real time    1.7915
    MIXING:  cpu time    0.0126: real time    0.0126
    --------------------------------------------
      LOOP:  cpu time   50.9182: real time   51.1489

 eigenvalue-minimisations  :  9616
 total energy-change (2. order) :-0.4445345E-04  (-0.5220148E-04)
 number of electron     864.0000006 magnetization 
 augmentation part      118.6950184 magnetization 

 Broyden mixing:
  rms(total) = 0.26147E-02    rms(broyden)= 0.26136E-02
  rms(prec ) = 0.35944E-02
  weight for this iteration     100.00

 eigenvalues of (default mixing * dielectric matrix)
  average eigenvalue GAMMA=   1.4066
  3.2746  2.4415  2.4415  0.9154  0.9154  0.9747  0.9747  0.9187  0.9187  0.8487
  0.8487

 Free energy of the ion-electron system (eV)
  ---------------------------------------------------
  alpha Z        PSCENC =      2431.37857233
  Ewald energy   TEWEN  =    -43166.71244358
  -Hartree energ DENC   =    -20869.63370730
  -exchange      EXHF   =         0.00000000
  -V(xc)+E(xc)   XCENC  =      3255.77531647
  PAW double counting   =     93517.56302484   -93186.74289097
  entropy T*S    EENTRO =        -0.00000000
  eigenvalues    EBANDS =     -7891.88214546
  atomic energy  EATOM  =     64968.54023382
  Solvation  Ediel_sol  =         0.00000000
  ---------------------------------------------------
  free energy    TOTEN  =      -941.71403985 eV

  energy without entropy =     -941.71403985  energy(sigma->0) =     -941.71403985


--------------------------------------------------------------------------------------------------------




--------------------------------------- Iteration      1(  17)  ---------------------------------------


    POTLOK:  cpu time    0.1332: real time    0.1395
    SETDIJ:  cpu time    0.3042: real time    0.3047
     EDDAV:  cpu time   57.6851: real time   57.8740
       DOS:  cpu time    0.0010: real time    0.0010
    CHARGE:  cpu time    1.7920: real time    1.7932
    MIXING:  cpu time    0.0103: real time    0.0103
    --------------------------------------------
      LOOP:  cpu time   59.9259: real time   60.1227

 eigenvalue-minimisations  : 11872
 total energy-change (2. order) :-0.9830299E-05  (-0.2609716E-04)
 number of electron     864.0000006 magnetization 
 augmentation part      118.6972840 magnetization 

 Broyden mixing:
  rms(total) = 0.22736E-02    rms(broyden)= 0.22728E-02
  rms(prec ) = 0.26812E-02
  weight for this iteration     100.00

 eigenvalues of (default mixing * dielectric matrix)
  average eigenvalue GAMMA=   1.3584
  3.4353  2.4425  2.4425  1.0137  0.9305  0.9323  0.9323  0.9417  0.9417  0.8507
  0.8507  0.5867

 Free energy of the ion-electron system (eV)
  ---------------------------------------------------
  alpha Z        PSCENC =      2431.37857233
  Ewald energy   TEWEN  =    -43166.71244358
  -Hartree energ DENC   =    -20869.53024978
  -exchange      EXHF   =         0.00000000
  -V(xc)+E(xc)   XCENC  =      3255.76336553
  PAW double counting   =     93515.42070489   -93184.62042263
  entropy T*S    EENTRO =        -0.00000000
  eigenvalues    EBANDS =     -7891.95381025
  atomic energy  EATOM  =     64968.54023382
  Solvation  Ediel_sol  =         0.00000000
  ---------------------------------------------------
  free energy    TOTEN  =      -941.71404968 eV

  energy without entropy =     -941.71404968  energy(sigma->0) =     -941.71404968


--------------------------------------------------------------------------------------------------------




--------------------------------------- Iteration      1(  18)  ---------------------------------------


    POTLOK:  cpu time    0.1318: real time    0.1391
    SETDIJ:  cpu time    0.3035: real time    0.3041
     EDDAV:  cpu time   51.2767: real time   51.4099
       DOS:  cpu time    0.0010: real time    0.0010
    CHARGE:  cpu time    1.7936: real time    1.7948
    MIXING:  cpu time    0.0098: real time    0.0098
    --------------------------------------------
      LOOP:  cpu time   53.5164: real time   53.6587

 eigenvalue-minimisations  : 10240
 total energy-change (2. order) : 0.1486929E-05  (-0.6704968E-05)
 number of electron     864.0000006 magnetization 
 augmentation part      118.6979368 magnetization 

 Broyden mixing:
  rms(total) = 0.12853E-02    rms(broyden)= 0.12839E-02
  rms(prec ) = 0.15545E-02
  weight for this iteration     100.00

 eigenvalues of (default mixing * dielectric matrix)
  average eigenvalue GAMMA=   1.3803
  3.6027  2.5866  2.4148  1.2111  0.9254  0.9864  0.9864  0.8333  0.8333  0.9368
  0.9368  0.8450  0.8450

 Free energy of the ion-electron system (eV)
  ---------------------------------------------------
  alpha Z        PSCENC =      2431.37857233
  Ewald energy   TEWEN  =    -43166.71244358
  -Hartree energ DENC   =    -20869.46145342
  -exchange      EXHF   =         0.00000000
  -V(xc)+E(xc)   XCENC  =      3255.75860333
  PAW double counting   =     93519.12931697   -93188.34106534
  entropy T*S    EENTRO =        -0.00000000
  eigenvalues    EBANDS =     -7892.00581231
  atomic energy  EATOM  =     64968.54023382
  Solvation  Ediel_sol  =         0.00000000
  ---------------------------------------------------
  free energy    TOTEN  =      -941.71404819 eV

  energy without entropy =     -941.71404819  energy(sigma->0) =     -941.71404819


--------------------------------------------------------------------------------------------------------




--------------------------------------- Iteration      1(  19)  ---------------------------------------


    POTLOK:  cpu time    0.1314: real time    0.1369
    SETDIJ:  cpu time    0.3037: real time    0.3041
     EDDAV:  cpu time   47.4024: real time   47.4989
       DOS:  cpu time    0.0011: real time    0.0011
    CHARGE:  cpu time    1.7912: real time    1.7920
    MIXING:  cpu time    0.0088: real time    0.0088
    --------------------------------------------
      LOOP:  cpu time   49.6385: real time   49.7417

 eigenvalue-minimisations  :  9248
 total energy-change (2. order) : 0.1403358E-05  (-0.1278569E-05)
 number of electron     864.0000006 magnetization 
[...]
   -.116E+03 0.374E+02 -.464E+01   0.134E+03 -.394E+02 -.953E+01   -.192E+02 0.166E+01 0.150E+02   0.420E-03 0.118E-03 -.412E-03
   0.688E+02 0.170E+03 -.120E+03   -.805E+02 -.179E+03 0.147E+03   0.120E+02 0.691E+01 -.262E+02   -.683E-03 -.501E-03 -.310E-03
   -.215E+02 -.918E+02 0.119E+03   0.149E+02 0.105E+03 -.151E+03   0.559E+01 -.100E+02 0.307E+02   0.354E-05 -.358E-03 0.910E-03
   0.163E+02 -.195E+02 0.114E+02   -.113E+02 0.954E+01 -.235E+02   -.490E+01 0.113E+02 0.125E+02   0.278E-03 -.583E-03 0.596E-04
   -.195E+02 0.774E+01 0.106E+03   0.188E+02 0.112E+02 -.123E+03   0.271E+01 -.201E+02 0.165E+02   0.233E-03 0.134E-03 0.469E-03
   -.170E+02 -.143E+02 -.239E+02   0.308E+02 0.268E+02 0.120E+02   -.143E+02 -.139E+02 0.135E+02   -.209E-03 -.339E-03 0.358E-03
   -.648E+02 0.710E+02 -.731E+02   0.724E+02 -.818E+02 0.714E+02   -.766E+01 0.121E+02 0.293E+01   0.302E-03 0.194E-03 0.792E-03
   -.298E+02 0.195E+02 -.821E+02   0.397E+02 -.373E+02 0.967E+02   -.103E+02 0.184E+02 -.154E+02   0.681E-03 -.397E-03 0.345E-04
   0.526E+02 0.141E+03 0.939E+01   -.617E+02 -.157E+03 -.471E+00   0.696E+01 0.156E+02 -.104E+02   0.379E-03 0.834E-03 -.852E-03
   -.893E+02 0.355E+02 -.568E+02   0.100E+03 -.386E+02 0.913E+02   -.117E+02 0.393E+01 -.345E+02   0.477E-03 -.355E-03 -.262E-03
   -.862E+02 0.674E+02 0.955E+02   0.969E+02 -.857E+02 -.121E+03   -.770E+01 0.209E+02 0.234E+02   0.624E-03 -.112E-03 -.500E-03
   0.727E+01 -.363E+02 0.451E+02   -.997E-01 0.566E+02 -.396E+02   -.699E+01 -.217E+02 -.587E+01   0.565E-04 0.398E-03 0.443E-03
   -.147E+03 -.116E+03 -.412E+02   0.173E+03 0.124E+03 0.329E+02   -.247E+02 -.900E+01 0.795E+01   0.367E-03 0.175E-03 -.179E-03
   -.128E+02 0.144E+02 0.447E+02   0.104E+02 0.749E+00 -.470E+02   0.341E+01 -.161E+02 0.779E+00   0.160E-03 -.205E-03 -.805E-03
   0.695E+02 -.440E+02 -.236E+01   -.824E+02 0.386E+02 -.148E+01   0.149E+02 0.719E+01 0.442E+01   -.774E-04 -.675E-03 0.907E-04
   -.641E+00 0.111E+02 -.646E+02   0.650E+00 -.362E+02 0.625E+02   0.132E+01 0.253E+02 0.330E+01   0.333E-03 -.267E-03 0.358E-03
   -.552E+02 0.253E+02 0.387E+02   0.884E+02 -.267E+02 -.424E+02   -.295E+02 0.848E+00 0.425E+01   0.932E-03 -.388E-03 -.259E-03
   -.486E+02 -.392E+02 0.742E+02   0.582E+02 0.362E+02 -.943E+02   -.901E+01 0.264E+01 0.206E+02   0.283E-05 0.130E-03 0.317E-03
   0.430E+02 0.109E+03 0.361E+02   -.481E+02 -.133E+03 -.187E+02   0.447E+01 0.213E+02 -.181E+02   0.203E-03 -.106E-02 0.149E-03
   -.491E+02 -.417E+02 0.724E+01   0.582E+02 0.591E+02 -.321E+01   -.101E+02 -.171E+02 -.569E+01   -.682E-03 -.144E-02 -.288E-04
   0.839E+01 0.156E+03 -.148E+02   -.213E+02 -.187E+03 0.111E+02   0.124E+02 0.276E+02 0.285E+01   -.412E-03 -.848E-03 0.113E-03
   -.258E+02 -.215E+02 0.324E+02   0.317E+02 0.359E+02 -.272E+02   -.432E+01 -.157E+02 -.737E+01   -.329E-03 -.672E-03 -.564E-03
   0.770E+02 0.124E+03 -.116E+03   -.938E+02 -.139E+03 0.132E+03   0.168E+02 0.147E+02 -.143E+02   0.171E-04 0.954E-04 0.105E-02
   -.140E+02 0.110E+03 -.120E+03   0.261E+02 -.123E+03 0.127E+03   -.136E+02 0.123E+02 -.424E+01   -.384E-03 0.440E-04 0.168E-03
   0.626E+02 0.128E+03 -.331E+02   -.854E+02 -.135E+03 0.269E+02   0.244E+02 0.394E+01 0.694E+01   -.492E-03 -.208E-03 -.911E-03
   -.118E+02 0.917E+02 -.113E+03   -.741E+01 -.891E+02 0.127E+03   0.192E+02 -.298E+01 -.134E+02   0.522E-03 -.800E-04 0.276E-03
   -.525E+02 -.146E+03 -.895E+02   0.650E+02 0.168E+03 0.882E+02   -.119E+02 -.226E+02 0.113E+01   -.494E-04 0.774E-03 -.282E-03
   0.814E+02 -.705E+02 -.452E+02   -.860E+02 0.634E+02 0.558E+02   0.353E+01 0.811E+01 -.722E+01   0.220E-03 0.258E-03 -.295E-04
   0.954E+01 -.117E+03 -.423E+02   -.180E+02 0.134E+03 0.583E+02   0.804E+01 -.153E+02 -.159E+02   -.336E-03 0.151E-02 0.181E-03
   0.573E+02 -.128E+03 0.366E+02   -.775E+02 0.154E+03 -.241E+02   0.147E+02 -.186E+02 -.117E+02   0.154E-03 0.832E-03 -.179E-03
   0.863E+02 -.116E+03 -.535E+02   -.947E+02 0.141E+03 0.563E+02   0.585E+01 -.283E+02 -.113E+01   0.279E-04 0.125E-03 0.147E-02
   -.415E+02 -.108E+02 -.216E+02   0.300E+02 0.185E+02 0.175E+02   0.121E+02 -.618E+01 0.529E+01   0.660E-03 -.611E-03 -.416E-03
   0.604E+02 -.497E+02 0.951E+02   -.854E+02 0.582E+02 -.109E+03   0.205E+02 -.709E+01 0.105E+02   -.628E-03 0.112E-02 -.434E-03
   0.779E+02 0.888E+02 -.608E+02   -.943E+02 -.100E+03 0.786E+02   0.195E+02 0.141E+02 -.199E+02   0.394E-03 0.716E-03 0.869E-03
   -.166E+02 0.137E+03 -.559E+02   0.365E+02 -.143E+03 0.665E+02   -.219E+02 0.740E+01 -.103E+02   0.300E-03 0.263E-03 0.646E-03
   0.932E+02 -.491E+02 -.244E+02   -.905E+02 0.671E+02 0.150E+02   -.311E+01 -.192E+02 0.108E+02   -.731E-03 0.238E-04 0.287E-03
   0.143E+02 0.684E+02 -.547E+02   -.174E+02 -.805E+02 0.740E+02   0.246E+01 0.107E+02 -.176E+02   0.171E-03 -.128E-03 0.961E-03
   -.480E+02 -.102E+03 -.942E+01   0.347E+02 0.110E+03 0.176E+02   0.152E+02 -.582E+01 -.843E+01   0.249E-04 0.464E-03 -.388E-03
   -.819E+02 0.104E+03 0.164E+02   0.866E+02 -.105E+03 -.111E+02   -.533E+01 0.237E+00 -.494E+01   -.521E-03 -.526E-04 0.275E-03
   0.272E+02 -.304E+01 -.117E+03   -.441E+02 -.212E+01 0.139E+03   0.164E+02 0.567E+01 -.223E+02   -.437E-03 0.257E-03 0.893E-03
   0.101E+03 0.942E+02 0.918E+02   -.116E+03 -.114E+03 -.103E+03   0.123E+02 0.210E+02 0.122E+02   -.584E-03 -.494E-03 -.126E-03
   0.728E+01 -.117E+03 0.720E+01   -.159E+02 0.143E+03 0.260E+01   0.979E+01 -.269E+02 -.962E+01   0.557E-03 -.344E-04 -.817E-03
   0.341E+02 0.155E+02 0.684E+02   -.214E+02 -.272E+02 -.829E+02   -.145E+02 0.102E+02 0.133E+02   0.675E-03 0.349E-04 -.726E-03
   -.528E+00 -.909E+02 0.191E+01   0.151E+01 0.100E+03 -.183E+02   -.679E+00 -.771E+01 0.169E+02   -.591E-04 0.413E-03 0.110E-03
   -.300E+02 0.558E+02 0.182E+03   0.411E+02 -.787E+02 -.207E+03   -.102E+02 0.263E+02 0.247E+02   -.651E-03 -.302E-03 -.401E-03
   -.302E+02 -.716E+02 0.297E+02   0.388E+02 0.103E+03 -.269E+02   -.768E+01 -.315E+02 -.465E+01   0.591E-03 -.767E-03 -.684E-03
   0.166E+03 -.142E+02 0.235E+02   -.180E+03 0.357E+02 -.442E+02   0.113E+02 -.203E+02 0.200E+02   0.497E-05 -.456E-03 -.878E-03
   -.521E+02 0.387E+01 -.457E+02   0.446E+02 -.188E+02 0.330E+02   0.106E+02 0.177E+02 0.169E+02   -.122E-03 0.411E-03 -.236E-04
 -----------------------------------------------------------------------------------------------
   -.117E+02 0.236E+02 -.144E+03   0.597E-12 -.277E-12 -.554E-12   0.116E+02 -.236E+02 0.144E+03   0.578E-03 -.167E-02 -.344E-02
 
 
 POSITION                                       TOTAL-FORCE (eV/Angst)
 -----------------------------------------------------------------------------------
     12.00401     11.26103      6.19649        -1.875020     -0.808096     -3.080223
      8.75970      4.82161      7.52031        -0.979966     -0.257632     -1.622480
      2.52050      4.07662      6.29721        -0.656378     -2.050875      1.553775
      5.31652      2.57324      3.83683         0.703286      0.557286      1.152220
      1.52085      7.59499      5.04028         0.197498      0.466126     -0.124185
      8.42028      6.09143      1.02442        -2.141501     -0.021194     -0.600769
     11.17852      2.89608     12.44134         0.713242      0.300231      0.103355
      9.02658      1.49983      5.18542         0.441837      1.760642      1.104070
      3.47742     10.11063      7.59272         0.675654      1.289382     -1.331312
      0.26406      5.15939      9.80786        -0.240399     -0.098417      1.779612
      4.69237      4.41880      9.33166         1.056790      1.453690     -0.101828
     10.92023      2.03312      8.86093         0.149509     -0.907047      0.688626
      9.42950      9.14533      7.86848         0.222025     -0.821419     -0.275739
      5.03372      8.55548      0.90942         0.711038     -0.797839      0.985060
      0.54324      8.78438      8.58353        -1.767890      1.570965      1.343516
      5.00804      1.72629      0.13163         0.664838     -0.090821     -0.134700
      7.90298      0.38053     10.05705        -0.537056     -0.626709     -0.354486
      5.37369      6.27486      6.07874         1.140206      0.328366     -0.341705
     11.91303      4.65419      3.55764         1.217725     -0.274655      0.975280
      8.59615     11.68877      2.32302         0.656970      1.083874     -0.644120
     10.11667      7.94478      3.39394        -0.504902      0.937859     -0.049037
      2.09694      1.40832      2.78807        -0.865764     -0.033467      1.040117
     11.35253      9.09279     12.44525        -0.273938      0.350440     -0.697763
      4.44714      1.36717      9.36305         0.249054     -1.246988     -1.695493
      0.22151     12.26396     11.69692         0.592469      0.082228      0.262497
      4.83556     10.14464      3.99272        -0.219829     -1.364516      0.783481
      1.53675      6.27912      0.90788         0.383274      1.800884      1.804725
      5.03281      6.36438      2.81418         3.144128      2.055566      2.415797
      2.90847      9.80619     11.29914        -1.885777      2.022006      0.796484
      2.68592      3.70590     12.42923         1.413848      1.267150      2.151058
      7.87065     10.50088     12.46653         0.701575      0.544867     -0.891039
      2.67620      4.73311      3.23965         6.636378     -5.300376     -1.911779
      1.49216      2.47998      9.59386        -1.458190      1.268172     -1.702341
      9.83674     10.75254     10.33457         4.138180     -5.602415      0.509780
      5.59318     10.66143     10.59568        -3.731696      2.463465     -3.983630
      6.81361      9.66822      6.48240         2.676718     -3.978647      1.798159
     10.93689      1.62488      2.73350         1.609614     -4.655095     -3.655458
     11.70628     10.89007      2.15071        -0.415919      1.536882     -0.217960
     11.18459      6.03744      0.17171        -1.193411     -1.609063      2.822919
     11.01708      7.06149      6.23316        -4.336244     -0.077388      0.113758
      1.57304     10.80197      3.97978        -0.585232      1.578984      1.383523
     11.72800      3.96057      6.98282         0.923395     -2.899864     -0.978427
      3.25714     11.24291      1.26518        -0.382092      0.236928      3.157663
      4.68456      7.79416     10.11598         2.251789     -0.458292     -1.267166
      8.43615      5.03940      4.04652         2.665255     -0.765719      2.412341
      8.06183      2.90205     11.25312        -3.172961     -0.543397     -3.200706
      1.10560     12.47052      7.85877        -0.672952      3.472474     -2.581196
      7.91087      2.32447      1.59399         0.102281     -2.004030      0.014072
      2.60361      7.02453      8.01414         3.196910     -2.640311     -0.839638
      8.32860     11.10592      5.47718         0.119861     -3.017127     -0.288509
      3.82954      0.46720      5.99214        -0.147305      1.713676      3.734398
      6.41123      2.81946      6.87012        -2.996554     -0.293975      5.998468
      9.34880      5.24033     10.30899        -2.671705      0.796304      0.154867
      7.01643      6.85753      9.10349        -0.123177     -1.265780     -3.669922
      8.58091      9.85747     10.94873         0.043959     -0.004983      2.429539
      2.46637      8.29550      7.12979        -2.068122      2.346096     -0.177814
      4.45329      4.88684      3.58159         0.846983      1.335419     -0.587146
      4.58523     10.51101      1.75499         0.226160     -1.404234      0.097819
      9.49153      2.19579     10.97534        -0.919317     -0.777004     -0.175004
      7.61558      3.15264      2.95773        -0.657759      1.386222      0.347457
      9.27108      7.27934      6.26821         4.533644     -0.125042      0.284190
     10.65149      4.54658      9.87588         1.444801     -1.184027     -3.471229
      7.96719      4.26341     10.24094         0.956338     -0.110512      1.259420
      6.14894      6.90600     10.56349        -2.621071      1.346732     -0.639968
      2.42741      9.59605      4.74482        -0.995966      0.992736     -1.700966
      4.09286      7.09590      8.76899         0.792382      0.655520      2.976013
      0.47684      3.58084      8.24738        -0.998748      0.319071     -0.955898
      7.54313      5.49688      5.40551         0.926841     -2.300397     -2.605626
      5.28380      7.84258      3.94191        -0.683211     -3.329047     -1.406670
      6.26291      6.38213      1.71373         0.273237     -0.216612      0.186200
     12.04684      0.56837      7.16034         3.642596     -0.573565      3.901565
      2.53170      3.95205      1.79148         0.363196     -0.269516     -1.415483
      5.17862      3.95627      7.04244         0.397989     -2.084350     -0.806741
      3.56350      1.58028      4.89928         0.914879     -0.577448     -1.798947
     10.98296     11.14813     11.41116        -0.639004      0.871992     -0.651552
      7.77302      3.36494      0.22516         0.502455      0.418191      2.453544
      5.37464      9.34472      6.30757        -4.732116     -0.189848      0.919374
      7.84507     10.82965      7.07558        -2.094854      0.633088     -0.074071
      1.73878      4.89058     12.10927        -1.399218      0.542412     -3.552030
     10.03855      4.18583      4.22941        -5.420569      1.296988     -0.067047
      1.81977     10.19982     10.14720         0.857035     -0.998141      1.190461
      4.09009     11.45212      5.68128         0.447476      0.835572      0.262675
      6.85780      2.27745      5.57544         1.383418     -1.496429     -7.937161
     12.21156      6.72565     11.79440         2.450391      1.865681     -2.013563
     12.19509      1.93304      1.62314        -0.690288      0.728541      1.765352
      5.25656      9.26347      9.72008         0.166484      1.562876     -0.649912
      7.02252      0.93744      1.25796        -0.544457      3.582811      1.675095
      0.17673     10.89009      0.82739        -0.801837     -0.298158      0.822679
      7.45776     10.09662      1.43412         0.357989     -2.280547      0.092853
      9.40567     11.47634      9.05002        -0.972678      2.958050     -1.458159
      9.52315      1.78643      1.72681         0.041266      1.369964      0.398995
      5.67343     12.01798      9.68235         2.056002     -1.114154     -0.006785
      2.83613      3.29637      9.05169        -0.581260     -1.348350      1.614336
     10.75992      9.27825      9.56492        -0.079379      1.241819      1.224902
     11.76931      4.82616      1.14379        -0.467791      0.639092     -0.791797
      0.11502     10.19655      3.44200        -2.113120     -1.044562     -1.446281
     11.04043      1.50978      4.28145        -0.748933      0.834364     -0.057664
     12.39760      3.49609      5.65758         3.016168      2.616930     -2.146379
     11.70074      8.42510      6.89372         0.178366     -1.376291     -0.368746
      4.17175      3.91094     11.87901         1.687070     -0.438115     -0.400305
      2.25562     11.52790      2.66114         1.033452     -0.969082     -1.533931
      6.51555      1.96311     10.79025         2.017440      1.761856      0.574555
      0.99022     10.86662      7.67793         1.326801      0.188129      1.211088
      9.84277     11.04280      5.46461         3.701866     -0.491461      0.591791
     11.66074      6.91329      4.70891         0.516166     -0.351029      0.454454
      2.46566      3.64169      4.32694        -0.651814     -2.670879     -0.722441
      3.75678      0.30598      1.33089        -1.030633      0.295751     -1.657191
      2.20594      2.27279     12.15857        -0.581613     -3.788020     -0.874348
      2.53605      0.55414      7.21174         1.561507     -1.289386     -2.165600
      3.53476      8.24341     11.14910        -0.042441     -0.508723      1.520042
      1.65669      0.90460      9.17081        -1.441965     -0.791817      2.708565
     10.24961     10.17080      1.77651         1.603890     -3.045136      0.666508
      0.13094      2.61244     10.48664         0.037659     -0.423622      0.803886
      8.61063      6.60753      9.64527         0.632853     -1.000601     -0.122501
      9.89405      5.41172     11.80854        -1.071079      1.007689      3.378315
     10.50869      7.13422      1.15456        -0.440271      1.200040      0.220886
      1.82525      5.83439      3.67978        -5.504363      7.075800      0.712879
      4.08728     11.17849     11.16668        -2.488004     -3.160944      1.691493
     10.92835     12.33771      2.30214         0.594063      1.477395      1.246830
      3.80332      6.78638      2.00939        -4.570098      1.418967     -3.364527
      2.32904      9.64683      0.43763         3.047872      2.658188     -2.103290
      7.85809      2.62141      7.76111        -2.040302      0.929329      0.306367
      8.77101      6.28055      3.03459        -0.405868     -1.126410      1.367558
      6.41215     10.24946     11.80100        -0.677749     -1.383595      1.671929
     10.93052      5.41323      7.12062         1.886360      2.297845     -0.240449
      5.08158      1.32749      7.13202        -0.681507     -0.751712      0.376178
      1.47901      6.72630      9.06891        -0.502551      0.508061     -0.177859
     10.60914      2.77103      6.98955        -2.286044      1.599840      1.355071
      0.99966     12.17443      4.71133         1.130882     -1.357545      0.182513
      3.26536      6.03167      6.92372        -1.760102     -1.545580     -1.177042
      7.14308      8.04575      7.97461         0.302676      1.578112      0.497112
      7.66269      9.16863      5.19537         0.938238      3.473052     -0.357963
      8.33491     12.02002     12.47963         0.932622     -0.026627     -1.861574
      7.87012     12.16052      4.43878        -2.024071      1.161161     -0.732195
      6.27235      5.59895      8.05684         3.139204      2.784828      4.215357
 -----------------------------------------------------------------------------------
    total drift:                               -0.008638     -0.008979     -0.018324


--------------------------------------------------------------------------------------------------------



  FREE ENERGIE OF THE ION-ELECTRON SYSTEM (eV)
  ---------------------------------------------------
  free  energy   TOTEN  =      -941.71404672 eV

  energy  without entropy=     -941.71404672  energy(sigma->0) =     -941.71404672
 


--------------------------------------------------------------------------------------------------------


    POTLOK:  cpu time    0.4336: real time    0.4336


--------------------------------------------------------------------------------------------------------


     LOOP+:  cpu time 1142.0168: real time 1147.8718
    4ORBIT:  cpu time    0.0000: real time    0.0000

 total amount of memory used by VASP MPI-rank0   190108. kBytes
=======================================================================

   base      :      30000. kBytes
   nonlr-proj:      20903. kBytes
   fftplans  :      28860. kBytes
   grid      :      16510. kBytes
   one-center:        186. kBytes
   wavefun   :      93649. kBytes
 
  
  
 General timing and accounting informations for this job:
 ========================================================
  
                  Total CPU time used (sec):     1168.622
                            User time (sec):     1164.369
                          System time (sec):        4.254
                         Elapsed time (sec):     1174.811
  
                   Maximum memory used (kb):      321996.
                   Average memory used (kb):           0.
  
                          Minor page faults:       220924
                          Major page faults:            0
                 Voluntary context switches:          409
