<?xml version="1.0" encoding="ISO-8859-1"?>
<modeling>
 <generator>
  <i name="program" type="string">vasp </i>
  <i name="version" type="string">5.4.4.18Apr17-6-g9f103f2a35  </i>
  <i name="subversion" type="string">(build Oct 31 2019 15:01:46) complex            parallel </i>
  <i name="platform" type="string">LinuxIFC </i>
  <i name="date" type="string">2024 04 20 </i>
  <i name="time" type="string">19:07:01 </i>
 </generator>
 <incar>
  <i type="int" name="ISTART">     0</i>
  <i type="string" name="PREC">anormal</i>
  <i type="logical" name="ADDGRID"> T  </i>
  <i type="int" name="IBRION">    -1</i>
  <i name="EDIFF">      0.00000100</i>
  <i name="EDIFFG">     -0.01000000</i>
  <i type="int" name="NSW">     1</i>
  <i type="int" name="ISIF">     2</i>
  <i type="int" name="ISYM">     2</i>
  <i name="ENCUT">    600.00000000</i>
  <i name="POTIM">      1.00000000</i>
  <i type="string" name="LREAL"> Auto.</i>
  <i type="int" name="ISMEAR">     0</i>
  <i name="SIGMA">      0.05000000</i>
  <i name="KSPACING">      0.25000000</i>
  <i type="logical" name="LWAVE"> F  </i>
  <i type="logical" name="LCHARG"> F  </i>
  <i type="logical" name="LSCALAPACK"> F  </i>
  <v type="int" name="KPOINT_BSE">    -1     0     0     0</v>
 </incar>
 <structure name="primitive_cell" >
  <crystal>
   <varray name="basis" >
    <v>      13.12862340       0.00000000       0.00000000 </v>
    <v>      -6.56431170      11.36972138       0.00000000 </v>
    <v>       0.00000000       0.00000000      26.82809424 </v>
   </varray>
   <i name="volume">   4004.59716953 </i>
   <varray name="rec_basis" >
    <v>       0.07616945       0.04397645       0.00000000 </v>
    <v>       0.00000000       0.08795290       0.00000000 </v>
    <v>       0.00000000       0.00000000       0.03727436 </v>
   </varray>
  </crystal>
  <varray name="positions" >
   <v>       0.09747564       0.17826666       0.45668652 </v>
   <v>       0.18825867       0.33466773       0.40699817 </v>
   <v>       0.00294638       0.24705198      -0.49741675 </v>
   <v>       0.15303826       0.07888142       0.40587081 </v>
   <v>       0.26166368       0.25137295      -0.49473330 </v>
   <v>      -0.07711719       0.09069232       0.41194143 </v>
   <v>      -0.00795301      -0.00907399      -0.49821871 </v>
   <v>       0.16415210       0.07958723      -0.45299310 </v>
   <v>       0.33528305       0.18259190       0.45154806 </v>
   <v>       0.16288273       0.32988957      -0.44701075 </v>
   <v>      -0.15152332       0.16930801       0.45014169 </v>
   <v>       0.08663255       0.41900733       0.45356128 </v>
   <v>       0.34057002       0.42792206       0.45535714 </v>
   <v>       0.08221626      -0.07683590       0.45017502 </v>
   <v>      -0.09258885       0.07950362      -0.45057317 </v>
   <v>      -0.15867015      -0.07455849       0.45014290 </v>
   <v>       0.24148492       0.49039075       0.49972762 </v>
   <v>       0.07067703       0.14837241      -0.40262204 </v>
   <v>       0.41753513       0.33521523       0.40640240 </v>
   <v>       0.25285441       0.00284616      -0.49852921 </v>
   <v>      -0.08716641      -0.15980541       0.41066118 </v>
   <v>      -0.08665085       0.33583137       0.41168608 </v>
   <v>      -0.25099260       0.00681236       0.49956288 </v>
   <v>       0.42616516       0.34231841      -0.44764882 </v>
   <v>      -0.08785639      -0.17166761      -0.45559634 </v>
   <v>      -0.08331803       0.33202021      -0.44335392 </v>
   <v>       0.49206350       0.26037474       0.49436603 </v>
   <v>       0.06867631      -0.08628320      -0.41087452 </v>
   <v>       0.08714860       0.40498288      -0.40242838 </v>
   <v>      -0.17984043       0.15986435      -0.41783290 </v>
   <v>       0.34803431       0.42555151      -0.40768360 </v>
   <v>       0.00126923       0.48925389      -0.49661116 </v>
   <v>      -0.16480689      -0.07875516      -0.40689672 </v>
   <v>       0.16758789      -0.42128853       0.41147409 </v>
   <v>       0.35711483       0.16182581      -0.40962544 </v>
   <v>       0.41617726      -0.41319218       0.40697727 </v>
   <v>      -0.49286736      -0.49538059      -0.49586418 </v>
   <v>       0.41361654       0.07368966       0.41258872 </v>
   <v>      -0.31949335       0.07779177       0.40752445 </v>
   <v>       0.14379843      -0.18136897       0.41091537 </v>
   <v>      -0.25247767      -0.25519589       0.49580867 </v>
   <v>       0.16161142      -0.42673597      -0.45552735 </v>
   <v>       0.00501450      -0.25811321      -0.49794223 </v>
   <v>      -0.26628333       0.24793637       0.49562116 </v>
   <v>       0.42629648      -0.41163391      -0.45628729 </v>
   <v>       0.42507835       0.09570657      -0.45588710 </v>
   <v>      -0.42064125       0.42127218       0.45077504 </v>
   <v>       0.32010066      -0.33265209       0.45869384 </v>
   <v>      -0.35521719      -0.18028566       0.40769981 </v>
   <v>      -0.32959557      -0.15673503      -0.45894273 </v>
   <v>       0.16077919      -0.17266742      -0.44735630 </v>
   <v>      -0.34072006       0.07404981      -0.45574410 </v>
   <v>       0.33895494      -0.08487149       0.45324840 </v>
   <v>      -0.17948562       0.40941369       0.44824217 </v>
   <v>      -0.16657119      -0.33826815       0.45451561 </v>
   <v>      -0.42369700      -0.08612639       0.44709684 </v>
   <v>      -0.41874334       0.17219013       0.45184707 </v>
   <v>      -0.41254598      -0.33660326       0.44874453 </v>
   <v>       0.34184946      -0.34485845      -0.40731715 </v>
   <v>       0.08021321      -0.33015023       0.45422724 </v>
   <v>      -0.41255506       0.41771682      -0.40817310 </v>
   <v>      -0.34485879       0.33520206       0.41143286 </v>
   <v>       0.33810186      -0.08375214      -0.40791008 </v>
   <v>      -0.41150632      -0.09776844      -0.41076293 </v>
   <v>       0.49853937      -0.24680161      -0.49927659 </v>
   <v>       0.25031371      -0.25046911       0.49873474 </v>
   <v>      -0.32131081      -0.42423875       0.41032371 </v>
   <v>      -0.09569840      -0.43229020       0.40673525 </v>
   <v>       0.49204412      -0.01104840      -0.49793715 </v>
   <v>      -0.17977802       0.41697779      -0.40483134 </v>
   <v>      -0.17736039      -0.35380152      -0.41032900 </v>
   <v>      -0.33652923       0.33658765      -0.45477639 </v>
   <v>      -0.32331960      -0.42138378      -0.45649992 </v>
   <v>      -0.08399382      -0.42403595      -0.45469270 </v>
   <v>      -0.42511247       0.16294316      -0.41235112 </v>
   <v>      -0.40212983      -0.31882659      -0.41290140 </v>
   <v>      -0.25547104       0.49724146      -0.49939181 </v>
   <v>       0.41717480      -0.15020767       0.41234329 </v>
   <v>       0.07860961      -0.33277929      -0.40465696 </v>
   <v>       0.42286033      -0.15398300      -0.45030070 </v>
  </varray>
 </structure>
 <varray name="primitive_index" >
  <v type="int" >        1 </v>
  <v type="int" >       50 </v>
  <v type="int" >       66 </v>
  <v type="int" >       49 </v>
  <v type="int" >       70 </v>
  <v type="int" >       61 </v>
  <v type="int" >       65 </v>
  <v type="int" >       17 </v>
  <v type="int" >        5 </v>
  <v type="int" >       18 </v>
  <v type="int" >       13 </v>
  <v type="int" >        2 </v>
  <v type="int" >        6 </v>
  <v type="int" >        4 </v>
  <v type="int" >       29 </v>
  <v type="int" >       16 </v>
  <v type="int" >       71 </v>
  <v type="int" >       33 </v>
  <v type="int" >       54 </v>
  <v type="int" >       69 </v>
  <v type="int" >       64 </v>
  <v type="int" >       62 </v>
  <v type="int" >       77 </v>
  <v type="int" >       22 </v>
  <v type="int" >       32 </v>
  <v type="int" >       30 </v>
  <v type="int" >       74 </v>
  <v type="int" >       36 </v>
  <v type="int" >       34 </v>
  <v type="int" >       45 </v>
  <v type="int" >       38 </v>
  <v type="int" >       67 </v>
  <v type="int" >       48 </v>
  <v type="int" >       51 </v>
  <v type="int" >       37 </v>
  <v type="int" >       55 </v>
  <v type="int" >       75 </v>
  <v type="int" >       53 </v>
  <v type="int" >       57 </v>
  <v type="int" >       52 </v>
  <v type="int" >       80 </v>
  <v type="int" >       19 </v>
  <v type="int" >       68 </v>
  <v type="int" >       78 </v>
  <v type="int" >       23 </v>
  <v type="int" >       21 </v>
  <v type="int" >       10 </v>
  <v type="int" >        7 </v>
  <v type="int" >       60 </v>
  <v type="int" >       28 </v>
  <v type="int" >       20 </v>
  <v type="int" >       25 </v>
  <v type="int" >        8 </v>
  <v type="int" >       14 </v>
  <v type="int" >       15 </v>
  <v type="int" >       12 </v>
  <v type="int" >        9 </v>
  <v type="int" >       11 </v>
  <v type="int" >       39 </v>
  <v type="int" >        3 </v>
  <v type="int" >       42 </v>
  <v type="int" >       58 </v>
  <v type="int" >       40 </v>
  <v type="int" >       44 </v>
  <v type="int" >       76 </v>
  <v type="int" >       72 </v>
  <v type="int" >       59 </v>
  <v type="int" >       63 </v>
  <v type="int" >       73 </v>
  <v type="int" >       46 </v>
  <v type="int" >       47 </v>
  <v type="int" >       26 </v>
  <v type="int" >       27 </v>
  <v type="int" >       31 </v>
  <v type="int" >       41 </v>
  <v type="int" >       43 </v>
  <v type="int" >       79 </v>
  <v type="int" >       56 </v>
  <v type="int" >       35 </v>
  <v type="int" >       24 </v>
 </varray>
 <kpoints>
  <generation param="Gamma">
   <v type="int" name="divisions">       3        3        1 </v>
   <v name="usershift">      0.00000000       0.00000000       0.00000000 </v>
   <v name="genvec1">      0.33333333       0.00000000       0.00000000 </v>
   <v name="genvec2">      0.00000000       0.33333333       0.00000000 </v>
   <v name="genvec3">      0.00000000       0.00000000       1.00000000 </v>
   <v name="shift">      0.00000000       0.00000000       0.00000000 </v>
  </generation>
  <varray name="kpointlist" >
   <v>       0.00000000       0.00000000       0.00000000 </v>
   <v>       0.33333333      -0.00000000       0.00000000 </v>
   <v>       0.00000000       0.33333333       0.00000000 </v>
   <v>       0.33333333       0.33333333       0.00000000 </v>
   <v>      -0.33333333       0.33333333       0.00000000 </v>
  </varray>
  <varray name="weights" >
   <v>       0.11111111 </v>
   <v>       0.22222222 </v>
   <v>       0.22222222 </v>
   <v>       0.22222222 </v>
   <v>       0.22222222 </v>
  </varray>
 </kpoints>
 <parameters>
  <separator name="general" >
   <i type="string" name="SYSTEM">unknown system</i>
   <i type="logical" name="LCOMPAT"> F  </i>
  </separator>
  <separator name="electronic" >
   <i type="string" name="PREC">anorma</i>
   <i name="ENMAX">    600.00000000</i>
   <i name="ENAUG">    644.87300000</i>
   <i name="EDIFF">      0.00000100</i>
   <i type="int" name="IALGO">    38</i>
   <i type="int" name="IWAVPR">    10</i>
   <i type="int" name="NBANDS">   384</i>
   <i name="NELECT">    640.00000000</i>
   <i type="int" name="TURBO">     0</i>
   <i type="int" name="IRESTART">     0</i>
   <i type="int" name="NREBOOT">     0</i>
   <i type="int" name="NMIN">     0</i>
   <i name="EREF">      0.00000000</i>
   <separator name="electronic smearing" >
    <i type="int" name="ISMEAR">     0</i>
    <i name="SIGMA">      0.05000000</i>
    <i name="KSPACING">      0.25000000</i>
    <i type="logical" name="KGAMMA"> T  </i>
   </separator>
   <separator name="electronic projectors" >
    <i type="logical" name="LREAL"> T  </i>
    <v name="ROPT">     -0.00025000     -0.00025000     -0.00025000</v>
    <i type="int" name="LMAXPAW">  -100</i>
    <i type="int" name="LMAXMIX">     2</i>
    <i type="logical" name="NLSPLINE"> F  </i>
   </separator>
   <separator name="electronic startup" >
    <i type="int" name="ISTART">     0</i>
    <i type="int" name="ICHARG">     2</i>
    <i type="int" name="INIWAV">     1</i>
   </separator>
   <separator name="electronic spin" >
    <i type="int" name="ISPIN">     1</i>
    <i type="logical" name="LNONCOLLINEAR"> F  </i>
    <v name="MAGMOM">      1.00000000      1.00000000      1.00000000      1.00000000      1.00000000      1.00000000      1.00000000      1.00000000      1.00000000      1.00000000      1.00000000      1.00000000      1.00000000      1.00000000      1.00000000      1.00000000      1.00000000      1.00000000      1.00000000      1.00000000
      1.00000000      1.00000000      1.00000000      1.00000000      1.00000000      1.00000000      1.00000000      1.00000000      1.00000000      1.00000000      1.00000000      1.00000000      1.00000000      1.00000000      1.00000000      1.00000000      1.00000000      1.00000000      1.00000000      1.00000000
      1.00000000      1.00000000      1.00000000      1.00000000      1.00000000      1.00000000      1.00000000      1.00000000      1.00000000      1.00000000      1.00000000      1.00000000      1.00000000      1.00000000      1.00000000      1.00000000      1.00000000      1.00000000      1.00000000      1.00000000
      1.00000000      1.00000000      1.00000000      1.00000000      1.00000000      1.00000000      1.00000000      1.00000000      1.00000000      1.00000000      1.00000000      1.00000000      1.00000000      1.00000000      1.00000000      1.00000000      1.00000000      1.00000000      1.00000000      1.00000000
</v>
    <i name="NUPDOWN">     -1.00000000</i>
    <i type="logical" name="LSORBIT"> F  </i>
    <v name="SAXIS">      0.00000000      0.00000000      1.00000000</v>
    <i type="logical" name="LSPIRAL"> F  </i>
    <v name="QSPIRAL">      0.00000000      0.00000000      0.00000000</v>
    <i type="logical" name="LZEROZ"> F  </i>
   </separator>
   <separator name="electronic exchange-correlation" >
    <i type="logical" name="LASPH"> F  </i>
    <i type="logical" name="LMETAGGA"> F  </i>
   </separator>
   <separator name="electronic convergence" >
    <i type="int" name="NELM">    60</i>
    <i type="int" name="NELMDL">    -5</i>
    <i type="int" name="NELMIN">     2</i>
    <i name="ENINI">    600.00000000</i>
    <separator name="electronic convergence detail" >
     <i type="logical" name="LDIAG"> T  </i>
     <i type="logical" name="LSUBROT"> F  </i>
     <i name="WEIMIN">      0.00000000</i>
     <i name="EBREAK">      0.00000000</i>
     <i name="DEPER">      0.30000000</i>
     <i type="int" name="NRMM">     4</i>
     <i name="TIME">      0.40000000</i>
    </separator>
   </separator>
   <separator name="electronic mixer" >
    <i name="AMIX">      0.40000000</i>
    <i name="BMIX">      1.00000000</i>
    <i name="AMIN">      0.10000000</i>
    <i name="AMIX_MAG">      1.60000000</i>
    <i name="BMIX_MAG">      1.00000000</i>
    <separator name="electronic mixer details" >
     <i type="int" name="IMIX">     4</i>
     <i type="logical" name="MIXFIRST"> F  </i>
     <i type="int" name="MAXMIX">   -45</i>
     <i name="WC">    100.00000000</i>
     <i type="int" name="INIMIX">     1</i>
     <i type="int" name="MIXPRE">     1</i>
     <i type="int" name="MREMOVE">     5</i>
    </separator>
   </separator>
   <separator name="electronic dipolcorrection" >
    <i type="logical" name="LDIPOL"> F  </i>
    <i type="logical" name="LMONO"> F  </i>
    <i type="int" name="IDIPOL">     0</i>
    <i name="EPSILON">      1.00000000</i>
    <v name="DIPOL">   -100.00000000   -100.00000000   -100.00000000</v>
    <i name="EFIELD">      0.00000000</i>
   </separator>
  </separator>
  <separator name="grids" >
   <i type="int" name="NGX">   108</i>
   <i type="int" name="NGY">   108</i>
   <i type="int" name="NGZ">   216</i>
   <i type="int" name="NGXF">   216</i>
   <i type="int" name="NGYF">   216</i>
   <i type="int" name="NGZF">   432</i>
   <i type="logical" name="ADDGRID"> T  </i>
  </separator>
  <separator name="ionic" >
   <i type="int" name="NSW">     1</i>
   <i type="int" name="IBRION">    -1</i>
   <i type="int" name="MDALGO">     0</i>
   <i type="int" name="ISIF">     2</i>
   <i name="PSTRESS">      0.00000000</i>
   <i name="EDIFFG">     -0.01000000</i>
   <i type="int" name="NFREE">     0</i>
   <i name="POTIM">      1.00000000</i>
   <i name="SMASS">     -3.00000000</i>
   <i name="SCALEE">      1.00000000</i>
  </separator>
  <separator name="ionic md" >
   <i name="TEBEG">      0.00010000</i>
   <i name="TEEND">      0.00010000</i>
   <i type="int" name="NBLOCK">     1</i>
   <i type="int" name="KBLOCK">     1</i>
   <i type="int" name="NPACO">   256</i>
   <i name="APACO">     16.00000000</i>
  </separator>
  <separator name="symmetry" >
   <i type="int" name="ISYM">     2</i>
   <i name="SYMPREC">      0.00001000</i>
  </separator>
  <separator name="dos" >
   <i type="int" name="LORBIT">     0</i>
   <v name="RWIGS">     -1.00000000     -1.00000000     -1.00000000</v>
   <i type="int" name="NEDOS">   301</i>
   <i name="EMIN">     10.00000000</i>
   <i name="EMAX">    -10.00000000</i>
   <i name="EFERMI">      0.00000000</i>
  </separator>
  <separator name="writing" >
   <i type="int" name="NWRITE">     2</i>
   <i type="logical" name="LWAVE"> F  </i>
   <i type="logical" name="LDOWNSAMPLE"> F  </i>
   <i type="logical" name="LCHARG"> F  </i>
   <i type="logical" name="LPARD"> F  </i>
   <i type="logical" name="LVTOT"> F  </i>
   <i type="logical" name="LVHAR"> F  </i>
   <i type="logical" name="LELF"> F  </i>
   <i type="logical" name="LOPTICS"> F  </i>
   <v name="STM">      0.00000000      0.00000000      0.00000000      0.00000000      0.00000000      0.00000000      0.00000000</v>
  </separator>
  <separator name="performance" >
   <i type="int" name="NPAR">     4</i>
   <i type="int" name="NSIM">     4</i>
   <i type="int" name="NBLK">    -1</i>
   <i type="logical" name="LPLANE"> T  </i>
   <i type="logical" name="LSCALAPACK"> F  </i>
   <i type="logical" name="LSCAAWARE"> F  </i>
   <i type="logical" name="LSCALU"> F  </i>
   <i type="logical" name="LASYNC"> F  </i>
   <i type="logical" name="LORBITALREAL"> F  </i>
  </separator>
  <separator name="miscellaneous" >
   <i type="int" name="IDIOT">     3</i>
   <i type="int" name="ISPECIAL">     0</i>
   <i type="logical" name="LMUSIC"> F  </i>
   <v name="POMASS">     44.95600000     18.99800000     12.01100000</v>
   <v name="DARWINR">      0.00000000      0.00000000      0.00000000</v>
   <v name="DARWINV">      1.00000000      1.00000000      1.00000000</v>
   <i type="logical" name="LCORR"> T  </i>
  </separator>
  <i type="logical" name="GGA_COMPAT"> T  </i>
  <i type="logical" name="LBERRY"> F  </i>
  <i type="int" name="ICORELEVEL">     0</i>
  <i type="logical" name="LDAU"> F  </i>
  <i type="int" name="I_CONSTRAINED_M">     0</i>
  <separator name="electronic exchange-correlation" >
   <i type="string" name="GGA">--</i>
   <i type="int" name="VOSKOWN">     0</i>
   <i type="logical" name="LHFCALC"> F  </i>
   <i type="string" name="PRECFOCK"></i>
   <i type="logical" name="LSYMGRAD"> F  </i>
   <i type="logical" name="LHFONE"> F  </i>
   <i type="logical" name="LRHFCALC"> F  </i>
   <i type="logical" name="LTHOMAS"> F  </i>
   <i type="logical" name="LMODELHF"> F  </i>
   <i name="ENCUT4O">     -1.00000000</i>
   <i type="int" name="EXXOEP">     0</i>
   <i type="int" name="FOURORBIT">     0</i>
   <i name="AEXX">      0.00000000</i>
   <i name="HFALPHA">      0.00000000</i>
   <i name="MCALPHA">      0.00000000</i>
   <i name="ALDAX">      1.00000000</i>
   <i name="AGGAX">      1.00000000</i>
   <i name="ALDAC">      1.00000000</i>
   <i name="AGGAC">      1.00000000</i>
   <i type="int" name="NKREDX">     1</i>
   <i type="int" name="NKREDY">     1</i>
   <i type="int" name="NKREDZ">     1</i>
   <i type="logical" name="SHIFTRED"> F  </i>
   <i type="logical" name="ODDONLY"> F  </i>
   <i type="logical" name="EVENONLY"> F  </i>
   <i type="int" name="LMAXFOCK">     0</i>
   <i type="int" name="NMAXFOCKAE">     0</i>
   <i type="logical" name="LFOCKAEDFT"> F  </i>
   <i name="HFSCREEN">      0.00000000</i>
   <i name="HFSCREENC">      0.00000000</i>
   <i type="int" name="NBANDSGWLOW">     0</i>
  </separator>
  <separator name="vdW DFT" >
   <i type="logical" name="LUSE_VDW"> F  </i>
   <i name="Zab_VDW">     -0.84910000</i>
   <i name="PARAM1">      0.12340000</i>
   <i name="PARAM2">      1.00000000</i>
   <i name="PARAM3">      0.00000000</i>
  </separator>
  <separator name="model GW" >
   <i type="int" name="MODEL_GW">     0</i>
   <i name="MODEL_EPS0">     30.03447877</i>
   <i name="MODEL_ALPHA">      1.00000000</i>
  </separator>
  <separator name="linear response parameters" >
   <i type="logical" name="LEPSILON"> F  </i>
   <i type="logical" name="LRPA"> F  </i>
   <i type="logical" name="LNABLA"> F  </i>
   <i type="logical" name="LVEL"> F  </i>
   <i type="int" name="KINTER">     0</i>
   <i name="CSHIFT">      0.10000000</i>
   <i name="OMEGAMAX">     -1.00000000</i>
   <i name="DEG_THRESHOLD">      0.00200000</i>
   <i name="RTIME">     -0.10000000</i>
   <i name="WPLASMAI">      0.00000000</i>
   <v name="DFIELD">      0.00000000      0.00000000      0.00000000</v>
   <v name="WPLASMA">      0.00000000      0.00000000      0.00000000      0.00000000      0.00000000      0.00000000      0.00000000      0.00000000      0.00000000</v>
  </separator>
  <separator name="orbital magnetization" >
   <i type="logical" name="NUCIND"> F  </i>
   <v name="MAGPOS">      0.00000000      0.00000000      0.00000000</v>
   <i type="logical" name="LNICSALL"> T  </i>
   <i type="logical" name="ORBITALMAG"> F  </i>
   <i type="logical" name="LMAGBLOCH"> F  </i>
   <i type="logical" name="LCHIMAG"> F  </i>
   <i type="logical" name="LGAUGE"> T  </i>
   <i type="int" name="MAGATOM">     0</i>
   <v name="MAGDIPOL">      0.00000000      0.00000000      0.00000000</v>
   <v name="AVECCONST">      0.00000000      0.00000000      0.00000000</v>
  </separator>
  <separator name="response functions" >
   <i type="logical" name="LADDER"> F  </i>
   <i type="logical" name="LRPAFORCE"> F  </i>
   <i type="logical" name="LFXC"> F  </i>
   <i type="logical" name="LHARTREE"> T  </i>
   <i type="int" name="IBSE">     0</i>
   <v type="int" name="KPOINT">    -1     0     0     0</v>
   <i type="logical" name="LTCTE"> F  </i>
   <i type="logical" name="LTETE"> F  </i>
   <i type="logical" name="LTRIPLET"> F  </i>
   <i type="logical" name="LFXCEPS"> F  </i>
   <i type="logical" name="LFXHEG"> F  </i>
   <i type="int" name="NATURALO">     2</i>
   <i type="logical" name="L2ORDER"> F  </i>
   <i type="logical" name="LMP2LT"> F  </i>
   <i type="logical" name="LUSEW"> F  </i>
   <i name="ENCUTGW">     -2.00000000</i>
   <i name="ENCUTGWSOFT">     -2.00000000</i>
   <i name="ENCUTLF">     -1.00000000</i>
   <i type="int" name="LMAXMP2">    -1</i>
   <i name="SCISSOR">      0.00000000</i>
   <i type="int" name="NOMEGA">     0</i>
   <i type="int" name="NOMEGAR">     0</i>
   <i type="int" name="NBANDSGW">    -1</i>
   <i type="int" name="NBANDSO">    -1</i>
   <i type="int" name="NBANDSV">    -1</i>
   <i type="int" name="NELM">     1</i>
   <i type="int" name="NELMHF">     1</i>
   <i type="int" name="DIM">     3</i>
   <i type="int" name="ANTIRES">     0</i>
   <i name="OMEGAMAX">    -30.00000000</i>
   <i name="OMEGAMIN">    -30.00000000</i>
   <i name="OMEGATL">   -200.00000000</i>
   <i type="int" name="OMEGAGRID">   140</i>
   <i name="CSHIFT">     -0.10000000</i>
   <i type="logical" name="SELFENERGY"> F  </i>
   <i type="logical" name="LSPECTRAL"> F  </i>
   <i type="logical" name="LSPECTRALGW"> F  </i>
   <i type="logical" name="LSINGLES"> F  </i>
   <i type="logical" name="LFERMIGW"> F  </i>
   <i type="logical" name="ODDONLYGW"> F  </i>
   <i type="logical" name="EVENONLYGW"> F  </i>
   <i type="int" name="NKREDLFX">     1</i>
   <i type="int" name="NKREDLFY">     1</i>
   <i type="int" name="NKREDLFZ">     1</i>
   <i type="int" name="MAXMEM">  2800</i>
   <i type="int" name="TELESCOPE">     0</i>
   <i type="int" name="TAUPAR">     1</i>
   <i type="int" name="OMEGAPAR">    -1</i>
   <i name="LAMBDA">      1.00000000</i>
  </separator>
  <separator name="External order field" >
   <i name="OFIELD_KAPPA">      0.00000000</i>
   <v name="OFIELD_K">      0.00000000      0.00000000      0.00000000</v>
   <i name="OFIELD_Q6_NEAR">      0.00000000</i>
   <i name="OFIELD_Q6_FAR">      0.00000000</i>
   <i name="OFIELD_A">      0.00000000</i>
  </separator>
 </parameters>
 <atominfo>
  <atoms>      80 </atoms>
  <types>       3 </types>
  <array name="atoms" >
   <dimension dim="1">ion</dimension>
   <field type="string">element</field>
   <field type="int">atomtype</field>
   <set>
    <rc><c>Sc</c><c>   1</c></rc>
    <rc><c>Sc</c><c>   1</c></rc>
    <rc><c>Sc</c><c>   1</c></rc>
    <rc><c>Sc</c><c>   1</c></rc>
    <rc><c>Sc</c><c>   1</c></rc>
    <rc><c>Sc</c><c>   1</c></rc>
    <rc><c>Sc</c><c>   1</c></rc>
    <rc><c>Sc</c><c>   1</c></rc>
    <rc><c>Sc</c><c>   1</c></rc>
    <rc><c>Sc</c><c>   1</c></rc>
    <rc><c>Sc</c><c>   1</c></rc>
    <rc><c>Sc</c><c>   1</c></rc>
    <rc><c>Sc</c><c>   1</c></rc>
    <rc><c>Sc</c><c>   1</c></rc>
    <rc><c>Sc</c><c>   1</c></rc>
    <rc><c>Sc</c><c>   1</c></rc>
    <rc><c>Sc</c><c>   1</c></rc>
    <rc><c>Sc</c><c>   1</c></rc>
    <rc><c>Sc</c><c>   1</c></rc>
    <rc><c>Sc</c><c>   1</c></rc>
    <rc><c>Sc</c><c>   1</c></rc>
    <rc><c>Sc</c><c>   1</c></rc>
    <rc><c>Sc</c><c>   1</c></rc>
    <rc><c>Sc</c><c>   1</c></rc>
    <rc><c>Sc</c><c>   1</c></rc>
    <rc><c>Sc</c><c>   1</c></rc>
    <rc><c>Sc</c><c>   1</c></rc>
    <rc><c>Sc</c><c>   1</c></rc>
    <rc><c>Sc</c><c>   1</c></rc>
    <rc><c>Sc</c><c>   1</c></rc>
    <rc><c>Sc</c><c>   1</c></rc>
    <rc><c>Sc</c><c>   1</c></rc>
    <rc><c>F </c><c>   2</c></rc>
    <rc><c>F </c><c>   2</c></rc>
    <rc><c>F </c><c>   2</c></rc>
    <rc><c>F </c><c>   2</c></rc>
    <rc><c>F </c><c>   2</c></rc>
    <rc><c>F </c><c>   2</c></rc>
    <rc><c>F </c><c>   2</c></rc>
    <rc><c>F </c><c>   2</c></rc>
    <rc><c>F </c><c>   2</c></rc>
    <rc><c>F </c><c>   2</c></rc>
    <rc><c>F </c><c>   2</c></rc>
    <rc><c>F </c><c>   2</c></rc>
    <rc><c>F </c><c>   2</c></rc>
    <rc><c>F </c><c>   2</c></rc>
    <rc><c>F </c><c>   2</c></rc>
    <rc><c>F </c><c>   2</c></rc>
    <rc><c>F </c><c>   2</c></rc>
    <rc><c>F </c><c>   2</c></rc>
    <rc><c>F </c><c>   2</c></rc>
    <rc><c>F </c><c>   2</c></rc>
    <rc><c>F </c><c>   2</c></rc>
    <rc><c>F </c><c>   2</c></rc>
    <rc><c>F </c><c>   2</c></rc>
    <rc><c>F </c><c>   2</c></rc>
    <rc><c>F </c><c>   2</c></rc>
    <rc><c>F </c><c>   2</c></rc>
    <rc><c>F </c><c>   2</c></rc>
    <rc><c>F </c><c>   2</c></rc>
    <rc><c>F </c><c>   2</c></rc>
    <rc><c>F </c><c>   2</c></rc>
    <rc><c>F </c><c>   2</c></rc>
    <rc><c>F </c><c>   2</c></rc>
    <rc><c>C </c><c>   3</c></rc>
    <rc><c>C </c><c>   3</c></rc>
    <rc><c>C </c><c>   3</c></rc>
    <rc><c>C </c><c>   3</c></rc>
    <rc><c>C </c><c>   3</c></rc>
    <rc><c>C </c><c>   3</c></rc>
    <rc><c>C </c><c>   3</c></rc>
    <rc><c>C </c><c>   3</c></rc>
    <rc><c>C </c><c>   3</c></rc>
    <rc><c>C </c><c>   3</c></rc>
    <rc><c>C </c><c>   3</c></rc>
    <rc><c>C </c><c>   3</c></rc>
    <rc><c>C </c><c>   3</c></rc>
    <rc><c>C </c><c>   3</c></rc>
    <rc><c>C </c><c>   3</c></rc>
    <rc><c>C </c><c>   3</c></rc>
   </set>
  </array>
  <array name="atomtypes" >
   <dimension dim="1">type</dimension>
   <field type="int">atomspertype</field>
   <field type="string">element</field>
   <field>mass</field>
   <field>valence</field>
   <field type="string">pseudopotential</field>
   <set>
    <rc><c>  32</c><c>Sc</c><c>     44.95600000</c><c>     11.00000000</c><c>  PAW_PBE Sc_sv 07Sep2000               </c></rc>
    <rc><c>  32</c><c>F </c><c>     18.99800000</c><c>      7.00000000</c><c>  PAW_PBE F 08Apr2002                   </c></rc>
    <rc><c>  16</c><c>C </c><c>     12.01100000</c><c>      4.00000000</c><c>  PAW_PBE C 08Apr2002                   </c></rc>
   </set>
  </array>
 </atominfo>
 <structure name="initialpos" >
  <crystal>
   <varray name="basis" >
    <v>      13.12862340       0.00000000       0.00000000 </v>
    <v>      -6.56431170      11.36972138       0.00000000 </v>
    <v>       0.00000000       0.00000000      26.82809424 </v>
   </varray>
   <i name="volume">   4004.59716953 </i>
   <varray name="rec_basis" >
    <v>       0.07616945       0.04397645       0.00000000 </v>
    <v>       0.00000000       0.08795290       0.00000000 </v>
    <v>       0.00000000       0.00000000       0.03727436 </v>
   </varray>
  </crystal>
  <varray name="positions" >
   <v>       0.09747564       0.17826666       0.45668652 </v>
   <v>       0.08663255       0.41900733       0.45356128 </v>
   <v>       0.08021321       0.66984977       0.45422724 </v>
   <v>       0.08221626       0.92316410       0.45017502 </v>
   <v>       0.33528305       0.18259190       0.45154806 </v>
   <v>       0.34057002       0.42792206       0.45535714 </v>
   <v>       0.32010066       0.66734791       0.45869384 </v>
   <v>       0.33895494       0.91512851       0.45324840 </v>
   <v>       0.58125666       0.17219013       0.45184707 </v>
   <v>       0.57935875       0.42127218       0.45077504 </v>
   <v>       0.58745402       0.66339674       0.44874453 </v>
   <v>       0.57630300       0.91387361       0.44709684 </v>
   <v>       0.84847668       0.16930801       0.45014169 </v>
   <v>       0.82051438       0.40941369       0.44824217 </v>
   <v>       0.83342881       0.66173185       0.45451561 </v>
   <v>       0.84132985       0.92544151       0.45014290 </v>
   <v>       0.16415210       0.07958723       0.54700690 </v>
   <v>       0.16288273       0.32988957       0.55298925 </v>
   <v>       0.16161142       0.57326403       0.54447265 </v>
   <v>       0.16077919       0.82733258       0.55264370 </v>
   <v>       0.42507835       0.09570657       0.54411290 </v>
   <v>       0.42616516       0.34231841       0.55235118 </v>
   <v>       0.42629648       0.58836609       0.54371271 </v>
   <v>       0.42286033       0.84601700       0.54969930 </v>
   <v>       0.65927994       0.07404981       0.54425590 </v>
   <v>       0.66347077       0.33658765       0.54522361 </v>
   <v>       0.67668040       0.57861622       0.54350008 </v>
   <v>       0.67040443       0.84326497       0.54105727 </v>
   <v>       0.90741115       0.07950362       0.54942683 </v>
   <v>       0.91668197       0.33202021       0.55664608 </v>
   <v>       0.91600618       0.57596405       0.54530730 </v>
   <v>       0.91214361       0.82833239       0.54440366 </v>
   <v>       0.07067703       0.14837241       0.59737796 </v>
   <v>       0.08714860       0.40498288       0.59757162 </v>
   <v>       0.07860961       0.66722071       0.59534304 </v>
   <v>       0.06867631       0.91371680       0.58912548 </v>
   <v>       0.35711483       0.16182581       0.59037456 </v>
   <v>       0.34803431       0.42555151       0.59231640 </v>
   <v>       0.34184946       0.65514155       0.59268285 </v>
   <v>       0.33810186       0.91624786       0.59208992 </v>
   <v>       0.57488753       0.16294316       0.58764888 </v>
   <v>       0.58744494       0.41771682       0.59182690 </v>
   <v>       0.59787017       0.68117341       0.58709860 </v>
   <v>       0.58849368       0.90223156       0.58923707 </v>
   <v>       0.82015957       0.15986435       0.58216710 </v>
   <v>       0.82022198       0.41697779       0.59516866 </v>
   <v>       0.82263961       0.64619848       0.58967100 </v>
   <v>       0.83519311       0.92124484       0.59310328 </v>
   <v>       0.15303826       0.07888142       0.40587081 </v>
   <v>       0.18825867       0.33466773       0.40699817 </v>
   <v>       0.16758789       0.57871147       0.41147409 </v>
   <v>       0.14379843       0.81863103       0.41091537 </v>
   <v>       0.41361654       0.07368966       0.41258872 </v>
   <v>       0.41753513       0.33521523       0.40640240 </v>
   <v>       0.41617726       0.58680782       0.40697727 </v>
   <v>       0.41717480       0.84979233       0.41234329 </v>
   <v>       0.68050665       0.07779177       0.40752445 </v>
   <v>       0.65514121       0.33520206       0.41143286 </v>
   <v>       0.67868919       0.57576125       0.41032371 </v>
   <v>       0.64478281       0.81971434       0.40769981 </v>
   <v>       0.92288281       0.09069232       0.41194143 </v>
   <v>       0.91334915       0.33583137       0.41168608 </v>
   <v>       0.90430160       0.56770980       0.40673525 </v>
   <v>       0.91283359       0.84019459       0.41066118 </v>
   <v>       0.99204699       0.99092601       0.50178129 </v>
   <v>       0.00294638       0.24705198       0.50258325 </v>
   <v>       0.00126923       0.48925389       0.50338884 </v>
   <v>       0.00501450       0.74188679       0.50205777 </v>
   <v>       0.25285441       0.00284616       0.50147079 </v>
   <v>       0.26166368       0.25137295       0.50526670 </v>
   <v>       0.24148492       0.49039075       0.49972762 </v>
   <v>       0.25031371       0.74953089       0.49873474 </v>
   <v>       0.49204412       0.98895160       0.50206285 </v>
   <v>       0.49206350       0.26037474       0.49436603 </v>
   <v>       0.50713264       0.50461941       0.50413582 </v>
   <v>       0.49853937       0.75319839       0.50072341 </v>
   <v>       0.74900740       0.00681236       0.49956288 </v>
   <v>       0.73371667       0.24793637       0.49562116 </v>
   <v>       0.74452896       0.49724146       0.50060819 </v>
   <v>       0.74752233       0.74480411       0.49580867 </v>
  </varray>
  <varray name="velocities" >
   <v>       0.00000000       0.00000000       0.00000000 </v>
   <v>       0.00000000       0.00000000       0.00000000 </v>
   <v>       0.00000000       0.00000000       0.00000000 </v>
   <v>       0.00000000       0.00000000       0.00000000 </v>
   <v>       0.00000000       0.00000000       0.00000000 </v>
   <v>       0.00000000       0.00000000       0.00000000 </v>
   <v>       0.00000000       0.00000000       0.00000000 </v>
   <v>       0.00000000       0.00000000       0.00000000 </v>
   <v>       0.00000000       0.00000000       0.00000000 </v>
   <v>       0.00000000       0.00000000       0.00000000 </v>
   <v>       0.00000000       0.00000000       0.00000000 </v>
   <v>       0.00000000       0.00000000       0.00000000 </v>
   <v>       0.00000000       0.00000000       0.00000000 </v>
   <v>       0.00000000       0.00000000       0.00000000 </v>
   <v>       0.00000000       0.00000000       0.00000000 </v>
   <v>       0.00000000       0.00000000       0.00000000 </v>
   <v>       0.00000000       0.00000000       0.00000000 </v>
   <v>       0.00000000       0.00000000       0.00000000 </v>
   <v>       0.00000000       0.00000000       0.00000000 </v>
   <v>       0.00000000       0.00000000       0.00000000 </v>
   <v>       0.00000000       0.00000000       0.00000000 </v>
   <v>       0.00000000       0.00000000       0.00000000 </v>
   <v>       0.00000000       0.00000000       0.00000000 </v>
   <v>       0.00000000       0.00000000       0.00000000 </v>
   <v>       0.00000000       0.00000000       0.00000000 </v>
   <v>       0.00000000       0.00000000       0.00000000 </v>
   <v>       0.00000000       0.00000000       0.00000000 </v>
   <v>       0.00000000       0.00000000       0.00000000 </v>
   <v>       0.00000000       0.00000000       0.00000000 </v>
   <v>       0.00000000       0.00000000       0.00000000 </v>
   <v>       0.00000000       0.00000000       0.00000000 </v>
   <v>       0.00000000       0.00000000       0.00000000 </v>
   <v>       0.00000000       0.00000000       0.00000000 </v>
   <v>       0.00000000       0.00000000       0.00000000 </v>
   <v>       0.00000000       0.00000000       0.00000000 </v>
   <v>       0.00000000       0.00000000       0.00000000 </v>
   <v>       0.00000000       0.00000000       0.00000000 </v>
   <v>       0.00000000       0.00000000       0.00000000 </v>
   <v>       0.00000000       0.00000000       0.00000000 </v>
   <v>       0.00000000       0.00000000       0.00000000 </v>
   <v>       0.00000000       0.00000000       0.00000000 </v>
   <v>       0.00000000       0.00000000       0.00000000 </v>
   <v>       0.00000000       0.00000000       0.00000000 </v>
   <v>       0.00000000       0.00000000       0.00000000 </v>
   <v>       0.00000000       0.00000000       0.00000000 </v>
   <v>       0.00000000       0.00000000       0.00000000 </v>
   <v>       0.00000000       0.00000000       0.00000000 </v>
   <v>       0.00000000       0.00000000       0.00000000 </v>
   <v>       0.00000000       0.00000000       0.00000000 </v>
   <v>       0.00000000       0.00000000       0.00000000 </v>
   <v>       0.00000000       0.00000000       0.00000000 </v>
   <v>       0.00000000       0.00000000       0.00000000 </v>
   <v>       0.00000000       0.00000000       0.00000000 </v>
   <v>       0.00000000       0.00000000       0.00000000 </v>
   <v>       0.00000000       0.00000000       0.00000000 </v>
   <v>       0.00000000       0.00000000       0.00000000 </v>
   <v>       0.00000000       0.00000000       0.00000000 </v>
   <v>       0.00000000       0.00000000       0.00000000 </v>
   <v>       0.00000000       0.00000000       0.00000000 </v>
   <v>       0.00000000       0.00000000       0.00000000 </v>
   <v>       0.00000000       0.00000000       0.00000000 </v>
   <v>       0.00000000       0.00000000       0.00000000 </v>
   <v>       0.00000000       0.00000000       0.00000000 </v>
   <v>       0.00000000       0.00000000       0.00000000 </v>
   <v>       0.00000000       0.00000000       0.00000000 </v>
   <v>       0.00000000       0.00000000       0.00000000 </v>
   <v>       0.00000000       0.00000000       0.00000000 </v>
   <v>       0.00000000       0.00000000       0.00000000 </v>
   <v>       0.00000000       0.00000000       0.00000000 </v>
   <v>       0.00000000       0.00000000       0.00000000 </v>
   <v>       0.00000000       0.00000000       0.00000000 </v>
   <v>       0.00000000       0.00000000       0.00000000 </v>
   <v>       0.00000000       0.00000000       0.00000000 </v>
   <v>       0.00000000       0.00000000       0.00000000 </v>
   <v>       0.00000000       0.00000000       0.00000000 </v>
   <v>       0.00000000       0.00000000       0.00000000 </v>
   <v>       0.00000000       0.00000000       0.00000000 </v>
   <v>       0.00000000       0.00000000       0.00000000 </v>
   <v>       0.00000000       0.00000000       0.00000000 </v>
   <v>       0.00000000       0.00000000       0.00000000 </v>
  </varray>
 </structure>
 <calculation>
  <scstep>
   <time name="dav">   46.24   46.24</time>
   <time name="total">   47.11   47.12</time>
   <energy>
    <i name="alphaZ">    871.83850952 </i>
    <i name="ewald"> 286445.65666104 </i>
    <i name="hartreedc">-340785.44377677 </i>
    <i name="XCdc">   3043.50504378 </i>
    <i name="pawpsdc">  50525.51240023 </i>
    <i name="pawaedc"> -50422.77561733 </i>
    <i name="eentropy">     -0.07536743 </i>
    <i name="bandstr">   -229.06263361 </i>
    <i name="atom">  64207.43592568 </i>
    <i name="e_fr_energy">  13656.59114512 </i>
    <i name="e_wo_entrp">  13656.66651254 </i>
    <i name="e_0_energy">  13656.62882883 </i>
   </energy>
  </scstep>
  <scstep>
   <time name="dav">   48.99   49.01</time>
   <time name="total">   48.99   49.01</time>
   <energy>
    <i name="e_fr_energy">   2498.65913253 </i>
    <i name="e_wo_entrp">   2498.70508000 </i>
    <i name="e_0_energy">   2498.68210626 </i>
   </energy>
  </scstep>
  <scstep>
   <time name="dav">   67.49   67.50</time>
   <time name="total">   67.50   67.50</time>
   <energy>
    <i name="e_fr_energy">   -377.23101253 </i>
    <i name="e_wo_entrp">   -377.23101253 </i>
    <i name="e_0_energy">   -377.23101253 </i>
   </energy>
  </scstep>
  <scstep>
   <time name="dav">   61.36   61.37</time>
   <time name="total">   61.36   61.37</time>
   <energy>
    <i name="e_fr_energy">   -737.39188072 </i>
    <i name="e_wo_entrp">   -737.39188072 </i>
    <i name="e_0_energy">   -737.39188072 </i>
   </energy>
  </scstep>
  <scstep>
   <time name="dav">   61.36   61.37</time>
   <time name="total">   64.98   64.99</time>
   <energy>
    <i name="e_fr_energy">   -751.90931150 </i>
    <i name="e_wo_entrp">   -751.90931150 </i>
    <i name="e_0_energy">   -751.90931150 </i>
   </energy>
  </scstep>
  <scstep>
   <time name="dav">   58.14   58.15</time>
   <time name="total">   62.57   62.60</time>
   <energy>
    <i name="e_fr_energy">   -595.98861981 </i>
    <i name="e_wo_entrp">   -595.98861981 </i>
    <i name="e_0_energy">   -595.98861981 </i>
   </energy>
  </scstep>
  <scstep>
   <time name="dav">   60.17   60.17</time>
   <time name="total">   64.59   64.60</time>
   <energy>
    <i name="e_fr_energy">   -595.92087470 </i>
    <i name="e_wo_entrp">   -595.92087470 </i>
    <i name="e_0_energy">   -595.92087470 </i>
   </energy>
  </scstep>
  <scstep>
   <time name="dav">   56.48   56.48</time>
   <time name="total">   60.91   60.92</time>
   <energy>
    <i name="e_fr_energy">   -594.37772452 </i>
    <i name="e_wo_entrp">   -594.37772452 </i>
    <i name="e_0_energy">   -594.37772452 </i>
   </energy>
  </scstep>
  <scstep>
   <time name="dav">   57.09   57.09</time>
   <time name="total">   61.54   61.56</time>
   <energy>
    <i name="e_fr_energy">   -593.89346818 </i>
    <i name="e_wo_entrp">   -593.89346818 </i>
    <i name="e_0_energy">   -593.89346818 </i>
   </energy>
  </scstep>
  <scstep>
   <time name="dav">   60.72   60.72</time>
   <time name="total">   65.11   65.13</time>
   <energy>
    <i name="e_fr_energy">   -593.84820253 </i>
    <i name="e_wo_entrp">   -593.84820253 </i>
    <i name="e_0_energy">   -593.84820253 </i>
   </energy>
  </scstep>
  <scstep>
   <time name="dav">   56.96   56.97</time>
   <time name="total">   61.33   61.35</time>
   <energy>
    <i name="e_fr_energy">   -593.74011009 </i>
    <i name="e_wo_entrp">   -593.74011009 </i>
    <i name="e_0_energy">   -593.74011009 </i>
   </energy>
  </scstep>
  <scstep>
   <time name="dav">   59.32   59.32</time>
   <time name="total">   63.68   63.70</time>
   <energy>
    <i name="e_fr_energy">   -593.70008151 </i>
    <i name="e_wo_entrp">   -593.70008151 </i>
    <i name="e_0_energy">   -593.70008151 </i>
   </energy>
  </scstep>
  <scstep>
   <time name="dav">   57.55   57.55</time>
   <time name="total">   61.91   61.92</time>
   <energy>
    <i name="e_fr_energy">   -593.69037122 </i>
    <i name="e_wo_entrp">   -593.69037122 </i>
    <i name="e_0_energy">   -593.69037122 </i>
   </energy>
  </scstep>
  <scstep>
   <time name="dav">   57.31   57.31</time>
   <time name="total">   61.67   61.68</time>
   <energy>
    <i name="e_fr_energy">   -593.68519609 </i>
    <i name="e_wo_entrp">   -593.68519609 </i>
    <i name="e_0_energy">   -593.68519609 </i>
   </energy>
  </scstep>
  <scstep>
   <time name="dav">   57.66   57.66</time>
   <time name="total">   62.05   62.07</time>
   <energy>
    <i name="e_fr_energy">   -593.69009351 </i>
    <i name="e_wo_entrp">   -593.69009351 </i>
    <i name="e_0_energy">   -593.69009351 </i>
   </energy>
  </scstep>
  <scstep>
   <time name="dav">   58.90   58.90</time>
   <time name="total">   63.29   63.31</time>
   <energy>
    <i name="e_fr_energy">   -593.69374764 </i>
    <i name="e_wo_entrp">   -593.69374764 </i>
    <i name="e_0_energy">   -593.69374764 </i>
   </energy>
  </scstep>
  <scstep>
   <time name="dav">   59.41   59.42</time>
   <time name="total">   63.85   63.87</time>
   <energy>
    <i name="e_fr_energy">   -593.69912239 </i>
    <i name="e_wo_entrp">   -593.69912239 </i>
    <i name="e_0_energy">   -593.69912239 </i>
   </energy>
  </scstep>
  <scstep>
   <time name="dav">   55.72   55.72</time>
   <time name="total">   60.10   60.11</time>
   <energy>
    <i name="e_fr_energy">   -593.70276203 </i>
    <i name="e_wo_entrp">   -593.70276203 </i>
    <i name="e_0_energy">   -593.70276203 </i>
   </energy>
  </scstep>
  <scstep>
   <time name="dav">   57.52   57.52</time>
   <time name="total">   61.98   61.99</time>
   <energy>
    <i name="e_fr_energy">   -593.70447527 </i>
    <i name="e_wo_entrp">   -593.70447527 </i>
    <i name="e_0_energy">   -593.70447527 </i>
   </energy>
  </scstep>
  <scstep>
   <time name="dav">   56.31   56.31</time>
   <time name="total">   60.65   60.66</time>
   <energy>
    <i name="e_fr_energy">   -593.70726975 </i>
    <i name="e_wo_entrp">   -593.70726975 </i>
    <i name="e_0_energy">   -593.70726975 </i>
   </energy>
  </scstep>
  <scstep>
   <time name="dav">   47.68   47.68</time>
   <time name="total">   52.02   52.03</time>
   <energy>
    <i name="e_fr_energy">   -593.70975529 </i>
    <i name="e_wo_entrp">   -593.70975529 </i>
    <i name="e_0_energy">   -593.70975529 </i>
   </energy>
  </scstep>
  <scstep>
   <time name="dav">   46.98   46.98</time>
   <time name="total">   51.32   51.33</time>
   <energy>
    <i name="e_fr_energy">   -593.71130899 </i>
    <i name="e_wo_entrp">   -593.71130899 </i>
    <i name="e_0_energy">   -593.71130899 </i>
   </energy>
  </scstep>
  <scstep>
   <time name="dav">   49.71   49.71</time>
   <time name="total">   54.15   54.16</time>
   <energy>
    <i name="e_fr_energy">   -593.71187667 </i>
    <i name="e_wo_entrp">   -593.71187667 </i>
    <i name="e_0_energy">   -593.71187667 </i>
   </energy>
  </scstep>
  <scstep>
   <time name="dav">   47.90   47.90</time>
   <time name="total">   52.29   52.29</time>
   <energy>
    <i name="e_fr_energy">   -593.71223348 </i>
    <i name="e_wo_entrp">   -593.71223348 </i>
    <i name="e_0_energy">   -593.71223348 </i>
   </energy>
  </scstep>
  <scstep>
   <time name="dav">   45.29   45.29</time>
   <time name="total">   49.70   49.71</time>
   <energy>
    <i name="e_fr_energy">   -593.71241923 </i>
    <i name="e_wo_entrp">   -593.71241923 </i>
    <i name="e_0_energy">   -593.71241923 </i>
   </energy>
  </scstep>
  <scstep>
   <time name="dav">   37.94   37.94</time>
   <time name="total">   42.33   42.34</time>
   <energy>
    <i name="e_fr_energy">   -593.71250881 </i>
    <i name="e_wo_entrp">   -593.71250881 </i>
    <i name="e_0_energy">   -593.71250881 </i>
   </energy>
  </scstep>
  <scstep>
   <time name="dav">   33.62   33.62</time>
   <time name="total">   38.03   38.04</time>
   <energy>
    <i name="e_fr_energy">   -593.71253839 </i>
    <i name="e_wo_entrp">   -593.71253839 </i>
    <i name="e_0_energy">   -593.71253839 </i>
   </energy>
  </scstep>
  <scstep>
   <time name="dav">   33.55   33.55</time>
   <time name="total">   37.97   37.97</time>
   <energy>
    <i name="e_fr_energy">   -593.71255954 </i>
    <i name="e_wo_entrp">   -593.71255954 </i>
    <i name="e_0_energy">   -593.71255954 </i>
   </energy>
  </scstep>
  <scstep>
   <time name="dav">   33.38   33.38</time>
   <time name="total">   37.85   37.86</time>
   <energy>
    <i name="e_fr_energy">   -593.71256927 </i>
    <i name="e_wo_entrp">   -593.71256927 </i>
    <i name="e_0_energy">   -593.71256927 </i>
   </energy>
  </scstep>
  <scstep>
   <time name="dav">   32.55   32.55</time>
   <time name="total">   36.95   36.97</time>
   <energy>
    <i name="e_fr_energy">   -593.71257425 </i>
    <i name="e_wo_entrp">   -593.71257425 </i>
    <i name="e_0_energy">   -593.71257425 </i>
   </energy>
  </scstep>
  <scstep>
   <time name="dav">   31.97   31.97</time>
   <time name="total">   36.43   36.45</time>
   <energy>
    <i name="e_fr_energy">   -593.71257549 </i>
    <i name="e_wo_entrp">   -593.71257549 </i>
    <i name="e_0_energy">   -593.71257549 </i>
   </energy>
  </scstep>
  <scstep>
   <time name="dav">   31.96   31.96</time>
   <time name="total">   32.75   32.75</time>
   <energy>
    <i name="alphaZ">    871.83850952 </i>
    <i name="ewald"> 286445.65666104 </i>
    <i name="hartreedc">-342003.02458532 </i>
    <i name="XCdc">   3055.18640830 </i>
    <i name="pawpsdc">  66783.73269474 </i>
    <i name="pawaedc"> -66776.93281120 </i>
    <i name="eentropy">     -0.00000000 </i>
    <i name="bandstr"> -13177.60537915 </i>
    <i name="atom">  64207.43592568 </i>
    <i name="e_fr_energy">   -593.71257639 </i>
    <i name="e_wo_entrp">   -593.71257639 </i>
    <i name="e_0_energy">   -593.71257639 </i>
   </energy>
  </scstep>
  <structure>
   <crystal>
    <varray name="basis" >
     <v>      13.12862340       0.00000000       0.00000000 </v>
     <v>      -6.56431170      11.36972138       0.00000000 </v>
     <v>       0.00000000       0.00000000      26.82809424 </v>
    </varray>
    <i name="volume">   4004.59716953 </i>
    <varray name="rec_basis" >
     <v>       0.07616945       0.04397645       0.00000000 </v>
     <v>       0.00000000       0.08795290       0.00000000 </v>
     <v>       0.00000000       0.00000000       0.03727436 </v>
    </varray>
   </crystal>
   <varray name="positions" >
    <v>       0.09747564       0.17826666       0.45668652 </v>
    <v>       0.08663255       0.41900733       0.45356128 </v>
    <v>       0.08021321       0.66984977       0.45422724 </v>
    <v>       0.08221626       0.92316410       0.45017502 </v>
    <v>       0.33528305       0.18259190       0.45154806 </v>
    <v>       0.34057002       0.42792206       0.45535714 </v>
    <v>       0.32010066       0.66734791       0.45869384 </v>
    <v>       0.33895494       0.91512851       0.45324840 </v>
    <v>       0.58125666       0.17219013       0.45184707 </v>
    <v>       0.57935875       0.42127218       0.45077504 </v>
    <v>       0.58745402       0.66339674       0.44874453 </v>
    <v>       0.57630300       0.91387361       0.44709684 </v>
    <v>       0.84847668       0.16930801       0.45014169 </v>
    <v>       0.82051438       0.40941369       0.44824217 </v>
    <v>       0.83342881       0.66173185       0.45451561 </v>
    <v>       0.84132985       0.92544151       0.45014290 </v>
    <v>       0.16415210       0.07958723       0.54700690 </v>
    <v>       0.16288273       0.32988957       0.55298925 </v>
    <v>       0.16161142       0.57326403       0.54447265 </v>
    <v>       0.16077919       0.82733258       0.55264370 </v>
    <v>       0.42507835       0.09570657       0.54411290 </v>
    <v>       0.42616516       0.34231841       0.55235118 </v>
    <v>       0.42629648       0.58836609       0.54371271 </v>
    <v>       0.42286033       0.84601700       0.54969930 </v>
    <v>       0.65927994       0.07404981       0.54425590 </v>
    <v>       0.66347077       0.33658765       0.54522361 </v>
    <v>       0.67668040       0.57861622       0.54350008 </v>
    <v>       0.67040443       0.84326497       0.54105727 </v>
    <v>       0.90741115       0.07950362       0.54942683 </v>
    <v>       0.91668197       0.33202021       0.55664608 </v>
    <v>       0.91600618       0.57596405       0.54530730 </v>
    <v>       0.91214361       0.82833239       0.54440366 </v>
    <v>       0.07067703       0.14837241       0.59737796 </v>
    <v>       0.08714860       0.40498288       0.59757162 </v>
    <v>       0.07860961       0.66722071       0.59534304 </v>
    <v>       0.06867631       0.91371680       0.58912548 </v>
    <v>       0.35711483       0.16182581       0.59037456 </v>
    <v>       0.34803431       0.42555151       0.59231640 </v>
    <v>       0.34184946       0.65514155       0.59268285 </v>
    <v>       0.33810186       0.91624786       0.59208992 </v>
    <v>       0.57488753       0.16294316       0.58764888 </v>
    <v>       0.58744494       0.41771682       0.59182690 </v>
    <v>       0.59787017       0.68117341       0.58709860 </v>
    <v>       0.58849368       0.90223156       0.58923707 </v>
    <v>       0.82015957       0.15986435       0.58216710 </v>
    <v>       0.82022198       0.41697779       0.59516866 </v>
    <v>       0.82263961       0.64619848       0.58967100 </v>
    <v>       0.83519311       0.92124484       0.59310328 </v>
    <v>       0.15303826       0.07888142       0.40587081 </v>
    <v>       0.18825867       0.33466773       0.40699817 </v>
    <v>       0.16758789       0.57871147       0.41147409 </v>
    <v>       0.14379843       0.81863103       0.41091537 </v>
    <v>       0.41361654       0.07368966       0.41258872 </v>
    <v>       0.41753513       0.33521523       0.40640240 </v>
    <v>       0.41617726       0.58680782       0.40697727 </v>
    <v>       0.41717480       0.84979233       0.41234329 </v>
    <v>       0.68050665       0.07779177       0.40752445 </v>
    <v>       0.65514121       0.33520206       0.41143286 </v>
    <v>       0.67868919       0.57576125       0.41032371 </v>
    <v>       0.64478281       0.81971434       0.40769981 </v>
    <v>       0.92288281       0.09069232       0.41194143 </v>
    <v>       0.91334915       0.33583137       0.41168608 </v>
    <v>       0.90430160       0.56770980       0.40673525 </v>
    <v>       0.91283359       0.84019459       0.41066118 </v>
    <v>       0.99204699       0.99092601       0.50178129 </v>
    <v>       0.00294638       0.24705198       0.50258325 </v>
    <v>       0.00126923       0.48925389       0.50338884 </v>
    <v>       0.00501450       0.74188679       0.50205777 </v>
    <v>       0.25285441       0.00284616       0.50147079 </v>
    <v>       0.26166368       0.25137295       0.50526670 </v>
    <v>       0.24148492       0.49039075       0.49972762 </v>
    <v>       0.25031371       0.74953089       0.49873474 </v>
    <v>       0.49204412       0.98895160       0.50206285 </v>
    <v>       0.49206350       0.26037474       0.49436603 </v>
    <v>       0.50713264       0.50461941       0.50413582 </v>
    <v>       0.49853937       0.75319839       0.50072341 </v>
    <v>       0.74900740       0.00681236       0.49956288 </v>
    <v>       0.73371667       0.24793637       0.49562116 </v>
    <v>       0.74452896       0.49724146       0.50060819 </v>
    <v>       0.74752233       0.74480411       0.49580867 </v>
   </varray>
  </structure>
  <varray name="forces" >
   <v>      -0.30904663      -0.40933355      -0.12939185 </v>
   <v>      -0.27259151      -0.54735453      -0.01943773 </v>
   <v>       0.73575087      -0.61186922      -0.34091305 </v>
   <v>       0.97271851      -0.26778706       0.84503066 </v>
   <v>       0.62822067      -1.65463843       0.16724022 </v>
   <v>      -0.25892543      -0.49155439      -0.50740502 </v>
   <v>       2.29461408      -0.11013520      -1.68990589 </v>
   <v>      -2.45510549       0.89132981       1.26687323 </v>
   <v>      -0.12999127      -0.58832002      -0.42757359 </v>
   <v>       0.00348306      -0.66358121       0.55385260 </v>
   <v>      -0.83500874       0.74852274       0.62058333 </v>
   <v>       0.88491855       0.10782321       1.24358969 </v>
   <v>      -2.23038384       0.12848917       1.10793712 </v>
   <v>       0.80164903      -0.14586753       1.18531678 </v>
   <v>       0.11526803       0.52717801      -0.81878007 </v>
   <v>      -0.35801265      -0.95305873       0.79053661 </v>
   <v>       0.51482980      -0.22788430       0.51958728 </v>
   <v>       1.18238290      -0.03527101      -0.46811954 </v>
   <v>       0.42976869       1.22275225       2.02762562 </v>
   <v>       0.43651086       0.85280774      -0.75095908 </v>
   <v>      -0.65650284      -1.60507962      -0.39924489 </v>
   <v>      -0.57807898      -0.43313122      -0.56691292 </v>
   <v>      -0.33422325       1.12298005       2.30983418 </v>
   <v>       0.28956054      -2.35536094       0.36366375 </v>
   <v>      -0.57578239       1.04735526      -0.45876717 </v>
   <v>       0.54230854      -0.64644662       0.20993392 </v>
   <v>      -2.23508322       1.41926957       1.98492651 </v>
   <v>       0.36792250      -2.18597613       0.88053413 </v>
   <v>       1.33899239      -0.31243727      -0.26463194 </v>
   <v>      -0.38751254       0.55709889      -1.98335892 </v>
   <v>      -0.18023636       0.18942846       1.08273687 </v>
   <v>      -0.22678565       0.15471122       0.94574479 </v>
   <v>       0.01788706       0.57984794      -0.82495638 </v>
   <v>      -0.72584174       0.14530812      -0.39058351 </v>
   <v>       0.19352628      -0.21995171      -0.62983768 </v>
   <v>       0.60276566      -0.15622579       0.11781411 </v>
   <v>      -1.37225826       0.80313608       0.77903542 </v>
   <v>      -0.42663527      -0.29313963      -0.14380776 </v>
   <v>      -0.61698664       0.08991896      -0.60519039 </v>
   <v>      -0.39623332      -0.06126955      -0.07960879 </v>
   <v>       0.61659313       0.40975840       0.21577759 </v>
   <v>       0.13991966      -0.07138706      -0.14177817 </v>
   <v>      -0.11906122      -0.35295834      -0.34946333 </v>
   <v>      -0.78406833       0.99818391       0.19303138 </v>
   <v>       0.11178961       0.28812851       1.67770638 </v>
   <v>       0.66018426      -0.36282380      -0.73736673 </v>
   <v>       0.43120412       0.70721577       0.00068949 </v>
   <v>      -0.10105167      -0.25632748      -0.77844468 </v>
   <v>       0.16135226       0.29594496       0.56132949 </v>
   <v>      -0.51112023      -0.28009858       0.73321812 </v>
   <v>      -0.31494247       0.06551477      -0.16104413 </v>
   <v>       0.27709217       0.56674715      -0.39200067 </v>
   <v>      -0.08299236       0.46367788      -0.56399640 </v>
   <v>      -0.23716848       0.40702737       0.20504816 </v>
   <v>       0.25857799      -0.37420690       0.67815150 </v>
   <v>       0.62835996      -1.18421697      -1.46238686 </v>
   <v>      -0.42228068       0.12453447      -0.02519892 </v>
   <v>       0.47912627      -0.10931679      -0.92694056 </v>
   <v>      -0.66003975       0.49613652      -0.68311609 </v>
   <v>       0.47831654       0.49772369      -0.28761714 </v>
   <v>       0.57143626      -0.14757284      -0.65071131 </v>
   <v>       0.44085362      -0.07325574      -0.29431900 </v>
   <v>       0.14472686       0.53589289       0.38339606 </v>
   <v>       0.54806764      -0.30908563      -0.43902488 </v>
   <v>       0.27784248       0.99828247      -0.92694485 </v>
   <v>      -0.15278214       0.25359903       0.13770116 </v>
   <v>      -0.91184776       0.01404109      -0.06662042 </v>
   <v>      -1.47912498       0.24768574      -0.08983930 </v>
   <v>      -0.91313355      -0.40635678      -0.44589571 </v>
   <v>      -1.94610738       0.15468175      -0.44541154 </v>
   <v>       0.54748994       0.54438374       0.50817164 </v>
   <v>      -1.16867441      -0.22913457       1.42211868 </v>
   <v>       0.44617129       1.56333479      -1.09613515 </v>
   <v>       1.78178300      -0.65142784       1.30252702 </v>
   <v>      -0.40342540      -0.64295801      -2.03232653 </v>
   <v>       0.23026907      -0.17514050      -1.16049229 </v>
   <v>       0.83602213      -0.28619520      -1.01476774 </v>
   <v>       1.25027549       0.22986152       1.00164363 </v>
   <v>       1.52828755      -0.25357947      -1.25981899 </v>
   <v>       0.57022748       0.69140225      -0.09185955 </v>
  </varray>
  <varray name="stress" >
   <v>       6.07774704      -0.72411256      -3.35720540 </v>
   <v>      -0.72411255       5.55699015       2.65730092 </v>
   <v>      -3.35720541       2.65730088      -0.34459605 </v>
  </varray>
  <energy>
   <i name="e_fr_energy">   -593.71257639 </i>
   <i name="e_wo_entrp">   -593.71257639 </i>
   <i name="e_0_energy">     -0.00000000 </i>
  </energy>
  <time name="totalsc"> 1811.87 1812.30</time>
  <eigenvalues>
   <array>
    <dimension dim="1">band</dimension>
    <dimension dim="2">kpoint</dimension>
    <dimension dim="3">spin</dimension>
    <field>eigene</field>
    <field>occ</field>
    <set>
     <set comment="spin 1">
      <set comment="kpoint 1">
       <r>  -52.4453    1.0000 </r>
       <r>  -51.8569    1.0000 </r>
       <r>  -51.8210    1.0000 </r>
       <r>  -51.7951    1.0000 </r>
       <r>  -51.7698    1.0000 </r>
       <r>  -51.7315    1.0000 </r>
       <r>  -51.6966    1.0000 </r>
       <r>  -51.6907    1.0000 </r>
       <r>  -51.6840    1.0000 </r>
       <r>  -51.5985    1.0000 </r>
       <r>  -51.5763    1.0000 </r>
       <r>  -51.5653    1.0000 </r>
       <r>  -51.4694    1.0000 </r>
       <r>  -51.4642    1.0000 </r>
       <r>  -51.4527    1.0000 </r>
       <r>  -51.4251    1.0000 </r>
       <r>  -51.4019    1.0000 </r>
       <r>  -51.3899    1.0000 </r>
       <r>  -51.3780    1.0000 </r>
       <r>  -51.3730    1.0000 </r>
       <r>  -51.3429    1.0000 </r>
       <r>  -51.3382    1.0000 </r>
       <r>  -51.3354    1.0000 </r>
       <r>  -51.3286    1.0000 </r>
       <r>  -51.2211    1.0000 </r>
       <r>  -51.2138    1.0000 </r>
       <r>  -51.1835    1.0000 </r>
       <r>  -51.1758    1.0000 </r>
       <r>  -51.0374    1.0000 </r>
       <r>  -51.0057    1.0000 </r>
       <r>  -50.9558    1.0000 </r>
       <r>  -50.8210    1.0000 </r>
       <r>  -31.3555    1.0000 </r>
       <r>  -31.1937    1.0000 </r>
       <r>  -31.0868    1.0000 </r>
       <r>  -30.9848    1.0000 </r>
       <r>  -30.8874    1.0000 </r>
       <r>  -30.8507    1.0000 </r>
       <r>  -30.7342    1.0000 </r>
       <r>  -30.7058    1.0000 </r>
       <r>  -30.6889    1.0000 </r>
       <r>  -30.6853    1.0000 </r>
       <r>  -30.6437    1.0000 </r>
       <r>  -30.6014    1.0000 </r>
       <r>  -30.5966    1.0000 </r>
       <r>  -30.5767    1.0000 </r>
       <r>  -30.5727    1.0000 </r>
       <r>  -30.5551    1.0000 </r>
       <r>  -30.5451    1.0000 </r>
       <r>  -30.5374    1.0000 </r>
       <r>  -30.5271    1.0000 </r>
       <r>  -30.5129    1.0000 </r>
       <r>  -30.5050    1.0000 </r>
       <r>  -30.4835    1.0000 </r>
       <r>  -30.4614    1.0000 </r>
       <r>  -30.4394    1.0000 </r>
       <r>  -30.4260    1.0000 </r>
       <r>  -30.4155    1.0000 </r>
       <r>  -30.4128    1.0000 </r>
       <r>  -30.3986    1.0000 </r>
       <r>  -30.3843    1.0000 </r>
       <r>  -30.3831    1.0000 </r>
       <r>  -30.3630    1.0000 </r>
       <r>  -30.3579    1.0000 </r>
       <r>  -30.3458    1.0000 </r>
       <r>  -30.3433    1.0000 </r>
       <r>  -30.3333    1.0000 </r>
       <r>  -30.3228    1.0000 </r>
       <r>  -30.3173    1.0000 </r>
       <r>  -30.3065    1.0000 </r>
       <r>  -30.2961    1.0000 </r>
       <r>  -30.2889    1.0000 </r>
       <r>  -30.2724    1.0000 </r>
       <r>  -30.2662    1.0000 </r>
       <r>  -30.2613    1.0000 </r>
       <r>  -30.2444    1.0000 </r>
       <r>  -30.2414    1.0000 </r>
       <r>  -30.2297    1.0000 </r>
       <r>  -30.2176    1.0000 </r>
       <r>  -30.1915    1.0000 </r>
       <r>  -30.1879    1.0000 </r>
       <r>  -30.1844    1.0000 </r>
       <r>  -30.1712    1.0000 </r>
       <r>  -30.1649    1.0000 </r>
       <r>  -30.1561    1.0000 </r>
       <r>  -30.1421    1.0000 </r>
       <r>  -30.1336    1.0000 </r>
       <r>  -30.1235    1.0000 </r>
       <r>  -30.1188    1.0000 </r>
       <r>  -30.0991    1.0000 </r>
       <r>  -30.0834    1.0000 </r>
       <r>  -30.0793    1.0000 </r>
       <r>  -30.0708    1.0000 </r>
       <r>  -30.0549    1.0000 </r>
       <r>  -30.0486    1.0000 </r>
       <r>  -30.0431    1.0000 </r>
       <r>  -30.0375    1.0000 </r>
       <r>  -30.0280    1.0000 </r>
       <r>  -30.0217    1.0000 </r>
       <r>  -30.0057    1.0000 </r>
       <r>  -30.0036    1.0000 </r>
       <r>  -30.0011    1.0000 </r>
       <r>  -29.9936    1.0000 </r>
       <r>  -29.9820    1.0000 </r>
       <r>  -29.9726    1.0000 </r>
       <r>  -29.9665    1.0000 </r>
       <r>  -29.9584    1.0000 </r>
       <r>  -29.9474    1.0000 </r>
       <r>  -29.9241    1.0000 </r>
       <r>  -29.9127    1.0000 </r>
       <r>  -29.8879    1.0000 </r>
       <r>  -29.8802    1.0000 </r>
       <r>  -29.8614    1.0000 </r>
       <r>  -29.8500    1.0000 </r>
       <r>  -29.8310    1.0000 </r>
       <r>  -29.8237    1.0000 </r>
       <r>  -29.8131    1.0000 </r>
       <r>  -29.7752    1.0000 </r>
       <r>  -29.7431    1.0000 </r>
       <r>  -29.7231    1.0000 </r>
       <r>  -29.6972    1.0000 </r>
       <r>  -29.6875    1.0000 </r>
       <r>  -29.6549    1.0000 </r>
       <r>  -29.6458    1.0000 </r>
       <r>  -29.6250    1.0000 </r>
       <r>  -29.5858    1.0000 </r>
       <r>  -29.5563    1.0000 </r>
       <r>  -29.4981    1.0000 </r>
       <r>  -27.4840    1.0000 </r>
       <r>  -27.2648    1.0000 </r>
       <r>  -27.1632    1.0000 </r>
       <r>  -27.0230    1.0000 </r>
       <r>  -27.0031    1.0000 </r>
       <r>  -26.9962    1.0000 </r>
       <r>  -26.9929    1.0000 </r>
       <r>  -26.8153    1.0000 </r>
       <r>  -26.7137    1.0000 </r>
       <r>  -26.6662    1.0000 </r>
       <r>  -26.6453    1.0000 </r>
       <r>  -26.6207    1.0000 </r>
       <r>  -26.6037    1.0000 </r>
       <r>  -26.5993    1.0000 </r>
       <r>  -26.5703    1.0000 </r>
       <r>  -26.5682    1.0000 </r>
       <r>  -26.5473    1.0000 </r>
       <r>  -26.5366    1.0000 </r>
       <r>  -26.5004    1.0000 </r>
       <r>  -26.4973    1.0000 </r>
       <r>  -26.4199    1.0000 </r>
       <r>  -26.3440    1.0000 </r>
       <r>  -26.3113    1.0000 </r>
       <r>  -26.2929    1.0000 </r>
       <r>  -26.2596    1.0000 </r>
       <r>  -26.2246    1.0000 </r>
       <r>  -26.2148    1.0000 </r>
       <r>  -26.1367    1.0000 </r>
       <r>  -26.1191    1.0000 </r>
       <r>  -26.0735    1.0000 </r>
       <r>  -25.4594    1.0000 </r>
       <r>  -25.4288    1.0000 </r>
       <r>  -12.0949    1.0000 </r>
       <r>  -11.7622    1.0000 </r>
       <r>  -11.6853    1.0000 </r>
       <r>  -11.6787    1.0000 </r>
       <r>  -11.6116    1.0000 </r>
       <r>  -11.5813    1.0000 </r>
       <r>  -11.4862    1.0000 </r>
       <r>  -11.1491    1.0000 </r>
       <r>  -11.1381    1.0000 </r>
       <r>  -11.0969    1.0000 </r>
       <r>  -11.0426    1.0000 </r>
       <r>  -11.0287    1.0000 </r>
       <r>  -10.9784    1.0000 </r>
       <r>  -10.9492    1.0000 </r>
       <r>  -10.7934    1.0000 </r>
       <r>  -10.7186    1.0000 </r>
       <r>   -9.9523    1.0000 </r>
       <r>   -9.8733    1.0000 </r>
       <r>   -9.6005    1.0000 </r>
       <r>   -9.5781    1.0000 </r>
       <r>   -9.5601    1.0000 </r>
       <r>   -9.5272    1.0000 </r>
       <r>   -9.4813    1.0000 </r>
       <r>   -9.4465    1.0000 </r>
       <r>   -9.4420    1.0000 </r>
       <r>   -9.3215    1.0000 </r>
       <r>   -9.2622    1.0000 </r>
       <r>   -9.2332    1.0000 </r>
       <r>   -9.1828    1.0000 </r>
       <r>   -9.1726    1.0000 </r>
       <r>   -9.1347    1.0000 </r>
       <r>   -9.1108    1.0000 </r>
       <r>   -9.0621    1.0000 </r>
       <r>   -9.0468    1.0000 </r>
       <r>   -9.0232    1.0000 </r>
       <r>   -8.9767    1.0000 </r>
       <r>   -8.9650    1.0000 </r>
       <r>   -8.9420    1.0000 </r>
       <r>   -8.9081    1.0000 </r>
       <r>   -8.8942    1.0000 </r>
       <r>   -8.8487    1.0000 </r>
       <r>   -8.8443    1.0000 </r>
       <r>   -8.8202    1.0000 </r>
       <r>   -8.7869    1.0000 </r>
       <r>   -8.7852    1.0000 </r>
       <r>   -8.7788    1.0000 </r>
       <r>   -8.7536    1.0000 </r>
       <r>   -8.7406    1.0000 </r>
       <r>   -8.7361    1.0000 </r>
       <r>   -8.7196    1.0000 </r>
       <r>   -8.7063    1.0000 </r>
       <r>   -8.6909    1.0000 </r>
       <r>   -8.6475    1.0000 </r>
       <r>   -8.6440    1.0000 </r>
       <r>   -8.6302    1.0000 </r>
       <r>   -8.6175    1.0000 </r>
       <r>   -8.6074    1.0000 </r>
       <r>   -8.5789    1.0000 </r>
       <r>   -8.5749    1.0000 </r>
       <r>   -8.5590    1.0000 </r>
       <r>   -8.5417    1.0000 </r>
       <r>   -8.5236    1.0000 </r>
       <r>   -8.5056    1.0000 </r>
       <r>   -8.5022    1.0000 </r>
       <r>   -8.4670    1.0000 </r>
       <r>   -8.4494    1.0000 </r>
       <r>   -8.4428    1.0000 </r>
       <r>   -8.4301    1.0000 </r>
       <r>   -8.4252    1.0000 </r>
       <r>   -8.3905    1.0000 </r>
       <r>   -8.3836    1.0000 </r>
       <r>   -8.3707    1.0000 </r>
       <r>   -8.3519    1.0000 </r>
       <r>   -8.3442    1.0000 </r>
       <r>   -8.3335    1.0000 </r>
       <r>   -8.3308    1.0000 </r>
       <r>   -8.3120    1.0000 </r>
       <r>   -8.3077    1.0000 </r>
       <r>   -8.2968    1.0000 </r>
       <r>   -8.2787    1.0000 </r>
       <r>   -8.2583    1.0000 </r>
       <r>   -8.2391    1.0000 </r>
       <r>   -8.2226    1.0000 </r>
       <r>   -8.2187    1.0000 </r>
       <r>   -8.2067    1.0000 </r>
       <r>   -8.1810    1.0000 </r>
       <r>   -8.1597    1.0000 </r>
       <r>   -8.1409    1.0000 </r>
       <r>   -8.1278    1.0000 </r>
       <r>   -8.0996    1.0000 </r>
       <r>   -8.0872    1.0000 </r>
       <r>   -8.0463    1.0000 </r>
       <r>   -8.0312    1.0000 </r>
       <r>   -8.0278    1.0000 </r>
       <r>   -8.0135    1.0000 </r>
       <r>   -8.0055    1.0000 </r>
       <r>   -7.9823    1.0000 </r>
       <r>   -7.9671    1.0000 </r>
       <r>   -7.9659    1.0000 </r>
       <r>   -7.9310    1.0000 </r>
       <r>   -7.9077    1.0000 </r>
       <r>   -7.8943    1.0000 </r>
       <r>   -7.8638    1.0000 </r>
       <r>   -7.8262    1.0000 </r>
       <r>   -7.7878    1.0000 </r>
       <r>   -7.7055    1.0000 </r>
       <r>   -7.4325    1.0000 </r>
       <r>   -7.3508    1.0000 </r>
       <r>   -7.3005    1.0000 </r>
       <r>   -7.2194    1.0000 </r>
       <r>   -7.1824    1.0000 </r>
       <r>   -7.1021    1.0000 </r>
       <r>   -5.2319    1.0000 </r>
       <r>   -5.1746    1.0000 </r>
       <r>   -5.1002    1.0000 </r>
       <r>   -5.0050    1.0000 </r>
       <r>   -4.9113    1.0000 </r>
       <r>   -4.9038    1.0000 </r>
       <r>   -4.8278    1.0000 </r>
       <r>   -4.7843    1.0000 </r>
       <r>   -4.7174    1.0000 </r>
       <r>   -4.5672    1.0000 </r>
       <r>   -4.4601    1.0000 </r>
       <r>   -4.4251    1.0000 </r>
       <r>   -4.4053    1.0000 </r>
       <r>   -4.3949    1.0000 </r>
       <r>   -4.3451    1.0000 </r>
       <r>   -4.3030    1.0000 </r>
       <r>   -4.2711    1.0000 </r>
       <r>   -4.2405    1.0000 </r>
       <r>   -4.2088    1.0000 </r>
       <r>   -4.1836    1.0000 </r>
       <r>   -4.1733    1.0000 </r>
       <r>   -4.1598    1.0000 </r>
       <r>   -4.1218    1.0000 </r>
       <r>   -4.1129    1.0000 </r>
       <r>   -4.0849    1.0000 </r>
       <r>   -4.0640    1.0000 </r>
       <r>   -4.0427    1.0000 </r>
       <r>   -4.0235    1.0000 </r>
       <r>   -3.9999    1.0000 </r>
       <r>   -3.9728    1.0000 </r>
       <r>   -3.9370    1.0000 </r>
       <r>   -3.9077    1.0000 </r>
       <r>   -3.8538    1.0000 </r>
       <r>   -3.7878    1.0000 </r>
       <r>   -3.7107    1.0000 </r>
       <r>   -3.5193    1.0000 </r>
       <r>   -3.4563    1.0000 </r>
       <r>   -3.4395    1.0000 </r>
       <r>   -3.2963    1.0000 </r>
       <r>   -3.2878    1.0000 </r>
       <r>   -3.2501    1.0000 </r>
       <r>   -3.1900    1.0000 </r>
       <r>   -3.0948    1.0000 </r>
       <r>   -3.0711    1.0000 </r>
       <r>   -3.0343    1.0000 </r>
       <r>   -2.9778    1.0000 </r>
       <r>   -2.8769    1.0000 </r>
       <r>   -2.8004    1.0000 </r>
       <r>   -1.9039    0.0000 </r>
       <r>   -1.8586    0.0000 </r>
       <r>   -1.7788    0.0000 </r>
       <r>   -1.3161    0.0000 </r>
       <r>   -1.2656    0.0000 </r>
       <r>   -1.2393    0.0000 </r>
       <r>   -1.1827    0.0000 </r>
       <r>   -1.1293    0.0000 </r>
       <r>   -1.1001    0.0000 </r>
       <r>   -0.6428    0.0000 </r>
       <r>   -0.5271    0.0000 </r>
       <r>   -0.4767    0.0000 </r>
       <r>   -0.4667    0.0000 </r>
       <r>   -0.3883    0.0000 </r>
       <r>   -0.3666    0.0000 </r>
       <r>   -0.3494    0.0000 </r>
       <r>   -0.2946    0.0000 </r>
       <r>   -0.2737    0.0000 </r>
       <r>   -0.2319    0.0000 </r>
       <r>   -0.1865    0.0000 </r>
       <r>   -0.1471    0.0000 </r>
       <r>   -0.1180    0.0000 </r>
       <r>   -0.0461    0.0000 </r>
       <r>   -0.0219    0.0000 </r>
       <r>    0.1741    0.0000 </r>
       <r>    0.2250    0.0000 </r>
       <r>    0.2479    0.0000 </r>
       <r>    0.2889    0.0000 </r>
       <r>    0.3215    0.0000 </r>
       <r>    0.3991    0.0000 </r>
       <r>    0.4115    0.0000 </r>
       <r>    0.4204    0.0000 </r>
       <r>    0.4383    0.0000 </r>
       <r>    0.4765    0.0000 </r>
       <r>    0.5149    0.0000 </r>
       <r>    0.5184    0.0000 </r>
       <r>    0.5499    0.0000 </r>
       <r>    0.5658    0.0000 </r>
       <r>    0.5703    0.0000 </r>
       <r>    0.6024    0.0000 </r>
       <r>    0.6543    0.0000 </r>
       <r>    0.6777    0.0000 </r>
       <r>    0.7073    0.0000 </r>
       <r>    0.7245    0.0000 </r>
       <r>    0.7515    0.0000 </r>
       <r>    0.7868    0.0000 </r>
       <r>    0.8103    0.0000 </r>
       <r>    0.8355    0.0000 </r>
       <r>    0.8578    0.0000 </r>
       <r>    0.8665    0.0000 </r>
       <r>    0.8874    0.0000 </r>
       <r>    0.9108    0.0000 </r>
       <r>    0.9455    0.0000 </r>
       <r>    0.9663    0.0000 </r>
       <r>    0.9678    0.0000 </r>
       <r>    0.9969    0.0000 </r>
       <r>    1.0362    0.0000 </r>
       <r>    1.0437    0.0000 </r>
       <r>    1.0531    0.0000 </r>
       <r>    1.0728    0.0000 </r>
       <r>    1.1082    0.0000 </r>
       <r>    1.1404    0.0000 </r>
       <r>    1.1636    0.0000 </r>
       <r>    1.1965    0.0000 </r>
      </set>
      <set comment="kpoint 2">
       <r>  -52.4453    1.0000 </r>
       <r>  -51.8569    1.0000 </r>
       <r>  -51.8210    1.0000 </r>
       <r>  -51.7951    1.0000 </r>
       <r>  -51.7698    1.0000 </r>
       <r>  -51.7315    1.0000 </r>
       <r>  -51.6966    1.0000 </r>
       <r>  -51.6908    1.0000 </r>
       <r>  -51.6840    1.0000 </r>
       <r>  -51.5985    1.0000 </r>
       <r>  -51.5764    1.0000 </r>
       <r>  -51.5653    1.0000 </r>
       <r>  -51.4694    1.0000 </r>
       <r>  -51.4642    1.0000 </r>
       <r>  -51.4527    1.0000 </r>
       <r>  -51.4251    1.0000 </r>
       <r>  -51.4019    1.0000 </r>
       <r>  -51.3899    1.0000 </r>
       <r>  -51.3780    1.0000 </r>
       <r>  -51.3730    1.0000 </r>
       <r>  -51.3429    1.0000 </r>
       <r>  -51.3382    1.0000 </r>
       <r>  -51.3354    1.0000 </r>
       <r>  -51.3286    1.0000 </r>
       <r>  -51.2211    1.0000 </r>
       <r>  -51.2138    1.0000 </r>
       <r>  -51.1835    1.0000 </r>
       <r>  -51.1758    1.0000 </r>
       <r>  -51.0374    1.0000 </r>
       <r>  -51.0057    1.0000 </r>
       <r>  -50.9558    1.0000 </r>
       <r>  -50.8210    1.0000 </r>
       <r>  -31.3555    1.0000 </r>
       <r>  -31.1934    1.0000 </r>
       <r>  -31.0868    1.0000 </r>
       <r>  -30.9844    1.0000 </r>
       <r>  -30.8845    1.0000 </r>
       <r>  -30.8500    1.0000 </r>
       <r>  -30.7335    1.0000 </r>
       <r>  -30.7057    1.0000 </r>
       <r>  -30.6913    1.0000 </r>
       <r>  -30.6845    1.0000 </r>
       <r>  -30.6496    1.0000 </r>
       <r>  -30.5985    1.0000 </r>
       <r>  -30.5956    1.0000 </r>
       <r>  -30.5778    1.0000 </r>
       <r>  -30.5727    1.0000 </r>
       <r>  -30.5542    1.0000 </r>
       <r>  -30.5492    1.0000 </r>
       <r>  -30.5355    1.0000 </r>
       <r>  -30.5292    1.0000 </r>
       <r>  -30.5159    1.0000 </r>
       <r>  -30.5020    1.0000 </r>
       <r>  -30.4785    1.0000 </r>
       <r>  -30.4607    1.0000 </r>
       <r>  -30.4381    1.0000 </r>
       <r>  -30.4303    1.0000 </r>
       <r>  -30.4205    1.0000 </r>
       <r>  -30.4170    1.0000 </r>
       <r>  -30.4063    1.0000 </r>
       <r>  -30.3905    1.0000 </r>
       <r>  -30.3836    1.0000 </r>
       <r>  -30.3701    1.0000 </r>
       <r>  -30.3570    1.0000 </r>
       <r>  -30.3411    1.0000 </r>
       <r>  -30.3364    1.0000 </r>
       <r>  -30.3310    1.0000 </r>
       <r>  -30.3236    1.0000 </r>
       <r>  -30.3084    1.0000 </r>
       <r>  -30.3043    1.0000 </r>
       <r>  -30.2971    1.0000 </r>
       <r>  -30.2894    1.0000 </r>
       <r>  -30.2784    1.0000 </r>
       <r>  -30.2680    1.0000 </r>
       <r>  -30.2573    1.0000 </r>
       <r>  -30.2471    1.0000 </r>
       <r>  -30.2424    1.0000 </r>
       <r>  -30.2291    1.0000 </r>
       <r>  -30.2087    1.0000 </r>
       <r>  -30.1942    1.0000 </r>
       <r>  -30.1879    1.0000 </r>
       <r>  -30.1860    1.0000 </r>
       <r>  -30.1687    1.0000 </r>
       <r>  -30.1574    1.0000 </r>
       <r>  -30.1517    1.0000 </r>
       <r>  -30.1401    1.0000 </r>
       <r>  -30.1351    1.0000 </r>
       <r>  -30.1273    1.0000 </r>
       <r>  -30.1187    1.0000 </r>
       <r>  -30.1001    1.0000 </r>
       <r>  -30.0849    1.0000 </r>
       <r>  -30.0731    1.0000 </r>
       <r>  -30.0695    1.0000 </r>
       <r>  -30.0546    1.0000 </r>
       <r>  -30.0512    1.0000 </r>
       <r>  -30.0427    1.0000 </r>
       <r>  -30.0353    1.0000 </r>
       <r>  -30.0256    1.0000 </r>
       <r>  -30.0234    1.0000 </r>
       <r>  -30.0085    1.0000 </r>
       <r>  -30.0048    1.0000 </r>
       <r>  -30.0003    1.0000 </r>
       <r>  -29.9904    1.0000 </r>
       <r>  -29.9786    1.0000 </r>
       <r>  -29.9706    1.0000 </r>
       <r>  -29.9660    1.0000 </r>
       <r>  -29.9580    1.0000 </r>
       <r>  -29.9485    1.0000 </r>
       <r>  -29.9256    1.0000 </r>
       <r>  -29.9131    1.0000 </r>
       <r>  -29.8895    1.0000 </r>
       <r>  -29.8819    1.0000 </r>
       <r>  -29.8624    1.0000 </r>
       <r>  -29.8545    1.0000 </r>
       <r>  -29.8303    1.0000 </r>
       <r>  -29.8238    1.0000 </r>
       <r>  -29.8125    1.0000 </r>
       <r>  -29.7740    1.0000 </r>
       <r>  -29.7439    1.0000 </r>
       <r>  -29.7212    1.0000 </r>
       <r>  -29.6983    1.0000 </r>
       <r>  -29.6883    1.0000 </r>
       <r>  -29.6556    1.0000 </r>
       <r>  -29.6442    1.0000 </r>
       <r>  -29.6275    1.0000 </r>
       <r>  -29.5868    1.0000 </r>
       <r>  -29.5570    1.0000 </r>
       <r>  -29.4987    1.0000 </r>
       <r>  -27.4839    1.0000 </r>
       <r>  -27.2647    1.0000 </r>
       <r>  -27.1630    1.0000 </r>
       <r>  -27.0226    1.0000 </r>
       <r>  -27.0033    1.0000 </r>
       <r>  -26.9961    1.0000 </r>
       <r>  -26.9930    1.0000 </r>
       <r>  -26.8157    1.0000 </r>
       <r>  -26.7138    1.0000 </r>
       <r>  -26.6659    1.0000 </r>
       <r>  -26.6452    1.0000 </r>
       <r>  -26.6206    1.0000 </r>
       <r>  -26.6036    1.0000 </r>
       <r>  -26.5995    1.0000 </r>
       <r>  -26.5699    1.0000 </r>
       <r>  -26.5680    1.0000 </r>
       <r>  -26.5474    1.0000 </r>
       <r>  -26.5375    1.0000 </r>
       <r>  -26.5004    1.0000 </r>
       <r>  -26.4972    1.0000 </r>
       <r>  -26.4199    1.0000 </r>
       <r>  -26.3440    1.0000 </r>
       <r>  -26.3112    1.0000 </r>
       <r>  -26.2929    1.0000 </r>
       <r>  -26.2597    1.0000 </r>
       <r>  -26.2242    1.0000 </r>
       <r>  -26.2151    1.0000 </r>
       <r>  -26.1367    1.0000 </r>
       <r>  -26.1191    1.0000 </r>
       <r>  -26.0735    1.0000 </r>
       <r>  -25.4594    1.0000 </r>
       <r>  -25.4288    1.0000 </r>
       <r>  -12.0463    1.0000 </r>
       <r>  -11.8960    1.0000 </r>
       <r>  -11.7609    1.0000 </r>
       <r>  -11.6720    1.0000 </r>
       <r>  -11.5345    1.0000 </r>
[...]
       <r>   -32.7048     0.0000    64.0000 </r>
       <r>   -32.5081     0.0000    64.0000 </r>
       <r>   -32.3114     0.0000    64.0000 </r>
       <r>   -32.1147     0.0000    64.0000 </r>
       <r>   -31.9180     0.0000    64.0000 </r>
       <r>   -31.7213     0.0000    64.0000 </r>
       <r>   -31.5246     0.0000    64.0000 </r>
       <r>   -31.3280     7.9470    65.5631 </r>
       <r>   -31.1313    13.0486    68.1296 </r>
       <r>   -30.9346    19.7430    72.0128 </r>
       <r>   -30.7379    28.3047    77.5801 </r>
       <r>   -30.5412   104.7858    98.1904 </r>
       <r>   -30.3445   161.9889   130.0519 </r>
       <r>   -30.1478   203.2070   170.0206 </r>
       <r>   -29.9511   216.3583   212.5761 </r>
       <r>   -29.7544   121.7899   236.5309 </r>
       <r>   -29.5577    81.6485   252.5903 </r>
       <r>   -29.3611    17.3349   255.9999 </r>
       <r>   -29.1644     0.0005   256.0000 </r>
       <r>   -28.9677     0.0000   256.0000 </r>
       <r>   -28.7710     0.0000   256.0000 </r>
       <r>   -28.5743     0.0000   256.0000 </r>
       <r>   -28.3776     0.0000   256.0000 </r>
       <r>   -28.1809     0.0000   256.0000 </r>
       <r>   -27.9842     0.0000   256.0000 </r>
       <r>   -27.7875     0.0000   256.0000 </r>
       <r>   -27.5909     0.0126   256.0025 </r>
       <r>   -27.3942    10.1002   257.9891 </r>
       <r>   -27.1975    11.6153   260.2737 </r>
       <r>   -27.0008    30.3349   266.2403 </r>
       <r>   -26.8041    25.5464   271.2650 </r>
       <r>   -26.6074    51.2862   281.3524 </r>
       <r>   -26.4107    80.7886   297.2427 </r>
       <r>   -26.2140    54.9865   308.0580 </r>
       <r>   -26.0173    39.7832   315.8829 </r>
       <r>   -25.8206     0.5951   316.0000 </r>
       <r>   -25.6240     0.0000   316.0000 </r>
       <r>   -25.4273    13.5776   318.6706 </r>
       <r>   -25.2306     6.7590   320.0000 </r>
       <r>   -25.0339     0.0000   320.0000 </r>
       <r>   -24.8372     0.0000   320.0000 </r>
       <r>   -24.6405     0.0000   320.0000 </r>
       <r>   -24.4438     0.0000   320.0000 </r>
       <r>   -24.2471     0.0000   320.0000 </r>
       <r>   -24.0504     0.0000   320.0000 </r>
       <r>   -23.8537     0.0000   320.0000 </r>
       <r>   -23.6571     0.0000   320.0000 </r>
       <r>   -23.4604     0.0000   320.0000 </r>
       <r>   -23.2637     0.0000   320.0000 </r>
       <r>   -23.0670     0.0000   320.0000 </r>
       <r>   -22.8703     0.0000   320.0000 </r>
       <r>   -22.6736     0.0000   320.0000 </r>
       <r>   -22.4769     0.0000   320.0000 </r>
       <r>   -22.2802     0.0000   320.0000 </r>
       <r>   -22.0835     0.0000   320.0000 </r>
       <r>   -21.8869     0.0000   320.0000 </r>
       <r>   -21.6902     0.0000   320.0000 </r>
       <r>   -21.4935     0.0000   320.0000 </r>
       <r>   -21.2968     0.0000   320.0000 </r>
       <r>   -21.1001     0.0000   320.0000 </r>
       <r>   -20.9034     0.0000   320.0000 </r>
       <r>   -20.7067     0.0000   320.0000 </r>
       <r>   -20.5100     0.0000   320.0000 </r>
       <r>   -20.3133     0.0000   320.0000 </r>
       <r>   -20.1166     0.0000   320.0000 </r>
       <r>   -19.9200     0.0000   320.0000 </r>
       <r>   -19.7233     0.0000   320.0000 </r>
       <r>   -19.5266     0.0000   320.0000 </r>
       <r>   -19.3299     0.0000   320.0000 </r>
       <r>   -19.1332     0.0000   320.0000 </r>
       <r>   -18.9365     0.0000   320.0000 </r>
       <r>   -18.7398     0.0000   320.0000 </r>
       <r>   -18.5431     0.0000   320.0000 </r>
       <r>   -18.3464     0.0000   320.0000 </r>
       <r>   -18.1497     0.0000   320.0000 </r>
       <r>   -17.9531     0.0000   320.0000 </r>
       <r>   -17.7564     0.0000   320.0000 </r>
       <r>   -17.5597     0.0000   320.0000 </r>
       <r>   -17.3630     0.0000   320.0000 </r>
       <r>   -17.1663     0.0000   320.0000 </r>
       <r>   -16.9696     0.0000   320.0000 </r>
       <r>   -16.7729     0.0000   320.0000 </r>
       <r>   -16.5762     0.0000   320.0000 </r>
       <r>   -16.3795     0.0000   320.0000 </r>
       <r>   -16.1829     0.0000   320.0000 </r>
       <r>   -15.9862     0.0000   320.0000 </r>
       <r>   -15.7895     0.0000   320.0000 </r>
       <r>   -15.5928     0.0000   320.0000 </r>
       <r>   -15.3961     0.0000   320.0000 </r>
       <r>   -15.1994     0.0000   320.0000 </r>
       <r>   -15.0027     0.0000   320.0000 </r>
       <r>   -14.8060     0.0000   320.0000 </r>
       <r>   -14.6093     0.0000   320.0000 </r>
       <r>   -14.4126     0.0000   320.0000 </r>
       <r>   -14.2160     0.0000   320.0000 </r>
       <r>   -14.0193     0.0000   320.0000 </r>
       <r>   -13.8226     0.0000   320.0000 </r>
       <r>   -13.6259     0.0000   320.0000 </r>
       <r>   -13.4292     0.0000   320.0000 </r>
       <r>   -13.2325     0.0000   320.0000 </r>
       <r>   -13.0358     0.0000   320.0000 </r>
       <r>   -12.8391     0.0000   320.0000 </r>
       <r>   -12.6424     0.0000   320.0000 </r>
       <r>   -12.4457     0.0000   320.0000 </r>
       <r>   -12.2491     0.0000   320.0000 </r>
       <r>   -12.0524     4.1958   320.8253 </r>
       <r>   -11.8557    14.8366   323.7435 </r>
       <r>   -11.6590    17.1784   327.1223 </r>
       <r>   -11.4623    19.3442   330.9271 </r>
       <r>   -11.2656    22.1048   335.2749 </r>
       <r>   -11.0689    30.8234   341.3375 </r>
       <r>   -10.8722    33.4113   347.9092 </r>
       <r>   -10.6755    16.4061   351.1361 </r>
       <r>   -10.4789     4.3923   352.0000 </r>
       <r>   -10.2822     0.0000   352.0000 </r>
       <r>   -10.0855     0.0008   352.0001 </r>
       <r>    -9.8888    12.7551   354.5090 </r>
       <r>    -9.6921     7.6134   356.0064 </r>
       <r>    -9.4954    42.2300   364.3126 </r>
       <r>    -9.2987    38.0252   371.7918 </r>
       <r>    -9.1020    57.2555   383.0534 </r>
       <r>    -8.9053    73.7724   397.5636 </r>
       <r>    -8.7086   114.2929   420.0439 </r>
       <r>    -8.5120   124.9460   444.6195 </r>
       <r>    -8.3153   143.0856   472.7629 </r>
       <r>    -8.1186   126.6626   497.6761 </r>
       <r>    -7.9219   112.7945   519.8616 </r>
       <r>    -7.7252    53.4519   530.3751 </r>
       <r>    -7.5285     8.2944   532.0065 </r>
       <r>    -7.3318    19.2493   535.7926 </r>
       <r>    -7.1351    32.3443   542.1544 </r>
       <r>    -6.9384     9.3832   544.0000 </r>
       <r>    -6.7417     0.0000   544.0000 </r>
       <r>    -6.5451     0.0000   544.0000 </r>
       <r>    -6.3484     0.0000   544.0000 </r>
       <r>    -6.1517     0.0000   544.0000 </r>
       <r>    -5.9550     0.0000   544.0000 </r>
       <r>    -5.7583     0.0000   544.0000 </r>
       <r>    -5.5616     0.0000   544.0000 </r>
       <r>    -5.3649     0.0001   544.0000 </r>
       <r>    -5.1682     8.3802   545.6483 </r>
       <r>    -4.9715    35.8512   552.6999 </r>
       <r>    -4.7749    35.7229   559.7262 </r>
       <r>    -4.5782    27.4755   565.1303 </r>
       <r>    -4.3815    37.0392   572.4156 </r>
       <r>    -4.1848    45.4393   581.3530 </r>
       <r>    -3.9881    73.1406   595.7390 </r>
       <r>    -3.7914    56.9177   606.9341 </r>
       <r>    -3.5947    36.7632   614.1651 </r>
       <r>    -3.3980    46.0545   623.2235 </r>
       <r>    -3.2013    33.3922   629.7914 </r>
       <r>    -3.0046    30.4418   635.7790 </r>
       <r>    -2.8080    19.7160   639.6569 </r>
       <r>    -2.6113     1.7441   640.0000 </r>
       <r>    -2.4146     0.0000   640.0000 </r>
       <r>    -2.2179     0.0000   640.0000 </r>
       <r>    -2.0212     0.0005   640.0001 </r>
       <r>    -1.8245     3.5748   640.7032 </r>
       <r>    -1.6278    11.2496   642.9159 </r>
       <r>    -1.4311    22.9773   647.4353 </r>
       <r>    -1.2344    13.5872   650.1078 </r>
       <r>    -1.0377    17.3108   653.5126 </r>
       <r>    -0.8411    27.7019   658.9613 </r>
       <r>    -0.6444    26.1518   664.1051 </r>
       <r>    -0.4477    29.7842   669.9633 </r>
       <r>    -0.2510    35.1332   676.8737 </r>
       <r>    -0.0543    33.6122   683.4849 </r>
       <r>     0.1424    27.3880   688.8718 </r>
       <r>     0.3391    39.7916   696.6984 </r>
       <r>     0.5358    51.8970   706.9060 </r>
       <r>     0.7325    84.7675   723.5789 </r>
       <r>     0.9291    98.4297   742.9390 </r>
       <r>     1.1258    98.2670   762.2671 </r>
       <r>     1.3225    29.1461   767.9998 </r>
       <r>     1.5192     0.0009   768.0000 </r>
       <r>     1.7159     0.0000   768.0000 </r>
       <r>     1.9126     0.0000   768.0000 </r>
       <r>     2.1093     0.0000   768.0000 </r>
       <r>     2.3060     0.0000   768.0000 </r>
       <r>     2.5027     0.0000   768.0000 </r>
       <r>     2.6994     0.0000   768.0000 </r>
       <r>     2.8960     0.0000   768.0000 </r>
       <r>     3.0927     0.0000   768.0000 </r>
       <r>     3.2894     0.0000   768.0000 </r>
       <r>     3.4861     0.0000   768.0000 </r>
       <r>     3.6828     0.0000   768.0000 </r>
       <r>     3.8795     0.0000   768.0000 </r>
      </set>
     </set>
    </array>
   </total>
  </dos>
 </calculation>
 <structure name="finalpos" >
  <crystal>
   <varray name="basis" >
    <v>      13.12862340       0.00000000       0.00000000 </v>
    <v>      -6.56431170      11.36972138       0.00000000 </v>
    <v>       0.00000000       0.00000000      26.82809424 </v>
   </varray>
   <i name="volume">   4004.59716953 </i>
   <varray name="rec_basis" >
    <v>       0.07616945       0.04397645       0.00000000 </v>
    <v>       0.00000000       0.08795290       0.00000000 </v>
    <v>       0.00000000       0.00000000       0.03727436 </v>
   </varray>
  </crystal>
  <varray name="positions" >
   <v>       0.09747564       0.17826666       0.45668652 </v>
   <v>       0.08663255       0.41900733       0.45356128 </v>
   <v>       0.08021321       0.66984977       0.45422724 </v>
   <v>       0.08221626       0.92316410       0.45017502 </v>
   <v>       0.33528305       0.18259190       0.45154806 </v>
   <v>       0.34057002       0.42792206       0.45535714 </v>
   <v>       0.32010066       0.66734791       0.45869384 </v>
   <v>       0.33895494       0.91512851       0.45324840 </v>
   <v>       0.58125666       0.17219013       0.45184707 </v>
   <v>       0.57935875       0.42127218       0.45077504 </v>
   <v>       0.58745402       0.66339674       0.44874453 </v>
   <v>       0.57630300       0.91387361       0.44709684 </v>
   <v>       0.84847668       0.16930801       0.45014169 </v>
   <v>       0.82051438       0.40941369       0.44824217 </v>
   <v>       0.83342881       0.66173185       0.45451561 </v>
   <v>       0.84132985       0.92544151       0.45014290 </v>
   <v>       0.16415210       0.07958723       0.54700690 </v>
   <v>       0.16288273       0.32988957       0.55298925 </v>
   <v>       0.16161142       0.57326403       0.54447265 </v>
   <v>       0.16077919       0.82733258       0.55264370 </v>
   <v>       0.42507835       0.09570657       0.54411290 </v>
   <v>       0.42616516       0.34231841       0.55235118 </v>
   <v>       0.42629648       0.58836609       0.54371271 </v>
   <v>       0.42286033       0.84601700       0.54969930 </v>
   <v>       0.65927994       0.07404981       0.54425590 </v>
   <v>       0.66347077       0.33658765       0.54522361 </v>
   <v>       0.67668040       0.57861622       0.54350008 </v>
   <v>       0.67040443       0.84326497       0.54105727 </v>
   <v>       0.90741115       0.07950362       0.54942683 </v>
   <v>       0.91668197       0.33202021       0.55664608 </v>
   <v>       0.91600618       0.57596405       0.54530730 </v>
   <v>       0.91214361       0.82833239       0.54440366 </v>
   <v>       0.07067703       0.14837241       0.59737796 </v>
   <v>       0.08714860       0.40498288       0.59757162 </v>
   <v>       0.07860961       0.66722071       0.59534304 </v>
   <v>       0.06867631       0.91371680       0.58912548 </v>
   <v>       0.35711483       0.16182581       0.59037456 </v>
   <v>       0.34803431       0.42555151       0.59231640 </v>
   <v>       0.34184946       0.65514155       0.59268285 </v>
   <v>       0.33810186       0.91624786       0.59208992 </v>
   <v>       0.57488753       0.16294316       0.58764888 </v>
   <v>       0.58744494       0.41771682       0.59182690 </v>
   <v>       0.59787017       0.68117341       0.58709860 </v>
   <v>       0.58849368       0.90223156       0.58923707 </v>
   <v>       0.82015957       0.15986435       0.58216710 </v>
   <v>       0.82022198       0.41697779       0.59516866 </v>
   <v>       0.82263961       0.64619848       0.58967100 </v>
   <v>       0.83519311       0.92124484       0.59310328 </v>
   <v>       0.15303826       0.07888142       0.40587081 </v>
   <v>       0.18825867       0.33466773       0.40699817 </v>
   <v>       0.16758789       0.57871147       0.41147409 </v>
   <v>       0.14379843       0.81863103       0.41091537 </v>
   <v>       0.41361654       0.07368966       0.41258872 </v>
   <v>       0.41753513       0.33521523       0.40640240 </v>
   <v>       0.41617726       0.58680782       0.40697727 </v>
   <v>       0.41717480       0.84979233       0.41234329 </v>
   <v>       0.68050665       0.07779177       0.40752445 </v>
   <v>       0.65514121       0.33520206       0.41143286 </v>
   <v>       0.67868919       0.57576125       0.41032371 </v>
   <v>       0.64478281       0.81971434       0.40769981 </v>
   <v>       0.92288281       0.09069232       0.41194143 </v>
   <v>       0.91334915       0.33583137       0.41168608 </v>
   <v>       0.90430160       0.56770980       0.40673525 </v>
   <v>       0.91283359       0.84019459       0.41066118 </v>
   <v>       0.99204699       0.99092601       0.50178129 </v>
   <v>       0.00294638       0.24705198       0.50258325 </v>
   <v>       0.00126923       0.48925389       0.50338884 </v>
   <v>       0.00501450       0.74188679       0.50205777 </v>
   <v>       0.25285441       0.00284616       0.50147079 </v>
   <v>       0.26166368       0.25137295       0.50526670 </v>
   <v>       0.24148492       0.49039075       0.49972762 </v>
   <v>       0.25031371       0.74953089       0.49873474 </v>
   <v>       0.49204412       0.98895160       0.50206285 </v>
   <v>       0.49206350       0.26037474       0.49436603 </v>
   <v>       0.50713264       0.50461941       0.50413582 </v>
   <v>       0.49853937       0.75319839       0.50072341 </v>
   <v>       0.74900740       0.00681236       0.49956288 </v>
   <v>       0.73371667       0.24793637       0.49562116 </v>
   <v>       0.74452896       0.49724146       0.50060819 </v>
   <v>       0.74752233       0.74480411       0.49580867 </v>
  </varray>
  <varray name="velocities" >
   <v>       0.00000000       0.00000000       0.00000000 </v>
   <v>       0.00000000       0.00000000       0.00000000 </v>
   <v>       0.00000000       0.00000000       0.00000000 </v>
   <v>       0.00000000       0.00000000       0.00000000 </v>
   <v>       0.00000000       0.00000000       0.00000000 </v>
   <v>       0.00000000       0.00000000       0.00000000 </v>
   <v>       0.00000000       0.00000000       0.00000000 </v>
   <v>       0.00000000       0.00000000       0.00000000 </v>
   <v>       0.00000000       0.00000000       0.00000000 </v>
   <v>       0.00000000       0.00000000       0.00000000 </v>
   <v>       0.00000000       0.00000000       0.00000000 </v>
   <v>       0.00000000       0.00000000       0.00000000 </v>
   <v>       0.00000000       0.00000000       0.00000000 </v>
   <v>       0.00000000       0.00000000       0.00000000 </v>
   <v>       0.00000000       0.00000000       0.00000000 </v>
   <v>       0.00000000       0.00000000       0.00000000 </v>
   <v>       0.00000000       0.00000000       0.00000000 </v>
   <v>       0.00000000       0.00000000       0.00000000 </v>
   <v>       0.00000000       0.00000000       0.00000000 </v>
   <v>       0.00000000       0.00000000       0.00000000 </v>
   <v>       0.00000000       0.00000000       0.00000000 </v>
   <v>       0.00000000       0.00000000       0.00000000 </v>
   <v>       0.00000000       0.00000000       0.00000000 </v>
   <v>       0.00000000       0.00000000       0.00000000 </v>
   <v>       0.00000000       0.00000000       0.00000000 </v>
   <v>       0.00000000       0.00000000       0.00000000 </v>
   <v>       0.00000000       0.00000000       0.00000000 </v>
   <v>       0.00000000       0.00000000       0.00000000 </v>
   <v>       0.00000000       0.00000000       0.00000000 </v>
   <v>       0.00000000       0.00000000       0.00000000 </v>
   <v>       0.00000000       0.00000000       0.00000000 </v>
   <v>       0.00000000       0.00000000       0.00000000 </v>
   <v>       0.00000000       0.00000000       0.00000000 </v>
   <v>       0.00000000       0.00000000       0.00000000 </v>
   <v>       0.00000000       0.00000000       0.00000000 </v>
   <v>       0.00000000       0.00000000       0.00000000 </v>
   <v>       0.00000000       0.00000000       0.00000000 </v>
   <v>       0.00000000       0.00000000       0.00000000 </v>
   <v>       0.00000000       0.00000000       0.00000000 </v>
   <v>       0.00000000       0.00000000       0.00000000 </v>
   <v>       0.00000000       0.00000000       0.00000000 </v>
   <v>       0.00000000       0.00000000       0.00000000 </v>
   <v>       0.00000000       0.00000000       0.00000000 </v>
   <v>       0.00000000       0.00000000       0.00000000 </v>
   <v>       0.00000000       0.00000000       0.00000000 </v>
   <v>       0.00000000       0.00000000       0.00000000 </v>
   <v>       0.00000000       0.00000000       0.00000000 </v>
   <v>       0.00000000       0.00000000       0.00000000 </v>
   <v>       0.00000000       0.00000000       0.00000000 </v>
   <v>       0.00000000       0.00000000       0.00000000 </v>
   <v>       0.00000000       0.00000000       0.00000000 </v>
   <v>       0.00000000       0.00000000       0.00000000 </v>
   <v>       0.00000000       0.00000000       0.00000000 </v>
   <v>       0.00000000       0.00000000       0.00000000 </v>
   <v>       0.00000000       0.00000000       0.00000000 </v>
   <v>       0.00000000       0.00000000       0.00000000 </v>
   <v>       0.00000000       0.00000000       0.00000000 </v>
   <v>       0.00000000       0.00000000       0.00000000 </v>
   <v>       0.00000000       0.00000000       0.00000000 </v>
   <v>       0.00000000       0.00000000       0.00000000 </v>
   <v>       0.00000000       0.00000000       0.00000000 </v>
   <v>       0.00000000       0.00000000       0.00000000 </v>
   <v>       0.00000000       0.00000000       0.00000000 </v>
   <v>       0.00000000       0.00000000       0.00000000 </v>
   <v>       0.00000000       0.00000000       0.00000000 </v>
   <v>       0.00000000       0.00000000       0.00000000 </v>
   <v>       0.00000000       0.00000000       0.00000000 </v>
   <v>       0.00000000       0.00000000       0.00000000 </v>
   <v>       0.00000000       0.00000000       0.00000000 </v>
   <v>       0.00000000       0.00000000       0.00000000 </v>
   <v>       0.00000000       0.00000000       0.00000000 </v>
   <v>       0.00000000       0.00000000       0.00000000 </v>
   <v>       0.00000000       0.00000000       0.00000000 </v>
   <v>       0.00000000       0.00000000       0.00000000 </v>
   <v>       0.00000000       0.00000000       0.00000000 </v>
   <v>       0.00000000       0.00000000       0.00000000 </v>
   <v>       0.00000000       0.00000000       0.00000000 </v>
   <v>       0.00000000       0.00000000       0.00000000 </v>
   <v>       0.00000000       0.00000000       0.00000000 </v>
   <v>       0.00000000       0.00000000       0.00000000 </v>
  </varray>
 </structure>
</modeling>
