 vasp.5.4.4.18Apr17-6-g9f103f2a35 (build Oct 31 2019 15:01:46) complex          
  
 executed on             LinuxIFC date 2024.04.29  14:11:48
 running on   52 total cores
 distrk:  each k-point on   52 cores,    1 groups
 distr:  one band on NCORES_PER_BAND=  13 cores,    4 groups


--------------------------------------------------------------------------------------------------------


 INCAR:
 POTCAR:    PAW_PBE Ca_sv 06Sep2000               
 POTCAR:    PAW_PBE Si 05Jan2001                  
 POTCAR:    PAW_PBE O 08Apr2002                   
 POTCAR:    PAW_PBE Ca_sv 06Sep2000               
   SHA256 =  a47365830e737f14e0e6c5cf1ed81b94e081eecf0a33df105380881bc9da05d5 Ca
   COPYR  = (c) Copyright 06Sep2000 Georg Kresse                                
   COPYR  = This file is part of the software VASP. Any use, copying, and all ot
   COPYR  = If you do not have a valid VASP license, you may not use, copy or di
   VRHFIN =Ca: 3s3p4s                                                           
   LEXCH  = PE                                                                  
   EATOM  =  1006.0909 eV,   73.9456 Ry                                         
                                                                                
   TITEL  = PAW_PBE Ca_sv 06Sep2000                                             
   LULTRA =        F    use ultrasoft PP ?                                      
   IUNSCR =        1    unscreen: 0-lin 1-nonlin 2-no                           
   RPACOR =    2.000    partial core radius                                     
   POMASS =   40.078; ZVAL   =   10.000    mass and valenz                      
   RCORE  =    2.300    outmost cutoff radius                                   
   RWIGS  =    2.500; RWIGS  =    1.323    wigner-seitz radius (au A)           
   ENMAX  =  266.622; ENMIN  =  199.967 eV                                      
   RCLOC  =    1.808    cutoff for local pot                                    
   LCOR   =        T    correct aug charges                                     
   LPAW   =        T    paw PP                                                  
   EAUG   =  420.852                                                            
   RMAX   =    2.359    core radius for proj-oper                               
   RAUG   =    1.300    factor for augmentation sphere                          
   RDEP   =    2.392    radius for radial grids                                 
   RDEPT  =    1.987    core radius for aug-charge                              
                                                                                
   Atomic configuration                                                         
    7 entries                                                                   
     n  l   j            E        occ.                                          
     1  0  0.50     -3949.1705   2.0000                                         
     2  0  0.50      -414.3434   2.0000                                         
     2  1  1.50      -334.7047   6.0000                                         
     3  0  0.50       -47.0896   2.0000                                         
     4  0  0.50        -3.7663   2.0000                                         
     3  1  1.50       -28.0061   6.0000                                         
     3  2  1.50        -4.0817   0.0000                                         
   Description                                                                  
     l       E           TYP  RCUT    TYP  RCUT                                 
     0    -47.0896403     23  2.300                                             
     0     -3.7663320     23  2.300                                             
     1    -28.0060855     23  2.300                                             
     1      6.8029130     23  2.300                                             
     2     -4.0817478     23  2.300                                             
     2      0.4464412     23  2.300                                             
  local pseudopotential read in
  partial core-charges read in
  partial kinetic energy density read in
  atomic valenz-charges read in
  non local Contribution for L=           0  read in
    real space projection operators read in
  non local Contribution for L=           0  read in
    real space projection operators read in
  non local Contribution for L=           1  read in
    real space projection operators read in
  non local Contribution for L=           1  read in
    real space projection operators read in
  non local Contribution for L=           2  read in
    real space projection operators read in
  non local Contribution for L=           2  read in
    real space projection operators read in
    PAW grid and wavefunctions read in
 
   number of l-projection  operators is LMAX  =           6
   number of lm-projection operators is LMMAX =          18
 
 POTCAR:    PAW_PBE Si 05Jan2001                  
   SHA256 =  79d9987ad8750f624c4d6acb2a16d13abf6a777132adc04dc6c8399be72b42bb Si
   COPYR  = (c) Copyright 05Jan2001 Georg Kresse                                
   COPYR  = This file is part of the software VASP. Any use, copying, and all ot
   COPYR  = If you do not have a valid VASP license, you may not use, copy or di
   VRHFIN =Si: s2p2                                                             
   LEXCH  = PE                                                                  
   EATOM  =   103.0669 eV,    7.5752 Ry                                         
                                                                                
   TITEL  = PAW_PBE Si 05Jan2001                                                
   LULTRA =        F    use ultrasoft PP ?                                      
   IUNSCR =        1    unscreen: 0-lin 1-nonlin 2-no                           
   RPACOR =    1.500    partial core radius                                     
   POMASS =   28.085; ZVAL   =    4.000    mass and valenz                      
   RCORE  =    1.900    outmost cutoff radius                                   
   RWIGS  =    2.480; RWIGS  =    1.312    wigner-seitz radius (au A)           
   ENMAX  =  245.345; ENMIN  =  184.009 eV                                      
   ICORE  =        2    local potential                                         
   LCOR   =        T    correct aug charges                                     
   LPAW   =        T    paw PP                                                  
   EAUG   =  322.069                                                            
   DEXC   =    0.000                                                            
   RMAX   =    1.950    core radius for proj-oper                               
   RAUG   =    1.300    factor for augmentation sphere                          
   RDEP   =    1.993    radius for radial grids                                 
   RDEPT  =    1.837    core radius for aug-charge                              
                                                                                
   Atomic configuration                                                         
    6 entries                                                                   
     n  l   j            E        occ.                                          
     1  0  0.50     -1785.8828   2.0000                                         
     2  0  0.50      -139.4969   2.0000                                         
     2  1  1.50       -95.5546   6.0000                                         
     3  0  0.50       -10.8127   2.0000                                         
     3  1  0.50        -4.0811   2.0000                                         
     3  2  1.50        -4.0817   0.0000                                         
   Description                                                                  
     l       E           TYP  RCUT    TYP  RCUT                                 
     0    -10.8127223     23  1.900                                             
     0     -7.6451159     23  1.900                                             
     1     -4.0811372     23  1.900                                             
     1      2.4879257     23  1.900                                             
     2     -4.0817478      7  1.900                                             
  local pseudopotential read in
  partial core-charges read in
  partial kinetic energy density read in
  atomic valenz-charges read in
  non local Contribution for L=           0  read in
    real space projection operators read in
  non local Contribution for L=           0  read in
    real space projection operators read in
  non local Contribution for L=           1  read in
    real space projection operators read in
  non local Contribution for L=           1  read in
    real space projection operators read in
    PAW grid and wavefunctions read in
 
   number of l-projection  operators is LMAX  =           4
   number of lm-projection operators is LMMAX =           8
 
 POTCAR:    PAW_PBE O 08Apr2002                   
   SHA256 =  818f92134a0a090dccd8ba1447fa70422a3b330e708bb4f08108d8ae51209ddf O/
   COPYR  = (c) Copyright 08Apr2002 Georg Kresse                                
   COPYR  = This file is part of the software VASP. Any use, copying, and all ot
   COPYR  = If you do not have a valid VASP license, you may not use, copy or di
   VRHFIN =O: s2p4                                                              
   LEXCH  = PE                                                                  
   EATOM  =   432.3788 eV,   31.7789 Ry                                         
                                                                                
   TITEL  = PAW_PBE O 08Apr2002                                                 
   LULTRA =        F    use ultrasoft PP ?                                      
   IUNSCR =        1    unscreen: 0-lin 1-nonlin 2-no                           
   RPACOR =    1.200    partial core radius                                     
   POMASS =   16.000; ZVAL   =    6.000    mass and valenz                      
   RCORE  =    1.520    outmost cutoff radius                                   
   RWIGS  =    1.550; RWIGS  =    0.820    wigner-seitz radius (au A)           
   ENMAX  =  400.000; ENMIN  =  300.000 eV                                      
   ICORE  =        2    local potential                                         
   LCOR   =        T    correct aug charges                                     
   LPAW   =        T    paw PP                                                  
   EAUG   =  605.392                                                            
   DEXC   =    0.000                                                            
   RMAX   =    1.553    core radius for proj-oper                               
   RAUG   =    1.300    factor for augmentation sphere                          
   RDEP   =    1.550    radius for radial grids                                 
   RDEPT  =    1.329    core radius for aug-charge                              
                                                                                
   Atomic configuration                                                         
    4 entries                                                                   
     n  l   j            E        occ.                                          
     1  0  0.50      -514.6923   2.0000                                         
     2  0  0.50       -23.9615   2.0000                                         
     2  1  0.50        -9.0305   4.0000                                         
     3  2  1.50        -9.5241   0.0000                                         
   Description                                                                  
     l       E           TYP  RCUT    TYP  RCUT                                 
     0    -23.9615318     23  1.200                                             
     0     -9.5240782     23  1.200                                             
     1     -9.0304911     23  1.520                                             
     1      8.1634956     23  1.520                                             
     2     -9.5240782      7  1.500                                             
  local pseudopotential read in
  partial core-charges read in
  partial kinetic energy density read in
  kinetic energy density of atom read in
  atomic valenz-charges read in
  non local Contribution for L=           0  read in
    real space projection operators read in
  non local Contribution for L=           0  read in
    real space projection operators read in
  non local Contribution for L=           1  read in
    real space projection operators read in
  non local Contribution for L=           1  read in
    real space projection operators read in
    PAW grid and wavefunctions read in
 
   number of l-projection  operators is LMAX  =           4
   number of lm-projection operators is LMMAX =           8
 
 Optimization of the real space projectors (new method)

 maximal supplied QI-value         = 16.25
 optimisation between [QCUT,QGAM] = [ 12.51, 25.03] = [ 43.85,175.40] Ry 
 Optimized for a Real-space Cutoff    1.47 Angstroem

   l    n(q)    QCUT    max X(q) W(low)/X(q) W(high)/X(q)  e(spline) 
   0     11    12.514    11.817    0.25E-04    0.32E-05    0.87E-07
   0     11    12.514     8.461    0.39E-04    0.59E-05    0.18E-06
   1     11    12.514     3.957    0.97E-05    0.57E-05    0.28E-07
   1     11    12.514     4.314    0.42E-04    0.14E-04    0.23E-06
   2     10    12.514    14.565    0.79E-04    0.50E-03    0.16E-05
   2     10    12.514    14.552    0.75E-04    0.48E-03    0.15E-05
 Optimization of the real space projectors (new method)

 maximal supplied QI-value         = 19.84
 optimisation between [QCUT,QGAM] = [ 12.50, 25.00] = [ 43.76,175.03] Ry 
 Optimized for a Real-space Cutoff    1.16 Angstroem

   l    n(q)    QCUT    max X(q) W(low)/X(q) W(high)/X(q)  e(spline) 
   0      9    12.501   159.560    0.10E-03    0.83E-04    0.71E-07
   0      9    12.501   115.863    0.99E-04    0.81E-04    0.70E-07
   1      8    12.501    88.339    0.20E-03    0.25E-03    0.76E-07
   1      8    12.501    48.592    0.20E-03    0.24E-03    0.75E-07
 Optimization of the real space projectors (new method)

 maximal supplied QI-value         = 24.76
 optimisation between [QCUT,QGAM] = [ 12.38, 25.00] = [ 42.90,175.06] Ry 
 Optimized for a Real-space Cutoff    1.16 Angstroem

   l    n(q)    QCUT    max X(q) W(low)/X(q) W(high)/X(q)  e(spline) 
   0      9    12.378    20.381    0.16E-03    0.67E-05    0.31E-06
   0      9    12.378    15.268    0.17E-03    0.81E-05    0.33E-06
   1      8    12.378     5.964    0.20E-03    0.16E-03    0.30E-06
   1      8    12.378     5.382    0.18E-03    0.14E-03    0.26E-06
  PAW_PBE Ca_sv 06Sep2000               :
 energy of atom  1       EATOM=-1006.0909
 kinetic energy error for atom=    0.0012 (will be added to EATOM!!)
  PAW_PBE Si 05Jan2001                  :
 energy of atom  2       EATOM= -103.0669
 kinetic energy error for atom=    0.0003 (will be added to EATOM!!)
  PAW_PBE O 08Apr2002                   :
 energy of atom  3       EATOM= -432.3788
 kinetic energy error for atom=    0.0168 (will be added to EATOM!!)
 
 
 POSCAR: Ca Si  O                                
  positions in direct lattice
  No initial velocities read in
 exchange correlation table for  LEXCH =        8
   RHO(1)=    0.500       N(1)  =     2000
   RHO(2)=  100.500       N(2)  =     4000
 


--------------------------------------------------------------------------------------------------------


 ion  position               nearest neighbor table
   1  0.707  0.039  0.219- 118 2.00  66 2.27  60 2.45  43 2.98  37 3.06  31 3.09
   2  0.518  0.415  0.217- 104 2.09  94 2.26  89 2.45  11 2.59
   3  0.799  0.548  0.201-  55 2.12  78 2.49
   4  0.195  0.359  0.574-  76 2.34  41 3.12
   5  0.317  0.613  0.698-  91 2.21 121 2.39 131 2.50
   6  0.833  0.291  0.572- 125 2.11  92 2.26  71 2.41  53 2.91  33 3.01
   7  0.406  0.860  0.687-  73 2.15  80 2.26  54 2.99
   8  0.473  0.928  0.235- 135 2.00  79 2.28 134 2.49  96 2.52 118 2.54  40 2.73
   9  0.814  0.648  0.546- 122 2.31  84 2.51  46 3.14
  10  0.101  0.033  0.482- 102 2.02  57 2.16  93 2.27  74 2.33 115 2.43  42 2.71  41 2.84  33 2.90

  11  0.472  0.263  0.338- 127 1.90  89 2.02  96 2.42   2 2.59  30 3.10
  12  0.535  0.438  0.607- 131 2.30  62 2.37 125 2.49  81 2.52  51 3.03
  13  0.196  0.809  0.171- 134 2.31 114 2.37
  14  0.909  0.802  0.982-  65 2.17  78 2.36  63 2.44  39 2.95
  15  0.829  0.348  0.949-  86 2.00 123 2.03 124 2.03  75 2.53  44 2.88  43 2.90
  16  0.456  0.665  0.144- 128 2.09  94 2.46 101 2.54
  17  0.569  0.726  0.453- 108 2.05  84 2.20 135 2.32  37 2.83  40 3.06
  18  0.598  0.471  0.977- 128 2.21  86 2.46  62 2.56  51 3.03
  19  0.597  0.170  0.925- 111 1.93  70 2.09  59 2.16  60 2.29  30 2.80
  20  0.075  0.430  0.838-  87 2.12 120 2.21 105 2.33  45 2.98
  21  0.939  0.874  0.259-  69 2.25 114 2.32  97 2.33  74 2.36  66 2.42
  22  0.015  0.257  0.254- 113 2.19 115 2.27  68 2.28  45 2.99  34 3.04
  23  0.278  0.525  0.988- 105 2.03 101 2.03 121 2.38  94 2.42  47 2.77
  24  0.296  0.131  0.056-  79 1.97 129 2.25  61 2.44 111 2.49  30 2.87
  25  0.810  0.112  0.757-  92 2.19  77 2.34  59 2.46  33 2.55
  26  0.973  0.879  0.706-  63 2.05 130 2.24  93 2.43  88 2.57
  27  0.088  0.163  0.853-  87 1.91  61 2.30 130 2.34  33 3.14
  28  0.678  0.704  0.035-  78 1.65 128 1.74 119 1.75 110 2.20  65 2.28  48 2.63
  29  0.292  0.756  0.907-  73 1.58  91 1.69 106 1.74 101 1.77  50 2.59
  30  0.505  0.166  0.121-  96 1.48 111 1.68 104 1.77  60 1.94  19 2.80  24 2.87  11 3.10
  31  0.866  0.091  0.048-  66 1.71 123 1.73  98 1.74  59 2.07  43 2.78  39 2.98   1 3.09
  32  0.518  0.114  0.636- 107 1.59 109 1.68  77 2.07  80 2.12  54 2.92  38 3.13
  33  0.972  0.119  0.645-  92 1.53  88 1.65 130 1.68 102 1.69  25 2.55  10 2.90   6 3.01  27 3.14

  34  0.963  0.430  0.405-  68 1.55  71 1.65  72 1.68 117 1.87  22 3.04  49 3.15
  35  0.614  0.625  0.754- 132 1.56 110 1.80  81 1.89  62 2.18  44 2.99  48 3.05
  36  0.378  0.566  0.425-  67 1.72  95 1.72 131 1.86 133 2.12
  37  0.712  0.884  0.398-  84 1.53 112 1.75 118 2.00  52 2.37  83 2.48  17 2.83   1 3.06
  38  0.348  0.203  0.784- 129 1.51 100 1.71 107 1.77 126 1.94  70 2.50  51 2.96  32 3.13
  39  0.059  0.969  0.020-  61 1.59 114 1.62  98 1.86  14 2.95  31 2.98
  40  0.363  0.813  0.374- 134 1.50  90 1.66  95 1.76 135 1.84   8 2.73  17 3.06
  41  0.256  0.178  0.427-  57 1.45 127 1.57 115 1.91  10 2.84   4 3.12
  42  0.111  0.830  0.433-  58 1.51  74 1.63  93 1.68  90 2.15  10 2.71  49 3.12
  43  0.748  0.249  0.133-  82 1.53  60 1.69 123 1.77  86 1.88  31 2.78  15 2.90   1 2.98
  44  0.779  0.463  0.765- 103 1.59  75 1.67 124 1.84  81 2.02  15 2.88  35 2.99
  45  0.080  0.326  0.043- 113 1.73 105 1.76  64 1.86  87 1.91  85 2.43  20 2.98  22 2.99
  46  0.027  0.562  0.623-  76 1.65 117 1.69 122 1.73 103 2.41   9 3.14
  47  0.256  0.495  0.199-  56 1.51  85 1.68 133 1.77  94 1.77  23 2.77
  48  0.678  0.821  0.869-  65 1.48  99 1.67 116 1.76 110 2.42 119 2.47  28 2.63  35 3.05  54 3.13

  49  0.058  0.631  0.307-  97 1.57  58 1.88  72 1.91  56 2.42  42 3.12  34 3.15
  50  0.104  0.710  0.855-  63 1.55  91 1.64 120 1.67 106 1.79  29 2.59
  51  0.436  0.411  0.818- 126 1.63  62 1.66 121 1.74  70 1.97  38 2.96  12 3.03  18 3.03
  52  0.839  0.970  0.498-  83 1.56  88 1.62 112 1.88  69 1.90  37 2.37
  53  0.701  0.395  0.423- 125 1.56  89 1.68  71 1.87  55 2.21   6 2.91
  54  0.627  0.917  0.653-  80 1.76  77 1.80 108 1.80  99 1.97  32 2.92   7 2.99  48 3.13
  55  0.781  0.533  0.363-   3 2.12  53 2.21
  56  0.201  0.598  0.191-  47 1.51  49 2.42
  57  0.262  0.076  0.473-  41 1.45  10 2.16
  58  0.115  0.715  0.411-  42 1.51  49 1.88
  59  0.751  0.107  0.937-  31 2.07  19 2.16  25 2.46
  60  0.653  0.169  0.093-  43 1.69  30 1.94  19 2.29   1 2.45
  61  0.142  0.051  0.981-  39 1.59  27 2.30  24 2.44
  62  0.543  0.475  0.787-  51 1.66  35 2.18  12 2.37  18 2.56
  63  0.015  0.786  0.827-  50 1.55  26 2.05  14 2.44
  64  0.985  0.432  0.062-  45 1.86
  65  0.749  0.844  0.955-  48 1.48  14 2.17  28 2.28
  66  0.861  0.999  0.144-  31 1.71   1 2.27  21 2.42
  67  0.486  0.574  0.349-  36 1.72
  68  0.049  0.346  0.402-  34 1.55  22 2.28
  69  0.887  0.004  0.363-  52 1.90  21 2.25
  70  0.491  0.285  0.884-  51 1.97  19 2.09  38 2.50
  71  0.845  0.384  0.411-  34 1.65  53 1.87   6 2.41
  72  0.964  0.517  0.308-  34 1.68  49 1.91
  73  0.364  0.833  0.845-  29 1.58   7 2.15
  74  0.095  0.918  0.344-  42 1.63  10 2.33  21 2.36
  75  0.766  0.334  0.765-  44 1.67  15 2.53
  76  0.146  0.519  0.642-  46 1.65   4 2.34
  77  0.656  0.049  0.686-  54 1.80  32 2.07  25 2.34
  78  0.801  0.675  0.056-  28 1.65  14 2.36   3 2.49
  79  0.359  0.015  0.132-  24 1.97   8 2.28
  80  0.513  0.957  0.590-  54 1.76  32 2.12   7 2.26
  81  0.691  0.542  0.662-  35 1.89  44 2.02  12 2.52
  82  0.719  0.260  0.248-  43 1.53
  83  0.850  0.854  0.527-  52 1.56  37 2.48
  84  0.730  0.769  0.419-  37 1.53  17 2.20   9 2.51
  85  0.184  0.388  0.187-  47 1.68  45 2.43
  86  0.736  0.379  0.070-  43 1.88  15 2.00  18 2.46
  87  0.033  0.288  0.909-  45 1.91  27 1.91  20 2.12
  88  0.906  0.025  0.589-  52 1.62  33 1.65  26 2.57
  89  0.580  0.362  0.389-  53 1.68  11 2.02   2 2.45
  90  0.270  0.879  0.433-  40 1.66  42 2.15
  91  0.223  0.699  0.812-  50 1.64  29 1.69   5 2.21
  92  0.930  0.216  0.697-  33 1.53  25 2.19   6 2.26
  93  0.079  0.873  0.551-  42 1.68  10 2.27  26 2.43
  94  0.380  0.491  0.141-  47 1.77   2 2.26  23 2.42  16 2.46
  95  0.372  0.697  0.446-  36 1.72  40 1.76
  96  0.508  0.119  0.224-  30 1.48  11 2.42   8 2.52
  97  0.984  0.701  0.240-  49 1.57  21 2.33
  98  0.940  0.022  0.959-  31 1.74  39 1.86
  99  0.614  0.912  0.804-  48 1.67  54 1.97
 100  0.254  0.177  0.695-  38 1.71
 101  0.360  0.657  0.973-  29 1.77  23 2.03  16 2.54
 102  0.063  0.162  0.561-  33 1.69  10 2.02
 103  0.894  0.484  0.727-  44 1.59  46 2.41
 104  0.450  0.291  0.140-  30 1.77   2 2.09
 105  0.173  0.408  0.987-  45 1.76  23 2.03  20 2.33
 106  0.168  0.805  0.932-  29 1.74  50 1.79
 107  0.456  0.131  0.741-  32 1.59  38 1.77
 108  0.591  0.797  0.593-  54 1.80  17 2.05
 109  0.509  0.193  0.534-  32 1.68
 110  0.671  0.634  0.881-  35 1.80  28 2.20  48 2.42
 111  0.480  0.119  0.002-  30 1.68  19 1.93  24 2.49
 112  0.698  0.996  0.473-  37 1.75  52 1.88
 113  0.090  0.211  0.109-  45 1.73  22 2.19
 114  0.040  0.886  0.112-  39 1.62  21 2.32  13 2.37
 115  0.128  0.168  0.355-  41 1.91  22 2.27  10 2.43
 116  0.753  0.786  0.761-  48 1.76
 117  0.960  0.489  0.537-  46 1.69  34 1.87
 118  0.666  0.893  0.251-   1 2.00  37 2.00   8 2.54
 119  0.631  0.829  0.054-  28 1.75  48 2.47
 120  0.066  0.592  0.892-  50 1.67  20 2.21
 121  0.316  0.472  0.816-  51 1.74  23 2.38   5 2.39
 122  0.970  0.682  0.626-  46 1.73   9 2.31
 123  0.847  0.224  0.043-  31 1.73  43 1.77  15 2.03
 124  0.797  0.494  0.903-  44 1.84  15 2.03
 125  0.711  0.395  0.543-  53 1.56   6 2.11  12 2.49
 126  0.401  0.331  0.727-  51 1.63  38 1.94
 127  0.349  0.256  0.418-  41 1.57  11 1.90
 128  0.591  0.610  0.076-  28 1.74  16 2.09  18 2.21
 129  0.314  0.196  0.895-  38 1.51  24 2.25
 130  0.997  0.046  0.749-  33 1.68  26 2.24  27 2.34
 131  0.377  0.500  0.553-  36 1.86  12 2.30   5 2.50
 132  0.513  0.685  0.726-  35 1.56
 133  0.308  0.460  0.321-  47 1.77  36 2.12
 134  0.348  0.784  0.263-  40 1.50  13 2.31   8 2.49
 135  0.493  0.870  0.377-  40 1.84   8 2.00  17 2.32
 

IMPORTANT INFORMATION: All symmetrisations will be switched off!
NOSYMM: (Re-)initialisation of all symmetry stuff for point group C_1.

 
 

Automatic generation of k-mesh.
 generate k-points for:    2    2    2
Space group operators:
 irot       det(A)        alpha          n_x          n_y          n_z        tau_x        tau_y        tau_z
    1     1.000000     0.000000     1.000000     0.000000     0.000000     0.000000     0.000000     0.000000
 
 Subroutine IBZKPT returns following result:
 ===========================================
 
 Found      8 irreducible k-points:
 
 Following reciprocal coordinates:
            Coordinates               Weight
  0.000000  0.000000  0.000000      1.000000
  0.500000  0.000000  0.000000      1.000000
  0.000000  0.500000  0.000000      1.000000
  0.500000  0.500000  0.000000      1.000000
  0.000000  0.000000  0.500000      1.000000
  0.500000  0.000000  0.500000      1.000000
  0.000000  0.500000  0.500000      1.000000
  0.500000  0.500000  0.500000      1.000000
 
 Following cartesian coordinates:
            Coordinates               Weight
  0.000000  0.000000  0.000000      1.000000
  0.038669  0.000000  0.000000      1.000000
  0.000000  0.038669  0.000000      1.000000
  0.038669  0.038669  0.000000      1.000000
  0.000000  0.000000  0.038669      1.000000
  0.038669  0.000000  0.038669      1.000000
  0.000000  0.038669  0.038669      1.000000
  0.038669  0.038669  0.038669      1.000000
 


--------------------------------------------------------------------------------------------------------




 Dimension of arrays:
   k-points           NKPTS =      8   k-points in BZ     NKDIM =      8   number of bands    NBANDS=    520
   number of dos      NEDOS =    301   number of ions     NIONS =    135
   non local maximal  LDIM  =      6   non local SUM 2l+1 LMDIM =     18
   total plane-waves  NPLWV = ******
   max r-space proj   IRMAX =   7814   max aug-charges    IRDMAX= 222580
   dimension x,y,z NGX =   108 NGY =  108 NGZ =  108
   dimension x,y,z NGXF=   216 NGYF=  216 NGZF=  216
   support grid    NGXF=   432 NGYF=  432 NGZF=  432
   ions per type =              27  27  81
   NGX,Y,Z   is equivalent  to a cutoff of  13.89, 13.89, 13.89 a.u.
   NGXF,Y,Z  is equivalent  to a cutoff of  27.77, 27.77, 27.77 a.u.

 SYSTEM =  unknown system                          
 POSCAR =  Ca Si  O                                

 Startparameter for this run:
   NWRITE =      2    write-flag & timer
   PREC   = a         normal or accurate (medium, high low for compatibility)
   ISTART =      0    job   : 0-new  1-cont  2-samecut
   ICHARG =      2    charge: 1-file 2-atom 10-const
   ISPIN  =      1    spin polarized calculation?
   LNONCOLLINEAR =      F non collinear calculations
   LSORBIT =      F    spin-orbit coupling
   INIWAV =      1    electr: 0-lowe 1-rand  2-diag
   LASPH  =      F    aspherical Exc in radial PAW
   METAGGA=      F    non-selfconsistent MetaGGA calc.

 Electronic Relaxation 1
   ENCUT  =  600.0 eV  44.10 Ry    6.64 a.u.  25.83 25.83 25.83*2*pi/ulx,y,z
   ENINI  =  600.0     initial cutoff
   ENAUG  =  605.4 eV  augmentation charge cutoff
   NELM   =     60;   NELMIN=  2; NELMDL= -5     # of ELM steps 
   EDIFF  = 0.1E-05   stopping-criterion for ELM
   LREAL  =      T    real-space projection
   NLSPLINE    = F    spline interpolate recip. space projectors
   LCOMPAT=      F    compatible to vasp.4.4
   GGA_COMPAT  = T    GGA compatible to vasp.4.4-vasp.4.6
   LMAXPAW     = -100 max onsite density
   LMAXMIX     =    2 max onsite mixed and CHGCAR
   VOSKOWN=      0    Vosko Wilk Nusair interpolation
   ROPT   =   -0.00025  -0.00025  -0.00025
 Ionic relaxation
   EDIFFG = -.1E-01   stopping-criterion for IOM
   NSW    =      1    number of steps for IOM
   NBLOCK =      1;   KBLOCK =      1    inner block; outer block 
   IBRION =     -1    ionic relax: 0-MD 1-quasi-New 2-CG
   NFREE  =      0    steps in history (QN), initial steepest desc. (CG)
   ISIF   =      2    stress and relaxation
   IWAVPR =     10    prediction:  0-non 1-charg 2-wave 3-comb
   ISYM   =      0    0-nonsym 1-usesym 2-fastsym
   LCORR  =      T    Harris-Foulkes like correction to forces

   POTIM  = 1.0000    time-step for ionic-motion
   TEIN   =    0.0    initial temperature
   TEBEG  =    0.0;   TEEND  =   0.0 temperature during run
   SMASS  =  -3.00    Nose mass-parameter (am)
   estimated Nose-frequenzy (Omega)   =  0.10E-29 period in steps =****** mass=  -0.382E-26a.u.
   SCALEE = 1.0000    scale energy and forces
   NPACO  =    256;   APACO  = 16.0  distance and # of slots for P.C.
   PSTRESS=    0.0 pullay stress

  Mass of Ions in am
   POMASS =  40.08 28.09 16.00
  Ionic Valenz
   ZVAL   =  10.00  4.00  6.00
  Atomic Wigner-Seitz radii
   RWIGS  =  -1.00 -1.00 -1.00
  virtual crystal weights 
   VCA    =   1.00  1.00  1.00
   NELECT =     864.0000    total number of electrons
   NUPDOWN=      -1.0000    fix difference up-down

 DOS related values:
   EMIN   =  10.00;   EMAX   =-10.00  energy-range for DOS
   EFERMI =   0.00
   ISMEAR =     0;   SIGMA  =   0.05  broadening in eV -4-tet -1-fermi 0-gaus

 Electronic relaxation 2 (details)
   IALGO  =     38    algorithm
   LDIAG  =      T    sub-space diagonalisation (order eigenvalues)
   LSUBROT=      F    optimize rotation matrix (better conditioning)
   TURBO    =      0    0=normal 1=particle mesh
   IRESTART =      0    0=no restart 2=restart with 2 vectors
   NREBOOT  =      0    no. of reboots
   NMIN     =      0    reboot dimension
   EREF     =   0.00    reference energy to select bands
   IMIX   =      4    mixing-type and parameters
     AMIX     =   0.40;   BMIX     =  1.00
     AMIX_MAG =   1.60;   BMIX_MAG =  1.00
     AMIN     =   0.10
     WC   =   100.;   INIMIX=   1;  MIXPRE=   1;  MAXMIX= -45

 Intra band minimization:
   WEIMIN = 0.0000     energy-eigenvalue tresh-hold
   EBREAK =  0.48E-09  absolut break condition
   DEPER  =   0.30     relativ break condition  

   TIME   =   0.40     timestep for ELM

  volume/ion in A,a.u.               =      16.01       108.07
  Fermi-wavevector in a.u.,A,eV,Ry     =   1.205870  2.278763 19.784524  1.454122
  Thomas-Fermi vector in A             =   2.341553
 
 Write flags
   LWAVE        =      F    write WAVECAR
   LDOWNSAMPLE  =      F    k-point downsampling of WAVECAR
   LCHARG       =      F    write CHGCAR
   LVTOT        =      F    write LOCPOT, total local potential
   LVHAR        =      F    write LOCPOT, Hartree potential only
   LELF         =      F    write electronic localiz. function (ELF)
   LORBIT       =      0    0 simple, 1 ext, 2 COOP (PROOUT), +10 PAW based schemes


 Dipole corrections
   LMONO  =      F    monopole corrections only (constant potential shift)
   LDIPOL =      F    correct potential (dipole corrections)
   IDIPOL =      0    1-x, 2-y, 3-z, 4-all directions 
   EPSILON=  1.0000000 bulk dielectric constant

 Exchange correlation treatment:
   GGA     =    --    GGA type
   LEXCH   =     8    internal setting for exchange type
   VOSKOWN=      0    Vosko Wilk Nusair interpolation
   LHFCALC =     F    Hartree Fock is set to
   LHFONE  =     F    Hartree Fock one center treatment
   AEXX    =    0.0000 exact exchange contribution

 Linear response parameters
   LEPSILON=     F    determine dielectric tensor
   LRPA    =     F    only Hartree local field effects (RPA)
   LNABLA  =     F    use nabla operator in PAW spheres
   LVEL    =     F    velocity operator in full k-point grid
   LINTERFAST=   F  fast interpolation
   KINTER  =     0    interpolate to denser k-point grid
   CSHIFT  =0.1000    complex shift for real part using Kramers Kronig
   OMEGAMAX=  -1.0    maximum frequency
   DEG_THRESHOLD= 0.2000000E-02 threshold for treating states as degnerate
   RTIME   =   -0.100 relaxation time in fs
  (WPLASMAI=    0.000 imaginary part of plasma frequency in eV, 0.658/RTIME)
   DFIELD  = 0.0000000 0.0000000 0.0000000 field for delta impulse in time
 
 Orbital magnetization related:
   ORBITALMAG=     F  switch on orbital magnetization
   LCHIMAG   =     F  perturbation theory with respect to B field
   DQ        =  0.001000  dq finite difference perturbation B field
   LLRAUG    =     F  two centre corrections for induced B field



--------------------------------------------------------------------------------------------------------


 Static calculation
 charge density and potential will be updated during run
 non-spin polarized calculation
 Variant of blocked Davidson
 Davidson routine will perform the subspace rotation
 perform sub-space diagonalisation
    after iterative eigenvector-optimisation
 modified Broyden-mixing scheme, WC =      100.0
 initial mixing is a Kerker type mixing with AMIX =  0.4000 and BMIX =      1.0000
 Hartree-type preconditioning will be used
 using additional bands           88
 real space projection scheme for non local part
 use partial core corrections
 calculate Harris-corrections to forces 
   (improved forces if not selfconsistent)
 use gradient corrections 
 use of overlap-Matrix (Vanderbilt PP)
 Gauss-broadening in eV      SIGMA  =   0.05


--------------------------------------------------------------------------------------------------------


  energy-cutoff  :      600.00
  volume of cell :     2161.91
      direct lattice vectors                 reciprocal lattice vectors
    12.930412990  0.000000000  0.000000000     0.077337050  0.000000000  0.000000000
     0.000000000 12.930412990  0.000000000     0.000000000  0.077337050  0.000000000
     0.000000000  0.000000000 12.930412990     0.000000000  0.000000000  0.077337050

  length of vectors
    12.930412990 12.930412990 12.930412990     0.077337050  0.077337050  0.077337050


 
 k-points in units of 2pi/SCALE and weight: read from INCAR                         
   0.00000000  0.00000000  0.00000000       0.125
   0.03866853  0.00000000  0.00000000       0.125
   0.00000000  0.03866853  0.00000000       0.125
   0.03866853  0.03866853  0.00000000       0.125
   0.00000000  0.00000000  0.03866853       0.125
   0.03866853  0.00000000  0.03866853       0.125
   0.00000000  0.03866853  0.03866853       0.125
   0.03866853  0.03866853  0.03866853       0.125
 
 k-points in reciprocal lattice and weights: read from INCAR                         
   0.00000000  0.00000000  0.00000000       0.125
   0.50000000  0.00000000  0.00000000       0.125
   0.00000000  0.50000000  0.00000000       0.125
   0.50000000  0.50000000  0.00000000       0.125
   0.00000000  0.00000000  0.50000000       0.125
   0.50000000  0.00000000  0.50000000       0.125
   0.00000000  0.50000000  0.50000000       0.125
   0.50000000  0.50000000  0.50000000       0.125
 
 position of ions in fractional coordinates (direct lattice) 
   0.70727343  0.03863073  0.21883680
   0.51841704  0.41546276  0.21732200
   0.79890749  0.54828129  0.20077149
   0.19473784  0.35878644  0.57434619
   0.31744012  0.61332657  0.69775231
   0.83281783  0.29082158  0.57223309
   0.40590054  0.85965303  0.68690925
   0.47283888  0.92760761  0.23465752
   0.81392564  0.64804600  0.54616572
   0.10096063  0.03324246  0.48241295
   0.47160783  0.26252092  0.33771414
   0.53503760  0.43804864  0.60741960
   0.19571915  0.80900651  0.17123463
   0.90948888  0.80154222  0.98244007
   0.82887354  0.34786916  0.94940104
   0.45574718  0.66501831  0.14407847
   0.56912503  0.72639397  0.45259210
   0.59815445  0.47089301  0.97671824
   0.59693884  0.17047174  0.92475993
   0.07450062  0.43007080  0.83784027
   0.93862156  0.87410095  0.25916393
   0.01469968  0.25702542  0.25381513
   0.27772172  0.52459105  0.98817437
   0.29553211  0.13081323  0.05593602
   0.80989885  0.11212875  0.75656870
   0.97326575  0.87945614  0.70627616
   0.08831381  0.16294130  0.85300760
   0.67753933  0.70407523  0.03543297
   0.29152384  0.75621839  0.90695269
   0.50507910  0.16643975  0.12052239
   0.86550820  0.09073069  0.04784575
   0.51791111  0.11387949  0.63628153
   0.97223825  0.11860595  0.64471404
   0.96326054  0.42985172  0.40523251
   0.61373687  0.62479861  0.75401286
   0.37800342  0.56557275  0.42518502
   0.71162400  0.88373198  0.39817100
   0.34773703  0.20273062  0.78416111
   0.05949754  0.96924389  0.02003360
   0.36323352  0.81265178  0.37425915
   0.25611466  0.17798091  0.42716023
   0.11136365  0.82955610  0.43282801
   0.74775409  0.24860920  0.13336371
   0.77857863  0.46285840  0.76499218
   0.08033636  0.32599492  0.04317755
   0.02747522  0.56165389  0.62259856
   0.25627961  0.49517988  0.19931132
   0.67753728  0.82059669  0.86899804
   0.05751828  0.63139451  0.30683885
   0.10403319  0.70993768  0.85463289
   0.43624816  0.41108245  0.81781078
   0.83877298  0.97048534  0.49821038
   0.70100596  0.39498651  0.42301418
   0.62749889  0.91722116  0.65256433
   0.78123606  0.53320374  0.36310314
   0.20079328  0.59793423  0.19130504
   0.26210675  0.07621917  0.47300433
   0.11476870  0.71521665  0.41057591
   0.75112173  0.10728854  0.93738169
   0.65279573  0.16917547  0.09253698
   0.14185190  0.05146953  0.98130039
   0.54272211  0.47534261  0.78682658
   0.01512149  0.78593333  0.82706650
   0.98457276  0.43195755  0.06191369
   0.74921135  0.84382756  0.95532750
   0.86105192  0.99903557  0.14352918
   0.48622459  0.57378434  0.34852174
   0.04859359  0.34581594  0.40231848
   0.88659579  0.00384037  0.36305822
   0.49125640  0.28524883  0.88400842
   0.84459858  0.38362281  0.41121086
   0.96354941  0.51702618  0.30838626
   0.36401314  0.83311764  0.84547194
   0.09451152  0.91804739  0.34412279
   0.76596637  0.33422631  0.76503111
   0.14609281  0.51922976  0.64230269
   0.65590813  0.04929017  0.68610712
   0.80054330  0.67513494  0.05574257
   0.35948177  0.01529678  0.13231893
   0.51307061  0.95705049  0.58970239
   0.69126503  0.54158705  0.66202766
   0.71876439  0.25962494  0.24762821
   0.85009735  0.85387131  0.52702609
   0.73020005  0.76858693  0.41872214
   0.18350145  0.38801227  0.18702520
   0.73628453  0.37857864  0.06988304
   0.03297227  0.28805466  0.90873572
   0.90609582  0.02503862  0.58923303
   0.58017144  0.36217109  0.38860412
   0.26998328  0.87904123  0.43298560
   0.22265974  0.69868692  0.81200570
   0.92975218  0.21568432  0.69710375
   0.07880711  0.87293745  0.55126380
   0.38028277  0.49071294  0.14110954
   0.37176703  0.69707362  0.44595954
   0.50841402  0.11864054  0.22415329
   0.98363552  0.70100840  0.24009950
   0.94013147  0.02185565  0.95935305
   0.61384190  0.91236650  0.80447714
   0.25402807  0.17676393  0.69457200
   0.36017393  0.65749453  0.97264219
   0.06286862  0.16243349  0.56108744
   0.89407522  0.48410155  0.72742845
   0.45047995  0.29060248  0.14001121
   0.17279609  0.40813994  0.98703141
   0.16846434  0.80465482  0.93190805
   0.45570437  0.13087846  0.74090178
   0.59101235  0.79680425  0.59251054
   0.50909364  0.19301513  0.53360547
   0.67080523  0.63386483  0.88087604
   0.47980798  0.11897585  0.00233664
   0.69775225  0.99559646  0.47291617
   0.08970668  0.21051536  0.10941832
   0.04027103  0.88565582  0.11176761
   0.12796269  0.16830401  0.35500416
   0.75275000  0.78599228  0.76064939
   0.96025453  0.48936334  0.53695475
   0.66567361  0.89331849  0.25073913
   0.63093452  0.82948765  0.05400942
   0.06602968  0.59236916  0.89163835
   0.31562317  0.47156182  0.81593418
   0.97010113  0.68205590  0.62571384
   0.84746279  0.22351652  0.04277673
   0.79683308  0.49436545  0.90280540
   0.71110495  0.39500621  0.54322082
   0.40052983  0.33127049  0.72679382
   0.34898974  0.25591784  0.41818137
   0.59130959  0.60954094  0.07643979
   0.31352898  0.19611013  0.89543605
   0.99733802  0.04563291  0.74907651
   0.37719703  0.49975867  0.55297310
   0.51337354  0.68472416  0.72551432
   0.30823070  0.46047136  0.32087051
   0.34754913  0.78415903  0.26274857
   0.49294412  0.87026206  0.37705931
 
 position of ions in cartesian coordinates  (Angst):
   9.14533759  0.49951128  2.82965023
   6.70334640  5.37210503  2.81006322
  10.33020384  7.08950356  2.59605830
   2.51804066  4.63925687  7.42653347
   4.10463187  7.93056579  9.02222551
  10.76867854  3.76044313  7.39921021
   5.24846167 11.11566865  8.88202025
   6.11400194 11.99434943  3.03421866
  10.52439468  8.37950246  7.06214837
   1.30546264  0.42983870  6.23779862
   6.09808396  3.39450392  4.36678330
   6.91825719  5.66414985  7.85418624
   2.53072947 10.46078830  2.21413445
  11.76006683 10.36427196 12.70335581
  10.71767721  4.49809192 12.27614753
   5.89299928  8.59896137  1.86299410
   7.35902174  9.39257405  5.85220274
   7.73438402  6.08884111 12.62937016
   7.71866571  2.20427004 11.95752785
   0.96332384  5.56099310 10.83362067
  12.13676444 11.30248624  3.35109671
   0.19007289  3.32344489  3.28193441
   3.59105658  6.78317892 12.77750271
   3.82135226  1.69146903  0.72327578
  10.47232662  1.44987104  9.78274580
  12.58472805 11.37173111  9.13244243
   1.14193398  2.10689825 11.02974057
   8.76086334  9.10398352  0.45816294
   3.76952365  9.77821603 11.72727289
   6.53088140  2.15213474  1.55840429
  11.19137852  1.17318525  0.61866533
   6.69680448  1.47250886  8.22738294
  12.57144214  1.53362398  8.33641884
  12.45535658  5.55816027  5.23982372
   7.93587122  8.07890402  9.74969768
   4.88774038  7.31308928  5.49781794
   9.20159221 11.42701953  5.14851551
   4.49638337  2.62139070 10.13952706
   0.76932775 12.53272373  0.25904276
   4.69675941 10.50792317  4.83932543
   3.31166834  2.30136662  5.52335822
   1.43997800 10.72650292  5.59664492
   9.66876914  3.21461959  1.72444784
  10.06734326  5.98495033  9.89166477
   1.03878237  4.21524889  0.55830350
   0.35526588  7.26241675  8.05045649
   3.31380122  6.40288034  2.57717771
   8.76083682 10.61065407 11.23650360
   0.74373514  8.16419175  3.96755302
   1.34519216  9.17978739 11.05075623
   5.64086886  5.31546584 10.57463108
  10.84568106 12.54877619  6.44206598
   9.06429655  5.10733867  5.46974802
   8.11381981 11.86004834  8.43792632
  10.10170493  6.89454459  4.69507361
   2.59634003  7.73153651  2.47365318
   3.38914851  0.98554538  6.11614130
   1.48400670  9.24804663  5.30891608
   9.71231419  1.38728508 12.12073233
   8.44091840  2.18750867  1.19654132
   1.83420363  0.66552231 12.68861937
   7.01762097  6.14637630 10.17399269
   0.19552705 10.16244250 10.69431139
  12.73093242  5.58538948  0.80056960
   9.68761218 10.91103884 12.35277907
  11.13375699 12.91794252  1.85589157
   6.28708478  7.41926842  4.50653007
   0.62833519  4.47154292  5.20214413
  11.46404971  0.04965761  4.69449267
   6.35214808  3.68838516 11.43059393
  10.92100850  4.96040139  5.31712626
  12.45909185  6.68536197  3.98756172
   4.70684020 10.77255511 10.93230142
   1.22207294 11.87073195  4.44964977
   9.90426148  4.32168427  9.89216816
   1.88904040  6.71385527  8.30523906
   8.48116305  0.63734229  8.87164846
  10.35135555  8.72977359  0.72077444
   4.64824777  0.19779367  1.71093838
   6.63421491 12.37505814  7.62509547
   8.93834230  7.00294419  8.56029100
   9.29392043  3.35705768  3.20193506
  10.99210985 11.04090870  6.81466496
   9.44178820  9.93814641  5.41425022
   2.37274947  5.01715886  2.41831310
   9.52046310  4.89517812  0.90361663
   0.42634504  3.72466578 11.75032814
  11.71619314  0.32375973  7.61902644
   7.50185635  4.68302183  5.02481180
   3.49099536 11.36636611  5.59868261
   2.87908235  9.03431049 10.49956902
  12.02207966  2.78888727  9.01383935
   1.01900844 11.28744169  7.12806858
   4.91721327  6.34512093  1.82460465
   4.80710127  9.01344982  5.76644098
   6.57400319  1.53407124  2.89839456
  12.71881350  9.06432807  3.10458574
  12.15628819  0.28260257 12.40483109
   7.93722930 11.79727560 10.40222169
   3.28468784  2.28563058  8.98110284
   4.65719767  8.50167581 12.57666522
   0.81291727  2.10033216  7.25509227
  11.56076180  6.25963303  9.40595024
   5.82489181  3.75761003  1.81040271
   2.23432486  5.27741796 12.76272373
   2.17831352 10.40451911 12.04995595
   5.89244571  1.69231258  9.58016599
   7.64203375 10.30300808  7.66140594
   6.58279101  2.49576531  6.89973911
   8.67378862  8.19613403 11.39009094
   6.20411534  1.53840693  0.03021368
   9.02222474 12.87347344  6.11500142
   1.15994448  2.72205055  1.41482406
   0.52072107 11.45189551  1.44520140
   1.65461042  2.17624041  4.59035042
   9.73336832 10.16320480  9.83551081
  12.41648764  6.32767008  6.94304662
   8.60743473 11.55097706  3.24216056
   8.15824387 10.72561793  0.69836412
   0.85379099  7.65957787 11.52925215
   4.08113791  6.09748914 10.55036597
  12.54380830  8.81926451  8.09073835
  10.95804388  2.89016085  0.55312078
  10.30338087  6.39234938 11.67364672
   9.19488069  5.10759339  7.02406959
   5.17901607  4.28346423  9.39774421
   4.51258143  3.30912342  5.40725788
   7.64587714  7.88161608  0.98839799
   4.05405918  2.53578496 11.57835798
  12.89599246  0.59005231  9.68586869
   4.87731341  6.46208602  7.15017051
   6.63813185  8.85376615  9.38119974
   3.98555028  5.95408480  4.14898815
   4.49395383 10.13950005  3.39744749
   6.37397099 11.25284790  4.87553259
 


--------------------------------------------------------------------------------------------------------


 k-point  1 :   0.0000 0.0000 0.0000  plane waves:   72359
 k-point  2 :   0.5000 0.0000 0.0000  plane waves:   72020
 k-point  3 :   0.0000 0.5000 0.0000  plane waves:   72020
 k-point  4 :   0.5000 0.5000 0.0000  plane waves:   72184
 k-point  5 :   0.0000 0.0000 0.5000  plane waves:   72020
 k-point  6 :   0.5000 0.0000 0.5000  plane waves:   72184
 k-point  7 :   0.0000 0.5000 0.5000  plane waves:   72184
 k-point  8 :   0.5000 0.5000 0.5000  plane waves:   72264

 maximum and minimum number of plane-waves per node :      5618     5466

 maximum number of plane-waves:     72359
 maximum index in each direction: 
   IXMAX=   25   IYMAX=   25   IZMAX=   25
   IXMIN=  -26   IYMIN=  -26   IZMIN=  -26


 real space projection operators:
  total allocation   :      53636.28 KBytes
  max/ min on nodes  :       4597.58       3843.66


 parallel 3D FFT for wavefunctions:
    minimum data exchange during FFTs selected (reduces bandwidth)
 parallel 3D FFT for charge:
    minimum data exchange during FFTs selected (reduces bandwidth)


 total amount of memory used by VASP MPI-rank0   200824. kBytes
=======================================================================

   base      :      30000. kBytes
   nonlr-proj:      23451. kBytes
   fftplans  :      33572. kBytes
   grid      :      19248. kBytes
   one-center:        171. kBytes
   wavefun   :      94382. kBytes
 
     INWAV:  cpu time    0.0000: real time    0.0000
 Broyden mixing: mesh for mixing (old mesh)
   NGX = 51   NGY = 51   NGZ = 51
  (NGX  =216   NGY  =216   NGZ  =216)
  gives a total of 132651 points

 initial charge density was supplied:
 charge density of overlapping atoms calculated
 number of electron     864.0000000 magnetization 
 keeping initial charge density in first step


--------------------------------------------------------------------------------------------------------


 Maximum index for non-local projection operator          897
 Maximum index for augmentation-charges         8220 (set IRDMAX)


--------------------------------------------------------------------------------------------------------


 First call to EWALD:  gamma=   0.137
 Maximum number of real-space cells 3x 3x 3
 Maximum number of reciprocal cells 3x 3x 3

    FEWALD:  cpu time    0.0047: real time    0.0047


--------------------------------------- Iteration      1(   1)  ---------------------------------------


    POTLOK:  cpu time    0.1977: real time    0.2032
    SETDIJ:  cpu time    0.4147: real time    0.4166
     EDDAV:  cpu time   47.3431: real time   47.3461
       DOS:  cpu time    0.0025: real time    0.0025
    --------------------------------------------
      LOOP:  cpu time   47.9580: real time   47.9683

 eigenvalue-minimisations  :  8320
 total energy-change (2. order) : 0.9260057E+04  (-0.4665840E+05)
 number of electron     864.0000000 magnetization 
 augmentation part      864.0000000 magnetization 

 Free energy of the ion-electron system (eV)
  ---------------------------------------------------
  alpha Z        PSCENC =      2210.34415451
  Ewald energy   TEWEN  =    -40120.19475661
  -Hartree energ DENC   =    -21452.66575875
  -exchange      EXHF   =         0.00000000
  -V(xc)+E(xc)   XCENC  =      3131.73645767
  PAW double counting   =     50594.51003143   -49994.65612350
  entropy T*S    EENTRO =        -0.04496173
  eigenvalues    EBANDS =       -77.51212048
  atomic energy  EATOM  =     64968.54023382
  Solvation  Ediel_sol  =         0.00000000
  ---------------------------------------------------
  free energy    TOTEN  =      9260.05715637 eV

  energy without entropy =     9260.10211810  energy(sigma->0) =     9260.07963724


--------------------------------------------------------------------------------------------------------




--------------------------------------- Iteration      1(   2)  ---------------------------------------


     EDDAV:  cpu time   55.1291: real time   55.1459
       DOS:  cpu time    0.0011: real time    0.0011
    --------------------------------------------
      LOOP:  cpu time   55.1302: real time   55.1470

 eigenvalue-minimisations  : 10144
 total energy-change (2. order) :-0.9237503E+04  (-0.8952609E+04)
 number of electron     864.0000000 magnetization 
 augmentation part      864.0000000 magnetization 

 Free energy of the ion-electron system (eV)
  ---------------------------------------------------
  alpha Z        PSCENC =      2210.34415451
  Ewald energy   TEWEN  =    -40120.19475661
  -Hartree energ DENC   =    -21452.66575875
  -exchange      EXHF   =         0.00000000
  -V(xc)+E(xc)   XCENC  =      3131.73645767
  PAW double counting   =     50594.51003143   -49994.65612350
  entropy T*S    EENTRO =        -0.00000000
  eigenvalues    EBANDS =     -9315.06050050
  atomic energy  EATOM  =     64968.54023382
  Solvation  Ediel_sol  =         0.00000000
  ---------------------------------------------------
  free energy    TOTEN  =        22.55373808 eV

  energy without entropy =       22.55373808  energy(sigma->0) =       22.55373808


--------------------------------------------------------------------------------------------------------




--------------------------------------- Iteration      1(   3)  ---------------------------------------


     EDDAV:  cpu time   55.9385: real time   55.9536
       DOS:  cpu time    0.0009: real time    0.0009
    --------------------------------------------
      LOOP:  cpu time   55.9394: real time   55.9546

 eigenvalue-minimisations  : 10304
 total energy-change (2. order) :-0.1023866E+04  (-0.1016189E+04)
 number of electron     864.0000000 magnetization 
 augmentation part      864.0000000 magnetization 

 Free energy of the ion-electron system (eV)
  ---------------------------------------------------
  alpha Z        PSCENC =      2210.34415451
  Ewald energy   TEWEN  =    -40120.19475661
  -Hartree energ DENC   =    -21452.66575875
  -exchange      EXHF   =         0.00000000
  -V(xc)+E(xc)   XCENC  =      3131.73645767
  PAW double counting   =     50594.51003143   -49994.65612350
  entropy T*S    EENTRO =        -0.00000000
  eigenvalues    EBANDS =    -10338.92654929
  atomic energy  EATOM  =     64968.54023382
  Solvation  Ediel_sol  =         0.00000000
  ---------------------------------------------------
  free energy    TOTEN  =     -1001.31231070 eV

  energy without entropy =    -1001.31231070  energy(sigma->0) =    -1001.31231070


--------------------------------------------------------------------------------------------------------




--------------------------------------- Iteration      1(   4)  ---------------------------------------


     EDDAV:  cpu time   59.9881: real time   60.0127
       DOS:  cpu time    0.0009: real time    0.0009
    --------------------------------------------
      LOOP:  cpu time   59.9890: real time   60.0136

 eigenvalue-minimisations  : 11248
 total energy-change (2. order) :-0.4835027E+02  (-0.4817362E+02)
 number of electron     864.0000000 magnetization 
 augmentation part      864.0000000 magnetization 

 Free energy of the ion-electron system (eV)
  ---------------------------------------------------
  alpha Z        PSCENC =      2210.34415451
  Ewald energy   TEWEN  =    -40120.19475661
  -Hartree energ DENC   =    -21452.66575875
  -exchange      EXHF   =         0.00000000
  -V(xc)+E(xc)   XCENC  =      3131.73645767
  PAW double counting   =     50594.51003143   -49994.65612350
  entropy T*S    EENTRO =        -0.00000000
  eigenvalues    EBANDS =    -10387.27681842
  atomic energy  EATOM  =     64968.54023382
  Solvation  Ediel_sol  =         0.00000000
  ---------------------------------------------------
  free energy    TOTEN  =     -1049.66257983 eV

  energy without entropy =    -1049.66257983  energy(sigma->0) =    -1049.66257983


--------------------------------------------------------------------------------------------------------




--------------------------------------- Iteration      1(   5)  ---------------------------------------


     EDDAV:  cpu time   75.0430: real time   75.0600
       DOS:  cpu time    0.0011: real time    0.0011
    CHARGE:  cpu time    2.1672: real time    2.1672
    MIXING:  cpu time    0.0095: real time    0.0097
    --------------------------------------------
      LOOP:  cpu time   77.2207: real time   77.2380

 eigenvalue-minimisations  : 14856
 total energy-change (2. order) :-0.6126925E+01  (-0.6123963E+01)
 number of electron     864.0000007 magnetization 
 augmentation part      133.3478578 magnetization 

 Broyden mixing:
  rms(total) = 0.82976E+01    rms(broyden)= 0.82966E+01
  rms(prec ) = 0.98967E+01
  weight for this iteration     100.00

 Free energy of the ion-electron system (eV)
  ---------------------------------------------------
  alpha Z        PSCENC =      2210.34415451
  Ewald energy   TEWEN  =    -40120.19475661
  -Hartree energ DENC   =    -21452.66575875
  -exchange      EXHF   =         0.00000000
  -V(xc)+E(xc)   XCENC  =      3131.73645767
  PAW double counting   =     50594.51003143   -49994.65612350
  entropy T*S    EENTRO =        -0.00000000
  eigenvalues    EBANDS =    -10393.40374354
  atomic energy  EATOM  =     64968.54023382
  Solvation  Ediel_sol  =         0.00000000
  ---------------------------------------------------
  free energy    TOTEN  =     -1055.78950496 eV

  energy without entropy =    -1055.78950496  energy(sigma->0) =    -1055.78950496


--------------------------------------------------------------------------------------------------------




--------------------------------------- Iteration      1(   6)  ---------------------------------------


    POTLOK:  cpu time    0.1682: real time    0.1837
    SETDIJ:  cpu time    0.4106: real time    0.4106
     EDDAV:  cpu time   53.7199: real time   53.7208
       DOS:  cpu time    0.0022: real time    0.0022
    CHARGE:  cpu time    2.1725: real time    2.1725
    MIXING:  cpu time    0.0107: real time    0.0107
    --------------------------------------------
      LOOP:  cpu time   56.4841: real time   56.5006

 eigenvalue-minimisations  :  9824
 total energy-change (2. order) : 0.1600136E+03  (-0.7917194E+02)
 number of electron     864.0000006 magnetization 
 augmentation part      117.5180769 magnetization 

 Broyden mixing:
  rms(total) = 0.38328E+01    rms(broyden)= 0.38310E+01
  rms(prec ) = 0.42186E+01
  weight for this iteration     100.00

 eigenvalues of (default mixing * dielectric matrix)
  average eigenvalue GAMMA=   0.8881
  0.8881

 Free energy of the ion-electron system (eV)
  ---------------------------------------------------
  alpha Z        PSCENC =      2210.34415451
  Ewald energy   TEWEN  =    -40120.19475661
  -Hartree energ DENC   =    -22999.92832492
  -exchange      EXHF   =         0.00000000
  -V(xc)+E(xc)   XCENC  =      3229.91759128
  PAW double counting   =     63033.11863198   -62573.99931706
  entropy T*S    EENTRO =        -0.00284009
  eigenvalues    EBANDS =     -8643.57132232
  atomic energy  EATOM  =     64968.54023382
  Solvation  Ediel_sol  =         0.00000000
  ---------------------------------------------------
  free energy    TOTEN  =      -895.77594941 eV

  energy without entropy =     -895.77310932  energy(sigma->0) =     -895.77452936


--------------------------------------------------------------------------------------------------------




--------------------------------------- Iteration      1(   7)  ---------------------------------------


    POTLOK:  cpu time    0.1652: real time    0.1768
    SETDIJ:  cpu time    0.4102: real time    0.4102
     EDDAV:  cpu time   59.4889: real time   59.4885
       DOS:  cpu time    0.0017: real time    0.0017
    CHARGE:  cpu time    2.1624: real time    2.1624
    MIXING:  cpu time    0.0104: real time    0.0104
    --------------------------------------------
      LOOP:  cpu time   62.2389: real time   62.2501

 eigenvalue-minimisations  : 11200
 total energy-change (2. order) :-0.2596057E+01  (-0.8861916E+01)
 number of electron     864.0000006 magnetization 
 augmentation part      117.9927399 magnetization 

 Broyden mixing:
  rms(total) = 0.21063E+01    rms(broyden)= 0.21060E+01
  rms(prec ) = 0.24379E+01
  weight for this iteration     100.00

 eigenvalues of (default mixing * dielectric matrix)
  average eigenvalue GAMMA=   0.9653
  0.9653  0.9653

 Free energy of the ion-electron system (eV)
  ---------------------------------------------------
  alpha Z        PSCENC =      2210.34415451
  Ewald energy   TEWEN  =    -40120.19475661
  -Hartree energ DENC   =    -22981.74131650
  -exchange      EXHF   =         0.00000000
  -V(xc)+E(xc)   XCENC  =      3226.22052142
  PAW double counting   =     71746.97819633   -71334.37676421
  entropy T*S    EENTRO =        -0.00000272
  eigenvalues    EBANDS =     -8614.14227270
  atomic energy  EATOM  =     64968.54023382
  Solvation  Ediel_sol  =         0.00000000
  ---------------------------------------------------
  free energy    TOTEN  =      -898.37200666 eV

  energy without entropy =     -898.37200393  energy(sigma->0) =     -898.37200530


--------------------------------------------------------------------------------------------------------




--------------------------------------- Iteration      1(   8)  ---------------------------------------


    POTLOK:  cpu time    0.1671: real time    0.1834
    SETDIJ:  cpu time    0.4101: real time    0.4101
     EDDAV:  cpu time   63.3031: real time   63.3026
       DOS:  cpu time    0.0020: real time    0.0020
    CHARGE:  cpu time    2.1708: real time    2.1708
    MIXING:  cpu time    0.0100: real time    0.0100
    --------------------------------------------
      LOOP:  cpu time   66.0632: real time   66.0789

 eigenvalue-minimisations  : 12088
 total energy-change (2. order) : 0.5356412E+01  (-0.1756032E+01)
 number of electron     864.0000006 magnetization 
 augmentation part      117.6234363 magnetization 

 Broyden mixing:
  rms(total) = 0.11640E+01    rms(broyden)= 0.11639E+01
  rms(prec ) = 0.13312E+01
  weight for this iteration     100.00

 eigenvalues of (default mixing * dielectric matrix)
  average eigenvalue GAMMA=   1.1393
  1.7177  0.9818  0.7185

 Free energy of the ion-electron system (eV)
  ---------------------------------------------------
  alpha Z        PSCENC =      2210.34415451
  Ewald energy   TEWEN  =    -40120.19475661
  -Hartree energ DENC   =    -23021.83479684
  -exchange      EXHF   =         0.00000000
  -V(xc)+E(xc)   XCENC  =      3226.86613599
  PAW double counting   =     76050.41637120   -75667.30855698
  entropy T*S    EENTRO =        -0.00022715
  eigenvalues    EBANDS =     -8539.84415311
  atomic energy  EATOM  =     64968.54023382
  Solvation  Ediel_sol  =         0.00000000
  ---------------------------------------------------
  free energy    TOTEN  =      -893.01559516 eV

  energy without entropy =     -893.01536801  energy(sigma->0) =     -893.01548158


--------------------------------------------------------------------------------------------------------




--------------------------------------- Iteration      1(   9)  ---------------------------------------


    POTLOK:  cpu time    0.2163: real time    0.2375
    SETDIJ:  cpu time    0.4311: real time    0.4348
     EDDAV:  cpu time   56.1539: real time   56.1537
       DOS:  cpu time    0.0024: real time    0.0024
    CHARGE:  cpu time    2.1711: real time    2.1711
    MIXING:  cpu time    0.0082: real time    0.0082
    --------------------------------------------
      LOOP:  cpu time   58.9829: real time   59.0076

 eigenvalue-minimisations  : 10408
 total energy-change (2. order) :-0.1202502E+01  (-0.8982726E+00)
 number of electron     864.0000006 magnetization 
 augmentation part      117.1635815 magnetization 

 Broyden mixing:
  rms(total) = 0.12221E+01    rms(broyden)= 0.12217E+01
  rms(prec ) = 0.16839E+01
  weight for this iteration     100.00

 eigenvalues of (default mixing * dielectric matrix)
  average eigenvalue GAMMA=   0.9977
  1.8241  1.0237  0.5715  0.5715

 Free energy of the ion-electron system (eV)
  ---------------------------------------------------
  alpha Z        PSCENC =      2210.34415451
  Ewald energy   TEWEN  =    -40120.19475661
  -Hartree energ DENC   =    -23098.61608924
  -exchange      EXHF   =         0.00000000
  -V(xc)+E(xc)   XCENC  =      3229.78072756
  PAW double counting   =     81527.68147870   -81175.70933543
  entropy T*S    EENTRO =        -0.04476828
  eigenvalues    EBANDS =     -8435.99974240
  atomic energy  EATOM  =     64968.54023382
  Solvation  Ediel_sol  =         0.00000000
  ---------------------------------------------------
  free energy    TOTEN  =      -894.21809737 eV

  energy without entropy =     -894.17332909  energy(sigma->0) =     -894.19571323


--------------------------------------------------------------------------------------------------------




--------------------------------------- Iteration      1(  10)  ---------------------------------------


    POTLOK:  cpu time    0.1886: real time    0.2026
    SETDIJ:  cpu time    0.4143: real time    0.4143
     EDDAV:  cpu time   60.0909: real time   60.0905
       DOS:  cpu time    0.0023: real time    0.0023
    CHARGE:  cpu time    2.1707: real time    2.1707
    MIXING:  cpu time    0.0086: real time    0.0085
    --------------------------------------------
      LOOP:  cpu time   62.8754: real time   62.8890

 eigenvalue-minimisations  : 11344
 total energy-change (2. order) : 0.1414558E+01  (-0.8816822E+00)
 number of electron     864.0000006 magnetization 
 augmentation part      117.2826801 magnetization 

 Broyden mixing:
  rms(total) = 0.11215E+01    rms(broyden)= 0.11208E+01
  rms(prec ) = 0.15321E+01
  weight for this iteration     100.00

 eigenvalues of (default mixing * dielectric matrix)
  average eigenvalue GAMMA=   0.8496
  1.8784  1.0161  0.5736  0.5736  0.2063

 Free energy of the ion-electron system (eV)
  ---------------------------------------------------
  alpha Z        PSCENC =      2210.34415451
  Ewald energy   TEWEN  =    -40120.19475661
  -Hartree energ DENC   =    -23105.94231389
  -exchange      EXHF   =         0.00000000
  -V(xc)+E(xc)   XCENC  =      3230.10152793
  PAW double counting   =     82219.82152146   -81872.59083816
  entropy T*S    EENTRO =        -0.02827924
  eigenvalues    EBANDS =     -8422.85478951
  atomic energy  EATOM  =     64968.54023382
  Solvation  Ediel_sol  =         0.00000000
  ---------------------------------------------------
  free energy    TOTEN  =      -892.80353970 eV

  energy without entropy =     -892.77526045  energy(sigma->0) =     -892.78940007


--------------------------------------------------------------------------------------------------------




--------------------------------------- Iteration      1(  11)  ---------------------------------------


    POTLOK:  cpu time    0.2076: real time    0.2269
    SETDIJ:  cpu time    0.4422: real time    0.4422
     EDDAV:  cpu time   57.4504: real time   57.4502
       DOS:  cpu time    0.0024: real time    0.0023
    CHARGE:  cpu time    2.1818: real time    2.1818
    MIXING:  cpu time    0.0095: real time    0.0095
    --------------------------------------------
      LOOP:  cpu time   60.2939: real time   60.3129

 eigenvalue-minimisations  : 10688
 total energy-change (2. order) : 0.1483250E+00  (-0.2405621E+00)
 number of electron     864.0000006 magnetization 
 augmentation part      117.5784437 magnetization 

 Broyden mixing:
  rms(total) = 0.46597E+00    rms(broyden)= 0.46510E+00
  rms(prec ) = 0.62409E+00
  weight for this iteration     100.00

 eigenvalues of (default mixing * dielectric matrix)
  average eigenvalue GAMMA=   0.8565
  2.1480  0.8731  0.8731  0.7234  0.3417  0.1798

 Free energy of the ion-electron system (eV)
  ---------------------------------------------------
  alpha Z        PSCENC =      2210.34415451
  Ewald energy   TEWEN  =    -40120.19475661
  -Hartree energ DENC   =    -23110.00465547
  -exchange      EXHF   =         0.00000000
  -V(xc)+E(xc)   XCENC  =      3230.33484893
  PAW double counting   =     82408.99409331   -82062.84474884
  entropy T*S    EENTRO =        -0.00146932
  eigenvalues    EBANDS =     -8417.82291502
  atomic energy  EATOM  =     64968.54023382
  Solvation  Ediel_sol  =         0.00000000
  ---------------------------------------------------
  free energy    TOTEN  =      -892.65521468 eV

  energy without entropy =     -892.65374535  energy(sigma->0) =     -892.65448001


--------------------------------------------------------------------------------------------------------




--------------------------------------- Iteration      1(  12)  ---------------------------------------


    POTLOK:  cpu time    0.2169: real time    0.2379
    SETDIJ:  cpu time    0.4346: real time    0.4347
     EDDAV:  cpu time   59.6882: real time   59.6886
       DOS:  cpu time    0.0024: real time    0.0024
    CHARGE:  cpu time    2.1720: real time    2.1753
    MIXING:  cpu time    0.0096: real time    0.0096
    --------------------------------------------
      LOOP:  cpu time   62.5238: real time   62.5486

 eigenvalue-minimisations  : 11192
 total energy-change (2. order) : 0.1719817E+00  (-0.1021230E+00)
 number of electron     864.0000006 magnetization 
 augmentation part      117.2697323 magnetization 

 Broyden mixing:
  rms(total) = 0.47904E+00    rms(broyden)= 0.47877E+00
  rms(prec ) = 0.64975E+00
  weight for this iteration     100.00

 eigenvalues of (default mixing * dielectric matrix)
  average eigenvalue GAMMA=   0.8268
  2.2759  0.9895  0.9895  0.5659  0.5659  0.2005  0.2005

 Free energy of the ion-electron system (eV)
  ---------------------------------------------------
  alpha Z        PSCENC =      2210.34415451
  Ewald energy   TEWEN  =    -40120.19475661
  -Hartree energ DENC   =    -23138.08662505
  -exchange      EXHF   =         0.00000000
  -V(xc)+E(xc)   XCENC  =      3231.84487784
  PAW double counting   =     83306.36543271   -82965.54145399
  entropy T*S    EENTRO =        -0.04265192
  eigenvalues    EBANDS =     -8385.71244426
  atomic energy  EATOM  =     64968.54023382
  Solvation  Ediel_sol  =         0.00000000
  ---------------------------------------------------
  free energy    TOTEN  =      -892.48323294 eV

  energy without entropy =     -892.44058102  energy(sigma->0) =     -892.46190698


--------------------------------------------------------------------------------------------------------




--------------------------------------- Iteration      1(  13)  ---------------------------------------


    POTLOK:  cpu time    0.1666: real time    0.1866
    SETDIJ:  cpu time    0.4103: real time    0.4103
     EDDAV:  cpu time   61.0668: real time   61.0772
       DOS:  cpu time    0.0023: real time    0.0023
    CHARGE:  cpu time    2.1704: real time    2.1704
    MIXING:  cpu time    0.0106: real time    0.0105
    --------------------------------------------
      LOOP:  cpu time   63.8269: real time   63.8574

 eigenvalue-minimisations  : 11568
 total energy-change (2. order) :-0.2205098E-01  (-0.1444002E+00)
 number of electron     864.0000006 magnetization 
 augmentation part      117.3676281 magnetization 

 Broyden mixing:
  rms(total) = 0.27924E+00    rms(broyden)= 0.27893E+00
  rms(prec ) = 0.39481E+00
  weight for this iteration     100.00

 eigenvalues of (default mixing * dielectric matrix)
  average eigenvalue GAMMA=   0.8498
  2.3921  1.3053  0.9277  0.7643  0.5233  0.5233  0.1812  0.1812

 Free energy of the ion-electron system (eV)
  ---------------------------------------------------
  alpha Z        PSCENC =      2210.34415451
  Ewald energy   TEWEN  =    -40120.19475661
  -Hartree energ DENC   =    -23146.66544030
  -exchange      EXHF   =         0.00000000
  -V(xc)+E(xc)   XCENC  =      3232.28160205
  PAW double counting   =     83501.60963591   -83161.83093263
  entropy T*S    EENTRO =        -0.01417228
  eigenvalues    EBANDS =     -8376.57560838
  atomic energy  EATOM  =     64968.54023382
  Solvation  Ediel_sol  =         0.00000000
  ---------------------------------------------------
  free energy    TOTEN  =      -892.50528392 eV

  energy without entropy =     -892.49111165  energy(sigma->0) =     -892.49819778


--------------------------------------------------------------------------------------------------------




--------------------------------------- Iteration      1(  14)  ---------------------------------------


    POTLOK:  cpu time    0.2062: real time    0.2237
    SETDIJ:  cpu time    0.4171: real time    0.4171
     EDDAV:  cpu time   58.2630: real time   58.2635
       DOS:  cpu time    0.0022: real time    0.0022
    CHARGE:  cpu time    2.1793: real time    2.1793
    MIXING:  cpu time    0.0103: real time    0.0103
    --------------------------------------------
      LOOP:  cpu time   61.0781: real time   61.0961

 eigenvalue-minimisations  : 10912
 total energy-change (2. order) : 0.2674798E-01  (-0.2047769E-01)
 number of electron     864.0000006 magnetization 
 augmentation part      117.3505772 magnetization 

 Broyden mixing:
  rms(total) = 0.24361E+00    rms(broyden)= 0.24357E+00
  rms(prec ) = 0.35586E+00
  weight for this iteration     100.00

 eigenvalues of (default mixing * dielectric matrix)
  average eigenvalue GAMMA=   0.8306
  2.4126  1.4645  0.8456  0.8456  0.5487  0.5487  0.4416  0.1839  0.1839

 Free energy of the ion-electron system (eV)
  ---------------------------------------------------
  alpha Z        PSCENC =      2210.34415451
  Ewald energy   TEWEN  =    -40120.19475661
  -Hartree energ DENC   =    -23156.46550816
  -exchange      EXHF   =         0.00000000
  -V(xc)+E(xc)   XCENC  =      3232.72473938
  PAW double counting   =     83570.57865283   -83231.37399448
  entropy T*S    EENTRO =        -0.00217632
  eigenvalues    EBANDS =     -8366.62988092
  atomic energy  EATOM  =     64968.54023382
  Solvation  Ediel_sol  =         0.00000000
  ---------------------------------------------------
  free energy    TOTEN  =      -892.47853594 eV

  energy without entropy =     -892.47635962  energy(sigma->0) =     -892.47744778


--------------------------------------------------------------------------------------------------------




--------------------------------------- Iteration      1(  15)  ---------------------------------------


    POTLOK:  cpu time    0.1996: real time    0.2185
    SETDIJ:  cpu time    0.4177: real time    0.4177
     EDDAV:  cpu time   60.9360: real time   60.9393
       DOS:  cpu time    0.0024: real time    0.0024
    CHARGE:  cpu time    2.1764: real time    2.1764
    MIXING:  cpu time    0.0105: real time    0.0105
    --------------------------------------------
      LOOP:  cpu time   63.7425: real time   63.7647

 eigenvalue-minimisations  : 11560
 total energy-change (2. order) : 0.3087097E-01  (-0.8098528E-02)
 number of electron     864.0000006 magnetization 
 augmentation part      117.2566877 magnetization 

 Broyden mixing:
  rms(total) = 0.24081E+00    rms(broyden)= 0.24066E+00
  rms(prec ) = 0.32892E+00
  weight for this iteration     100.00

 eigenvalues of (default mixing * dielectric matrix)
  average eigenvalue GAMMA=   0.8062
  2.3995  1.6181  0.8600  0.8600  0.6600  0.5620  0.5620  0.1841  0.1841  0.1722

 Free energy of the ion-electron system (eV)
  ---------------------------------------------------
  alpha Z        PSCENC =      2210.34415451
  Ewald energy   TEWEN  =    -40120.19475661
  -Hartree energ DENC   =    -23159.58924081
  -exchange      EXHF   =         0.00000000
  -V(xc)+E(xc)   XCENC  =      3232.83835173
  PAW double counting   =     83545.79026406   -83206.48788463
  entropy T*S    EENTRO =        -0.03546965
  eigenvalues    EBANDS =     -8363.65331739
  atomic energy  EATOM  =     64968.54023382
  Solvation  Ediel_sol  =         0.00000000
  ---------------------------------------------------
  free energy    TOTEN  =      -892.44766497 eV

  energy without entropy =     -892.41219532  energy(sigma->0) =     -892.42993014


--------------------------------------------------------------------------------------------------------




--------------------------------------- Iteration      1(  16)  ---------------------------------------


    POTLOK:  cpu time    0.2041: real time    0.2219
    SETDIJ:  cpu time    0.4327: real time    0.4327
     EDDAV:  cpu time   56.9692: real time   56.9688
       DOS:  cpu time    0.0024: real time    0.0024
    CHARGE:  cpu time    2.1686: real time    2.1686
    MIXING:  cpu time    0.0109: real time    0.0109
    --------------------------------------------
      LOOP:  cpu time   59.7878: real time   59.8053

 eigenvalue-minimisations  : 10584
 total energy-change (2. order) : 0.3134823E-01  (-0.1576134E-01)
 number of electron     864.0000006 magnetization 
 augmentation part      117.2897113 magnetization 

 Broyden mixing:
  rms(total) = 0.14836E+00    rms(broyden)= 0.14817E+00
  rms(prec ) = 0.21358E+00
  weight for this iteration     100.00

 eigenvalues of (default mixing * dielectric matrix)
  average eigenvalue GAMMA=   0.8308
  2.4085  1.7948  0.9383  0.9383  0.8719  0.6098  0.5293  0.5293  0.1830  0.1830
  0.1527

 Free energy of the ion-electron system (eV)
  ---------------------------------------------------
  alpha Z        PSCENC =      2210.34415451
  Ewald energy   TEWEN  =    -40120.19475661
  -Hartree energ DENC   =    -23160.55679962
  -exchange      EXHF   =         0.00000000
  -V(xc)+E(xc)   XCENC  =      3232.84837684
  PAW double counting   =     83479.74657425   -83140.06984823
  entropy T*S    EENTRO =        -0.02479622
  eigenvalues    EBANDS =     -8363.04945548
  atomic energy  EATOM  =     64968.54023382
  Solvation  Ediel_sol  =         0.00000000
  ---------------------------------------------------
  free energy    TOTEN  =      -892.41631674 eV

  energy without entropy =     -892.39152052  energy(sigma->0) =     -892.40391863


--------------------------------------------------------------------------------------------------------




--------------------------------------- Iteration      1(  17)  ---------------------------------------


    POTLOK:  cpu time    0.1898: real time    0.2046
    SETDIJ:  cpu time    0.4221: real time    0.4221
     EDDAV:  cpu time   58.9597: real time   58.9593
       DOS:  cpu time    0.0024: real time    0.0024
    CHARGE:  cpu time    2.1841: real time    2.1853
    MIXING:  cpu time    0.0108: real time    0.0108
    --------------------------------------------
      LOOP:  cpu time   61.7689: real time   61.7844

 eigenvalue-minimisations  : 11056
 total energy-change (2. order) :-0.1288062E-01  (-0.1187574E-01)
 number of electron     864.0000006 magnetization 
 augmentation part      117.1845440 magnetization 

 Broyden mixing:
  rms(total) = 0.37576E+00    rms(broyden)= 0.37550E+00
  rms(prec ) = 0.53428E+00
  weight for this iteration     100.00

 eigenvalues of (default mixing * dielectric matrix)
  average eigenvalue GAMMA=   0.8212
  2.4775  2.1564  0.9121  0.9121  0.7997  0.6742  0.5198  0.5198  0.3669  0.1812
  0.1812  0.1537

 Free energy of the ion-electron system (eV)
  ---------------------------------------------------
  alpha Z        PSCENC =      2210.34415451
  Ewald energy   TEWEN  =    -40120.19475661
  -Hartree energ DENC   =    -23163.31103667
  -exchange      EXHF   =         0.00000000
  -V(xc)+E(xc)   XCENC  =      3232.94174311
  PAW double counting   =     83427.06015789   -83087.01863009
  entropy T*S    EENTRO =        -0.05330565
  eigenvalues    EBANDS =     -8360.73775767
  atomic energy  EATOM  =     64968.54023382
  Solvation  Ediel_sol  =         0.00000000
  ---------------------------------------------------
  free energy    TOTEN  =      -892.42919735 eV

  energy without entropy =     -892.37589170  energy(sigma->0) =     -892.40254453


--------------------------------------------------------------------------------------------------------




--------------------------------------- Iteration      1(  18)  ---------------------------------------


    POTLOK:  cpu time    0.2033: real time    0.2234
    SETDIJ:  cpu time    0.4180: real time    0.4180
     EDDAV:  cpu time   60.5860: real time   60.5859
       DOS:  cpu time    0.0024: real time    0.0024
    CHARGE:  cpu time    2.1725: real time    2.1725
    MIXING:  cpu time    0.0111: real time    0.0111
    --------------------------------------------
      LOOP:  cpu time   63.3932: real time   63.4132

 eigenvalue-minimisations  : 11440
 total energy-change (2. order) : 0.2433262E-01  (-0.5325362E-02)
 number of electron     864.0000006 magnetization 
 augmentation part      117.2560584 magnetization 

 Broyden mixing:
  rms(total) = 0.90132E-01    rms(broyden)= 0.89594E-01
  rms(prec ) = 0.12077E+00
  weight for this iteration     100.00

 eigenvalues of (default mixing * dielectric matrix)
  average eigenvalue GAMMA=   0.8212
  2.4195  2.4195  0.9522  0.9522  0.7603  0.7603  0.6264  0.4844  0.4844  0.3018
  0.1810  0.1810  0.1525

 Free energy of the ion-electron system (eV)
  ---------------------------------------------------
  alpha Z        PSCENC =      2210.34415451
  Ewald energy   TEWEN  =    -40120.19475661
  -Hartree energ DENC   =    -23165.11055472
  -exchange      EXHF   =         0.00000000
  -V(xc)+E(xc)   XCENC  =      3233.01390815
  PAW double counting   =     83391.25711198   -83051.02605260
  entropy T*S    EENTRO =        -0.04307092
  eigenvalues    EBANDS =     -8359.18583835
  atomic energy  EATOM  =     64968.54023382
  Solvation  Ediel_sol  =         0.00000000
  ---------------------------------------------------
  free energy    TOTEN  =      -892.40486473 eV

  energy without entropy =     -892.36179381  energy(sigma->0) =     -892.38332927


--------------------------------------------------------------------------------------------------------




--------------------------------------- Iteration      1(  19)  ---------------------------------------


    POTLOK:  cpu time    0.1895: real time    0.2051
    SETDIJ:  cpu time    0.4179: real time    0.4179
     EDDAV:  cpu time   53.3645: real time   53.3645
       DOS:  cpu time    0.0025: real time    0.0024
    CHARGE:  cpu time    2.1778: real time    2.1779
    MIXING:  cpu time    0.0112: real time    0.0112
    --------------------------------------------
      LOOP:  cpu time   56.1634: real time   56.1791

 eigenvalue-minimisations  :  9744
 total energy-change (2. order) :-0.4723767E-02  (-0.2711814E-02)
 number of electron     864.0000006 magnetization 
 augmentation part      117.2813602 magnetization 

 Broyden mixing:
  rms(total) = 0.48022E-01    rms(broyden)= 0.47964E-01
  rms(prec ) = 0.71885E-01
  weight for this iteration     100.00

[...]
   0.624E+02 -.129E+02 0.742E+02   -.580E+02 0.217E+01 -.654E+02   -.639E+01 0.121E+02 -.930E+01   0.774E-03 -.436E-03 -.643E-03
   -.429E+02 -.114E+02 -.831E+02   0.247E+02 0.766E+01 0.835E+02   0.222E+02 0.618E+01 0.859E-01   0.579E-03 0.903E-03 0.280E-03
   -.269E+02 -.593E+02 -.104E+03   0.161E+02 0.819E+02 0.117E+03   0.109E+02 -.250E+02 -.136E+02   -.222E-02 -.259E-02 0.158E-02
   0.929E+01 -.702E+02 0.136E+03   0.344E+00 0.615E+02 -.156E+03   -.859E+01 0.666E+01 0.169E+02   -.548E-03 0.457E-03 -.977E-03
   -.744E+02 -.148E+03 0.635E+00   0.704E+02 0.179E+03 0.175E+02   0.130E+01 -.283E+02 -.174E+02   0.467E-03 0.266E-03 -.106E-02
   -.127E+03 0.100E+03 -.117E+03   0.122E+03 -.963E+02 0.139E+03   0.550E+01 -.495E+01 -.242E+02   0.667E-03 -.206E-02 -.524E-03
   0.999E+01 0.154E+02 0.248E+02   0.368E+01 -.217E+02 -.310E+02   -.149E+02 0.820E+01 0.535E+01   -.213E-02 0.144E-02 0.143E-02
   0.129E+03 0.269E+01 -.112E+03   -.131E+03 0.311E+01 0.126E+03   0.152E+01 -.633E+01 -.135E+02   -.260E-02 -.103E-02 -.411E-03
   0.511E+02 0.103E+03 -.175E+03   -.528E+02 -.118E+03 0.208E+03   0.302E+01 0.120E+02 -.264E+02   0.276E-02 0.236E-02 0.289E-02
   0.393E+02 0.387E+02 0.709E+02   -.592E+02 -.268E+02 -.900E+02   0.200E+02 -.104E+02 0.187E+02   0.487E-02 -.451E-02 0.460E-02
   -.296E+02 0.595E+02 0.452E+02   0.243E+02 -.624E+02 -.713E+02   0.742E+01 0.225E+01 0.281E+02   0.104E-02 -.382E-03 -.355E-03
   0.138E+03 -.567E+02 -.918E+02   -.150E+03 0.803E+02 0.941E+02   0.110E+02 -.247E+02 -.329E+01   -.358E-03 -.661E-03 -.187E-02
   0.261E+02 0.113E+03 0.780E+02   -.421E+02 -.123E+03 -.968E+02   0.166E+02 0.112E+02 0.203E+02   -.811E-03 -.653E-03 -.951E-03
   -.945E+02 -.159E+03 -.818E+00   0.110E+03 0.148E+03 0.571E+01   -.163E+02 0.162E+02 -.535E+01   -.131E-02 -.687E-03 0.326E-03
   -.834E+02 -.140E+03 0.117E+02   0.100E+03 0.155E+03 -.253E+02   -.197E+02 -.140E+02 0.164E+02   -.217E-04 0.112E-03 -.280E-03
   -.115E+03 -.727E+02 0.274E+02   0.137E+03 0.750E+02 -.310E+02   -.196E+02 -.153E+01 0.181E+01   0.632E-03 0.651E-03 -.165E-02
   0.150E+03 0.137E+02 0.573E+02   -.165E+03 0.189E+01 -.624E+02   0.164E+02 -.183E+02 0.506E+01   -.110E-03 0.314E-02 0.109E-02
   -.459E+02 0.534E+02 -.403E+02   0.577E+02 -.456E+02 0.371E+02   -.138E+02 -.108E+02 0.315E+01   0.178E-02 0.167E-02 0.641E-03
   -.351E+02 -.161E+03 -.879E+02   0.239E+02 0.183E+03 0.952E+02   0.120E+02 -.224E+02 -.397E+01   -.441E-03 -.991E-03 -.953E-03
   0.471E+02 0.131E+03 0.125E+02   -.473E+02 -.138E+03 0.893E+01   -.116E+00 0.640E+01 -.206E+02   -.663E-03 -.311E-03 -.147E-02
   0.255E+01 0.154E+02 -.579E+02   -.729E+01 -.292E+02 0.570E+02   0.728E+01 0.162E+02 0.296E+01   0.159E-03 -.233E-03 -.336E-03
   -.132E+02 0.373E+02 0.316E+02   0.874E+01 -.216E+02 -.528E+02   0.574E+01 -.176E+02 0.244E+02   0.193E-03 0.404E-03 0.258E-04
   0.256E+00 -.792E+02 -.312E+00   0.163E+02 0.730E+02 0.114E+02   -.188E+02 0.780E+01 -.125E+02   -.109E-03 -.518E-03 -.529E-03
   0.130E+03 0.232E+03 0.635E+02   -.142E+03 -.245E+03 -.848E+02   0.101E+02 0.132E+02 0.260E+02   0.133E-02 0.228E-02 -.289E-02
   0.961E+02 -.180E+03 0.124E+02   -.117E+03 0.203E+03 -.398E+01   0.229E+02 -.251E+02 -.893E+01   0.881E-03 -.356E-03 0.327E-03
   -.703E+02 0.128E+03 -.712E+02   0.763E+02 -.150E+03 0.796E+02   -.659E+01 0.241E+02 -.101E+02   -.310E-03 0.539E-03 0.119E-02
   -.785E+02 0.151E+02 -.746E+01   0.738E+02 -.314E+02 0.270E+02   0.542E+01 0.168E+02 -.213E+02   -.170E-03 -.210E-02 0.785E-03
   -.507E+02 0.156E+02 0.994E+02   0.392E+02 -.183E+02 -.107E+03   0.151E+02 0.332E+01 0.870E+01   -.113E-02 0.139E-02 0.144E-02
   -.811E+02 0.198E+02 0.601E+02   0.951E+02 -.257E+02 -.749E+02   -.151E+02 0.572E+01 0.150E+02   0.445E-03 -.779E-03 -.169E-02
   -.819E+02 -.104E+02 0.246E+02   0.654E+02 0.163E+01 -.233E+02   0.176E+02 0.895E+01 -.297E+01   0.150E-02 0.163E-02 -.319E-02
   0.416E+01 0.142E+03 0.359E+02   -.835E+01 -.153E+03 -.499E+02   0.511E+01 0.103E+02 0.189E+02   0.158E-02 -.702E-03 0.230E-02
   0.163E+03 -.895E+02 -.544E+02   -.167E+03 0.115E+03 0.579E+02   -.727E-01 -.299E+02 -.176E+01   -.295E-03 -.219E-02 0.669E-03
   0.856E+02 -.540E+02 -.766E+02   -.974E+02 0.327E+02 0.878E+02   0.130E+02 0.242E+02 -.119E+02   0.827E-03 0.140E-02 -.739E-03
   0.611E+02 0.207E+02 0.335E+02   -.816E+02 -.192E+02 -.360E+02   0.231E+02 -.316E+00 0.368E+01   -.510E-03 0.105E-02 -.403E-03
   -.945E+02 -.501E+02 -.122E+02   0.875E+02 0.740E+02 0.150E+02   0.913E+01 -.274E+02 -.294E+01   0.148E-02 -.283E-03 -.219E-02
   -.139E+03 0.563E+02 -.109E+03   0.149E+03 -.422E+02 0.947E+02   -.927E+01 -.181E+02 0.199E+02   -.116E-03 -.695E-03 0.651E-03
   -.776E+02 -.190E+03 -.247E+02   0.841E+02 0.204E+03 0.407E+02   -.922E+01 -.141E+02 -.200E+02   -.455E-03 0.840E-03 -.101E-02
   0.772E+02 0.280E+02 -.188E+02   -.755E+02 -.229E+02 0.505E+02   -.364E+01 -.543E+01 -.302E+02   0.845E-03 0.620E-03 -.838E-03
   0.575E+02 0.727E+02 0.153E+03   -.626E+02 -.806E+02 -.176E+03   0.460E+01 0.647E+01 0.219E+02   -.535E-03 0.536E-03 -.103E-02
   0.966E+02 -.690E+01 -.773E+02   -.785E+02 0.265E+02 0.815E+02   -.221E+02 -.187E+02 -.223E+01   -.812E-03 0.158E-02 0.752E-03
   -.236E+02 -.562E+02 -.736E+02   0.142E+02 0.448E+02 0.785E+02   0.115E+02 0.118E+02 -.484E+01   -.204E-03 -.105E-02 0.514E-03
   0.652E+02 0.632E+02 -.419E+01   -.727E+02 -.624E+02 0.373E+02   0.546E+01 -.121E+01 -.305E+02   -.121E-02 0.625E-03 -.187E-02
   -.158E+03 0.994E+02 -.792E+02   0.165E+03 -.111E+03 0.992E+02   -.712E+01 0.118E+02 -.207E+02   0.101E-02 -.752E-03 -.105E-02
   0.923E+02 0.149E+02 0.529E+02   -.954E+02 -.258E+02 -.401E+02   0.289E+01 0.132E+02 -.157E+02   -.127E-02 0.780E-03 -.115E-02
   0.942E+02 -.629E+02 -.121E+02   -.118E+03 0.815E+02 0.614E+01   0.215E+02 -.191E+02 0.551E+01   -.531E-03 -.123E-03 -.504E-03
   0.955E+02 0.302E+02 -.145E+03   -.945E+02 -.483E+02 0.156E+03   -.613E+00 0.210E+02 -.834E+01   -.363E-02 0.270E-02 -.253E-03
   0.495E+02 0.952E+01 0.922E+02   -.541E+02 -.200E+02 -.121E+03   0.397E+01 0.934E+01 0.228E+02   -.263E-02 -.406E-02 0.176E-02
   0.996E+01 -.107E+03 -.919E+02   0.584E+01 0.118E+03 0.978E+02   -.186E+02 -.138E+02 -.345E+01   0.104E-03 -.142E-02 0.193E-02
 -----------------------------------------------------------------------------------------------
   0.125E+02 -.216E+02 0.906E+02   -.122E-11 -.625E-12 0.284E-13   -.125E+02 0.216E+02 -.906E+02   0.141E-01 -.312E-02 0.170E-02
 
 
 POSITION                                       TOTAL-FORCE (eV/Angst)
 -----------------------------------------------------------------------------------
      9.14534      0.49951      2.82965         0.069502      2.147487      0.012517
      6.70335      5.37211      2.81006        -0.196732      2.444708     -0.170188
     10.33020      7.08950      2.59606         1.440088     -0.139051     -1.047579
      2.51804      4.63926      7.42653         0.715958     -0.981011     -0.307182
      4.10463      7.93057      9.02223         0.417526     -1.997278      0.002151
     10.76868      3.76044      7.39921         1.028698      1.161042      0.866791
      5.24846     11.11567      8.88202         0.964550      0.481456      0.036475
      6.11400     11.99435      3.03422         0.184231      2.514742     -3.623302
     10.52439      8.37950      7.06215         0.303918      0.361138      0.041913
      1.30546      0.42984      6.23780         0.943778     -0.480139     -2.044902
      6.09808      3.39450      4.36678         0.853744     -3.852552     -1.050704
      6.91826      5.66415      7.85419         0.139430     -1.686615     -0.185749
      2.53073     10.46079      2.21413         0.282898      0.098259      0.449303
     11.76007     10.36427     12.70336        -1.192729     -1.310531     -0.278964
     10.71768      4.49809     12.27615         3.338160      0.681547     -3.282875
      5.89300      8.59896      1.86299        -1.774404      0.142613      0.435109
      7.35902      9.39257      5.85220        -1.478705     -1.341631     -1.195098
      7.73438      6.08884     12.62937         1.654999     -0.438881     -1.288920
      7.71867      2.20427     11.95753         2.027291     -0.347218     -2.913887
      0.96332      5.56099     10.83362        -0.067992      1.425780      0.671637
     12.13676     11.30249      3.35110         0.005515      0.775940      0.155209
      0.19007      3.32344      3.28193         1.913138     -0.153151      0.817794
      3.59106      6.78318     12.77750        -0.778264     -1.888705     -0.547723
      3.82135      1.69147      0.72328        -1.335607      1.524396     -1.238079
     10.47233      1.44987      9.78275        -2.376580     -0.591696      3.546276
     12.58473     11.37173      9.13244        -0.555424     -0.672466     -2.549669
      1.14193      2.10690     11.02974         2.515541     -3.436295     -1.702659
      8.76086      9.10398      0.45816         0.085240      1.681140      0.303715
      3.76952      9.77822     11.72727         1.707792     -0.181735      0.190602
      6.53088      2.15213      1.55840        -0.134870      3.517850     -6.554830
     11.19138      1.17319      0.61867        -2.870142     -2.544751     -4.359167
      6.69680      1.47251      8.22738         0.947889     -1.333503     -4.172994
     12.57144      1.53362      8.33642         7.824333     -1.056400     -1.545734
     12.45536      5.55816      5.23982        -1.815208      2.378917      1.680731
      7.93587      8.07890      9.74970         2.405074     -1.367336      2.132736
      4.88774      7.31309      5.49782         1.560614     -2.151106     -1.915522
      9.20159     11.42702      5.14852        -2.138493      2.729991     -4.057177
      4.49638      2.62139     10.13953         0.629511      1.296554     -6.255616
      0.76933     12.53272      0.25904        -0.582581      2.762678     -1.054375
      4.69676     10.50792      4.83933         0.766107      1.775490      7.397365
      3.31167      2.30137      5.52336        -4.216430      3.641109     -5.844146
      1.43998     10.72650      5.59664         2.662360      7.013841      3.417358
      9.66877      3.21462      1.72445        -2.300239      3.968614     -4.807268
     10.06734      5.98495      9.89166         1.699157     -0.609150      2.727665
      1.03878      4.21525      0.55830        -0.301413      3.864175     -0.995200
      0.35527      7.26242      8.05046        -3.675027      1.670291     -0.379718
      3.31380      6.40288      2.57718         2.700287     -8.643848      3.404807
      8.76084     10.61065     11.23650        -0.773261      0.158039     -8.010863
      0.74374      8.16419      3.96755        -0.262024     -1.876372     -0.006412
      1.34519      9.17979     11.05076        -0.409541     -2.850547      2.752970
      5.64087      5.31547     10.57463        -1.758563     -4.392985     -0.113942
     10.84568     12.54878      6.44207         1.036496      1.308419     -4.114106
      9.06430      5.10734      5.46975         2.224591      3.409629     -3.608640
      8.11382     11.86005      8.43793        -2.960887     -0.909467      1.412692
     10.10170      6.89454      4.69507        -4.262100      0.244492      0.970668
      2.59634      7.73154      2.47365        -2.753517      5.911004     -0.153235
      3.38915      0.98555      6.11614         1.517546     -5.772689      3.614449
      1.48401      9.24805      5.30892        -0.891738     -6.685493     -2.480044
      9.71231      1.38729     12.12073         3.588518     -1.344993      0.082048
      8.44092      2.18751      1.19654        -0.445756      0.678478      0.601425
      1.83420      0.66552     12.68862        -0.191638     -2.000094      0.742460
      7.01762      6.14638     10.17399        -0.032744      1.479644      0.381014
      0.19553     10.16244     10.69431        -1.684761      0.744588      0.564246
     12.73093      5.58539      0.80057         0.944544     -3.744678      0.324143
      9.68761     10.91104     12.35278         6.580448      1.430361      1.443264
     11.13376     12.91794      1.85589        -0.301906      3.246308     -1.661235
      6.28708      7.41927      4.50653        -0.598408     -0.268406      1.230627
      0.62834      4.47154      5.20214         0.816368      0.092773      0.747237
     11.46405      0.04966      4.69449        -2.429426     -1.011955      3.976488
      6.35215      3.68839     11.43059        -0.557252      6.141897     -0.003099
     10.92101      4.96040      5.31713        -0.302811     -4.058060      0.254059
     12.45909      6.68536      3.98756         2.345687      1.294371      1.099396
      4.70684     10.77256     10.93230         0.099916      0.281342     -0.013756
      1.22207     11.87073      4.44965        -1.158635     -2.327500     -0.836529
      9.90426      4.32168      9.89217        -1.127913      0.686093     -0.550446
      1.88904      6.71386      8.30524        -1.451564      0.297829      0.313556
      8.48116      0.63734      8.87165        -0.255497      0.405079     -1.709313
     10.35136      8.72977      0.72077        -1.595343      0.043243      1.116544
      4.64825      0.19779      1.71094        -0.192140     -2.784624      1.533071
      6.63421     12.37506      7.62510         0.179494      3.520207      2.699154
      8.93834      7.00294      8.56029        -0.869579      1.983155      3.659351
      9.29392      3.35706      3.20194         1.225418     -0.035191      3.342627
     10.99211     11.04091      6.81466         0.036244     -0.503688      0.573148
      9.44179      9.93815      5.41425        -0.587121     -2.549385     -0.593282
      2.37275      5.01716      2.41831         0.658905      1.510658     -0.308053
      9.52046      4.89518      0.90362        -2.926050     -1.479575      3.771291
      0.42635      3.72467     11.75033        -1.527347      2.094581      2.886561
     11.71619      0.32376      7.61903        -1.978790      1.365248     -0.535894
      7.50186      4.68302      5.02481         3.928875      2.425474      0.485190
      3.49100     11.36637      5.59868         0.051058     -2.341213     -0.443772
      2.87908      9.03431     10.49957         1.039778     -2.055718     -3.139340
     12.02208      2.78889      9.01384        -2.739240      3.087017      0.690638
      1.01901     11.28744      7.12807         0.567897     -1.109306     -1.792007
      4.91721      6.34512      1.82460        -1.205162      1.883834     -0.761833
      4.80710      9.01345      5.76644        -0.555175     -0.530805      0.780788
      6.57400      1.53407      2.89839         1.264595     -3.418561      6.583353
     12.71881      9.06433      3.10459         0.115982      1.466591     -0.409430
     12.15629      0.28260     12.40483         2.107244     -0.689988      2.084264
      7.93723     11.79728     10.40222        -1.437398     -1.011906     -0.984358
      3.28469      2.28563      8.98110         0.660971      1.558034      1.577896
      4.65720      8.50168     12.57667        -0.962494      5.167072     -0.452401
      0.81292      2.10033      7.25509        -2.812817      0.747333      2.861469
     11.56076      6.25963      9.40595         2.580836      0.795187     -1.704349
      5.82489      3.75761      1.81040         1.672041     -2.795302     -0.058955
      2.23432      5.27742     12.76272        -2.036386     -3.077819      0.013694
      2.17831     10.40452     12.04996         0.757957     -0.233866      3.363677
      5.89245      1.69231      9.58017        -0.350423     -0.302071      0.882733
      7.64203     10.30301      7.66141         2.536546      2.387141      2.021512
      6.58279      2.49577      6.89974         1.248314     -1.929618      3.184581
      8.67379      8.19613     11.39009        -2.309662      1.572473     -1.406500
      6.20412      1.53841      0.03021        -1.828893     -0.291418      4.715832
      9.02222     12.87347      6.11500         2.518856     -2.105585     -0.488649
      1.15994      2.72205      1.41482        -0.579105      2.138700     -1.721383
      0.52072     11.45190      1.44520         0.650802      0.516973     -1.794389
      1.65461      2.17624      4.59035         3.541060      0.611993      1.246953
      9.73337     10.16320      9.83551        -1.150923     -0.186319      0.195651
     12.41649      6.32767      6.94305         1.132496      0.221403     -1.677395
      8.60743     11.55098      3.24216         0.928786     -1.336590      4.806083
      8.15824     10.72562      0.69836        -3.450586     -4.662832      1.761411
      0.85379      7.65958     11.52925         1.242729      2.906336     -0.741633
      4.08114      6.09749     10.55037         2.554596      1.197390      1.082928
     12.54381      8.81926      8.09074         2.115404     -3.495085     -0.147345
     10.95804      2.89016      0.55312         1.418946     -3.979354      5.878649
     10.30338      6.39235     11.67365        -2.696809      0.523897     -3.987684
      9.19488      5.10759      7.02407        -1.903630     -0.345061      1.447694
      5.17902      4.28346      9.39774        -0.485000     -1.420293     -1.610546
      4.51258      3.30912      5.40726        -3.983671      0.838340      1.914362
      7.64588      7.88162      0.98840         2.202981      0.395444      0.057138
      4.05406      2.53578     11.57836        -2.037966     -0.422531      2.569791
     12.89599      0.59005      9.68587        -0.175329      0.188862     -0.599886
      4.87731      6.46209      7.15017        -0.166348      2.268847     -2.910445
      6.63813      8.85377      9.38120        -1.877664     -0.529098     -0.409119
      3.98555      5.95408      4.14899         0.381874      2.929126      2.489761
      4.49395     10.13950      3.39745        -0.683220     -1.193760     -6.265397
      6.37397     11.25285      4.87553        -2.757077     -2.949811      2.496200
 -----------------------------------------------------------------------------------
    total drift:                                0.007375      0.000704     -0.000590


--------------------------------------------------------------------------------------------------------



  FREE ENERGIE OF THE ION-ELECTRON SYSTEM (eV)
  ---------------------------------------------------
  free  energy   TOTEN  =      -892.40974701 eV

  energy  without entropy=     -892.36808035  energy(sigma->0) =     -892.38891368
 


--------------------------------------------------------------------------------------------------------


    POTLOK:  cpu time    0.5737: real time    0.5737


--------------------------------------------------------------------------------------------------------


     LOOP+:  cpu time 1758.8950: real time 1759.4362
    4ORBIT:  cpu time    0.0000: real time    0.0000

 total amount of memory used by VASP MPI-rank0   200824. kBytes
=======================================================================

   base      :      30000. kBytes
   nonlr-proj:      23451. kBytes
   fftplans  :      33572. kBytes
   grid      :      19248. kBytes
   one-center:        171. kBytes
   wavefun   :      94382. kBytes
 
  
  
 General timing and accounting informations for this job:
 ========================================================
  
                  Total CPU time used (sec):     1789.380
                            User time (sec):     1779.563
                          System time (sec):        9.816
                         Elapsed time (sec):     1790.155
  
                   Maximum memory used (kb):      363268.
                   Average memory used (kb):           0.
  
                          Minor page faults:       232071
                          Major page faults:            0
                 Voluntary context switches:         2529
