 vasp.5.4.4.18Apr17-6-g9f103f2a35 (build Oct 31 2019 15:01:46) complex          
  
 executed on             LinuxIFC date 2024.04.30  11:05:39
 running on   52 total cores
 distrk:  each k-point on   52 cores,    1 groups
 distr:  one band on NCORES_PER_BAND=  13 cores,    4 groups


--------------------------------------------------------------------------------------------------------


 INCAR:
 POTCAR:    PAW_PBE Sc_sv 07Sep2000               
 POTCAR:    PAW_PBE Cl 06Sep2000                  
 POTCAR:    PAW_PBE C 08Apr2002                   
 POTCAR:    PAW_PBE Sc_sv 07Sep2000               
   VRHFIN =Sc: 3p4s3d                                                           
   LEXCH  = PE                                                                  
   EATOM  =  1273.2868 eV,   93.5839 Ry                                         
                                                                                
   TITEL  = PAW_PBE Sc_sv 07Sep2000                                             
   LULTRA =        F    use ultrasoft PP ?                                      
   IUNSCR =        1    unscreen: 0-lin 1-nonlin 2-no                           
   RPACOR =    2.200    partial core radius                                     
   POMASS =   44.956; ZVAL   =   11.000    mass and valenz                      
   RCORE  =    2.500    outmost cutoff radius                                   
   RWIGS  =    2.700; RWIGS  =    1.429    wigner-seitz radius (au A)           
   ENMAX  =  222.660; ENMIN  =  166.995 eV                                      
   RCLOC  =    1.805    cutoff for local pot                                    
   LCOR   =        T    correct aug charges                                     
   LPAW   =        T    paw PP                                                  
   EAUG   =  443.063                                                            
   RMAX   =    2.551    core radius for proj-oper                               
   RAUG   =    1.300    factor for augmentation sphere                          
   RDEP   =    2.650    radius for radial grids                                 
   RDEPT  =    2.038    core radius for aug-charge                              
                                                                                
   Atomic configuration                                                         
    8 entries                                                                   
     n  l   j            E        occ.                                          
     1  0  0.50     -4394.2533   2.0000                                         
     2  0  0.50      -471.0040   2.0000                                         
     2  1  1.50      -384.9788   6.0000                                         
     3  0  0.50       -52.1410   2.0000                                         
     4  0  0.50        -3.5584   1.0000                                         
     3  1  1.50       -30.8841   6.0000                                         
     3  2  2.50        -1.3655   2.0000                                         
     4  3  2.50        -1.3606   0.0000                                         
   Description                                                                  
     l       E           TYP  RCUT    TYP  RCUT                                 
     0    -52.1409870     23  1.800                                             
     0     -3.5583698     23  2.500                                             
     1    -30.8840697     23  2.300                                             
     1      4.0817478     23  2.300                                             
     2     -1.3655397     23  2.500                                             
     2      0.3564476     23  2.500                                             
  local pseudopotential read in
  partial core-charges read in
  partial kinetic energy density read in
  atomic valenz-charges read in
  non local Contribution for L=           0  read in
    real space projection operators read in
  non local Contribution for L=           0  read in
    real space projection operators read in
  non local Contribution for L=           1  read in
    real space projection operators read in
  non local Contribution for L=           1  read in
    real space projection operators read in
  non local Contribution for L=           2  read in
    real space projection operators read in
  non local Contribution for L=           2  read in
    real space projection operators read in
    PAW grid and wavefunctions read in
 
   number of l-projection  operators is LMAX  =           6
   number of lm-projection operators is LMMAX =          18
 
 POTCAR:    PAW_PBE Cl 06Sep2000                  
   VRHFIN =Cl: s2p5                                                             
   LEXCH  = PE                                                                  
   EATOM  =   409.7259 eV,   30.1140 Ry                                         
                                                                                
   TITEL  = PAW_PBE Cl 06Sep2000                                                
   LULTRA =        F    use ultrasoft PP ?                                      
   IUNSCR =        1    unscreen: 0-lin 1-nonlin 2-no                           
   RPACOR =    1.500    partial core radius                                     
   POMASS =   35.453; ZVAL   =    7.000    mass and valenz                      
   RCORE  =    1.900    outmost cutoff radius                                   
   RWIGS  =    2.100; RWIGS  =    1.111    wigner-seitz radius (au A)           
   ENMAX  =  262.472; ENMIN  =  196.854 eV                                      
   ICORE  =        2    local potential                                         
   LCOR   =        T    correct aug charges                                     
   LPAW   =        T    paw PP                                                  
   EAUG   =  356.192                                                            
   DEXC   =    0.000                                                            
   RMAX   =    1.945    core radius for proj-oper                               
   RAUG   =    1.300    factor for augmentation sphere                          
   RDEP   =    2.020    radius for radial grids                                 
   RDEPT  =    1.678    core radius for aug-charge                              
                                                                                
   Atomic configuration                                                         
    6 entries                                                                   
     n  l   j            E        occ.                                          
     1  0  0.50     -2751.1850   2.0000                                         
     2  0  0.50      -252.6861   2.0000                                         
     2  1  1.50      -191.6157   6.0000                                         
     3  0  0.50       -20.6916   2.0000                                         
     3  1  0.50        -8.5949   5.0000                                         
     3  2  1.50        -8.1635   0.0000                                         
   Description                                                                  
     l       E           TYP  RCUT    TYP  RCUT                                 
     0    -20.6915656     23  1.900                                             
     0    -22.0521482     23  1.900                                             
     1     -8.5948577     23  1.900                                             
     1     -5.3847331     23  1.900                                             
     2     -8.1634956     23  1.900                                             
  local pseudopotential read in
  partial core-charges read in
  partial kinetic energy density read in
  atomic valenz-charges read in
  non local Contribution for L=           0  read in
    real space projection operators read in
  non local Contribution for L=           0  read in
    real space projection operators read in
  non local Contribution for L=           1  read in
    real space projection operators read in
  non local Contribution for L=           1  read in
    real space projection operators read in
    PAW grid and wavefunctions read in
 
   number of l-projection  operators is LMAX  =           4
   number of lm-projection operators is LMMAX =           8
 
 POTCAR:    PAW_PBE C 08Apr2002                   
   VRHFIN =C: s2p2                                                              
   LEXCH  = PE                                                                  
   EATOM  =   147.1560 eV,   10.8157 Ry                                         
                                                                                
   TITEL  = PAW_PBE C 08Apr2002                                                 
   LULTRA =        F    use ultrasoft PP ?                                      
   IUNSCR =        1    unscreen: 0-lin 1-nonlin 2-no                           
   RPACOR =    1.200    partial core radius                                     
   POMASS =   12.011; ZVAL   =    4.000    mass and valenz                      
   RCORE  =    1.500    outmost cutoff radius                                   
   RWIGS  =    1.630; RWIGS  =    0.863    wigner-seitz radius (au A)           
   ENMAX  =  400.000; ENMIN  =  300.000 eV                                      
   ICORE  =        2    local potential                                         
   LCOR   =        T    correct aug charges                                     
   LPAW   =        T    paw PP                                                  
   EAUG   =  644.873                                                            
   DEXC   =    0.000                                                            
   RMAX   =    1.529    core radius for proj-oper                               
   RAUG   =    1.300    factor for augmentation sphere                          
   RDEP   =    1.501    radius for radial grids                                 
   RDEPT  =    1.300    core radius for aug-charge                              
                                                                                
   Atomic configuration                                                         
    4 entries                                                                   
     n  l   j            E        occ.                                          
     1  0  0.50      -273.3789   2.0000                                         
     2  0  0.50       -13.7508   2.0000                                         
     2  1  0.50        -5.2854   2.0000                                         
     3  2  1.50        -5.4423   0.0000                                         
   Description                                                                  
     l       E           TYP  RCUT    TYP  RCUT                                 
     0    -13.7508458     23  1.200                                             
     0     -8.2022199     23  1.200                                             
     1     -5.2854383     23  1.500                                             
     1     34.0145650     23  1.500                                             
     2     -5.4423304      7  1.500                                             
  local pseudopotential read in
  partial core-charges read in
  partial kinetic energy density read in
  atomic valenz-charges read in
  non local Contribution for L=           0  read in
    real space projection operators read in
  non local Contribution for L=           0  read in
    real space projection operators read in
  non local Contribution for L=           1  read in
    real space projection operators read in
  non local Contribution for L=           1  read in
    real space projection operators read in
    PAW grid and wavefunctions read in
 
   number of l-projection  operators is LMAX  =           4
   number of lm-projection operators is LMMAX =           8
 
 Optimization of the real space projectors (new method)

 maximal supplied QI-value         = 15.12
 optimisation between [QCUT,QGAM] = [ 12.55, 25.10] = [ 44.09,176.36] Ry 
 Optimized for a Real-space Cutoff    1.56 Angstroem

   l    n(q)    QCUT    max X(q) W(low)/X(q) W(high)/X(q)  e(spline) 
   0     12    12.548     2.962    0.12E-05    0.11E-06    0.46E-07
   0     12    12.548    26.414    0.30E-04    0.15E-05    0.76E-07
   1     11    12.548     3.969    0.45E-05    0.12E-05    0.60E-07
   1     11    12.548     5.137    0.15E-04    0.18E-04    0.36E-06
   2     11    12.548   143.970    0.20E-03    0.19E-03    0.76E-06
   2     11    12.548   121.201    0.20E-03    0.19E-03    0.76E-06
 Optimization of the real space projectors (new method)

 maximal supplied QI-value         = 19.84
 optimisation between [QCUT,QGAM] = [ 12.50, 25.00] = [ 43.76,175.03] Ry 
 Optimized for a Real-space Cutoff    1.20 Angstroem

   l    n(q)    QCUT    max X(q) W(low)/X(q) W(high)/X(q)  e(spline) 
   0      9    12.501   168.010    0.44E-04    0.61E-04    0.77E-07
   0      9    12.501   164.674    0.43E-04    0.60E-04    0.75E-07
   1      8    12.501    69.222    0.11E-03    0.13E-03    0.91E-07
   1      8    12.501    56.786    0.11E-03    0.13E-03    0.90E-07
 Optimization of the real space projectors (new method)

 maximal supplied QI-value         = 25.13
 optimisation between [QCUT,QGAM] = [ 12.32, 24.88] = [ 42.47,173.37] Ry 
 Optimized for a Real-space Cutoff    1.16 Angstroem

   l    n(q)    QCUT    max X(q) W(low)/X(q) W(high)/X(q)  e(spline) 
   0      9    12.315   115.676    0.19E-03    0.80E-05    0.34E-06
   0      9    12.315    87.132    0.19E-03    0.82E-05    0.34E-06
   1      8    12.315     4.429    0.18E-03    0.13E-03    0.22E-06
   1      8    12.315     2.733    0.14E-03    0.10E-03    0.18E-06
  PAW_PBE Sc_sv 07Sep2000               :
 energy of atom  1       EATOM=-1273.2868
 kinetic energy error for atom=    0.0014 (will be added to EATOM!!)
  PAW_PBE Cl 06Sep2000                  :
 energy of atom  2       EATOM= -409.7259
 kinetic energy error for atom=    0.0013 (will be added to EATOM!!)
  PAW_PBE C 08Apr2002                   :
 energy of atom  3       EATOM= -147.1560
 kinetic energy error for atom=    0.0057 (will be added to EATOM!!)
 
 
 POSCAR: Sc Cl  C                                
  positions in cartesian coordinates
  No initial velocities read in
 exchange correlation table for  LEXCH =        8
   RHO(1)=    0.500       N(1)  =     2000
   RHO(2)=  100.500       N(2)  =     4000
 


--------------------------------------------------------------------------------------------------------


 ion  position               nearest neighbor table
   1  0.083  0.166  0.549-  66 2.36  65 2.42  49 2.50  70 2.50  61 2.51  50 2.62  17 3.16  29 3.20
                            18 3.26  16 3.40
   2  0.098  0.428  0.549-  71 2.20  66 2.33  51 2.48  67 2.55  50 2.64  62 2.78   7 3.21  19 3.24
                            18 3.26  30 3.27   6 3.41   3 3.42
   3  0.084  0.668  0.541-  68 2.19  67 2.31  72 2.31  52 2.54  63 2.65  51 2.71  20 3.05  31 3.10
                            19 3.17   4 3.40   2 3.42  14 3.42
   4  0.077  0.911  0.545-  68 2.21  65 2.36  64 2.46  69 2.50  49 2.70  52 2.77  20 3.11  32 3.14
                            17 3.17  16 3.30  15 3.34   3 3.40
   5  0.334  0.164  0.544-  69 2.14  74 2.31  70 2.46  49 2.59  53 2.60  54 2.66  17 3.12  21 3.18
                             9 3.32  22 3.32   8 3.39  10 3.40
   6  0.340  0.419  0.538-  75 2.22  71 2.30  70 2.30  55 2.70  50 2.80  54 2.87  23 3.11  18 3.13
                            22 3.20  10 3.33  11 3.35   7 3.40   2 3.41
   7  0.330  0.660  0.540-  71 2.21  72 2.22  76 2.45  55 2.52  51 2.66  56 2.81  24 3.08  23 3.19
                             2 3.21  19 3.21   6 3.40  12 3.42
   8  0.337  0.919  0.542-  73 2.20  69 2.35  72 2.40  56 2.50  52 2.55  53 2.63  20 3.03  21 3.05
                            24 3.31  12 3.31   5 3.39   9 3.39
   9  0.578  0.170  0.545-  78 2.29  74 2.33  53 2.49  73 2.51  57 2.59  58 2.67  25 3.15  26 3.18
                            21 3.27   5 3.32  10 3.35   8 3.39
  10  0.578  0.413  0.543-  74 2.27  79 2.39  75 2.43  58 2.62  54 2.68  59 2.82  27 3.07  22 3.12
                             6 3.33  26 3.35   9 3.35  11 3.36   5 3.40
  11  0.585  0.660  0.543-  80 2.28  75 2.31  59 2.32  76 2.43  55 2.54  60 2.76  27 3.17  23 3.21
                            28 3.25  15 3.31   6 3.35  10 3.36
  12  0.573  0.913  0.543-  73 2.37  76 2.39  77 2.45  60 2.58  56 2.59  57 2.59  25 2.99  24 3.11
                             8 3.31  28 3.37   7 3.42
  13  0.834  0.171  0.552-  77 2.33  78 2.52  66 2.52  62 2.55  57 2.57  61 2.64  29 3.11  25 3.20
                            30 3.23
  14  0.835  0.421  0.544-  67 2.33  78 2.38  79 2.43  62 2.55  63 2.57  58 2.67  31 3.08  30 3.09
                            26 3.26   3 3.42
  15  0.831  0.673  0.542-  79 2.24  80 2.26  68 2.41  64 2.56  63 2.66  59 2.83  32 3.08  27 3.11
                            31 3.26  16 3.28  11 3.31   4 3.34
  16  0.840  0.915  0.546-  65 2.32  80 2.46  77 2.49  60 2.53  64 2.54  61 2.73  29 3.10  32 3.17
                            15 3.28   4 3.30   1 3.40  28 3.41
  17  0.162  0.086  0.459-  65 2.23  70 2.26  69 2.34  33 2.54  36 2.63  37 2.78   5 3.12   1 3.16
                             4 3.17  18 3.36
  18  0.162  0.329  0.456-  66 2.24  70 2.26  71 2.41  33 2.57  34 2.62  38 2.63   6 3.13   1 3.26
                             2 3.26  17 3.36  30 3.39  19 3.42
  19  0.158  0.575  0.452-  67 2.31  34 2.36  71 2.42  72 2.43  35 2.49  39 2.52   3 3.17   7 3.21
                             2 3.24  30 3.30  31 3.32  18 3.42
  20  0.172  0.839  0.459-  68 2.27  72 2.39  69 2.41  35 2.55  40 2.61  36 2.63   8 3.03   3 3.05
                             4 3.11  21 3.22
  21  0.406  0.071  0.454-  69 2.20  73 2.24  40 2.47  74 2.50  37 2.55  41 2.68   8 3.05   5 3.18
                            20 3.22   9 3.27
  22  0.430  0.337  0.450-  74 2.27  75 2.34  70 2.49  38 2.52  42 2.53  37 2.78  10 3.12   6 3.20
                            27 3.25   5 3.32  26 3.42
  23  0.422  0.584  0.451-  75 2.22  76 2.31  38 2.53  71 2.53  43 2.58  39 2.62   6 3.11   7 3.19
                            11 3.21  24 3.26  28 3.33
  24  0.420  0.819  0.453-  76 2.18  72 2.38  73 2.41  39 2.50  40 2.63  44 2.73   7 3.08  12 3.11
                            23 3.26   8 3.31  28 3.33
  25  0.666  0.078  0.463-  77 2.17  78 2.32  73 2.34  45 2.75  41 2.75  44 2.79  12 2.99   9 3.15
                            13 3.20  29 3.25  26 3.35
  26  0.669  0.321  0.451-  78 2.18  41 2.36  74 2.45  46 2.52  79 2.66  42 2.93   9 3.18  14 3.26
                            25 3.35  10 3.35  30 3.36  22 3.42
  27  0.666  0.571  0.456-  79 2.12  75 2.31  80 2.37  42 2.53  47 2.61  43 2.81  10 3.07  15 3.11
                            11 3.17  22 3.25
  28  0.664  0.824  0.450-  76 2.28  80 2.33  48 2.51  43 2.55  77 2.69  44 2.88  11 3.25  23 3.33
                            24 3.33  12 3.37  16 3.41
  29  0.906  0.086  0.463-  77 2.12  65 2.39  66 2.43  45 2.61  33 2.65  48 2.74  16 3.10  13 3.11
                             1 3.20  25 3.25  30 3.36
  30  0.920  0.336  0.460-  67 2.25  66 2.34  78 2.43  34 2.57  45 2.60  46 2.71  14 3.09  13 3.23
                             2 3.27  19 3.30  31 3.31  29 3.36  26 3.36  18 3.39
  31  0.917  0.574  0.455-  67 2.17  79 2.36  68 2.52  46 2.56  35 2.59  47 2.60  14 3.08   3 3.10
                            15 3.26  30 3.31  19 3.32
  32  0.918  0.833  0.455-  65 2.34  80 2.40  68 2.43  36 2.46  47 2.52  48 2.67  15 3.08   4 3.14
                            16 3.17
  33  0.072  0.157  0.400-  17 2.54  18 2.57  29 2.65
  34  0.079  0.421  0.398-  19 2.36  30 2.57  18 2.62
  35  0.091  0.676  0.400-  19 2.49  20 2.55  31 2.59
  36  0.078  0.914  0.400-  32 2.46  20 2.63  17 2.63
  37  0.331  0.151  0.391-  21 2.55  22 2.78  17 2.78
  38  0.335  0.413  0.397-  22 2.52  23 2.53  18 2.63
  39  0.323  0.661  0.395-  24 2.50  19 2.52  23 2.62
  40  0.336  0.912  0.397-  21 2.47  20 2.61  24 2.63
  41  0.586  0.170  0.397-  26 2.36  21 2.68  25 2.75
  42  0.583  0.430  0.388-  22 2.53  27 2.53  26 2.93
  43  0.583  0.664  0.389-  28 2.55  23 2.58  27 2.81
  44  0.581  0.929  0.385-  24 2.73  25 2.79  28 2.88
  45  0.839  0.175  0.398-  30 2.60  29 2.61  25 2.75
  46  0.832  0.415  0.394-  26 2.52  31 2.56  30 2.71
  47  0.839  0.668  0.398-  32 2.52  31 2.60  27 2.61
  48  0.831  0.920  0.395-  28 2.51  32 2.67  29 2.74
  49  0.171  0.089  0.604-   1 2.50   5 2.59   4 2.70
  50  0.175  0.334  0.610-   1 2.62   2 2.64   6 2.80
  51  0.170  0.587  0.607-   2 2.48   7 2.66   3 2.71
  52  0.178  0.822  0.603-   3 2.54   8 2.55   4 2.77
  53  0.421  0.085  0.604-   9 2.49   5 2.60   8 2.63
  54  0.418  0.324  0.610-   5 2.66  10 2.68   6 2.87
  55  0.420  0.593  0.600-   7 2.52  11 2.54   6 2.70
  56  0.410  0.842  0.604-   8 2.50  12 2.59   7 2.81
  57  0.655  0.079  0.603-  13 2.57   9 2.59  12 2.59
  58  0.666  0.341  0.607-  10 2.62   9 2.67  14 2.67
  59  0.648  0.596  0.606-  11 2.32  10 2.82  15 2.83
  60  0.673  0.846  0.602-  16 2.53  12 2.58  11 2.76
  61  0.927  0.089  0.610-   1 2.51  13 2.64  16 2.73
  62  0.909  0.341  0.608-  14 2.55  13 2.55   2 2.78
  63  0.917  0.587  0.603-  14 2.57   3 2.65  15 2.66
  64  0.923  0.831  0.603-   4 2.46  16 2.54  15 2.56
  65  0.001  0.000  0.499-  17 2.23  16 2.32  32 2.34   4 2.36  29 2.39   1 2.42
  66  0.014  0.264  0.505-  18 2.24   2 2.33  30 2.34   1 2.36  29 2.43  13 2.52
  67  0.997  0.502  0.498-  31 2.17  30 2.25   3 2.31  19 2.31  14 2.33   2 2.55
  68  0.011  0.755  0.502-   3 2.19   4 2.21  20 2.27  15 2.41  32 2.43  31 2.52
  69  0.260  0.015  0.501-   5 2.14  21 2.20  17 2.34   8 2.35  20 2.41   4 2.50
  70  0.251  0.254  0.496-  18 2.26  17 2.26   6 2.30   5 2.46  22 2.49   1 2.50
  71  0.246  0.498  0.502-   2 2.20   7 2.21   6 2.30  18 2.41  19 2.42  23 2.53
  72  0.253  0.744  0.500-   7 2.22   3 2.31  24 2.38  20 2.39   8 2.40  19 2.43
  73  0.487  0.993  0.497-   8 2.20  21 2.24  25 2.34  12 2.37  24 2.41   9 2.51
  74  0.497  0.252  0.499-  22 2.27  10 2.27   5 2.31   9 2.33  26 2.45  21 2.50
  75  0.496  0.502  0.495-   6 2.22  23 2.22  27 2.31  11 2.31  22 2.34  10 2.43
  76  0.505  0.749  0.495-  24 2.18  28 2.28  23 2.31  12 2.39  11 2.43   7 2.45
  77  0.756  0.013  0.503-  29 2.12  25 2.17  13 2.33  12 2.45  16 2.49  28 2.69
  78  0.740  0.250  0.501-  26 2.18   9 2.29  25 2.32  14 2.38  30 2.43  13 2.52
  79  0.751  0.513  0.500-  27 2.12  15 2.24  31 2.36  10 2.39  14 2.43  26 2.66
  80  0.743  0.744  0.498-  15 2.26  11 2.28  28 2.33  27 2.37  32 2.40  16 2.46
 
  LATTYP: Found a hexagonal cell.
 ALAT       =    13.7939866762
 C/A-ratio  =     2.0161119278
  
  Lattice vectors:
  
 A1 = (  13.7939866800,   0.0000000000,   0.0000000000)
 A2 = (  -6.8969933400,  11.9459428800,   0.0000000000)
 A3 = (   0.0000000000,   0.0000000000,  27.8102210700)


Analysis of symmetry for initial positions (statically):
=====================================================================
 Subroutine PRICEL returns:
 Original cell was already a primitive cell.
 

 Routine SETGRP: Setting up the symmetry group for a 
 hexagonal supercell.


 Subroutine GETGRP returns: Found  1 space group operations
 (whereof  1 operations were pure point group operations)
 out of a pool of 24 trial point group operations.


The static configuration has the point symmetry C_1 .


Analysis of symmetry for dynamics (positions and initial velocities):
=====================================================================
 Subroutine PRICEL returns:
 Original cell was already a primitive cell.
 

 Routine SETGRP: Setting up the symmetry group for a 
 hexagonal supercell.


 Subroutine GETGRP returns: Found  1 space group operations
 (whereof  1 operations were pure point group operations)
 out of a pool of 24 trial point group operations.


The dynamic configuration has the point symmetry C_1 .


 Subroutine INISYM returns: Found  1 space group operations
 (whereof  1 operations are pure point group operations),
 and found     1 'primitive' translations

 
 

Automatic generation of k-mesh.
 generate k-points for:    3    3    1
Space group operators:
 irot       det(A)        alpha          n_x          n_y          n_z        tau_x        tau_y        tau_z
    1     1.000000     0.000000     1.000000     0.000000     0.000000     0.000000     0.000000     0.000000
 
 Subroutine IBZKPT returns following result:
 ===========================================
 
 Found      5 irreducible k-points:
 
 Following reciprocal coordinates:
            Coordinates               Weight
  0.000000  0.000000  0.000000      1.000000
  0.333333 -0.000000  0.000000      2.000000
  0.000000  0.333333  0.000000      2.000000
  0.333333  0.333333  0.000000      2.000000
 -0.333333  0.333333  0.000000      2.000000
 
 Following cartesian coordinates:
            Coordinates               Weight
  0.000000  0.000000  0.000000      1.000000
  0.024165  0.013952  0.000000      2.000000
  0.000000  0.027903  0.000000      2.000000
  0.024165  0.041855  0.000000      2.000000
 -0.024165  0.013952  0.000000      2.000000
 


--------------------------------------------------------------------------------------------------------




 Dimension of arrays:
   k-points           NKPTS =      5   k-points in BZ     NKDIM =      5   number of bands    NBANDS=    384
   number of dos      NEDOS =    301   number of ions     NIONS =     80
   non local maximal  LDIM  =      6   non local SUM 2l+1 LMDIM =     18
   total plane-waves  NPLWV = ******
   max r-space proj   IRMAX =   9806   max aug-charges    IRDMAX= 216835
   dimension x,y,z NGX =   112 NGY =  112 NGZ =  224
   dimension x,y,z NGXF=   224 NGYF=  224 NGZF=  448
   support grid    NGXF=   448 NGYF=  448 NGZF=  896
   ions per type =              32  32  16
   NGX,Y,Z   is equivalent  to a cutoff of  13.50, 13.50, 13.39 a.u.
   NGXF,Y,Z  is equivalent  to a cutoff of  27.00, 27.00, 26.78 a.u.

 SYSTEM =  unknown system                          
 POSCAR =  Sc Cl  C                                

 Startparameter for this run:
   NWRITE =      2    write-flag & timer
   PREC   = anorma    normal or accurate (medium, high low for compatibility)
   ISTART =      0    job   : 0-new  1-cont  2-samecut
   ICHARG =      2    charge: 1-file 2-atom 10-const
   ISPIN  =      1    spin polarized calculation?
   LNONCOLLINEAR =      F non collinear calculations
   LSORBIT =      F    spin-orbit coupling
   INIWAV =      1    electr: 0-lowe 1-rand  2-diag
   LASPH  =      F    aspherical Exc in radial PAW
   METAGGA=      F    non-selfconsistent MetaGGA calc.

 Electronic Relaxation 1
   ENCUT  =  600.0 eV  44.10 Ry    6.64 a.u.  27.55 27.55 55.54*2*pi/ulx,y,z
   ENINI  =  600.0     initial cutoff
   ENAUG  =  644.9 eV  augmentation charge cutoff
   NELM   =     60;   NELMIN=  2; NELMDL= -5     # of ELM steps 
   EDIFF  = 0.1E-05   stopping-criterion for ELM
   LREAL  =      T    real-space projection
   NLSPLINE    = F    spline interpolate recip. space projectors
   LCOMPAT=      F    compatible to vasp.4.4
   GGA_COMPAT  = T    GGA compatible to vasp.4.4-vasp.4.6
   LMAXPAW     = -100 max onsite density
   LMAXMIX     =    2 max onsite mixed and CHGCAR
   VOSKOWN=      0    Vosko Wilk Nusair interpolation
   ROPT   =   -0.00025  -0.00025  -0.00025
 Ionic relaxation
   EDIFFG = -.1E-01   stopping-criterion for IOM
   NSW    =      1    number of steps for IOM
   NBLOCK =      1;   KBLOCK =      1    inner block; outer block 
   IBRION =     -1    ionic relax: 0-MD 1-quasi-New 2-CG
   NFREE  =      0    steps in history (QN), initial steepest desc. (CG)
   ISIF   =      2    stress and relaxation
   IWAVPR =     10    prediction:  0-non 1-charg 2-wave 3-comb
   ISYM   =      2    0-nonsym 1-usesym 2-fastsym
   LCORR  =      T    Harris-Foulkes like correction to forces

   POTIM  = 1.0000    time-step for ionic-motion
   TEIN   =    0.0    initial temperature
   TEBEG  =    0.0;   TEEND  =   0.0 temperature during run
   SMASS  =  -3.00    Nose mass-parameter (am)
   estimated Nose-frequenzy (Omega)   =  0.10E-29 period in steps =****** mass=  -0.435E-26a.u.
   SCALEE = 1.0000    scale energy and forces
   NPACO  =    256;   APACO  = 16.0  distance and # of slots for P.C.
   PSTRESS=    0.0 pullay stress

  Mass of Ions in am
   POMASS =  44.96 35.45 12.01
  Ionic Valenz
   ZVAL   =  11.00  7.00  4.00
  Atomic Wigner-Seitz radii
   RWIGS  =  -1.00 -1.00 -1.00
  virtual crystal weights 
   VCA    =   1.00  1.00  1.00
   NELECT =     640.0000    total number of electrons
   NUPDOWN=      -1.0000    fix difference up-down

 DOS related values:
   EMIN   =  10.00;   EMAX   =-10.00  energy-range for DOS
   EFERMI =   0.00
   ISMEAR =     0;   SIGMA  =   0.05  broadening in eV -4-tet -1-fermi 0-gaus

 Electronic relaxation 2 (details)
   IALGO  =     38    algorithm
   LDIAG  =      T    sub-space diagonalisation (order eigenvalues)
   LSUBROT=      F    optimize rotation matrix (better conditioning)
   TURBO    =      0    0=normal 1=particle mesh
   IRESTART =      0    0=no restart 2=restart with 2 vectors
   NREBOOT  =      0    no. of reboots
   NMIN     =      0    reboot dimension
   EREF     =   0.00    reference energy to select bands
   IMIX   =      4    mixing-type and parameters
     AMIX     =   0.40;   BMIX     =  1.00
     AMIX_MAG =   1.60;   BMIX_MAG =  1.00
     AMIN     =   0.10
     WC   =   100.;   INIMIX=   1;  MIXPRE=   1;  MAXMIX= -45

 Intra band minimization:
   WEIMIN = 0.0000     energy-eigenvalue tresh-hold
   EBREAK =  0.65E-09  absolut break condition
   DEPER  =   0.30     relativ break condition  

   TIME   =   0.40     timestep for ELM

  volume/ion in A,a.u.               =      57.28       386.56
  Fermi-wavevector in a.u.,A,eV,Ry     =   0.849369  1.605075  9.815628  0.721428
  Thomas-Fermi vector in A             =   1.965179
 
 Write flags
   LWAVE        =      F    write WAVECAR
   LDOWNSAMPLE  =      F    k-point downsampling of WAVECAR
   LCHARG       =      F    write CHGCAR
   LVTOT        =      F    write LOCPOT, total local potential
   LVHAR        =      F    write LOCPOT, Hartree potential only
   LELF         =      F    write electronic localiz. function (ELF)
   LORBIT       =      0    0 simple, 1 ext, 2 COOP (PROOUT), +10 PAW based schemes


 Dipole corrections
   LMONO  =      F    monopole corrections only (constant potential shift)
   LDIPOL =      F    correct potential (dipole corrections)
   IDIPOL =      0    1-x, 2-y, 3-z, 4-all directions 
   EPSILON=  1.0000000 bulk dielectric constant

 Exchange correlation treatment:
   GGA     =    --    GGA type
   LEXCH   =     8    internal setting for exchange type
   VOSKOWN=      0    Vosko Wilk Nusair interpolation
   LHFCALC =     F    Hartree Fock is set to
   LHFONE  =     F    Hartree Fock one center treatment
   AEXX    =    0.0000 exact exchange contribution

 Linear response parameters
   LEPSILON=     F    determine dielectric tensor
   LRPA    =     F    only Hartree local field effects (RPA)
   LNABLA  =     F    use nabla operator in PAW spheres
   LVEL    =     F    velocity operator in full k-point grid
   LINTERFAST=   F  fast interpolation
   KINTER  =     0    interpolate to denser k-point grid
   CSHIFT  =0.1000    complex shift for real part using Kramers Kronig
   OMEGAMAX=  -1.0    maximum frequency
   DEG_THRESHOLD= 0.2000000E-02 threshold for treating states as degnerate
   RTIME   =   -0.100 relaxation time in fs
  (WPLASMAI=    0.000 imaginary part of plasma frequency in eV, 0.658/RTIME)
   DFIELD  = 0.0000000 0.0000000 0.0000000 field for delta impulse in time
 
 Orbital magnetization related:
   ORBITALMAG=     F  switch on orbital magnetization
   LCHIMAG   =     F  perturbation theory with respect to B field
   DQ        =  0.001000  dq finite difference perturbation B field
   LLRAUG    =     F  two centre corrections for induced B field



--------------------------------------------------------------------------------------------------------


 Static calculation
 charge density and potential will be updated during run
 non-spin polarized calculation
 Variant of blocked Davidson
 Davidson routine will perform the subspace rotation
 perform sub-space diagonalisation
    after iterative eigenvector-optimisation
 modified Broyden-mixing scheme, WC =      100.0
 initial mixing is a Kerker type mixing with AMIX =  0.4000 and BMIX =      1.0000
 Hartree-type preconditioning will be used
 using additional bands           64
 real space projection scheme for non local part
 use partial core corrections
 calculate Harris-corrections to forces 
   (improved forces if not selfconsistent)
 use gradient corrections 
 use of overlap-Matrix (Vanderbilt PP)
 Gauss-broadening in eV      SIGMA  =   0.05


--------------------------------------------------------------------------------------------------------


  energy-cutoff  :      600.00
  volume of cell :     4582.63
      direct lattice vectors                 reciprocal lattice vectors
    13.793986680  0.000000000  0.000000000     0.072495358  0.041855214  0.000000000
    -6.896993340 11.945942880  0.000000000     0.000000000  0.083710429  0.000000000
     0.000000000  0.000000000 27.810221070     0.000000000  0.000000000  0.035958003

  length of vectors
    13.793986680 13.793986676 27.810221070     0.083710429  0.083710429  0.035958003


 
 k-points in units of 2pi/SCALE and weight: read from INCAR                         
   0.00000000  0.00000000  0.00000000       0.111
   0.02416512  0.01395174  0.00000000       0.222
   0.00000000  0.02790348  0.00000000       0.222
   0.02416512  0.04185521  0.00000000       0.222
  -0.02416512  0.01395174  0.00000000       0.222
 
 k-points in reciprocal lattice and weights: read from INCAR                         
   0.00000000  0.00000000  0.00000000       0.111
   0.33333333 -0.00000000  0.00000000       0.222
   0.00000000  0.33333333  0.00000000       0.222
   0.33333333  0.33333333  0.00000000       0.222
  -0.33333333  0.33333333  0.00000000       0.222
 
 position of ions in fractional coordinates (direct lattice) 
   0.08257881  0.16582225  0.54949721
   0.09841001  0.42824082  0.54945637
   0.08435315  0.66793042  0.54059620
   0.07742731  0.91060353  0.54488161
   0.33441759  0.16418506  0.54355548
   0.34007892  0.41942443  0.53825413
   0.32971073  0.66035191  0.54047505
   0.33669871  0.91949929  0.54217448
   0.57765295  0.17001732  0.54516935
   0.57794449  0.41303058  0.54253636
   0.58465440  0.65976268  0.54317486
   0.57323834  0.91298352  0.54343643
   0.83404184  0.17082400  0.55208445
   0.83525809  0.42145971  0.54422933
   0.83117592  0.67272353  0.54177309
   0.84042316  0.91505990  0.54631060
   0.16228260  0.08554285  0.45911705
   0.16188721  0.32905396  0.45566546
   0.15812175  0.57499891  0.45181046
   0.17245071  0.83871111  0.45914206
   0.40598609  0.07096646  0.45391304
   0.42966100  0.33700076  0.45022111
   0.42171147  0.58394052  0.45142278
   0.42040121  0.81945402  0.45341251
   0.66640390  0.07771857  0.46266599
   0.66943870  0.32092040  0.45147470
   0.66623525  0.57119626  0.45581674
   0.66433365  0.82442395  0.44995880
   0.90642046  0.08639428  0.46294031
   0.91960424  0.33604275  0.46031060
   0.91744237  0.57445800  0.45528587
   0.91802472  0.83285253  0.45519205
   0.07195553  0.15714048  0.39985903
   0.07948388  0.42120235  0.39841012
   0.09094914  0.67645564  0.39970669
   0.07780528  0.91431214  0.39955542
   0.33085639  0.15070851  0.39060132
   0.33467067  0.41335988  0.39733956
   0.32294265  0.66113020  0.39541346
   0.33630983  0.91219651  0.39729107
   0.58649670  0.17001566  0.39704942
   0.58305806  0.43049343  0.38808444
   0.58265448  0.66436371  0.38939608
   0.58105312  0.92936487  0.38524706
   0.83919666  0.17513010  0.39760728
   0.83197910  0.41457013  0.39411642
   0.83892250  0.66820158  0.39842478
   0.83065052  0.92043749  0.39528036
   0.17100369  0.08920892  0.60447584
   0.17486769  0.33444395  0.60956033
   0.16955651  0.58678793  0.60684708
   0.17757379  0.82239445  0.60294063
   0.42149958  0.08528294  0.60421877
   0.41805879  0.32418482  0.60982599
   0.41964379  0.59265423  0.60031948
   0.41030469  0.84238860  0.60448996
   0.65521160  0.07875421  0.60347250
   0.66606075  0.34102263  0.60704878
   0.64845792  0.59569512  0.60589194
   0.67282042  0.84579907  0.60173720
   0.92707032  0.08866972  0.61001074
   0.90898197  0.34067634  0.60753687
   0.91662623  0.58721189  0.60286019
   0.92254032  0.83128601  0.60340785
   0.00081750  0.00003831  0.49933431
   0.01373282  0.26401930  0.50456809
   0.99716796  0.50232510  0.49782606
   0.01109423  0.75493378  0.50242514
   0.25962925  0.01457009  0.50141974
   0.25093684  0.25428936  0.49603316
   0.24605633  0.49834945  0.50248933
   0.25329624  0.74398479  0.50010467
   0.48733369  0.99282172  0.49655423
   0.49728748  0.25231931  0.49876062
   0.49635461  0.50233121  0.49488266
   0.50464575  0.74893761  0.49471700
   0.75562817  0.01269558  0.50331987
   0.73950996  0.24992217  0.50104890
   0.75092812  0.51250574  0.50005331
   0.74348431  0.74357117  0.49791432
 
 position of ions in cartesian coordinates  (Angst):
  -0.00458398  1.98090310 15.28163875
  -1.59610773  5.11574040 15.28050301
  -3.44314538  7.97905861 15.03409987
  -5.21239523 10.87801777 15.15327814
   3.48056848  1.96134539 15.11639819
   1.79827652  5.01042033 14.96896627
  -0.00641729  7.88852623 15.03073057
  -1.69736290 10.98428599 15.07799213
   6.79552878  2.03101724 15.16128018
   5.12348941  4.93403969 15.08805619
   3.51433619  7.88148728 15.10581285
   1.61040079 10.90644899 15.11308734
  10.32659003  2.04065374 15.35359065
   8.61473412  5.03473368 15.13513789
   6.82545988  8.03631683 15.06682951
   5.28162378 10.93125331 15.19301859
   1.64853561  1.02188998 12.76814658
  -0.03641293  3.93085987 12.67215724
  -1.78463432  6.86890412 12.56494890
  -3.40580219 10.01919501 12.76884206
   5.11071150  0.84776122 12.62342190
   3.60244614  4.02579177 12.52074860
   1.78964845  6.97572013 12.55416732
   0.14723977  9.78915087 12.60950223
   8.65634212  0.92842154 12.86684348
   7.02084260  3.83369682 12.55561116
   5.25050342  6.82347787 12.67636444
   3.47776303  9.84852142 12.51345358
  11.90729101  1.03206119 12.87447226
  10.36732409  4.01434745 12.80133951
   8.69315484  6.86244241 12.66160058
   6.91904248  9.94920870 12.65899143
  -0.09124320  1.87719124 11.12016792
  -1.80863026  5.03165924 11.07987358
  -3.41095882  8.08090046 11.11593147
  -5.23275970 10.92232057 11.11172449
   3.52439306  1.80035530 10.86270901
   1.76550251  4.93797348 11.05010106
  -0.10514406  7.89782364 10.99653586
  -1.65235990 10.89704736 11.04875243
   6.91753076  2.03099738 11.04203222
   5.07358482  5.14264998 10.79271413
   3.45501600  7.93645098 10.82919109
   1.60521564 11.10213965 10.71380591
  10.36799640  2.09209414 11.05754646
   8.61702116  4.95243113 10.96046485
   6.96350399  7.98229789 11.08028128
   5.10973093 10.99549366 10.99283417
   1.74354926  1.06568470 16.81060668
   0.10546489  3.99524837 16.95200755
  -1.70821214  7.00973510 16.87655133
  -3.22259847  9.82427709 16.76791223
   5.22596379  1.01878512 16.80345750
   3.53079677  3.87269338 16.95939548
   1.70102854  7.07981355 16.69501749
  -0.15021116 10.06312609 16.81099930
   8.49481280  0.94079331 16.78270376
   6.83560233  4.07383691 16.88216074
   4.83631460  7.11613988 16.84998885
   3.44740542 10.10386733 16.73444464
  12.17644112  1.05924340 16.96453341
  10.18884274  4.06970009 16.89573466
   8.59393346  7.01479973 16.76567507
   6.99213478  9.93049518 16.78090565
   0.01101236  0.00045761 13.88659750
  -1.63150903  3.15395952 14.03215016
  10.29038868  6.00074694 13.84465291
  -5.05373961  9.01839576 13.97255432
   3.48083256  0.17405348 13.94459374
   1.70758734  3.03772622 13.79479192
  -0.04301509  5.95325410 13.97433934
  -1.63729319  8.88759986 13.90802156
  -0.12521039 11.86019157 13.80928303
   5.11933226  3.01419203 13.87064311
   3.38213395  6.00081990 13.76279614
   1.79565908  8.94676596 13.75818918
  10.33556354  0.15166063 13.99743684
   8.47707891  2.98555600 13.93428067
   6.82354389  6.12236424 13.90659316
   5.12720725  8.88265878 13.84710745
 


--------------------------------------------------------------------------------------------------------


 k-point  1 :   0.0000 0.0000 0.0000  plane waves:  153003
 k-point  2 :   0.3333-0.0000 0.0000  plane waves:  152954
 k-point  3 :   0.0000 0.3333 0.0000  plane waves:  152954
 k-point  4 :   0.3333 0.3333 0.0000  plane waves:  152898
 k-point  5 :  -0.3333 0.3333 0.0000  plane waves:  152954

 maximum and minimum number of plane-waves per node :     11814    11730

 maximum number of plane-waves:    153003
 maximum index in each direction: 
   IXMAX=   27   IYMAX=   27   IZMAX=   55
   IXMIN=  -27   IYMIN=  -27   IZMIN=  -55


 real space projection operators:
  total allocation   :      55026.61 KBytes
  max/ min on nodes  :       4442.83       3899.33


 parallel 3D FFT for wavefunctions:
    minimum data exchange during FFTs selected (reduces bandwidth)
 parallel 3D FFT for charge:
    minimum data exchange during FFTs selected (reduces bandwidth)


 total amount of memory used by VASP MPI-rank0   253932. kBytes
=======================================================================

   base      :      30000. kBytes
   nonlr-proj:      18748. kBytes
   fftplans  :      72602. kBytes
   grid      :      41267. kBytes
   one-center:        108. kBytes
   wavefun   :      91207. kBytes
 
     INWAV:  cpu time    0.0000: real time    0.0000
 Broyden mixing: mesh for mixing (old mesh)
   NGX = 55   NGY = 55   NGZ =111
  (NGX  =224   NGY  =224   NGZ  =448)
  gives a total of 335775 points

 initial charge density was supplied:
 charge density of overlapping atoms calculated
 number of electron     640.0000000 magnetization 
 keeping initial charge density in first step


--------------------------------------------------------------------------------------------------------


 Maximum index for non-local projection operator          948
 Maximum index for augmentation-charges         4677 (set IRDMAX)


--------------------------------------------------------------------------------------------------------


 First call to EWALD:  gamma=   0.107
 Maximum number of real-space cells 4x 4x 2
 Maximum number of reciprocal cells 2x 2x 4

    FEWALD:  cpu time    0.0033: real time    0.0033


--------------------------------------- Iteration      1(   1)  ---------------------------------------


    POTLOK:  cpu time    0.4112: real time    0.4156
    SETDIJ:  cpu time    0.4239: real time    0.4241
     EDDAV:  cpu time   50.2707: real time   50.2700
       DOS:  cpu time    0.0014: real time    0.0014
    --------------------------------------------
      LOOP:  cpu time   51.1072: real time   51.1110

 eigenvalue-minimisations  :  4416
 total energy-change (2. order) : 0.1219510E+05  (-0.2680156E+05)
 number of electron     640.0000000 magnetization 
 augmentation part      640.0000000 magnetization 

 Free energy of the ion-electron system (eV)
  ---------------------------------------------------
  alpha Z        PSCENC =       784.57699423
  Ewald energy   TEWEN  =    252921.90995990
  -Hartree energ DENC   =   -300566.19394093
  -exchange      EXHF   =         0.00000000
  -V(xc)+E(xc)   XCENC  =      2503.53712654
  PAW double counting   =     43679.68029659   -43417.33247688
  entropy T*S    EENTRO =        -0.05511083
  eigenvalues    EBANDS =        78.25685633
  atomic energy  EATOM  =     56210.72393729
  Solvation  Ediel_sol  =         0.00000000
  ---------------------------------------------------
  free energy    TOTEN  =     12195.10364222 eV

  energy without entropy =    12195.15875305  energy(sigma->0) =    12195.13119764


--------------------------------------------------------------------------------------------------------




--------------------------------------- Iteration      1(   2)  ---------------------------------------


     EDDAV:  cpu time   57.0779: real time   57.0863
       DOS:  cpu time    0.0016: real time    0.0016
    --------------------------------------------
      LOOP:  cpu time   57.0795: real time   57.0879

 eigenvalue-minimisations  :  5216
 total energy-change (2. order) :-0.1046923E+05  (-0.1020155E+05)
 number of electron     640.0000000 magnetization 
 augmentation part      640.0000000 magnetization 

 Free energy of the ion-electron system (eV)
  ---------------------------------------------------
  alpha Z        PSCENC =       784.57699423
  Ewald energy   TEWEN  =    252921.90995990
  -Hartree energ DENC   =   -300566.19394093
  -exchange      EXHF   =         0.00000000
  -V(xc)+E(xc)   XCENC  =      2503.53712654
  PAW double counting   =     43679.68029659   -43417.33247688
  entropy T*S    EENTRO =        -0.04331773
  eigenvalues    EBANDS =    -10390.98480172
  atomic energy  EATOM  =     56210.72393729
  Solvation  Ediel_sol  =         0.00000000
  ---------------------------------------------------
  free energy    TOTEN  =      1725.87377728 eV

  energy without entropy =     1725.91709500  energy(sigma->0) =     1725.89543614


--------------------------------------------------------------------------------------------------------




--------------------------------------- Iteration      1(   3)  ---------------------------------------


     EDDAV:  cpu time   71.1214: real time   71.1265
       DOS:  cpu time    0.0005: real time    0.0005
    --------------------------------------------
      LOOP:  cpu time   71.1219: real time   71.1270

 eigenvalue-minimisations  :  6800
 total energy-change (2. order) :-0.2136228E+04  (-0.2049660E+04)
 number of electron     640.0000000 magnetization 
 augmentation part      640.0000000 magnetization 

 Free energy of the ion-electron system (eV)
  ---------------------------------------------------
  alpha Z        PSCENC =       784.57699423
  Ewald energy   TEWEN  =    252921.90995990
  -Hartree energ DENC   =   -300566.19394093
  -exchange      EXHF   =         0.00000000
  -V(xc)+E(xc)   XCENC  =      2503.53712654
  PAW double counting   =     43679.68029659   -43417.33247688
  entropy T*S    EENTRO =        -0.00000000
  eigenvalues    EBANDS =    -12527.25608881
  atomic energy  EATOM  =     56210.72393729
  Solvation  Ediel_sol  =         0.00000000
  ---------------------------------------------------
  free energy    TOTEN  =      -410.35419209 eV

  energy without entropy =     -410.35419209  energy(sigma->0) =     -410.35419209


--------------------------------------------------------------------------------------------------------




--------------------------------------- Iteration      1(   4)  ---------------------------------------


     EDDAV:  cpu time   64.8671: real time   64.8758
       DOS:  cpu time    0.0006: real time    0.0006
    --------------------------------------------
      LOOP:  cpu time   64.8677: real time   64.8764

 eigenvalue-minimisations  :  6088
 total energy-change (2. order) :-0.2331530E+03  (-0.2286710E+03)
 number of electron     640.0000000 magnetization 
 augmentation part      640.0000000 magnetization 

 Free energy of the ion-electron system (eV)
  ---------------------------------------------------
  alpha Z        PSCENC =       784.57699423
  Ewald energy   TEWEN  =    252921.90995990
  -Hartree energ DENC   =   -300566.19394093
  -exchange      EXHF   =         0.00000000
  -V(xc)+E(xc)   XCENC  =      2503.53712654
  PAW double counting   =     43679.68029659   -43417.33247688
  entropy T*S    EENTRO =        -0.00000000
  eigenvalues    EBANDS =    -12760.40907492
  atomic energy  EATOM  =     56210.72393729
  Solvation  Ediel_sol  =         0.00000000
  ---------------------------------------------------
  free energy    TOTEN  =      -643.50717820 eV

  energy without entropy =     -643.50717820  energy(sigma->0) =     -643.50717820


--------------------------------------------------------------------------------------------------------




--------------------------------------- Iteration      1(   5)  ---------------------------------------


     EDDAV:  cpu time   64.7897: real time   64.7967
       DOS:  cpu time    0.0006: real time    0.0006
    CHARGE:  cpu time    3.9043: real time    3.9043
    MIXING:  cpu time    0.0119: real time    0.0119
    --------------------------------------------
      LOOP:  cpu time   68.7066: real time   68.7135

 eigenvalue-minimisations  :  6080
 total energy-change (2. order) :-0.1021663E+02  (-0.1016348E+02)
 number of electron     640.0000003 magnetization 
 augmentation part       59.2845016 magnetization 

 Broyden mixing:
  rms(total) = 0.70114E+01    rms(broyden)= 0.70112E+01
  rms(prec ) = 0.73711E+01
  weight for this iteration     100.00

 Free energy of the ion-electron system (eV)
  ---------------------------------------------------
  alpha Z        PSCENC =       784.57699423
  Ewald energy   TEWEN  =    252921.90995990
  -Hartree energ DENC   =   -300566.19394093
  -exchange      EXHF   =         0.00000000
  -V(xc)+E(xc)   XCENC  =      2503.53712654
  PAW double counting   =     43679.68029659   -43417.33247688
  entropy T*S    EENTRO =        -0.00000000
  eigenvalues    EBANDS =    -12770.62570315
  atomic energy  EATOM  =     56210.72393729
  Solvation  Ediel_sol  =         0.00000000
  ---------------------------------------------------
  free energy    TOTEN  =      -653.72380643 eV

  energy without entropy =     -653.72380643  energy(sigma->0) =     -653.72380643


--------------------------------------------------------------------------------------------------------




--------------------------------------- Iteration      1(   6)  ---------------------------------------


    POTLOK:  cpu time    0.3853: real time    0.3932
    SETDIJ:  cpu time    0.4185: real time    0.4185
     EDDAV:  cpu time   62.9119: real time   62.9126
       DOS:  cpu time    0.0006: real time    0.0006
    CHARGE:  cpu time    3.8880: real time    3.8879
    MIXING:  cpu time    0.0114: real time    0.0115
    --------------------------------------------
      LOOP:  cpu time   67.6157: real time   67.6243

 eigenvalue-minimisations  :  5840
 total energy-change (2. order) : 0.1306513E+03  (-0.6985849E+02)
 number of electron     640.0000004 magnetization 
 augmentation part       70.0674238 magnetization 

 Broyden mixing:
  rms(total) = 0.30335E+01    rms(broyden)= 0.30333E+01
  rms(prec ) = 0.30659E+01
  weight for this iteration     100.00

 eigenvalues of (default mixing * dielectric matrix)
  average eigenvalue GAMMA=   0.9596
  0.9596

 Free energy of the ion-electron system (eV)
  ---------------------------------------------------
  alpha Z        PSCENC =       784.57699423
  Ewald energy   TEWEN  =    252921.90995990
  -Hartree energ DENC   =   -300380.38196130
  -exchange      EXHF   =         0.00000000
  -V(xc)+E(xc)   XCENC  =      2493.28292639
  PAW double counting   =     49353.11781040   -49145.44573837
  entropy T*S    EENTRO =        -0.00000000
  eigenvalues    EBANDS =    -12760.85641691
  atomic energy  EATOM  =     56210.72393729
  Solvation  Ediel_sol  =         0.00000000
  ---------------------------------------------------
  free energy    TOTEN  =      -523.07248837 eV

  energy without entropy =     -523.07248837  energy(sigma->0) =     -523.07248837


--------------------------------------------------------------------------------------------------------




--------------------------------------- Iteration      1(   7)  ---------------------------------------


    POTLOK:  cpu time    0.3847: real time    0.3926
    SETDIJ:  cpu time    0.4182: real time    0.4181
     EDDAV:  cpu time   63.6048: real time   63.6037
       DOS:  cpu time    0.0005: real time    0.0005
    CHARGE:  cpu time    3.8810: real time    3.8809
    MIXING:  cpu time    0.0123: real time    0.0123
    --------------------------------------------
      LOOP:  cpu time   68.3015: real time   68.3081

 eigenvalue-minimisations  :  5920
 total energy-change (2. order) :-0.4842296E+01  (-0.8709251E+01)
 number of electron     640.0000004 magnetization 
 augmentation part       69.5486655 magnetization 

 Broyden mixing:
  rms(total) = 0.15329E+01    rms(broyden)= 0.15328E+01
  rms(prec ) = 0.15681E+01
  weight for this iteration     100.00

 eigenvalues of (default mixing * dielectric matrix)
  average eigenvalue GAMMA=   1.0060
  1.0060  1.0060

 Free energy of the ion-electron system (eV)
  ---------------------------------------------------
  alpha Z        PSCENC =       784.57699423
  Ewald energy   TEWEN  =    252921.90995990
  -Hartree energ DENC   =   -300482.05831760
  -exchange      EXHF   =         0.00000000
  -V(xc)+E(xc)   XCENC  =      2489.32404385
  PAW double counting   =     54452.56210839   -54259.51078328
  entropy T*S    EENTRO =        -0.00000000
  eigenvalues    EBANDS =    -12645.44272691
  atomic energy  EATOM  =     56210.72393729
  Solvation  Ediel_sol  =         0.00000000
  ---------------------------------------------------
  free energy    TOTEN  =      -527.91478415 eV

  energy without entropy =     -527.91478415  energy(sigma->0) =     -527.91478415


--------------------------------------------------------------------------------------------------------




--------------------------------------- Iteration      1(   8)  ---------------------------------------


    POTLOK:  cpu time    0.3865: real time    0.3945
    SETDIJ:  cpu time    0.4183: real time    0.4183
     EDDAV:  cpu time   63.0369: real time   63.0356
       DOS:  cpu time    0.0006: real time    0.0006
    CHARGE:  cpu time    3.8989: real time    3.8988
    MIXING:  cpu time    0.0124: real time    0.0124
    --------------------------------------------
      LOOP:  cpu time   67.7536: real time   67.7601

 eigenvalue-minimisations  :  5856
 total energy-change (2. order) : 0.2231355E+01  (-0.9556135E+00)
 number of electron     640.0000004 magnetization 
 augmentation part       69.2928060 magnetization 

 Broyden mixing:
  rms(total) = 0.93287E+00    rms(broyden)= 0.93287E+00
  rms(prec ) = 0.94824E+00
  weight for this iteration     100.00

 eigenvalues of (default mixing * dielectric matrix)
  average eigenvalue GAMMA=   1.4353
  2.5618  0.8721  0.8721

 Free energy of the ion-electron system (eV)
  ---------------------------------------------------
  alpha Z        PSCENC =       784.57699423
  Ewald energy   TEWEN  =    252921.90995990
  -Hartree energ DENC   =   -300553.03167038
  -exchange      EXHF   =         0.00000000
  -V(xc)+E(xc)   XCENC  =      2489.41308419
  PAW double counting   =     56458.73832402   -56276.40527063
  entropy T*S    EENTRO =        -0.00000000
  eigenvalues    EBANDS =    -12561.60878820
  atomic energy  EATOM  =     56210.72393729
  Solvation  Ediel_sol  =         0.00000000
  ---------------------------------------------------
  free energy    TOTEN  =      -525.68342960 eV

  energy without entropy =     -525.68342960  energy(sigma->0) =     -525.68342960


--------------------------------------------------------------------------------------------------------




--------------------------------------- Iteration      1(   9)  ---------------------------------------


    POTLOK:  cpu time    0.3856: real time    0.3934
    SETDIJ:  cpu time    0.4176: real time    0.4176
     EDDAV:  cpu time   58.4336: real time   58.4328
       DOS:  cpu time    0.0005: real time    0.0005
    CHARGE:  cpu time    3.8976: real time    3.8975
    MIXING:  cpu time    0.0118: real time    0.0118
    --------------------------------------------
      LOOP:  cpu time   63.1467: real time   63.1537

 eigenvalue-minimisations  :  5336
 total energy-change (2. order) : 0.5091576E+00  (-0.3608662E+00)
 number of electron     640.0000004 magnetization 
 augmentation part       69.9925474 magnetization 

 Broyden mixing:
  rms(total) = 0.30059E+00    rms(broyden)= 0.30057E+00
  rms(prec ) = 0.31320E+00
  weight for this iteration     100.00

 eigenvalues of (default mixing * dielectric matrix)
  average eigenvalue GAMMA=   1.2280
  2.1401  0.8718  0.8718  1.0283

 Free energy of the ion-electron system (eV)
  ---------------------------------------------------
  alpha Z        PSCENC =       784.57699423
  Ewald energy   TEWEN  =    252921.90995990
  -Hartree energ DENC   =   -300682.93262849
  -exchange      EXHF   =         0.00000000
  -V(xc)+E(xc)   XCENC  =      2489.00142992
  PAW double counting   =     60324.28078904   -60159.02701390
  entropy T*S    EENTRO =        -0.00000000
  eigenvalues    EBANDS =    -12413.70773995
  atomic energy  EATOM  =     56210.72393729
  Solvation  Ediel_sol  =         0.00000000
  ---------------------------------------------------
  free energy    TOTEN  =      -525.17427196 eV

  energy without entropy =     -525.17427196  energy(sigma->0) =     -525.17427196


--------------------------------------------------------------------------------------------------------




--------------------------------------- Iteration      1(  10)  ---------------------------------------


    POTLOK:  cpu time    0.3863: real time    0.3935
    SETDIJ:  cpu time    0.4188: real time    0.4187
     EDDAV:  cpu time   60.8703: real time   60.8691
       DOS:  cpu time    0.0005: real time    0.0005
    CHARGE:  cpu time    3.8973: real time    3.8972
    MIXING:  cpu time    0.0122: real time    0.0122
    --------------------------------------------
      LOOP:  cpu time   65.5853: real time   65.5912

 eigenvalue-minimisations  :  5608
 total energy-change (2. order) : 0.1263134E+00  (-0.5879047E-01)
 number of electron     640.0000004 magnetization 
 augmentation part       69.8017577 magnetization 

 Broyden mixing:
  rms(total) = 0.17120E+00    rms(broyden)= 0.17120E+00
  rms(prec ) = 0.17774E+00
  weight for this iteration     100.00

 eigenvalues of (default mixing * dielectric matrix)
  average eigenvalue GAMMA=   1.2270
  2.0824  1.5893  0.9070  0.9070  0.6491

 Free energy of the ion-electron system (eV)
  ---------------------------------------------------
  alpha Z        PSCENC =       784.57699423
  Ewald energy   TEWEN  =    252921.90995990
  -Hartree energ DENC   =   -300708.92873140
  -exchange      EXHF   =         0.00000000
  -V(xc)+E(xc)   XCENC  =      2489.60026153
  PAW double counting   =     59720.04262879   -59552.21644957
  entropy T*S    EENTRO =        -0.00000000
  eigenvalues    EBANDS =    -12390.75655936
  atomic energy  EATOM  =     56210.72393729
  Solvation  Ediel_sol  =         0.00000000
  ---------------------------------------------------
  free energy    TOTEN  =      -525.04795860 eV

  energy without entropy =     -525.04795860  energy(sigma->0) =     -525.04795860


--------------------------------------------------------------------------------------------------------




--------------------------------------- Iteration      1(  11)  ---------------------------------------


    POTLOK:  cpu time    0.3846: real time    0.3931
    SETDIJ:  cpu time    0.4183: real time    0.4183
     EDDAV:  cpu time   60.9284: real time   60.9276
       DOS:  cpu time    0.0005: real time    0.0005
    CHARGE:  cpu time    3.8908: real time    3.8907
    MIXING:  cpu time    0.0124: real time    0.0124
    --------------------------------------------
      LOOP:  cpu time   65.6351: real time   65.6426

 eigenvalue-minimisations  :  5616
 total energy-change (2. order) : 0.1973515E-01  (-0.1870091E-01)
 number of electron     640.0000004 magnetization 
 augmentation part       69.7452531 magnetization 

 Broyden mixing:
  rms(total) = 0.75408E-01    rms(broyden)= 0.75407E-01
  rms(prec ) = 0.81438E-01
  weight for this iteration     100.00

 eigenvalues of (default mixing * dielectric matrix)
  average eigenvalue GAMMA=   1.2827
  2.5148  1.7303  0.9000  0.9000  0.9059  0.7453

 Free energy of the ion-electron system (eV)
  ---------------------------------------------------
  alpha Z        PSCENC =       784.57699423
  Ewald energy   TEWEN  =    252921.90995990
  -Hartree energ DENC   =   -300757.85740716
  -exchange      EXHF   =         0.00000000
  -V(xc)+E(xc)   XCENC  =      2490.17229421
  PAW double counting   =     59844.36684617   -59676.76274481
  entropy T*S    EENTRO =        -0.00000000
  eigenvalues    EBANDS =    -12342.15810327
  atomic energy  EATOM  =     56210.72393729
  Solvation  Ediel_sol  =         0.00000000
  ---------------------------------------------------
  free energy    TOTEN  =      -525.02822345 eV

  energy without entropy =     -525.02822345  energy(sigma->0) =     -525.02822345


--------------------------------------------------------------------------------------------------------




--------------------------------------- Iteration      1(  12)  ---------------------------------------


    POTLOK:  cpu time    0.3850: real time    0.3934
    SETDIJ:  cpu time    0.4201: real time    0.4201
     EDDAV:  cpu time   64.9205: real time   64.9356
       DOS:  cpu time    0.0006: real time    0.0006
    CHARGE:  cpu time    3.8892: real time    3.8900
    MIXING:  cpu time    0.0135: real time    0.0135
    --------------------------------------------
      LOOP:  cpu time   69.6289: real time   69.6532

 eigenvalue-minimisations  :  6072
 total energy-change (2. order) : 0.1407055E-01  (-0.3137161E-02)
 number of electron     640.0000004 magnetization 
 augmentation part       69.7487449 magnetization 

 Broyden mixing:
  rms(total) = 0.27920E-01    rms(broyden)= 0.27920E-01
  rms(prec ) = 0.35052E-01
  weight for this iteration     100.00

 eigenvalues of (default mixing * dielectric matrix)
  average eigenvalue GAMMA=   1.2757
  2.2403  2.2403  0.9358  0.9358  0.9400  0.9400  0.6974

 Free energy of the ion-electron system (eV)
  ---------------------------------------------------
  alpha Z        PSCENC =       784.57699423
  Ewald energy   TEWEN  =    252921.90995990
  -Hartree energ DENC   =   -300793.08031425
  -exchange      EXHF   =         0.00000000
  -V(xc)+E(xc)   XCENC  =      2490.56723942
  PAW double counting   =     59965.56887649   -59798.32020388
  entropy T*S    EENTRO =        -0.00000000
  eigenvalues    EBANDS =    -12306.96064208
  atomic energy  EATOM  =     56210.72393729
  Solvation  Ediel_sol  =         0.00000000
  ---------------------------------------------------
  free energy    TOTEN  =      -525.01415290 eV

  energy without entropy =     -525.01415290  energy(sigma->0) =     -525.01415290


--------------------------------------------------------------------------------------------------------




--------------------------------------- Iteration      1(  13)  ---------------------------------------


    POTLOK:  cpu time    0.3838: real time    0.3919
    SETDIJ:  cpu time    0.4207: real time    0.4222
     EDDAV:  cpu time   58.7573: real time   58.7687
       DOS:  cpu time    0.0006: real time    0.0006
    CHARGE:  cpu time    3.8976: real time    3.8985
    MIXING:  cpu time    0.0128: real time    0.0128
    --------------------------------------------
      LOOP:  cpu time   63.4729: real time   63.4947

 eigenvalue-minimisations  :  5376
 total energy-change (2. order) : 0.2583523E-02  (-0.7446916E-03)
 number of electron     640.0000004 magnetization 
 augmentation part       69.7540607 magnetization 

 Broyden mixing:
  rms(total) = 0.17763E-01    rms(broyden)= 0.17763E-01
  rms(prec ) = 0.24423E-01
  weight for this iteration     100.00

 eigenvalues of (default mixing * dielectric matrix)
  average eigenvalue GAMMA=   1.3234
  2.7348  2.0333  1.5044  0.9188  0.9188  0.9069  0.9069  0.6632

 Free energy of the ion-electron system (eV)
  ---------------------------------------------------
  alpha Z        PSCENC =       784.57699423
  Ewald energy   TEWEN  =    252921.90995990
  -Hartree energ DENC   =   -300813.73411056
  -exchange      EXHF   =         0.00000000
  -V(xc)+E(xc)   XCENC  =      2490.74117338
  PAW double counting   =     59924.62113173   -59757.20441684
  entropy T*S    EENTRO =        -0.00000000
  eigenvalues    EBANDS =    -12286.64623850
  atomic energy  EATOM  =     56210.72393729
  Solvation  Ediel_sol  =         0.00000000
  ---------------------------------------------------
  free energy    TOTEN  =      -525.01156937 eV

  energy without entropy =     -525.01156937  energy(sigma->0) =     -525.01156937


--------------------------------------------------------------------------------------------------------




--------------------------------------- Iteration      1(  14)  ---------------------------------------


    POTLOK:  cpu time    0.3872: real time    0.3948
    SETDIJ:  cpu time    0.4194: real time    0.4196
     EDDAV:  cpu time   58.4952: real time   58.5064
       DOS:  cpu time    0.0007: real time    0.0007
    CHARGE:  cpu time    3.8998: real time    3.9005
    MIXING:  cpu time    0.0148: real time    0.0148
    --------------------------------------------
      LOOP:  cpu time   63.2171: real time   63.2368

 eigenvalue-minimisations  :  5344
 total energy-change (2. order) : 0.1396755E-02  (-0.5965117E-03)
 number of electron     640.0000004 magnetization 
 augmentation part       69.7632978 magnetization 

 Broyden mixing:
  rms(total) = 0.16660E-01    rms(broyden)= 0.16660E-01
  rms(prec ) = 0.20208E-01
  weight for this iteration     100.00

 eigenvalues of (default mixing * dielectric matrix)
  average eigenvalue GAMMA=   1.3421
  2.6250  2.6250  1.6953  0.9431  0.9431  0.9267  0.9267  0.6971  0.6971

 Free energy of the ion-electron system (eV)
  ---------------------------------------------------
  alpha Z        PSCENC =       784.57699423
  Ewald energy   TEWEN  =    252921.90995990
  -Hartree energ DENC   =   -300839.80280035
  -exchange      EXHF   =         0.00000000
  -V(xc)+E(xc)   XCENC  =      2490.90224740
  PAW double counting   =     59925.29339831   -59757.89798917
  entropy T*S    EENTRO =        -0.00000000
  eigenvalues    EBANDS =    -12260.71592023
  atomic energy  EATOM  =     56210.72393729
  Solvation  Ediel_sol  =         0.00000000
  ---------------------------------------------------
  free energy    TOTEN  =      -525.01017262 eV

  energy without entropy =     -525.01017262  energy(sigma->0) =     -525.01017262


--------------------------------------------------------------------------------------------------------




--------------------------------------- Iteration      1(  15)  ---------------------------------------


    POTLOK:  cpu time    0.3851: real time    0.3937
    SETDIJ:  cpu time    0.4184: real time    0.4186
     EDDAV:  cpu time   59.2024: real time   59.2147
       DOS:  cpu time    0.0006: real time    0.0006
    CHARGE:  cpu time    3.8970: real time    3.8978
    MIXING:  cpu time    0.0152: real time    0.0152
    --------------------------------------------
      LOOP:  cpu time   63.9188: real time   63.9406

 eigenvalue-minimisations  :  5424
 total energy-change (2. order) :-0.1617619E-02  (-0.1994206E-03)
 number of electron     640.0000004 magnetization 
 augmentation part       69.7653782 magnetization 

 Broyden mixing:
  rms(total) = 0.10224E-01    rms(broyden)= 0.10224E-01
  rms(prec ) = 0.13066E-01
  weight for this iteration     100.00

 eigenvalues of (default mixing * dielectric matrix)
  average eigenvalue GAMMA=   1.3457
  2.7866  2.7866  1.4592  1.2509  0.9599  0.9599  0.8776  0.8776  0.8570  0.6421

 Free energy of the ion-electron system (eV)
  ---------------------------------------------------
  alpha Z        PSCENC =       784.57699423
  Ewald energy   TEWEN  =    252921.90995990
  -Hartree energ DENC   =   -300856.81915519
  -exchange      EXHF   =         0.00000000
  -V(xc)+E(xc)   XCENC  =      2490.98048955
  PAW double counting   =     59891.26731290   -59723.77021982
  entropy T*S    EENTRO =        -0.00000000
  eigenvalues    EBANDS =    -12243.88110910
  atomic energy  EATOM  =     56210.72393729
  Solvation  Ediel_sol  =         0.00000000
  ---------------------------------------------------
  free energy    TOTEN  =      -525.01179024 eV

  energy without entropy =     -525.01179024  energy(sigma->0) =     -525.01179024


--------------------------------------------------------------------------------------------------------




--------------------------------------- Iteration      1(  16)  ---------------------------------------


    POTLOK:  cpu time    0.3875: real time    0.3954
    SETDIJ:  cpu time    0.4186: real time    0.4189
     EDDAV:  cpu time   63.7621: real time   63.7743
       DOS:  cpu time    0.0005: real time    0.0005
    CHARGE:  cpu time    3.8967: real time    3.8975
    MIXING:  cpu time    0.0143: real time    0.0143
    --------------------------------------------
      LOOP:  cpu time   68.4797: real time   68.5009

 eigenvalue-minimisations  :  5936
 total energy-change (2. order) :-0.1954478E-02  (-0.9321961E-04)
 number of electron     640.0000004 magnetization 
 augmentation part       69.7643446 magnetization 

 Broyden mixing:
  rms(total) = 0.57772E-02    rms(broyden)= 0.57772E-02
  rms(prec ) = 0.81568E-02
  weight for this iteration     100.00

 eigenvalues of (default mixing * dielectric matrix)
  average eigenvalue GAMMA=   1.4040
  3.3780  2.5433  2.0802  1.3132  1.0233  0.8909  0.8909  0.9710  0.9710  0.6510
  0.7308

 Free energy of the ion-electron system (eV)
  ---------------------------------------------------
  alpha Z        PSCENC =       784.57699423
  Ewald energy   TEWEN  =    252921.90995990
  -Hartree energ DENC   =   -300868.07089380
  -exchange      EXHF   =         0.00000000
  -V(xc)+E(xc)   XCENC  =      2491.03150999
  PAW double counting   =     59882.13223235   -59714.63349837
  entropy T*S    EENTRO =        -0.00000000
  eigenvalues    EBANDS =    -12232.68398630
  atomic energy  EATOM  =     56210.72393729
  Solvation  Ediel_sol  =         0.00000000
  ---------------------------------------------------
  free energy    TOTEN  =      -525.01374472 eV

  energy without entropy =     -525.01374472  energy(sigma->0) =     -525.01374472


--------------------------------------------------------------------------------------------------------




--------------------------------------- Iteration      1(  17)  ---------------------------------------


    POTLOK:  cpu time    0.3885: real time    0.3972
    SETDIJ:  cpu time    0.4194: real time    0.4194
     EDDAV:  cpu time   56.6105: real time   56.6212
       DOS:  cpu time    0.0006: real time    0.0006
    CHARGE:  cpu time    3.9148: real time    3.9155
    MIXING:  cpu time    0.0157: real time    0.0157
    --------------------------------------------
      LOOP:  cpu time   61.3495: real time   61.3697

 eigenvalue-minimisations  :  5128
 total energy-change (2. order) :-0.3496847E-02  (-0.7083459E-04)
 number of electron     640.0000004 magnetization 
 augmentation part       69.7632708 magnetization 

 Broyden mixing:
  rms(total) = 0.32816E-02    rms(broyden)= 0.32814E-02
  rms(prec ) = 0.48198E-02
  weight for this iteration     100.00

 eigenvalues of (default mixing * dielectric matrix)
  average eigenvalue GAMMA=   1.4609
  4.1341  2.7379  2.3191  1.3917  1.0743  0.9340  0.9340  0.8993  0.8993  0.7828
  0.7828  0.6419

 Free energy of the ion-electron system (eV)
  ---------------------------------------------------
  alpha Z        PSCENC =       784.57699423
  Ewald energy   TEWEN  =    252921.90995990
  -Hartree energ DENC   =   -300881.13493359
  -exchange      EXHF   =         0.00000000
  -V(xc)+E(xc)   XCENC  =      2491.07508397
  PAW double counting   =     59879.16631406   -59711.70436593
  entropy T*S    EENTRO =        -0.00000000
  eigenvalues    EBANDS =    -12219.63023148
  atomic energy  EATOM  =     56210.72393729
  Solvation  Ediel_sol  =         0.00000000
  ---------------------------------------------------
  free energy    TOTEN  =      -525.01724156 eV

  energy without entropy =     -525.01724156  energy(sigma->0) =     -525.01724156


--------------------------------------------------------------------------------------------------------




--------------------------------------- Iteration      1(  18)  ---------------------------------------


    POTLOK:  cpu time    0.3938: real time    0.4020
    SETDIJ:  cpu time    0.4198: real time    0.4200
     EDDAV:  cpu time   53.7914: real time   53.8021
       DOS:  cpu time    0.0006: real time    0.0006
    CHARGE:  cpu time    3.8981: real time    3.8989
    MIXING:  cpu time    0.0156: real time    0.0156
    --------------------------------------------
      LOOP:  cpu time   58.5193: real time   58.5392

 eigenvalue-minimisations  :  4808
 total energy-change (2. order) :-0.2201670E-02  (-0.2633133E-04)
 number of electron     640.0000004 magnetization 
 augmentation part       69.7638824 magnetization 

 Broyden mixing:
  rms(total) = 0.23713E-02    rms(broyden)= 0.23712E-02
  rms(prec ) = 0.31972E-02
  weight for this iteration     100.00

 eigenvalues of (default mixing * dielectric matrix)
  average eigenvalue GAMMA=   1.4687
  4.5334  2.6381  2.3023  1.5439  1.0960  1.0960  0.9187  0.9187  0.9137  0.9137
  0.8842  0.6509  0.6838

 Free energy of the ion-electron system (eV)
  ---------------------------------------------------
  alpha Z        PSCENC =       784.57699423
  Ewald energy   TEWEN  =    252921.90995990
  -Hartree energ DENC   =   -300889.22512781
  -exchange      EXHF   =         0.00000000
  -V(xc)+E(xc)   XCENC  =      2491.09782623
  PAW double counting   =     59875.28594833   -59707.83359655
  entropy T*S    EENTRO =        -0.00000000
  eigenvalues    EBANDS =    -12211.55538483
  atomic energy  EATOM  =     56210.72393729
  Solvation  Ediel_sol  =         0.00000000
  ---------------------------------------------------
  free energy    TOTEN  =      -525.01944323 eV

  energy without entropy =     -525.01944323  energy(sigma->0) =     -525.01944323


--------------------------------------------------------------------------------------------------------




--------------------------------------- Iteration      1(  19)  ---------------------------------------


    POTLOK:  cpu time    0.3910: real time    0.3957
    SETDIJ:  cpu time    0.4193: real time    0.4193
     EDDAV:  cpu time   54.6469: real time   54.6484
       DOS:  cpu time    0.0006: real time    0.0006
    CHARGE:  cpu time    3.8994: real time    3.8993
    MIXING:  cpu time    0.0158: real time    0.0158
    --------------------------------------------
      LOOP:  cpu time   59.3729: real time   59.3790

 eigenvalue-minimisations  :  4896
 total energy-change (2. order) :-0.1064400E-02  (-0.1275663E-04)
 number of electron     640.0000004 magnetization 
 augmentation part       69.7637521 magnetization 

 Broyden mixing:
  rms(total) = 0.15033E-02    rms(broyden)= 0.15032E-02
  rms(prec ) = 0.21760E-02
  weight for this iteration     100.00

 eigenvalues of (default mixing * dielectric matrix)
  average eigenvalue GAMMA=   1.5510
  5.3741  2.7987  2.2809  2.0080  1.2078  1.2078  1.0126  1.0126  0.8998  0.8998
  0.8405  0.8405  0.6979  0.6337

 Free energy of the ion-electron system (eV)
  ---------------------------------------------------
  alpha Z        PSCENC =       784.57699423
  Ewald energy   TEWEN  =    252921.90995990
  -Hartree energ DENC   =   -300892.70124274
  -exchange      EXHF   =         0.00000000
  -V(xc)+E(xc)   XCENC  =      2491.10767409
  PAW double counting   =     59875.30850750   -59707.85640450
  entropy T*S    EENTRO =        -0.00000000
  eigenvalues    EBANDS =    -12208.08993339
  atomic energy  EATOM  =     56210.72393729
  Solvation  Ediel_sol  =         0.00000000
  ---------------------------------------------------
  free energy    TOTEN  =      -525.02050763 eV

  energy without entropy =     -525.02050763  energy(sigma->0) =     -525.02050763


--------------------------------------------------------------------------------------------------------




--------------------------------------- Iteration      1(  20)  ---------------------------------------


    POTLOK:  cpu time    0.3923: real time    0.4005
    SETDIJ:  cpu time    0.4201: real time    0.4201
     EDDAV:  cpu time   50.9359: real time   50.9349
       DOS:  cpu time    0.0007: real time    0.0006
    CHARGE:  cpu time    3.8948: real time    3.8947
    MIXING:  cpu time    0.0153: real time    0.0153
    --------------------------------------------
      LOOP:  cpu time   55.6591: real time   55.6662

 eigenvalue-minimisations  :  4472
 total energy-change (2. order) :-0.1245378E-02  (-0.4758394E-05)
 number of electron     640.0000004 magnetization 
 augmentation part       69.7634421 magnetization 

 Broyden mixing:
  rms(total) = 0.11017E-02    rms(broyden)= 0.11016E-02
  rms(prec ) = 0.14392E-02
  weight for this iteration     100.00

 eigenvalues of (default mixing * dielectric matrix)
  average eigenvalue GAMMA=   1.5790
  5.9652  3.0466  2.2864  2.2864  1.0447  1.0447  1.1318  1.1318  0.8901  0.8901
  0.9483  0.9483  0.7515  0.6905  0.6281

 Free energy of the ion-electron system (eV)
  ---------------------------------------------------
  alpha Z        PSCENC =       784.57699423
  Ewald energy   TEWEN  =    252921.90995990
  -Hartree energ DENC   =   -300896.25562820
  -exchange      EXHF   =         0.00000000
  -V(xc)+E(xc)   XCENC  =      2491.11277079
  PAW double counting   =     59874.86671886   -59707.41508330
  entropy T*S    EENTRO =        -0.00000000
  eigenvalues    EBANDS =    -12204.54142258
  atomic energy  EATOM  =     56210.72393729
  Solvation  Ediel_sol  =         0.00000000
  ---------------------------------------------------
  free energy    TOTEN  =      -525.02175301 eV

  energy without entropy =     -525.02175301  energy(sigma->0) =     -525.02175301


--------------------------------------------------------------------------------------------------------




--------------------------------------- Iteration      1(  21)  ---------------------------------------


    POTLOK:  cpu time    0.3924: real time    0.3974
    SETDIJ:  cpu time    0.4195: real time    0.4195
     EDDAV:  cpu time   48.3599: real time   48.3593
       DOS:  cpu time    0.0007: real time    0.0007
    CHARGE:  cpu time    3.8998: real time    3.8997
    MIXING:  cpu time    0.0163: real time    0.0163
    --------------------------------------------
      LOOP:  cpu time   53.0886: real time   53.0929

 eigenvalue-minimisations  :  4184
 total energy-change (2. order) :-0.5291987E-03  (-0.1474443E-05)
 number of electron     640.0000004 magnetization 
 augmentation part       69.7636125 magnetization 

 Broyden mixing:
  rms(total) = 0.79276E-03    rms(broyden)= 0.79262E-03
  rms(prec ) = 0.10300E-02
  weight for this iteration     100.00

 eigenvalues of (default mixing * dielectric matrix)
  average eigenvalue GAMMA=   1.5843
  6.4174  3.0296  2.4838  1.8548  1.4789  1.2052  1.2052  1.0229  1.0229  0.8911
  0.8911  0.8924  0.8247  0.8247  0.6754  0.6286

 Free energy of the ion-electron system (eV)
  ---------------------------------------------------
  alpha Z        PSCENC =       784.57699423
  Ewald energy   TEWEN  =    252921.90995990
  -Hartree energ DENC   =   -300897.56730987
  -exchange      EXHF   =         0.00000000
  -V(xc)+E(xc)   XCENC  =      2491.11305075
  PAW double counting   =     59875.36259472   -59707.91213667
[...]
    -6.896993340 11.945942880  0.000000000     0.000000000  0.083710429  0.000000000
     0.000000000  0.000000000 27.810221070     0.000000000  0.000000000  0.035958003

  length of vectors
    13.793986680 13.793986676 27.810221070     0.083710429  0.083710429  0.035958003


 FORCES acting on ions
    electron-ion (+dipol)            ewald-force                    non-local-force                 convergence-correction
 -----------------------------------------------------------------------------------------------
   0.415E+00 -.182E+02 -.114E+04   -.305E+00 0.196E+02 0.114E+04   0.203E+00 -.406E+00 0.343E+01   0.551E-04 0.613E-06 -.548E-04
   0.342E+02 0.459E+02 -.120E+04   -.330E+02 -.472E+02 0.119E+04   -.148E+01 0.831E-01 0.410E+01   -.127E-05 0.348E-04 -.476E-04
   0.241E+01 0.260E+02 -.102E+04   -.208E+01 -.252E+02 0.102E+04   0.191E+00 -.850E+00 0.429E+01   -.730E-05 0.180E-04 -.480E-04
   -.234E+02 -.364E+02 -.111E+04   0.241E+02 0.366E+02 0.111E+04   0.342E+00 0.602E+00 0.453E+01   0.271E-04 -.458E-05 -.351E-04
   0.321E+02 -.440E+02 -.106E+04   -.323E+02 0.446E+02 0.105E+04   -.142E+00 0.448E+00 0.438E+01   -.506E-04 -.548E-04 -.270E-04
   -.838E+01 0.395E+02 -.988E+03   0.725E+01 -.404E+02 0.983E+03   0.513E+00 0.251E+00 0.542E+01   0.395E-04 -.249E-04 -.772E-04
   -.303E+02 -.314E+02 -.102E+04   0.293E+02 0.311E+02 0.102E+04   0.927E+00 0.861E+00 0.452E+01   -.289E-04 0.921E-05 -.114E-04
   0.121E+02 0.531E+01 -.103E+04   -.114E+02 -.575E+01 0.103E+04   -.820E+00 -.859E-01 0.373E+01   -.106E-04 0.144E-04 -.807E-05
   -.240E+02 -.190E+02 -.107E+04   0.239E+02 0.198E+02 0.107E+04   0.286E+00 -.647E+00 0.387E+01   0.204E-04 -.369E-04 0.124E-05
   -.166E+02 -.135E+02 -.106E+04   0.172E+02 0.124E+02 0.106E+04   -.194E+00 0.970E+00 0.419E+01   -.498E-04 0.286E-04 -.191E-04
   0.266E+02 -.537E+02 -.104E+04   -.271E+02 0.544E+02 0.103E+04   -.639E+00 0.421E+00 0.375E+01   -.200E-04 -.677E-04 -.173E-04
   -.529E+02 0.215E+02 -.104E+04   0.530E+02 -.214E+02 0.104E+04   0.306E+00 -.357E+00 0.371E+01   -.538E-04 0.142E-04 0.770E-05
   -.900E+01 -.540E+01 -.123E+04   0.883E+01 0.512E+01 0.122E+04   0.146E+00 0.138E+00 0.388E+01   -.225E-04 0.206E-04 -.151E-04
   0.284E+02 0.168E+02 -.107E+04   -.291E+02 -.166E+02 0.107E+04   0.110E+00 -.302E+00 0.361E+01   0.203E-04 -.100E-04 -.375E-04
   0.989E-02 0.276E+02 -.105E+04   0.522E+00 -.291E+02 0.105E+04   0.451E-01 0.327E+00 0.497E+01   0.449E-04 0.107E-04 -.119E-04
   0.541E+02 -.670E+01 -.109E+04   -.550E+02 0.714E+01 0.109E+04   -.113E+00 -.271E+00 0.418E+01   0.226E-04 0.230E-04 0.421E-05
   -.373E+01 -.213E+02 0.102E+04   0.389E+01 0.225E+02 -.102E+04   0.408E+00 -.789E+00 -.453E+01   0.109E-04 0.424E-04 0.446E-04
   -.428E+01 0.159E+02 0.109E+04   0.534E+01 -.167E+02 -.109E+04   -.592E+00 0.748E+00 -.523E+01   0.712E-04 -.105E-04 0.543E-05
   -.224E+02 -.345E+01 0.113E+04   0.228E+02 0.479E+01 -.112E+04   0.220E+00 -.927E-01 -.374E+01   -.376E-05 0.889E-05 0.117E-04
   0.131E+02 -.161E+02 0.102E+04   -.131E+02 0.152E+02 -.101E+04   0.500E-02 0.459E+00 -.416E+01   0.516E-05 -.353E-05 0.346E-04
   -.173E+02 -.565E+02 0.112E+04   0.173E+02 0.570E+02 -.112E+04   0.386E+00 0.818E+00 -.393E+01   -.158E-04 -.527E-04 0.217E-04
   0.127E+02 0.670E+02 0.118E+04   -.136E+02 -.679E+02 -.118E+04   -.120E+00 -.259E+00 -.423E+01   -.676E-04 0.415E-04 0.355E-04
   0.233E+02 0.503E+01 0.116E+04   -.224E+02 -.501E+01 -.115E+04   -.104E+01 -.166E+00 -.415E+01   0.310E-04 -.614E-04 0.279E-04
   -.133E+02 -.426E+02 0.112E+04   0.123E+02 0.436E+02 -.112E+04   -.256E+00 0.363E+00 -.421E+01   -.654E-04 0.251E-04 0.203E-05
   -.128E+02 0.118E+02 0.947E+03   0.122E+02 -.114E+02 -.945E+03   0.720E-01 0.124E+00 -.448E+01   -.689E-04 0.326E-04 -.220E-05
   0.355E+02 -.389E+02 0.114E+04   -.357E+02 0.378E+02 -.113E+04   -.831E+00 0.185E+01 -.369E+01   0.242E-04 -.136E-04 0.626E-06
   -.331E+01 -.230E+02 0.108E+04   0.335E+01 0.241E+02 -.107E+04   -.482E+00 0.363E+00 -.461E+01   -.673E-04 -.400E-04 0.398E-05
   -.447E+01 -.699E+02 0.116E+04   0.474E+01 0.684E+02 -.116E+04   -.366E+00 0.165E+01 -.339E+01   -.113E-04 -.635E-06 -.110E-04
   -.144E+02 0.685E+01 0.925E+03   0.151E+02 -.667E+01 -.923E+03   0.561E+00 0.120E+00 -.402E+01   0.600E-04 0.277E-04 -.259E-04
   0.272E+01 0.578E+02 0.951E+03   -.219E+01 -.581E+02 -.947E+03   -.403E+00 -.294E+00 -.412E+01   -.177E-04 0.134E-04 0.113E-04
   0.426E+02 -.180E+02 0.109E+04   -.432E+02 0.186E+02 -.109E+04   -.308E+00 0.377E+00 -.418E+01   0.290E-04 0.230E-04 0.164E-04
   0.349E+02 -.127E+02 0.109E+04   -.350E+02 0.131E+02 -.108E+04   -.292E+00 -.230E+00 -.349E+01   0.538E-04 0.699E-06 0.118E-04
   0.716E+01 0.537E+01 0.143E+04   -.725E+01 -.561E+01 -.143E+04   0.116E+00 0.641E+00 0.178E+01   0.107E-04 0.715E-05 0.243E-04
   -.107E+02 0.456E+02 0.146E+04   0.107E+02 -.455E+02 -.146E+04   0.211E+00 -.103E+01 0.878E+00   0.471E-05 0.110E-04 -.604E-05
   0.227E+02 -.168E+02 0.144E+04   -.226E+02 0.170E+02 -.145E+04   -.405E+00 -.446E+00 0.147E+01   0.873E-05 -.244E-05 0.101E-04
   -.506E+01 -.152E+02 0.144E+04   0.500E+01 0.152E+02 -.144E+04   0.519E+00 0.180E+00 0.165E+01   0.132E-04 0.472E-05 0.220E-04
   0.303E+02 -.102E+02 0.147E+04   -.303E+02 0.993E+01 -.147E+04   -.428E+00 0.888E+00 0.255E+01   -.882E-06 -.544E-05 0.224E-04
   0.302E+02 0.318E+02 0.144E+04   -.302E+02 -.318E+02 -.145E+04   -.567E+00 0.315E-01 0.146E+01   0.791E-06 -.232E-05 0.134E-04
   -.484E+01 0.731E+01 0.147E+04   0.472E+01 -.718E+01 -.147E+04   0.600E+00 -.277E+00 0.145E+01   -.153E-04 -.830E-05 0.735E-05
   0.267E+01 0.891E+01 0.145E+04   -.262E+01 -.881E+01 -.146E+04   -.402E+00 -.373E+00 0.167E+01   -.840E-06 0.442E-05 0.245E-04
   -.706E+01 0.291E+02 0.144E+04   0.719E+01 -.290E+02 -.144E+04   -.148E+00 -.769E+00 0.134E+01   -.520E-05 -.499E-05 0.278E-04
   -.284E+02 0.186E+02 0.150E+04   0.281E+02 -.183E+02 -.151E+04   0.745E+00 -.869E+00 0.219E+01   -.789E-05 0.449E-05 0.283E-04
   -.160E+02 -.993E+01 0.149E+04   0.161E+02 0.981E+01 -.149E+04   -.263E+00 0.372E+00 0.237E+01   -.378E-05 -.229E-04 0.423E-04
   -.186E+02 -.194E+02 0.148E+04   0.184E+02 0.198E+02 -.149E+04   0.702E+00 -.816E+00 0.355E+01   -.192E-04 0.522E-05 0.406E-04
   -.401E+00 0.142E+02 0.143E+04   0.428E+00 -.143E+02 -.143E+04   -.168E+00 -.196E+00 0.260E+01   -.148E-05 0.777E-05 0.253E-04
   -.805E+01 0.281E+01 0.147E+04   0.806E+01 -.288E+01 -.148E+04   0.172E+00 0.240E+00 0.211E+01   0.211E-05 0.181E-05 0.921E-05
   -.186E+01 -.674E+01 0.144E+04   0.187E+01 0.681E+01 -.144E+04   -.934E-01 -.223E+00 0.173E+01   0.785E-05 -.134E-04 0.274E-04
   -.116E+02 -.285E+02 0.144E+04   0.116E+02 0.287E+02 -.144E+04   0.245E+00 -.190E+00 0.240E+01   0.339E-05 0.793E-05 0.396E-04
   -.166E+02 0.177E+02 -.145E+04   0.167E+02 -.175E+02 0.145E+04   0.166E+00 -.818E+00 -.195E+01   0.115E-04 0.101E-04 -.379E-04
   -.163E+02 -.138E+02 -.147E+04   0.166E+02 0.138E+02 0.147E+04   -.430E+00 0.171E+00 -.276E+01   0.158E-04 -.109E-04 -.534E-04
   0.391E+01 -.122E+02 -.148E+04   -.395E+01 0.123E+02 0.148E+04   0.587E-01 -.630E-01 -.211E+01   0.355E-06 0.191E-04 -.526E-04
   0.253E+02 -.125E+02 -.145E+04   -.249E+02 0.123E+02 0.145E+04   -.150E+01 0.819E+00 -.202E+01   0.184E-04 0.106E-04 -.321E-04
   0.141E+02 0.556E+01 -.147E+04   -.140E+02 -.553E+01 0.147E+04   -.530E+00 -.178E+00 -.188E+01   -.935E-06 -.932E-05 -.239E-04
   0.167E+02 -.211E+02 -.147E+04   -.166E+02 0.209E+02 0.147E+04   -.243E+00 0.788E+00 -.317E+01   0.153E-05 -.153E-04 -.348E-04
   0.246E+01 0.351E+01 -.143E+04   -.250E+01 -.348E+01 0.143E+04   -.204E-01 -.359E+00 -.188E+01   0.833E-05 0.106E-04 -.279E-04
   -.283E+02 0.279E+02 -.146E+04   0.280E+02 -.278E+02 0.146E+04   0.124E+01 -.516E+00 -.215E+01   -.824E-05 0.133E-04 -.245E-04
   -.124E+02 0.301E+01 -.144E+04   0.122E+02 -.318E+01 0.144E+04   0.480E+00 0.469E+00 -.199E+01   -.141E-04 -.107E-04 -.236E-04
   -.418E+01 -.163E+02 -.146E+04   0.409E+01 0.164E+02 0.146E+04   0.101E+00 -.120E+00 -.280E+01   -.848E-05 -.184E-04 -.336E-04
   -.432E+02 0.207E+02 -.148E+04   0.427E+02 -.205E+02 0.148E+04   0.229E+01 -.929E+00 -.121E+01   -.157E-04 0.640E-05 -.312E-04
   0.998E+01 0.492E+01 -.142E+04   -.101E+02 -.483E+01 0.142E+04   -.313E-01 -.400E+00 -.207E+01   -.863E-05 -.128E-05 -.106E-04
   0.215E+02 0.156E+02 -.148E+04   -.213E+02 -.156E+02 0.148E+04   -.677E+00 -.345E+00 -.233E+01   0.321E-05 -.685E-05 -.397E-04
   -.104E+02 -.523E+01 -.146E+04   0.102E+02 0.541E+01 0.146E+04   0.658E+00 -.262E+00 -.216E+01   -.917E-05 -.798E-05 -.536E-04
   0.156E+02 -.547E+01 -.144E+04   -.155E+02 0.550E+01 0.144E+04   -.222E+00 -.802E-03 -.225E+01   0.510E-05 0.103E-04 -.433E-04
   0.509E+01 0.123E+02 -.147E+04   -.494E+01 -.124E+02 0.148E+04   -.547E+00 0.115E+00 -.128E+01   -.743E-06 0.448E-06 -.130E-04
   0.152E+02 -.826E+01 0.129E+02   -.151E+02 0.831E+01 -.134E+02   -.594E+00 -.489E+00 0.177E+01   0.274E-05 0.162E-04 -.381E-05
   0.120E+02 0.149E+02 -.519E+02   -.116E+02 -.143E+02 0.518E+02   -.173E+01 -.167E+01 0.308E+00   0.610E-05 -.451E-05 0.286E-06
   -.164E+02 0.153E+02 -.101E+02   0.163E+02 -.152E+02 0.101E+02   0.273E+00 -.543E+00 0.600E+00   0.737E-05 0.651E-05 0.931E-06
   0.246E+02 0.154E+02 -.650E+01   -.242E+02 -.153E+02 0.679E+01   -.147E+01 -.246E-01 -.877E+00   0.374E-05 -.923E-05 -.259E-05
   0.252E+02 0.141E+02 -.158E+02   -.251E+02 -.135E+02 0.158E+02   -.425E+00 -.243E+01 -.326E+00   0.420E-05 0.102E-04 0.567E-05
   -.117E+02 0.240E+01 0.293E+02   0.115E+02 -.229E+01 -.297E+02   0.298E+00 -.384E+00 0.122E+01   0.782E-06 -.479E-05 0.542E-06
   -.115E+02 0.946E+01 0.144E+00   0.113E+02 -.962E+01 0.313E+00   0.520E+00 0.326E+00 -.128E+01   -.469E-05 -.129E-05 -.776E-05
   -.383E+00 -.729E+01 0.477E+01   0.585E+00 0.710E+01 -.443E+01   -.885E+00 0.571E+00 -.843E+00   -.445E-06 0.237E-05 -.249E-05
   -.242E+02 -.967E+01 0.405E+02   0.238E+02 0.954E+01 -.409E+02   0.189E+01 0.426E+00 0.129E+01   -.737E-05 0.314E-05 -.195E-05
   -.833E+01 0.427E+01 0.249E+02   0.804E+01 -.425E+01 -.248E+02   0.931E+00 0.322E+00 -.678E-01   -.442E-05 -.767E-05 0.151E-05
   -.988E+01 0.621E+01 0.349E+02   0.952E+01 -.599E+01 -.351E+02   0.128E+01 -.656E+00 0.887E+00   0.517E-05 0.250E-05 -.911E-05
   -.212E+02 -.768E+01 0.144E+02   0.215E+02 0.770E+01 -.145E+02   -.335E+00 0.467E-01 0.411E+00   -.219E-05 -.491E-05 0.799E-05
   -.284E+01 0.448E+02 -.461E+02   0.278E+01 -.443E+02 0.460E+02   -.189E+00 -.119E+01 0.594E+00   -.229E-05 0.311E-05 0.293E-05
   -.235E+02 0.339E+01 -.245E+02   0.229E+02 -.338E+01 0.243E+02   0.159E+01 0.257E+00 0.526E+00   -.131E-05 -.812E-05 0.197E-05
   -.178E+02 0.345E+02 -.153E+02   0.177E+02 -.339E+02 0.155E+02   0.102E+01 -.176E+01 0.224E+00   -.362E-05 0.347E-05 -.666E-05
   0.111E+02 -.254E+02 0.264E+02   -.113E+02 0.251E+02 -.265E+02   0.711E+00 0.124E+01 0.320E+00   -.131E-05 -.127E-04 -.255E-08
 -----------------------------------------------------------------------------------------------
   -.115E+01 0.421E+01 -.235E+01   -.414E-12 -.888E-13 -.131E-11   0.116E+01 -.420E+01 0.235E+01   -.499E-04 -.287E-05 -.398E-03
 
 
 POSITION                                       TOTAL-FORCE (eV/Angst)
 -----------------------------------------------------------------------------------
     -0.00458      1.98090     15.28164         0.312720      1.010182     -0.846262
     -1.59611      5.11574     15.28050        -0.232588     -1.222242     -0.391367
     -3.44315      7.97906     15.03410         0.524678     -0.026980      1.045139
     -5.21240     10.87802     15.15328         1.048137      0.780967      0.153664
      3.48057      1.96135     15.11640        -0.352745      1.065389      0.173557
      1.79828      5.01042     14.96897        -0.618931     -0.669549      1.120738
     -0.00642      7.88853     15.03073        -0.100087      0.510008      0.569206
     -1.69736     10.98429     15.07799        -0.090148     -0.526787      0.409448
      6.79553      2.03102     15.16128         0.217908      0.120283     -0.376771
      5.12349      4.93404     15.08806         0.356848     -0.155681      0.486207
      3.51434      7.88149     15.10581        -1.154252      1.163179     -1.287384
      1.61040     10.90645     15.11309         0.450602     -0.250376      0.143211
     10.32659      2.04065     15.35359        -0.024522     -0.139983     -0.373047
      8.61473      5.03473     15.13514        -0.653110     -0.068874      0.336180
      6.82546      8.03632     15.06683         0.577215     -1.099364      0.456636
      5.28162     10.93125     15.19302        -1.015240      0.163809     -0.588920
      1.64854      1.02189     12.76815         0.560351      0.347639     -0.884943
     -0.03641      3.93086     12.67216         0.470641     -0.023586      0.470652
     -1.78463      6.86890     12.56495         0.590939      1.240610      1.793035
     -3.40580     10.01920     12.76884        -0.058234     -0.433524     -0.708364
      5.11071      0.84776     12.62342         0.429560      1.287267     -0.205394
      3.60245      4.02579     12.52075        -1.034618     -1.130415      0.276268
      1.78965      6.97572     12.55417        -0.125715     -0.140512      0.033971
      0.14724      9.78915     12.60950        -1.190327      1.365157     -0.305919
      8.65634      0.92842     12.86684        -0.605878      0.524096     -1.835839
      7.02084      3.83370     12.55561        -1.019404      0.829923      0.984295
      5.25050      6.82348     12.67636        -0.439663      1.390382     -1.015696
      3.47776      9.84852     12.51345        -0.104163      0.206515      0.513583
     11.90729      1.03206     12.87447         1.278967      0.300229     -1.192439
     10.36732      4.01435     12.80134         0.131949     -0.590648     -0.115200
      8.69315      6.86244     12.66160        -0.855599      0.914038     -0.217026
      6.91904      9.94921     12.65899        -0.392953      0.217499      0.017128
     -0.09124      1.87719     11.12017         0.031502      0.395329     -0.274335
     -1.80863      5.03166     11.07987         0.155325     -0.948493     -1.023556
     -3.41096      8.08090     11.11593        -0.395024     -0.191854     -0.656522
     -5.23276     10.92232     11.11172         0.458961      0.191282     -0.394665
      3.52439      1.80036     10.86271        -0.368796      0.564742      0.402701
      1.76550      4.93797     11.05010        -0.527836      0.026452     -0.697049
     -0.10514      7.89782     10.99654         0.486080     -0.145549     -0.617184
     -1.65236     10.89705     11.04875        -0.354332     -0.268916     -0.386017
      6.91753      2.03100     11.04203        -0.020007     -0.661033     -0.521278
      5.07358      5.14265     10.79271         0.529761     -0.600339      0.248058
      3.45502      7.93645     10.82919        -0.095524      0.255346      0.328209
      1.60522     11.10214     10.71381         0.459632     -0.411568      1.252371
     10.36800      2.09209     11.05755        -0.140942     -0.241573      0.453624
      8.61702      4.95243     10.96046         0.181645      0.170131      0.042551
      6.96350      7.98230     11.08028        -0.079985     -0.149907     -0.396453
      5.10973     10.99549     10.99283         0.205012      0.028285      0.249146
      1.74355      1.06568     16.81061         0.211804     -0.553588      0.182461
      0.10546      3.99525     16.95201        -0.128767      0.206666     -0.556751
     -1.70821      7.00974     16.87655         0.020165      0.042199     -0.140186
     -3.22260      9.82428     16.76791        -1.070185      0.561283      0.108546
      5.22596      1.01879     16.80346        -0.412365     -0.144722      0.127352
      3.53080      3.87269     16.95940        -0.228970      0.602540     -0.964936
      1.70103      7.07981     16.69502        -0.064363     -0.324569      0.235139
     -0.15021     10.06313     16.81100         0.983498     -0.443905     -0.127578
      8.49481      0.94079     16.78270         0.273334      0.303525      0.225496
      6.83560      4.07384     16.88216         0.012403     -0.034703     -0.596949
      4.83631      7.11614     16.84999         1.716731     -0.758982      0.597100
      3.44741     10.10387     16.73444        -0.116559     -0.309211      0.062927
     12.17644      1.05924     16.96453        -0.483231     -0.264830     -0.161542
     10.18884      4.06970     16.89573         0.417193     -0.078375     -0.043705
      8.59393      7.01480     16.76568        -0.106108      0.026549     -0.068337
      6.99213      9.93050     16.78091        -0.401731      0.062642      0.637962
      0.01101      0.00046     13.88660        -0.531055     -0.443010      1.267521
     -1.63151      3.15396     14.03215        -1.267500     -1.148537      0.190195
     10.29039      6.00075     13.84465         0.133136     -0.409804      0.517302
     -5.05374      9.01840     13.97255        -1.074874      0.112790     -0.584525
      3.48083      0.17405     13.94459        -0.326519     -1.875025     -0.343440
      1.70759      3.03773     13.79479         0.140332     -0.270500      0.796511
     -0.04302      5.95325     13.97434         0.407879      0.165793     -0.824306
     -1.63729      8.88760     13.90802        -0.683726      0.377359     -0.501161
     -0.12521     11.86019     13.80928         1.500593      0.291880      0.842707
      5.11933      3.01419     13.87064         0.644732      0.341444      0.050438
      3.38213      6.00082     13.76280         0.920443     -0.435448      0.621051
      1.79566      8.94677     13.75819        -0.094673      0.063876      0.323443
     10.33556      0.15166     13.99744        -0.246366     -0.707387      0.537478
      8.47708      2.98556     13.93428         1.052542      0.261351      0.367785
      6.82354      6.12236     13.90659         0.905854     -1.157330      0.378295
      5.12721      8.88266     13.84711         0.488547      0.969049      0.195760
 -----------------------------------------------------------------------------------
    total drift:                                0.004710      0.002600     -0.002804


--------------------------------------------------------------------------------------------------------



  FREE ENERGIE OF THE ION-ELECTRON SYSTEM (eV)
  ---------------------------------------------------
  free  energy   TOTEN  =      -525.02361854 eV

  energy  without entropy=     -525.02361854  energy(sigma->0) =     -525.02361854
 


--------------------------------------------------------------------------------------------------------


    POTLOK:  cpu time    0.8096: real time    0.8096


--------------------------------------------------------------------------------------------------------


     LOOP+:  cpu time 1901.0937: real time 1901.4238
    4ORBIT:  cpu time    0.0000: real time    0.0000

 total amount of memory used by VASP MPI-rank0   253932. kBytes
=======================================================================

   base      :      30000. kBytes
   nonlr-proj:      18748. kBytes
   fftplans  :      72602. kBytes
   grid      :      41267. kBytes
   one-center:        108. kBytes
   wavefun   :      91207. kBytes
 
  
  
 General timing and accounting informations for this job:
 ========================================================
  
                  Total CPU time used (sec):     1931.893
                            User time (sec):     1926.779
                          System time (sec):        5.114
                         Elapsed time (sec):     1932.337
  
                   Maximum memory used (kb):      463220.
                   Average memory used (kb):           0.
  
                          Minor page faults:       446904
                          Major page faults:            0
                 Voluntary context switches:         1743
