<?xml version="1.0" encoding="ISO-8859-1"?>
<modeling>
 <generator>
  <i name="program" type="string">vasp </i>
  <i name="version" type="string">5.4.4.18Apr17-6-g9f103f2a35  </i>
  <i name="subversion" type="string">(build Oct 31 2019 15:01:46) complex            parallel </i>
  <i name="platform" type="string">LinuxIFC </i>
  <i name="date" type="string">2024 04 30 </i>
  <i name="time" type="string">11:05:39 </i>
 </generator>
 <incar>
  <i type="int" name="ISTART">     0</i>
  <i type="string" name="PREC">anormal</i>
  <i type="logical" name="ADDGRID"> T  </i>
  <i type="int" name="IBRION">    -1</i>
  <i name="EDIFF">      0.00000100</i>
  <i name="EDIFFG">     -0.01000000</i>
  <i type="int" name="NSW">     1</i>
  <i type="int" name="ISIF">     2</i>
  <i type="int" name="ISYM">     2</i>
  <i name="ENCUT">    600.00000000</i>
  <i name="POTIM">      1.00000000</i>
  <i type="string" name="LREAL"> Auto.</i>
  <i type="int" name="ISMEAR">     0</i>
  <i name="SIGMA">      0.05000000</i>
  <i name="KSPACING">      0.25000000</i>
  <i type="logical" name="LWAVE"> F  </i>
  <i type="logical" name="LCHARG"> F  </i>
  <i type="logical" name="LSCALAPACK"> F  </i>
  <v type="int" name="KPOINT_BSE">    -1     0     0     0</v>
 </incar>
 <structure name="primitive_cell" >
  <crystal>
   <varray name="basis" >
    <v>      13.79398668       0.00000000       0.00000000 </v>
    <v>      -6.89699334      11.94594288       0.00000000 </v>
    <v>       0.00000000       0.00000000      27.81022107 </v>
   </varray>
   <i name="volume">   4582.62876984 </i>
   <varray name="rec_basis" >
    <v>       0.07249536       0.04185521       0.00000000 </v>
    <v>       0.00000000       0.08371043       0.00000000 </v>
    <v>       0.00000000       0.00000000       0.03595800 </v>
   </varray>
  </crystal>
  <varray name="positions" >
   <v>       0.08257881       0.16582225      -0.45050279 </v>
   <v>       0.01373282       0.26401930      -0.49543191 </v>
   <v>       0.00081750       0.00003831       0.49933431 </v>
   <v>       0.17100369       0.08920892      -0.39552416 </v>
   <v>       0.25093684       0.25428936       0.49603316 </v>
   <v>      -0.07292968       0.08866972      -0.38998926 </v>
   <v>       0.17486769       0.33444395      -0.39043967 </v>
   <v>       0.16228260       0.08554285       0.45911705 </v>
   <v>      -0.09357954       0.08639428       0.46294031 </v>
   <v>       0.16188721       0.32905396       0.45566546 </v>
   <v>      -0.15957684      -0.08494010      -0.45368940 </v>
   <v>      -0.16595816       0.17082400      -0.44791555 </v>
   <v>       0.07742731      -0.08939647      -0.45511839 </v>
   <v>       0.33441759       0.16418506      -0.45644452 </v>
   <v>       0.09841001       0.42824082      -0.45054363 </v>
   <v>       0.34007892       0.41942443      -0.46174587 </v>
   <v>      -0.24437183       0.01269558      -0.49668013 </v>
   <v>       0.25962925       0.01457009      -0.49858026 </v>
   <v>       0.07195553       0.15714048       0.39985903 </v>
   <v>       0.24605633       0.49834945      -0.49751067 </v>
   <v>      -0.07745968      -0.16871399      -0.39659215 </v>
   <v>       0.41805879       0.32418482      -0.39017401 </v>
   <v>      -0.09101803       0.34067634      -0.39246313 </v>
   <v>      -0.08039576       0.33604275       0.46031060 </v>
   <v>      -0.08197528      -0.16714747       0.45519205 </v>
   <v>       0.42966100       0.33700076       0.45022111 </v>
   <v>      -0.32717958      -0.15420093      -0.39826280 </v>
   <v>       0.07780528      -0.08568786       0.39955542 </v>
   <v>       0.01109423      -0.24506622      -0.49757486 </v>
   <v>       0.49728748       0.25231931       0.49876062 </v>
   <v>      -0.16080334       0.17513010       0.39760728 </v>
   <v>       0.33467067       0.41335988       0.39733956 </v>
   <v>       0.49635461      -0.49766879       0.49488266 </v>
   <v>      -0.16934948      -0.07956251       0.39528036 </v>
   <v>       0.07948388       0.42120235       0.39841012 </v>
   <v>      -0.00283204      -0.49767490       0.49782606 </v>
   <v>       0.42149958       0.08528294      -0.39578123 </v>
   <v>      -0.25651569      -0.25642883       0.49791432 </v>
   <v>       0.16955651      -0.41321207      -0.39315292 </v>
   <v>       0.41964379      -0.40734577      -0.39968052 </v>
   <v>      -0.26049004       0.24992217      -0.49895110 </v>
   <v>      -0.34478840       0.07875421      -0.39652750 </v>
   <v>       0.33085639       0.15070851       0.39060132 </v>
   <v>       0.17757379      -0.17760555      -0.39705937 </v>
   <v>      -0.33359610       0.07771857       0.46266599 </v>
   <v>       0.17245071      -0.16128889       0.45914206 </v>
   <v>       0.15812175      -0.42500109       0.45181046 </v>
   <v>       0.40598609       0.07096646       0.45391304 </v>
   <v>      -0.16882408      -0.32727647      -0.45822691 </v>
   <v>       0.32971073      -0.33964809      -0.45952495 </v>
   <v>      -0.42205551       0.41303058      -0.45746364 </v>
   <v>       0.42171147      -0.41605948       0.45142278 </v>
   <v>       0.33669871      -0.08050071      -0.45782552 </v>
   <v>      -0.33566635      -0.17557605       0.44995880 </v>
   <v>      -0.16474191       0.42145971      -0.45577067 </v>
   <v>      -0.42676166      -0.08701648      -0.45656357 </v>
   <v>      -0.42234705       0.17001732      -0.45483065 </v>
   <v>      -0.41534560      -0.34023732      -0.45682514 </v>
   <v>       0.08435315      -0.33206958      -0.45940380 </v>
   <v>       0.25329624      -0.25601521      -0.49989533 </v>
   <v>      -0.35154208      -0.40430488      -0.39410806 </v>
   <v>       0.48733369      -0.00717828       0.49655423 </v>
   <v>      -0.08337377      -0.41278811      -0.39713981 </v>
   <v>      -0.16107750      -0.33179842       0.39842478 </v>
   <v>      -0.49535425      -0.25106239       0.49471700 </v>
   <v>       0.32294265      -0.33886980       0.39541346 </v>
   <v>      -0.33393925       0.34102263      -0.39295122 </v>
   <v>      -0.16802090       0.41457013       0.39411642 </v>
   <v>       0.33630983      -0.08780349       0.39729107 </v>
   <v>      -0.41694194       0.43049343       0.38808444 </v>
   <v>      -0.08255763      -0.42554200       0.45528587 </v>
   <v>      -0.33056130       0.32092040       0.45147470 </v>
   <v>      -0.41894688      -0.07063513       0.38524706 </v>
   <v>      -0.33376475      -0.42880374       0.45581674 </v>
   <v>      -0.24907188      -0.48749426      -0.49994669 </v>
   <v>       0.41030469      -0.15761140      -0.39551004 </v>
   <v>       0.09094914      -0.32354436       0.39970669 </v>
   <v>      -0.41350330       0.17001566       0.39704942 </v>
   <v>      -0.41734552      -0.33563629       0.38939608 </v>
   <v>       0.42040121      -0.18054598       0.45341251 </v>
  </varray>
 </structure>
 <varray name="primitive_index" >
  <v type="int" >        1 </v>
  <v type="int" >       66 </v>
  <v type="int" >       65 </v>
  <v type="int" >       49 </v>
  <v type="int" >       70 </v>
  <v type="int" >       61 </v>
  <v type="int" >       50 </v>
  <v type="int" >       17 </v>
  <v type="int" >       29 </v>
  <v type="int" >       18 </v>
  <v type="int" >       16 </v>
  <v type="int" >       13 </v>
  <v type="int" >        4 </v>
  <v type="int" >        5 </v>
  <v type="int" >        2 </v>
  <v type="int" >        6 </v>
  <v type="int" >       77 </v>
  <v type="int" >       69 </v>
  <v type="int" >       33 </v>
  <v type="int" >       71 </v>
  <v type="int" >       64 </v>
  <v type="int" >       54 </v>
  <v type="int" >       62 </v>
  <v type="int" >       30 </v>
  <v type="int" >       32 </v>
  <v type="int" >       22 </v>
  <v type="int" >       60 </v>
  <v type="int" >       36 </v>
  <v type="int" >       68 </v>
  <v type="int" >       74 </v>
  <v type="int" >       45 </v>
  <v type="int" >       38 </v>
  <v type="int" >       75 </v>
  <v type="int" >       48 </v>
  <v type="int" >       34 </v>
  <v type="int" >       67 </v>
  <v type="int" >       53 </v>
  <v type="int" >       80 </v>
  <v type="int" >       51 </v>
  <v type="int" >       55 </v>
  <v type="int" >       78 </v>
  <v type="int" >       57 </v>
  <v type="int" >       37 </v>
  <v type="int" >       52 </v>
  <v type="int" >       25 </v>
  <v type="int" >       20 </v>
  <v type="int" >       19 </v>
  <v type="int" >       21 </v>
  <v type="int" >       15 </v>
  <v type="int" >        7 </v>
  <v type="int" >       10 </v>
  <v type="int" >       23 </v>
  <v type="int" >        8 </v>
  <v type="int" >       28 </v>
  <v type="int" >       14 </v>
  <v type="int" >       12 </v>
  <v type="int" >        9 </v>
  <v type="int" >       11 </v>
  <v type="int" >        3 </v>
  <v type="int" >       72 </v>
  <v type="int" >       59 </v>
  <v type="int" >       73 </v>
  <v type="int" >       63 </v>
  <v type="int" >       47 </v>
  <v type="int" >       76 </v>
  <v type="int" >       39 </v>
  <v type="int" >       58 </v>
  <v type="int" >       46 </v>
  <v type="int" >       40 </v>
  <v type="int" >       42 </v>
  <v type="int" >       31 </v>
  <v type="int" >       26 </v>
  <v type="int" >       44 </v>
  <v type="int" >       27 </v>
  <v type="int" >       79 </v>
  <v type="int" >       56 </v>
  <v type="int" >       35 </v>
  <v type="int" >       41 </v>
  <v type="int" >       43 </v>
  <v type="int" >       24 </v>
 </varray>
 <kpoints>
  <generation param="Gamma">
   <v type="int" name="divisions">       3        3        1 </v>
   <v name="usershift">      0.00000000       0.00000000       0.00000000 </v>
   <v name="genvec1">      0.33333333      -0.00000000       0.00000000 </v>
   <v name="genvec2">      0.00000000       0.33333333       0.00000000 </v>
   <v name="genvec3">      0.00000000       0.00000000       1.00000000 </v>
   <v name="shift">      0.00000000       0.00000000       0.00000000 </v>
  </generation>
  <varray name="kpointlist" >
   <v>       0.00000000       0.00000000       0.00000000 </v>
   <v>       0.33333333      -0.00000000       0.00000000 </v>
   <v>       0.00000000       0.33333333       0.00000000 </v>
   <v>       0.33333333       0.33333333       0.00000000 </v>
   <v>      -0.33333333       0.33333333       0.00000000 </v>
  </varray>
  <varray name="weights" >
   <v>       0.11111111 </v>
   <v>       0.22222222 </v>
   <v>       0.22222222 </v>
   <v>       0.22222222 </v>
   <v>       0.22222222 </v>
  </varray>
 </kpoints>
 <parameters>
  <separator name="general" >
   <i type="string" name="SYSTEM">unknown system</i>
   <i type="logical" name="LCOMPAT"> F  </i>
  </separator>
  <separator name="electronic" >
   <i type="string" name="PREC">anorma</i>
   <i name="ENMAX">    600.00000000</i>
   <i name="ENAUG">    644.87300000</i>
   <i name="EDIFF">      0.00000100</i>
   <i type="int" name="IALGO">    38</i>
   <i type="int" name="IWAVPR">    10</i>
   <i type="int" name="NBANDS">   384</i>
   <i name="NELECT">    640.00000000</i>
   <i type="int" name="TURBO">     0</i>
   <i type="int" name="IRESTART">     0</i>
   <i type="int" name="NREBOOT">     0</i>
   <i type="int" name="NMIN">     0</i>
   <i name="EREF">      0.00000000</i>
   <separator name="electronic smearing" >
    <i type="int" name="ISMEAR">     0</i>
    <i name="SIGMA">      0.05000000</i>
    <i name="KSPACING">      0.25000000</i>
    <i type="logical" name="KGAMMA"> T  </i>
   </separator>
   <separator name="electronic projectors" >
    <i type="logical" name="LREAL"> T  </i>
    <v name="ROPT">     -0.00025000     -0.00025000     -0.00025000</v>
    <i type="int" name="LMAXPAW">  -100</i>
    <i type="int" name="LMAXMIX">     2</i>
    <i type="logical" name="NLSPLINE"> F  </i>
   </separator>
   <separator name="electronic startup" >
    <i type="int" name="ISTART">     0</i>
    <i type="int" name="ICHARG">     2</i>
    <i type="int" name="INIWAV">     1</i>
   </separator>
   <separator name="electronic spin" >
    <i type="int" name="ISPIN">     1</i>
    <i type="logical" name="LNONCOLLINEAR"> F  </i>
    <v name="MAGMOM">      1.00000000      1.00000000      1.00000000      1.00000000      1.00000000      1.00000000      1.00000000      1.00000000      1.00000000      1.00000000      1.00000000      1.00000000      1.00000000      1.00000000      1.00000000      1.00000000      1.00000000      1.00000000      1.00000000      1.00000000
      1.00000000      1.00000000      1.00000000      1.00000000      1.00000000      1.00000000      1.00000000      1.00000000      1.00000000      1.00000000      1.00000000      1.00000000      1.00000000      1.00000000      1.00000000      1.00000000      1.00000000      1.00000000      1.00000000      1.00000000
      1.00000000      1.00000000      1.00000000      1.00000000      1.00000000      1.00000000      1.00000000      1.00000000      1.00000000      1.00000000      1.00000000      1.00000000      1.00000000      1.00000000      1.00000000      1.00000000      1.00000000      1.00000000      1.00000000      1.00000000
      1.00000000      1.00000000      1.00000000      1.00000000      1.00000000      1.00000000      1.00000000      1.00000000      1.00000000      1.00000000      1.00000000      1.00000000      1.00000000      1.00000000      1.00000000      1.00000000      1.00000000      1.00000000      1.00000000      1.00000000
</v>
    <i name="NUPDOWN">     -1.00000000</i>
    <i type="logical" name="LSORBIT"> F  </i>
    <v name="SAXIS">      0.00000000      0.00000000      1.00000000</v>
    <i type="logical" name="LSPIRAL"> F  </i>
    <v name="QSPIRAL">      0.00000000      0.00000000      0.00000000</v>
    <i type="logical" name="LZEROZ"> F  </i>
   </separator>
   <separator name="electronic exchange-correlation" >
    <i type="logical" name="LASPH"> F  </i>
    <i type="logical" name="LMETAGGA"> F  </i>
   </separator>
   <separator name="electronic convergence" >
    <i type="int" name="NELM">    60</i>
    <i type="int" name="NELMDL">    -5</i>
    <i type="int" name="NELMIN">     2</i>
    <i name="ENINI">    600.00000000</i>
    <separator name="electronic convergence detail" >
     <i type="logical" name="LDIAG"> T  </i>
     <i type="logical" name="LSUBROT"> F  </i>
     <i name="WEIMIN">      0.00000000</i>
     <i name="EBREAK">      0.00000000</i>
     <i name="DEPER">      0.30000000</i>
     <i type="int" name="NRMM">     4</i>
     <i name="TIME">      0.40000000</i>
    </separator>
   </separator>
   <separator name="electronic mixer" >
    <i name="AMIX">      0.40000000</i>
    <i name="BMIX">      1.00000000</i>
    <i name="AMIN">      0.10000000</i>
    <i name="AMIX_MAG">      1.60000000</i>
    <i name="BMIX_MAG">      1.00000000</i>
    <separator name="electronic mixer details" >
     <i type="int" name="IMIX">     4</i>
     <i type="logical" name="MIXFIRST"> F  </i>
     <i type="int" name="MAXMIX">   -45</i>
     <i name="WC">    100.00000000</i>
     <i type="int" name="INIMIX">     1</i>
     <i type="int" name="MIXPRE">     1</i>
     <i type="int" name="MREMOVE">     5</i>
    </separator>
   </separator>
   <separator name="electronic dipolcorrection" >
    <i type="logical" name="LDIPOL"> F  </i>
    <i type="logical" name="LMONO"> F  </i>
    <i type="int" name="IDIPOL">     0</i>
    <i name="EPSILON">      1.00000000</i>
    <v name="DIPOL">   -100.00000000   -100.00000000   -100.00000000</v>
    <i name="EFIELD">      0.00000000</i>
   </separator>
  </separator>
  <separator name="grids" >
   <i type="int" name="NGX">   112</i>
   <i type="int" name="NGY">   112</i>
   <i type="int" name="NGZ">   224</i>
   <i type="int" name="NGXF">   224</i>
   <i type="int" name="NGYF">   224</i>
   <i type="int" name="NGZF">   448</i>
   <i type="logical" name="ADDGRID"> T  </i>
  </separator>
  <separator name="ionic" >
   <i type="int" name="NSW">     1</i>
   <i type="int" name="IBRION">    -1</i>
   <i type="int" name="MDALGO">     0</i>
   <i type="int" name="ISIF">     2</i>
   <i name="PSTRESS">      0.00000000</i>
   <i name="EDIFFG">     -0.01000000</i>
   <i type="int" name="NFREE">     0</i>
   <i name="POTIM">      1.00000000</i>
   <i name="SMASS">     -3.00000000</i>
   <i name="SCALEE">      1.00000000</i>
  </separator>
  <separator name="ionic md" >
   <i name="TEBEG">      0.00010000</i>
   <i name="TEEND">      0.00010000</i>
   <i type="int" name="NBLOCK">     1</i>
   <i type="int" name="KBLOCK">     1</i>
   <i type="int" name="NPACO">   256</i>
   <i name="APACO">     16.00000000</i>
  </separator>
  <separator name="symmetry" >
   <i type="int" name="ISYM">     2</i>
   <i name="SYMPREC">      0.00001000</i>
  </separator>
  <separator name="dos" >
   <i type="int" name="LORBIT">     0</i>
   <v name="RWIGS">     -1.00000000     -1.00000000     -1.00000000</v>
   <i type="int" name="NEDOS">   301</i>
   <i name="EMIN">     10.00000000</i>
   <i name="EMAX">    -10.00000000</i>
   <i name="EFERMI">      0.00000000</i>
  </separator>
  <separator name="writing" >
   <i type="int" name="NWRITE">     2</i>
   <i type="logical" name="LWAVE"> F  </i>
   <i type="logical" name="LDOWNSAMPLE"> F  </i>
   <i type="logical" name="LCHARG"> F  </i>
   <i type="logical" name="LPARD"> F  </i>
   <i type="logical" name="LVTOT"> F  </i>
   <i type="logical" name="LVHAR"> F  </i>
   <i type="logical" name="LELF"> F  </i>
   <i type="logical" name="LOPTICS"> F  </i>
   <v name="STM">      0.00000000      0.00000000      0.00000000      0.00000000      0.00000000      0.00000000      0.00000000</v>
  </separator>
  <separator name="performance" >
   <i type="int" name="NPAR">     4</i>
   <i type="int" name="NSIM">     4</i>
   <i type="int" name="NBLK">    -1</i>
   <i type="logical" name="LPLANE"> T  </i>
   <i type="logical" name="LSCALAPACK"> F  </i>
   <i type="logical" name="LSCAAWARE"> F  </i>
   <i type="logical" name="LSCALU"> F  </i>
   <i type="logical" name="LASYNC"> F  </i>
   <i type="logical" name="LORBITALREAL"> F  </i>
  </separator>
  <separator name="miscellaneous" >
   <i type="int" name="IDIOT">     3</i>
   <i type="int" name="ISPECIAL">     0</i>
   <i type="logical" name="LMUSIC"> F  </i>
   <v name="POMASS">     44.95600000     35.45300000     12.01100000</v>
   <v name="DARWINR">      0.00000000      0.00000000      0.00000000</v>
   <v name="DARWINV">      1.00000000      1.00000000      1.00000000</v>
   <i type="logical" name="LCORR"> T  </i>
  </separator>
  <i type="logical" name="GGA_COMPAT"> T  </i>
  <i type="logical" name="LBERRY"> F  </i>
  <i type="int" name="ICORELEVEL">     0</i>
  <i type="logical" name="LDAU"> F  </i>
  <i type="int" name="I_CONSTRAINED_M">     0</i>
  <separator name="electronic exchange-correlation" >
   <i type="string" name="GGA">--</i>
   <i type="int" name="VOSKOWN">     0</i>
   <i type="logical" name="LHFCALC"> F  </i>
   <i type="string" name="PRECFOCK"></i>
   <i type="logical" name="LSYMGRAD"> F  </i>
   <i type="logical" name="LHFONE"> F  </i>
   <i type="logical" name="LRHFCALC"> F  </i>
   <i type="logical" name="LTHOMAS"> F  </i>
   <i type="logical" name="LMODELHF"> F  </i>
   <i name="ENCUT4O">     -1.00000000</i>
   <i type="int" name="EXXOEP">     0</i>
   <i type="int" name="FOURORBIT">     0</i>
   <i name="AEXX">      0.00000000</i>
   <i name="HFALPHA">      0.00000000</i>
   <i name="MCALPHA">      0.00000000</i>
   <i name="ALDAX">      1.00000000</i>
   <i name="AGGAX">      1.00000000</i>
   <i name="ALDAC">      1.00000000</i>
   <i name="AGGAC">      1.00000000</i>
   <i type="int" name="NKREDX">     1</i>
   <i type="int" name="NKREDY">     1</i>
   <i type="int" name="NKREDZ">     1</i>
   <i type="logical" name="SHIFTRED"> F  </i>
   <i type="logical" name="ODDONLY"> F  </i>
   <i type="logical" name="EVENONLY"> F  </i>
   <i type="int" name="LMAXFOCK">     0</i>
   <i type="int" name="NMAXFOCKAE">     0</i>
   <i type="logical" name="LFOCKAEDFT"> F  </i>
   <i name="HFSCREEN">      0.00000000</i>
   <i name="HFSCREENC">      0.00000000</i>
   <i type="int" name="NBANDSGWLOW">     0</i>
  </separator>
  <separator name="vdW DFT" >
   <i type="logical" name="LUSE_VDW"> F  </i>
   <i name="Zab_VDW">     -0.84910000</i>
   <i name="PARAM1">      0.12340000</i>
   <i name="PARAM2">      1.00000000</i>
   <i name="PARAM3">      0.00000000</i>
  </separator>
  <separator name="model GW" >
   <i type="int" name="MODEL_GW">     0</i>
   <i name="MODEL_EPS0">     34.36971577</i>
   <i name="MODEL_ALPHA">      1.00000000</i>
  </separator>
  <separator name="linear response parameters" >
   <i type="logical" name="LEPSILON"> F  </i>
   <i type="logical" name="LRPA"> F  </i>
   <i type="logical" name="LNABLA"> F  </i>
   <i type="logical" name="LVEL"> F  </i>
   <i type="int" name="KINTER">     0</i>
   <i name="CSHIFT">      0.10000000</i>
   <i name="OMEGAMAX">     -1.00000000</i>
   <i name="DEG_THRESHOLD">      0.00200000</i>
   <i name="RTIME">     -0.10000000</i>
   <i name="WPLASMAI">      0.00000000</i>
   <v name="DFIELD">      0.00000000      0.00000000      0.00000000</v>
   <v name="WPLASMA">      0.00000000      0.00000000      0.00000000      0.00000000      0.00000000      0.00000000      0.00000000      0.00000000      0.00000000</v>
  </separator>
  <separator name="orbital magnetization" >
   <i type="logical" name="NUCIND"> F  </i>
   <v name="MAGPOS">      0.00000000      0.00000000      0.00000000</v>
   <i type="logical" name="LNICSALL"> T  </i>
   <i type="logical" name="ORBITALMAG"> F  </i>
   <i type="logical" name="LMAGBLOCH"> F  </i>
   <i type="logical" name="LCHIMAG"> F  </i>
   <i type="logical" name="LGAUGE"> T  </i>
   <i type="int" name="MAGATOM">     0</i>
   <v name="MAGDIPOL">      0.00000000      0.00000000      0.00000000</v>
   <v name="AVECCONST">      0.00000000      0.00000000      0.00000000</v>
  </separator>
  <separator name="response functions" >
   <i type="logical" name="LADDER"> F  </i>
   <i type="logical" name="LRPAFORCE"> F  </i>
   <i type="logical" name="LFXC"> F  </i>
   <i type="logical" name="LHARTREE"> T  </i>
   <i type="int" name="IBSE">     0</i>
   <v type="int" name="KPOINT">    -1     0     0     0</v>
   <i type="logical" name="LTCTE"> F  </i>
   <i type="logical" name="LTETE"> F  </i>
   <i type="logical" name="LTRIPLET"> F  </i>
   <i type="logical" name="LFXCEPS"> F  </i>
   <i type="logical" name="LFXHEG"> F  </i>
   <i type="int" name="NATURALO">     2</i>
   <i type="logical" name="L2ORDER"> F  </i>
   <i type="logical" name="LMP2LT"> F  </i>
   <i type="logical" name="LUSEW"> F  </i>
   <i name="ENCUTGW">     -2.00000000</i>
   <i name="ENCUTGWSOFT">     -2.00000000</i>
   <i name="ENCUTLF">     -1.00000000</i>
   <i type="int" name="LMAXMP2">    -1</i>
   <i name="SCISSOR">      0.00000000</i>
   <i type="int" name="NOMEGA">     0</i>
   <i type="int" name="NOMEGAR">     0</i>
   <i type="int" name="NBANDSGW">    -1</i>
   <i type="int" name="NBANDSO">    -1</i>
   <i type="int" name="NBANDSV">    -1</i>
   <i type="int" name="NELM">     1</i>
   <i type="int" name="NELMHF">     1</i>
   <i type="int" name="DIM">     3</i>
   <i type="int" name="ANTIRES">     0</i>
   <i name="OMEGAMAX">    -30.00000000</i>
   <i name="OMEGAMIN">    -30.00000000</i>
   <i name="OMEGATL">   -200.00000000</i>
   <i type="int" name="OMEGAGRID">   140</i>
   <i name="CSHIFT">     -0.10000000</i>
   <i type="logical" name="SELFENERGY"> F  </i>
   <i type="logical" name="LSPECTRAL"> F  </i>
   <i type="logical" name="LSPECTRALGW"> F  </i>
   <i type="logical" name="LSINGLES"> F  </i>
   <i type="logical" name="LFERMIGW"> F  </i>
   <i type="logical" name="ODDONLYGW"> F  </i>
   <i type="logical" name="EVENONLYGW"> F  </i>
   <i type="int" name="NKREDLFX">     1</i>
   <i type="int" name="NKREDLFY">     1</i>
   <i type="int" name="NKREDLFZ">     1</i>
   <i type="int" name="MAXMEM">  2800</i>
   <i type="int" name="TELESCOPE">     0</i>
   <i type="int" name="TAUPAR">     1</i>
   <i type="int" name="OMEGAPAR">    -1</i>
   <i name="LAMBDA">      1.00000000</i>
  </separator>
  <separator name="External order field" >
   <i name="OFIELD_KAPPA">      0.00000000</i>
   <v name="OFIELD_K">      0.00000000      0.00000000      0.00000000</v>
   <i name="OFIELD_Q6_NEAR">      0.00000000</i>
   <i name="OFIELD_Q6_FAR">      0.00000000</i>
   <i name="OFIELD_A">      0.00000000</i>
  </separator>
 </parameters>
 <atominfo>
  <atoms>      80 </atoms>
  <types>       3 </types>
  <array name="atoms" >
   <dimension dim="1">ion</dimension>
   <field type="string">element</field>
   <field type="int">atomtype</field>
   <set>
    <rc><c>Sc</c><c>   1</c></rc>
    <rc><c>Sc</c><c>   1</c></rc>
    <rc><c>Sc</c><c>   1</c></rc>
    <rc><c>Sc</c><c>   1</c></rc>
    <rc><c>Sc</c><c>   1</c></rc>
    <rc><c>Sc</c><c>   1</c></rc>
    <rc><c>Sc</c><c>   1</c></rc>
    <rc><c>Sc</c><c>   1</c></rc>
    <rc><c>Sc</c><c>   1</c></rc>
    <rc><c>Sc</c><c>   1</c></rc>
    <rc><c>Sc</c><c>   1</c></rc>
    <rc><c>Sc</c><c>   1</c></rc>
    <rc><c>Sc</c><c>   1</c></rc>
    <rc><c>Sc</c><c>   1</c></rc>
    <rc><c>Sc</c><c>   1</c></rc>
    <rc><c>Sc</c><c>   1</c></rc>
    <rc><c>Sc</c><c>   1</c></rc>
    <rc><c>Sc</c><c>   1</c></rc>
    <rc><c>Sc</c><c>   1</c></rc>
    <rc><c>Sc</c><c>   1</c></rc>
    <rc><c>Sc</c><c>   1</c></rc>
    <rc><c>Sc</c><c>   1</c></rc>
    <rc><c>Sc</c><c>   1</c></rc>
    <rc><c>Sc</c><c>   1</c></rc>
    <rc><c>Sc</c><c>   1</c></rc>
    <rc><c>Sc</c><c>   1</c></rc>
    <rc><c>Sc</c><c>   1</c></rc>
    <rc><c>Sc</c><c>   1</c></rc>
    <rc><c>Sc</c><c>   1</c></rc>
    <rc><c>Sc</c><c>   1</c></rc>
    <rc><c>Sc</c><c>   1</c></rc>
    <rc><c>Sc</c><c>   1</c></rc>
    <rc><c>Cl</c><c>   2</c></rc>
    <rc><c>Cl</c><c>   2</c></rc>
    <rc><c>Cl</c><c>   2</c></rc>
    <rc><c>Cl</c><c>   2</c></rc>
    <rc><c>Cl</c><c>   2</c></rc>
    <rc><c>Cl</c><c>   2</c></rc>
    <rc><c>Cl</c><c>   2</c></rc>
    <rc><c>Cl</c><c>   2</c></rc>
    <rc><c>Cl</c><c>   2</c></rc>
    <rc><c>Cl</c><c>   2</c></rc>
    <rc><c>Cl</c><c>   2</c></rc>
    <rc><c>Cl</c><c>   2</c></rc>
    <rc><c>Cl</c><c>   2</c></rc>
    <rc><c>Cl</c><c>   2</c></rc>
    <rc><c>Cl</c><c>   2</c></rc>
    <rc><c>Cl</c><c>   2</c></rc>
    <rc><c>Cl</c><c>   2</c></rc>
    <rc><c>Cl</c><c>   2</c></rc>
    <rc><c>Cl</c><c>   2</c></rc>
    <rc><c>Cl</c><c>   2</c></rc>
    <rc><c>Cl</c><c>   2</c></rc>
    <rc><c>Cl</c><c>   2</c></rc>
    <rc><c>Cl</c><c>   2</c></rc>
    <rc><c>Cl</c><c>   2</c></rc>
    <rc><c>Cl</c><c>   2</c></rc>
    <rc><c>Cl</c><c>   2</c></rc>
    <rc><c>Cl</c><c>   2</c></rc>
    <rc><c>Cl</c><c>   2</c></rc>
    <rc><c>Cl</c><c>   2</c></rc>
    <rc><c>Cl</c><c>   2</c></rc>
    <rc><c>Cl</c><c>   2</c></rc>
    <rc><c>Cl</c><c>   2</c></rc>
    <rc><c>C </c><c>   3</c></rc>
    <rc><c>C </c><c>   3</c></rc>
    <rc><c>C </c><c>   3</c></rc>
    <rc><c>C </c><c>   3</c></rc>
    <rc><c>C </c><c>   3</c></rc>
    <rc><c>C </c><c>   3</c></rc>
    <rc><c>C </c><c>   3</c></rc>
    <rc><c>C </c><c>   3</c></rc>
    <rc><c>C </c><c>   3</c></rc>
    <rc><c>C </c><c>   3</c></rc>
    <rc><c>C </c><c>   3</c></rc>
    <rc><c>C </c><c>   3</c></rc>
    <rc><c>C </c><c>   3</c></rc>
    <rc><c>C </c><c>   3</c></rc>
    <rc><c>C </c><c>   3</c></rc>
    <rc><c>C </c><c>   3</c></rc>
   </set>
  </array>
  <array name="atomtypes" >
   <dimension dim="1">type</dimension>
   <field type="int">atomspertype</field>
   <field type="string">element</field>
   <field>mass</field>
   <field>valence</field>
   <field type="string">pseudopotential</field>
   <set>
    <rc><c>  32</c><c>Sc</c><c>     44.95600000</c><c>     11.00000000</c><c>  PAW_PBE Sc_sv 07Sep2000               </c></rc>
    <rc><c>  32</c><c>Cl</c><c>     35.45300000</c><c>      7.00000000</c><c>  PAW_PBE Cl 06Sep2000                  </c></rc>
    <rc><c>  16</c><c>C </c><c>     12.01100000</c><c>      4.00000000</c><c>  PAW_PBE C 08Apr2002                   </c></rc>
   </set>
  </array>
 </atominfo>
 <structure name="initialpos" >
  <crystal>
   <varray name="basis" >
    <v>      13.79398668       0.00000000       0.00000000 </v>
    <v>      -6.89699334      11.94594288       0.00000000 </v>
    <v>       0.00000000       0.00000000      27.81022107 </v>
   </varray>
   <i name="volume">   4582.62876984 </i>
   <varray name="rec_basis" >
    <v>       0.07249536       0.04185521       0.00000000 </v>
    <v>       0.00000000       0.08371043       0.00000000 </v>
    <v>       0.00000000       0.00000000       0.03595800 </v>
   </varray>
  </crystal>
  <varray name="positions" >
   <v>       0.08257881       0.16582225       0.54949721 </v>
   <v>       0.09841001       0.42824082       0.54945637 </v>
   <v>       0.08435315       0.66793042       0.54059620 </v>
   <v>       0.07742731       0.91060353       0.54488161 </v>
   <v>       0.33441759       0.16418506       0.54355548 </v>
   <v>       0.34007892       0.41942443       0.53825413 </v>
   <v>       0.32971073       0.66035191       0.54047505 </v>
   <v>       0.33669871       0.91949929       0.54217448 </v>
   <v>       0.57765295       0.17001732       0.54516935 </v>
   <v>       0.57794449       0.41303058       0.54253636 </v>
   <v>       0.58465440       0.65976268       0.54317486 </v>
   <v>       0.57323834       0.91298352       0.54343643 </v>
   <v>       0.83404184       0.17082400       0.55208445 </v>
   <v>       0.83525809       0.42145971       0.54422933 </v>
   <v>       0.83117592       0.67272353       0.54177309 </v>
   <v>       0.84042316       0.91505990       0.54631060 </v>
   <v>       0.16228260       0.08554285       0.45911705 </v>
   <v>       0.16188721       0.32905396       0.45566546 </v>
   <v>       0.15812175       0.57499891       0.45181046 </v>
   <v>       0.17245071       0.83871111       0.45914206 </v>
   <v>       0.40598609       0.07096646       0.45391304 </v>
   <v>       0.42966100       0.33700076       0.45022111 </v>
   <v>       0.42171147       0.58394052       0.45142278 </v>
   <v>       0.42040121       0.81945402       0.45341251 </v>
   <v>       0.66640390       0.07771857       0.46266599 </v>
   <v>       0.66943870       0.32092040       0.45147470 </v>
   <v>       0.66623525       0.57119626       0.45581674 </v>
   <v>       0.66433365       0.82442395       0.44995880 </v>
   <v>       0.90642046       0.08639428       0.46294031 </v>
   <v>       0.91960424       0.33604275       0.46031060 </v>
   <v>       0.91744237       0.57445800       0.45528587 </v>
   <v>       0.91802472       0.83285253       0.45519205 </v>
   <v>       0.07195553       0.15714048       0.39985903 </v>
   <v>       0.07948388       0.42120235       0.39841012 </v>
   <v>       0.09094914       0.67645564       0.39970669 </v>
   <v>       0.07780528       0.91431214       0.39955542 </v>
   <v>       0.33085639       0.15070851       0.39060132 </v>
   <v>       0.33467067       0.41335988       0.39733956 </v>
   <v>       0.32294265       0.66113020       0.39541346 </v>
   <v>       0.33630983       0.91219651       0.39729107 </v>
   <v>       0.58649670       0.17001566       0.39704942 </v>
   <v>       0.58305806       0.43049343       0.38808444 </v>
   <v>       0.58265448       0.66436371       0.38939608 </v>
   <v>       0.58105312       0.92936487       0.38524706 </v>
   <v>       0.83919666       0.17513010       0.39760728 </v>
   <v>       0.83197910       0.41457013       0.39411642 </v>
   <v>       0.83892250       0.66820158       0.39842478 </v>
   <v>       0.83065052       0.92043749       0.39528036 </v>
   <v>       0.17100369       0.08920892       0.60447584 </v>
   <v>       0.17486769       0.33444395       0.60956033 </v>
   <v>       0.16955651       0.58678793       0.60684708 </v>
   <v>       0.17757379       0.82239445       0.60294063 </v>
   <v>       0.42149958       0.08528294       0.60421877 </v>
   <v>       0.41805879       0.32418482       0.60982599 </v>
   <v>       0.41964379       0.59265423       0.60031948 </v>
   <v>       0.41030469       0.84238860       0.60448996 </v>
   <v>       0.65521160       0.07875421       0.60347250 </v>
   <v>       0.66606075       0.34102263       0.60704878 </v>
   <v>       0.64845792       0.59569512       0.60589194 </v>
   <v>       0.67282042       0.84579907       0.60173720 </v>
   <v>       0.92707032       0.08866972       0.61001074 </v>
   <v>       0.90898197       0.34067634       0.60753687 </v>
   <v>       0.91662623       0.58721189       0.60286019 </v>
   <v>       0.92254032       0.83128601       0.60340785 </v>
   <v>       0.00081750       0.00003831       0.49933431 </v>
   <v>       0.01373282       0.26401930       0.50456809 </v>
   <v>       0.99716796       0.50232510       0.49782606 </v>
   <v>       0.01109423       0.75493378       0.50242514 </v>
   <v>       0.25962925       0.01457009       0.50141974 </v>
   <v>       0.25093684       0.25428936       0.49603316 </v>
   <v>       0.24605633       0.49834945       0.50248933 </v>
   <v>       0.25329624       0.74398479       0.50010467 </v>
   <v>       0.48733369       0.99282172       0.49655423 </v>
   <v>       0.49728748       0.25231931       0.49876062 </v>
   <v>       0.49635461       0.50233121       0.49488266 </v>
   <v>       0.50464575       0.74893761       0.49471700 </v>
   <v>       0.75562817       0.01269558       0.50331987 </v>
   <v>       0.73950996       0.24992217       0.50104890 </v>
   <v>       0.75092812       0.51250574       0.50005331 </v>
   <v>       0.74348431       0.74357117       0.49791432 </v>
  </varray>
  <varray name="velocities" >
   <v>       0.00000000       0.00000000       0.00000000 </v>
   <v>       0.00000000       0.00000000       0.00000000 </v>
   <v>       0.00000000       0.00000000       0.00000000 </v>
   <v>       0.00000000       0.00000000       0.00000000 </v>
   <v>       0.00000000       0.00000000       0.00000000 </v>
   <v>       0.00000000       0.00000000       0.00000000 </v>
   <v>       0.00000000       0.00000000       0.00000000 </v>
   <v>       0.00000000       0.00000000       0.00000000 </v>
   <v>       0.00000000       0.00000000       0.00000000 </v>
   <v>       0.00000000       0.00000000       0.00000000 </v>
   <v>       0.00000000       0.00000000       0.00000000 </v>
   <v>       0.00000000       0.00000000       0.00000000 </v>
   <v>       0.00000000       0.00000000       0.00000000 </v>
   <v>       0.00000000       0.00000000       0.00000000 </v>
   <v>       0.00000000       0.00000000       0.00000000 </v>
   <v>       0.00000000       0.00000000       0.00000000 </v>
   <v>       0.00000000       0.00000000       0.00000000 </v>
   <v>       0.00000000       0.00000000       0.00000000 </v>
   <v>       0.00000000       0.00000000       0.00000000 </v>
   <v>       0.00000000       0.00000000       0.00000000 </v>
   <v>       0.00000000       0.00000000       0.00000000 </v>
   <v>       0.00000000       0.00000000       0.00000000 </v>
   <v>       0.00000000       0.00000000       0.00000000 </v>
   <v>       0.00000000       0.00000000       0.00000000 </v>
   <v>       0.00000000       0.00000000       0.00000000 </v>
   <v>       0.00000000       0.00000000       0.00000000 </v>
   <v>       0.00000000       0.00000000       0.00000000 </v>
   <v>       0.00000000       0.00000000       0.00000000 </v>
   <v>       0.00000000       0.00000000       0.00000000 </v>
   <v>       0.00000000       0.00000000       0.00000000 </v>
   <v>       0.00000000       0.00000000       0.00000000 </v>
   <v>       0.00000000       0.00000000       0.00000000 </v>
   <v>       0.00000000       0.00000000       0.00000000 </v>
   <v>       0.00000000       0.00000000       0.00000000 </v>
   <v>       0.00000000       0.00000000       0.00000000 </v>
   <v>       0.00000000       0.00000000       0.00000000 </v>
   <v>       0.00000000       0.00000000       0.00000000 </v>
   <v>       0.00000000       0.00000000       0.00000000 </v>
   <v>       0.00000000       0.00000000       0.00000000 </v>
   <v>       0.00000000       0.00000000       0.00000000 </v>
   <v>       0.00000000       0.00000000       0.00000000 </v>
   <v>       0.00000000       0.00000000       0.00000000 </v>
   <v>       0.00000000       0.00000000       0.00000000 </v>
   <v>       0.00000000       0.00000000       0.00000000 </v>
   <v>       0.00000000       0.00000000       0.00000000 </v>
   <v>       0.00000000       0.00000000       0.00000000 </v>
   <v>       0.00000000       0.00000000       0.00000000 </v>
   <v>       0.00000000       0.00000000       0.00000000 </v>
   <v>       0.00000000       0.00000000       0.00000000 </v>
   <v>       0.00000000       0.00000000       0.00000000 </v>
   <v>       0.00000000       0.00000000       0.00000000 </v>
   <v>       0.00000000       0.00000000       0.00000000 </v>
   <v>       0.00000000       0.00000000       0.00000000 </v>
   <v>       0.00000000       0.00000000       0.00000000 </v>
   <v>       0.00000000       0.00000000       0.00000000 </v>
   <v>       0.00000000       0.00000000       0.00000000 </v>
   <v>       0.00000000       0.00000000       0.00000000 </v>
   <v>       0.00000000       0.00000000       0.00000000 </v>
   <v>       0.00000000       0.00000000       0.00000000 </v>
   <v>       0.00000000       0.00000000       0.00000000 </v>
   <v>       0.00000000       0.00000000       0.00000000 </v>
   <v>       0.00000000       0.00000000       0.00000000 </v>
   <v>       0.00000000       0.00000000       0.00000000 </v>
   <v>       0.00000000       0.00000000       0.00000000 </v>
   <v>       0.00000000       0.00000000       0.00000000 </v>
   <v>       0.00000000       0.00000000       0.00000000 </v>
   <v>       0.00000000       0.00000000       0.00000000 </v>
   <v>       0.00000000       0.00000000       0.00000000 </v>
   <v>       0.00000000       0.00000000       0.00000000 </v>
   <v>       0.00000000       0.00000000       0.00000000 </v>
   <v>       0.00000000       0.00000000       0.00000000 </v>
   <v>       0.00000000       0.00000000       0.00000000 </v>
   <v>       0.00000000       0.00000000       0.00000000 </v>
   <v>       0.00000000       0.00000000       0.00000000 </v>
   <v>       0.00000000       0.00000000       0.00000000 </v>
   <v>       0.00000000       0.00000000       0.00000000 </v>
   <v>       0.00000000       0.00000000       0.00000000 </v>
   <v>       0.00000000       0.00000000       0.00000000 </v>
   <v>       0.00000000       0.00000000       0.00000000 </v>
   <v>       0.00000000       0.00000000       0.00000000 </v>
  </varray>
 </structure>
 <calculation>
  <scstep>
   <time name="dav">   50.27   50.27</time>
   <time name="total">   51.11   51.11</time>
   <energy>
    <i name="alphaZ">    784.57699423 </i>
    <i name="ewald"> 252921.90995990 </i>
    <i name="hartreedc">-300566.19394093 </i>
    <i name="XCdc">   2503.53712654 </i>
    <i name="pawpsdc">  43679.68029659 </i>
    <i name="pawaedc"> -43417.33247688 </i>
    <i name="eentropy">     -0.05511083 </i>
    <i name="bandstr">     78.25685633 </i>
    <i name="atom">  56210.72393729 </i>
    <i name="e_fr_energy">  12195.10364222 </i>
    <i name="e_wo_entrp">  12195.15875305 </i>
    <i name="e_0_energy">  12195.13119764 </i>
   </energy>
  </scstep>
  <scstep>
   <time name="dav">   57.08   57.09</time>
   <time name="total">   57.08   57.09</time>
   <energy>
    <i name="e_fr_energy">   1725.87377728 </i>
    <i name="e_wo_entrp">   1725.91709500 </i>
    <i name="e_0_energy">   1725.89543614 </i>
   </energy>
  </scstep>
  <scstep>
   <time name="dav">   71.12   71.13</time>
   <time name="total">   71.12   71.13</time>
   <energy>
    <i name="e_fr_energy">   -410.35419209 </i>
    <i name="e_wo_entrp">   -410.35419209 </i>
    <i name="e_0_energy">   -410.35419209 </i>
   </energy>
  </scstep>
  <scstep>
   <time name="dav">   64.87   64.88</time>
   <time name="total">   64.87   64.88</time>
   <energy>
    <i name="e_fr_energy">   -643.50717820 </i>
    <i name="e_wo_entrp">   -643.50717820 </i>
    <i name="e_0_energy">   -643.50717820 </i>
   </energy>
  </scstep>
  <scstep>
   <time name="dav">   64.79   64.80</time>
   <time name="total">   68.71   68.71</time>
   <energy>
    <i name="e_fr_energy">   -653.72380643 </i>
    <i name="e_wo_entrp">   -653.72380643 </i>
    <i name="e_0_energy">   -653.72380643 </i>
   </energy>
  </scstep>
  <scstep>
   <time name="dav">   62.91   62.91</time>
   <time name="total">   67.62   67.62</time>
   <energy>
    <i name="e_fr_energy">   -523.07248837 </i>
    <i name="e_wo_entrp">   -523.07248837 </i>
    <i name="e_0_energy">   -523.07248837 </i>
   </energy>
  </scstep>
  <scstep>
   <time name="dav">   63.60   63.60</time>
   <time name="total">   68.30   68.31</time>
   <energy>
    <i name="e_fr_energy">   -527.91478415 </i>
    <i name="e_wo_entrp">   -527.91478415 </i>
    <i name="e_0_energy">   -527.91478415 </i>
   </energy>
  </scstep>
  <scstep>
   <time name="dav">   63.04   63.04</time>
   <time name="total">   67.75   67.76</time>
   <energy>
    <i name="e_fr_energy">   -525.68342960 </i>
    <i name="e_wo_entrp">   -525.68342960 </i>
    <i name="e_0_energy">   -525.68342960 </i>
   </energy>
  </scstep>
  <scstep>
   <time name="dav">   58.43   58.43</time>
   <time name="total">   63.15   63.15</time>
   <energy>
    <i name="e_fr_energy">   -525.17427196 </i>
    <i name="e_wo_entrp">   -525.17427196 </i>
    <i name="e_0_energy">   -525.17427196 </i>
   </energy>
  </scstep>
  <scstep>
   <time name="dav">   60.87   60.87</time>
   <time name="total">   65.59   65.59</time>
   <energy>
    <i name="e_fr_energy">   -525.04795860 </i>
    <i name="e_wo_entrp">   -525.04795860 </i>
    <i name="e_0_energy">   -525.04795860 </i>
   </energy>
  </scstep>
  <scstep>
   <time name="dav">   60.93   60.93</time>
   <time name="total">   65.64   65.64</time>
   <energy>
    <i name="e_fr_energy">   -525.02822345 </i>
    <i name="e_wo_entrp">   -525.02822345 </i>
    <i name="e_0_energy">   -525.02822345 </i>
   </energy>
  </scstep>
  <scstep>
   <time name="dav">   64.92   64.94</time>
   <time name="total">   69.63   69.65</time>
   <energy>
    <i name="e_fr_energy">   -525.01415290 </i>
    <i name="e_wo_entrp">   -525.01415290 </i>
    <i name="e_0_energy">   -525.01415290 </i>
   </energy>
  </scstep>
  <scstep>
   <time name="dav">   58.76   58.77</time>
   <time name="total">   63.47   63.49</time>
   <energy>
    <i name="e_fr_energy">   -525.01156937 </i>
    <i name="e_wo_entrp">   -525.01156937 </i>
    <i name="e_0_energy">   -525.01156937 </i>
   </energy>
  </scstep>
  <scstep>
   <time name="dav">   58.50   58.51</time>
   <time name="total">   63.22   63.24</time>
   <energy>
    <i name="e_fr_energy">   -525.01017262 </i>
    <i name="e_wo_entrp">   -525.01017262 </i>
    <i name="e_0_energy">   -525.01017262 </i>
   </energy>
  </scstep>
  <scstep>
   <time name="dav">   59.20   59.21</time>
   <time name="total">   63.92   63.94</time>
   <energy>
    <i name="e_fr_energy">   -525.01179024 </i>
    <i name="e_wo_entrp">   -525.01179024 </i>
    <i name="e_0_energy">   -525.01179024 </i>
   </energy>
  </scstep>
  <scstep>
   <time name="dav">   63.76   63.77</time>
   <time name="total">   68.48   68.50</time>
   <energy>
    <i name="e_fr_energy">   -525.01374472 </i>
    <i name="e_wo_entrp">   -525.01374472 </i>
    <i name="e_0_energy">   -525.01374472 </i>
   </energy>
  </scstep>
  <scstep>
   <time name="dav">   56.61   56.62</time>
   <time name="total">   61.35   61.37</time>
   <energy>
    <i name="e_fr_energy">   -525.01724156 </i>
    <i name="e_wo_entrp">   -525.01724156 </i>
    <i name="e_0_energy">   -525.01724156 </i>
   </energy>
  </scstep>
  <scstep>
   <time name="dav">   53.79   53.80</time>
   <time name="total">   58.52   58.54</time>
   <energy>
    <i name="e_fr_energy">   -525.01944323 </i>
    <i name="e_wo_entrp">   -525.01944323 </i>
    <i name="e_0_energy">   -525.01944323 </i>
   </energy>
  </scstep>
  <scstep>
   <time name="dav">   54.65   54.65</time>
   <time name="total">   59.37   59.38</time>
   <energy>
    <i name="e_fr_energy">   -525.02050763 </i>
    <i name="e_wo_entrp">   -525.02050763 </i>
    <i name="e_0_energy">   -525.02050763 </i>
   </energy>
  </scstep>
  <scstep>
   <time name="dav">   50.94   50.93</time>
   <time name="total">   55.66   55.67</time>
   <energy>
    <i name="e_fr_energy">   -525.02175301 </i>
    <i name="e_wo_entrp">   -525.02175301 </i>
    <i name="e_0_energy">   -525.02175301 </i>
   </energy>
  </scstep>
  <scstep>
   <time name="dav">   48.36   48.36</time>
   <time name="total">   53.09   53.09</time>
   <energy>
    <i name="e_fr_energy">   -525.02228221 </i>
    <i name="e_wo_entrp">   -525.02228221 </i>
    <i name="e_0_energy">   -525.02228221 </i>
   </energy>
  </scstep>
  <scstep>
   <time name="dav">   46.08   46.08</time>
   <time name="total">   50.80   50.81</time>
   <energy>
    <i name="e_fr_energy">   -525.02263670 </i>
    <i name="e_wo_entrp">   -525.02263670 </i>
    <i name="e_0_energy">   -525.02263670 </i>
   </energy>
  </scstep>
  <scstep>
   <time name="dav">   42.27   42.27</time>
   <time name="total">   47.00   47.00</time>
   <energy>
    <i name="e_fr_energy">   -525.02318538 </i>
    <i name="e_wo_entrp">   -525.02318538 </i>
    <i name="e_0_energy">   -525.02318538 </i>
   </energy>
  </scstep>
  <scstep>
   <time name="dav">   44.44   44.44</time>
   <time name="total">   49.17   49.18</time>
   <energy>
    <i name="e_fr_energy">   -525.02339596 </i>
    <i name="e_wo_entrp">   -525.02339596 </i>
    <i name="e_0_energy">   -525.02339596 </i>
   </energy>
  </scstep>
  <scstep>
   <time name="dav">   37.77   37.77</time>
   <time name="total">   42.49   42.50</time>
   <energy>
    <i name="e_fr_energy">   -525.02346611 </i>
    <i name="e_wo_entrp">   -525.02346611 </i>
    <i name="e_0_energy">   -525.02346611 </i>
   </energy>
  </scstep>
  <scstep>
   <time name="dav">   41.61   41.61</time>
   <time name="total">   46.34   46.35</time>
   <energy>
    <i name="e_fr_energy">   -525.02356306 </i>
    <i name="e_wo_entrp">   -525.02356306 </i>
    <i name="e_0_energy">   -525.02356306 </i>
   </energy>
  </scstep>
  <scstep>
   <time name="dav">   35.12   35.12</time>
   <time name="total">   39.84   39.85</time>
   <energy>
    <i name="e_fr_energy">   -525.02357832 </i>
    <i name="e_wo_entrp">   -525.02357832 </i>
    <i name="e_0_energy">   -525.02357832 </i>
   </energy>
  </scstep>
  <scstep>
   <time name="dav">   34.93   34.93</time>
   <time name="total">   39.66   39.67</time>
   <energy>
    <i name="e_fr_energy">   -525.02358927 </i>
    <i name="e_wo_entrp">   -525.02358927 </i>
    <i name="e_0_energy">   -525.02358927 </i>
   </energy>
  </scstep>
  <scstep>
   <time name="dav">   34.08   34.08</time>
   <time name="total">   38.80   38.81</time>
   <energy>
    <i name="e_fr_energy">   -525.02359717 </i>
    <i name="e_wo_entrp">   -525.02359717 </i>
    <i name="e_0_energy">   -525.02359717 </i>
   </energy>
  </scstep>
  <scstep>
   <time name="dav">   35.41   35.41</time>
   <time name="total">   40.13   40.14</time>
   <energy>
    <i name="e_fr_energy">   -525.02360827 </i>
    <i name="e_wo_entrp">   -525.02360827 </i>
    <i name="e_0_energy">   -525.02360827 </i>
   </energy>
  </scstep>
  <scstep>
   <time name="dav">   35.24   35.24</time>
   <time name="total">   39.99   39.99</time>
   <energy>
    <i name="e_fr_energy">   -525.02361531 </i>
    <i name="e_wo_entrp">   -525.02361531 </i>
    <i name="e_0_energy">   -525.02361531 </i>
   </energy>
  </scstep>
  <scstep>
   <time name="dav">   33.32   33.32</time>
   <time name="total">   38.07   38.08</time>
   <energy>
    <i name="e_fr_energy">   -525.02361770 </i>
    <i name="e_wo_entrp">   -525.02361770 </i>
    <i name="e_0_energy">   -525.02361770 </i>
   </energy>
  </scstep>
  <scstep>
   <time name="dav">   32.75   32.75</time>
   <time name="total">   33.56   33.57</time>
   <energy>
    <i name="alphaZ">    784.57699423 </i>
    <i name="ewald"> 252921.90995990 </i>
    <i name="hartreedc">-300899.27107231 </i>
    <i name="XCdc">   2491.11056951 </i>
    <i name="pawpsdc">  59875.51744666 </i>
    <i name="pawaedc"> -59708.06372617 </i>
    <i name="eentropy">     -0.00000000 </i>
    <i name="bandstr"> -12201.52772764 </i>
    <i name="atom">  56210.72393729 </i>
    <i name="e_fr_energy">   -525.02361854 </i>
    <i name="e_wo_entrp">   -525.02361854 </i>
    <i name="e_0_energy">   -525.02361854 </i>
   </energy>
  </scstep>
  <structure>
   <crystal>
    <varray name="basis" >
     <v>      13.79398668       0.00000000       0.00000000 </v>
     <v>      -6.89699334      11.94594288       0.00000000 </v>
     <v>       0.00000000       0.00000000      27.81022107 </v>
    </varray>
    <i name="volume">   4582.62876984 </i>
    <varray name="rec_basis" >
     <v>       0.07249536       0.04185521       0.00000000 </v>
     <v>       0.00000000       0.08371043       0.00000000 </v>
     <v>       0.00000000       0.00000000       0.03595800 </v>
    </varray>
   </crystal>
   <varray name="positions" >
    <v>       0.08257881       0.16582225       0.54949721 </v>
    <v>       0.09841001       0.42824082       0.54945637 </v>
    <v>       0.08435315       0.66793042       0.54059620 </v>
    <v>       0.07742731       0.91060353       0.54488161 </v>
    <v>       0.33441759       0.16418506       0.54355548 </v>
    <v>       0.34007892       0.41942443       0.53825413 </v>
    <v>       0.32971073       0.66035191       0.54047505 </v>
    <v>       0.33669871       0.91949929       0.54217448 </v>
    <v>       0.57765295       0.17001732       0.54516935 </v>
    <v>       0.57794449       0.41303058       0.54253636 </v>
    <v>       0.58465440       0.65976268       0.54317486 </v>
    <v>       0.57323834       0.91298352       0.54343643 </v>
    <v>       0.83404184       0.17082400       0.55208445 </v>
    <v>       0.83525809       0.42145971       0.54422933 </v>
    <v>       0.83117592       0.67272353       0.54177309 </v>
    <v>       0.84042316       0.91505990       0.54631060 </v>
    <v>       0.16228260       0.08554285       0.45911705 </v>
    <v>       0.16188721       0.32905396       0.45566546 </v>
    <v>       0.15812175       0.57499891       0.45181046 </v>
    <v>       0.17245071       0.83871111       0.45914206 </v>
    <v>       0.40598609       0.07096646       0.45391304 </v>
    <v>       0.42966100       0.33700076       0.45022111 </v>
    <v>       0.42171147       0.58394052       0.45142278 </v>
    <v>       0.42040121       0.81945402       0.45341251 </v>
    <v>       0.66640390       0.07771857       0.46266599 </v>
    <v>       0.66943870       0.32092040       0.45147470 </v>
    <v>       0.66623525       0.57119626       0.45581674 </v>
    <v>       0.66433365       0.82442395       0.44995880 </v>
    <v>       0.90642046       0.08639428       0.46294031 </v>
    <v>       0.91960424       0.33604275       0.46031060 </v>
    <v>       0.91744237       0.57445800       0.45528587 </v>
    <v>       0.91802472       0.83285253       0.45519205 </v>
    <v>       0.07195553       0.15714048       0.39985903 </v>
    <v>       0.07948388       0.42120235       0.39841012 </v>
    <v>       0.09094914       0.67645564       0.39970669 </v>
    <v>       0.07780528       0.91431214       0.39955542 </v>
    <v>       0.33085639       0.15070851       0.39060132 </v>
    <v>       0.33467067       0.41335988       0.39733956 </v>
    <v>       0.32294265       0.66113020       0.39541346 </v>
    <v>       0.33630983       0.91219651       0.39729107 </v>
    <v>       0.58649670       0.17001566       0.39704942 </v>
    <v>       0.58305806       0.43049343       0.38808444 </v>
    <v>       0.58265448       0.66436371       0.38939608 </v>
    <v>       0.58105312       0.92936487       0.38524706 </v>
    <v>       0.83919666       0.17513010       0.39760728 </v>
    <v>       0.83197910       0.41457013       0.39411642 </v>
    <v>       0.83892250       0.66820158       0.39842478 </v>
    <v>       0.83065052       0.92043749       0.39528036 </v>
    <v>       0.17100369       0.08920892       0.60447584 </v>
    <v>       0.17486769       0.33444395       0.60956033 </v>
    <v>       0.16955651       0.58678793       0.60684708 </v>
    <v>       0.17757379       0.82239445       0.60294063 </v>
    <v>       0.42149958       0.08528294       0.60421877 </v>
    <v>       0.41805879       0.32418482       0.60982599 </v>
    <v>       0.41964379       0.59265423       0.60031948 </v>
    <v>       0.41030469       0.84238860       0.60448996 </v>
    <v>       0.65521160       0.07875421       0.60347250 </v>
    <v>       0.66606075       0.34102263       0.60704878 </v>
    <v>       0.64845792       0.59569512       0.60589194 </v>
    <v>       0.67282042       0.84579907       0.60173720 </v>
    <v>       0.92707032       0.08866972       0.61001074 </v>
    <v>       0.90898197       0.34067634       0.60753687 </v>
    <v>       0.91662623       0.58721189       0.60286019 </v>
    <v>       0.92254032       0.83128601       0.60340785 </v>
    <v>       0.00081750       0.00003831       0.49933431 </v>
    <v>       0.01373282       0.26401930       0.50456809 </v>
    <v>       0.99716796       0.50232510       0.49782606 </v>
    <v>       0.01109423       0.75493378       0.50242514 </v>
    <v>       0.25962925       0.01457009       0.50141974 </v>
    <v>       0.25093684       0.25428936       0.49603316 </v>
    <v>       0.24605633       0.49834945       0.50248933 </v>
    <v>       0.25329624       0.74398479       0.50010467 </v>
    <v>       0.48733369       0.99282172       0.49655423 </v>
    <v>       0.49728748       0.25231931       0.49876062 </v>
    <v>       0.49635461       0.50233121       0.49488266 </v>
    <v>       0.50464575       0.74893761       0.49471700 </v>
    <v>       0.75562817       0.01269558       0.50331987 </v>
    <v>       0.73950996       0.24992217       0.50104890 </v>
    <v>       0.75092812       0.51250574       0.50005331 </v>
    <v>       0.74348431       0.74357117       0.49791432 </v>
   </varray>
  </structure>
  <varray name="forces" >
   <v>       0.31272006       1.01018179      -0.84626168 </v>
   <v>      -0.23258803      -1.22224198      -0.39136722 </v>
   <v>       0.52467800      -0.02698046       1.04513883 </v>
   <v>       1.04813724       0.78096717       0.15366393 </v>
   <v>      -0.35274545       1.06538874       0.17355709 </v>
   <v>      -0.61893127      -0.66954923       1.12073806 </v>
   <v>      -0.10008724       0.51000847       0.56920623 </v>
   <v>      -0.09014842      -0.52678734       0.40944808 </v>
   <v>       0.21790850       0.12028264      -0.37677100 </v>
   <v>       0.35684821      -0.15568056       0.48620653 </v>
   <v>      -1.15425205       1.16317947      -1.28738376 </v>
   <v>       0.45060176      -0.25037611       0.14321092 </v>
   <v>      -0.02452182      -0.13998297      -0.37304677 </v>
   <v>      -0.65310987      -0.06887359       0.33617995 </v>
   <v>       0.57721505      -1.09936389       0.45663609 </v>
   <v>      -1.01523972       0.16380906      -0.58892023 </v>
   <v>       0.56035136       0.34763880      -0.88494334 </v>
   <v>       0.47064051      -0.02358619       0.47065192 </v>
   <v>       0.59093865       1.24060954       1.79303477 </v>
   <v>      -0.05823432      -0.43352426      -0.70836380 </v>
   <v>       0.42956004       1.28726736      -0.20539365 </v>
   <v>      -1.03461850      -1.13041471       0.27626846 </v>
   <v>      -0.12571516      -0.14051170       0.03397123 </v>
   <v>      -1.19032718       1.36515676      -0.30591919 </v>
   <v>      -0.60587793       0.52409571      -1.83583945 </v>
   <v>      -1.01940400       0.82992279       0.98429462 </v>
   <v>      -0.43966325       1.39038191      -1.01569625 </v>
   <v>      -0.10416290       0.20651462       0.51358257 </v>
   <v>       1.27896694       0.30022923      -1.19243882 </v>
   <v>       0.13194894      -0.59064831      -0.11520043 </v>
   <v>      -0.85559910       0.91403792      -0.21702601 </v>
   <v>      -0.39295315       0.21749877       0.01712766 </v>
   <v>       0.03150210       0.39532896      -0.27433539 </v>
   <v>       0.15532492      -0.94849330      -1.02355552 </v>
   <v>      -0.39502402      -0.19185369      -0.65652221 </v>
   <v>       0.45896059       0.19128185      -0.39466476 </v>
   <v>      -0.36879639       0.56474170       0.40270110 </v>
   <v>      -0.52783623       0.02645163      -0.69704871 </v>
   <v>       0.48608016      -0.14554949      -0.61718381 </v>
   <v>      -0.35433241      -0.26891595      -0.38601657 </v>
   <v>      -0.02000663      -0.66103349      -0.52127846 </v>
   <v>       0.52976067      -0.60033907       0.24805841 </v>
   <v>      -0.09552449       0.25534553       0.32820927 </v>
   <v>       0.45963166      -0.41156812       1.25237061 </v>
   <v>      -0.14094223      -0.24157290       0.45362353 </v>
   <v>       0.18164517       0.17013089       0.04255115 </v>
   <v>      -0.07998458      -0.14990736      -0.39645268 </v>
   <v>       0.20501186       0.02828548       0.24914558 </v>
   <v>       0.21180398      -0.55358818       0.18246112 </v>
   <v>      -0.12876721       0.20666616      -0.55675109 </v>
   <v>       0.02016482       0.04219908      -0.14018642 </v>
   <v>      -1.07018478       0.56128311       0.10854588 </v>
   <v>      -0.41236521      -0.14472159       0.12735163 </v>
   <v>      -0.22897046       0.60253962      -0.96493602 </v>
   <v>      -0.06436316      -0.32456926       0.23513906 </v>
   <v>       0.98349814      -0.44390543      -0.12757821 </v>
   <v>       0.27333375       0.30352510       0.22549605 </v>
   <v>       0.01240299      -0.03470318      -0.59694904 </v>
   <v>       1.71673091      -0.75898248       0.59709970 </v>
   <v>      -0.11655883      -0.30921069       0.06292712 </v>
   <v>      -0.48323117      -0.26482973      -0.16154198 </v>
   <v>       0.41719253      -0.07837543      -0.04370488 </v>
   <v>      -0.10610808       0.02654870      -0.06833736 </v>
   <v>      -0.40173068       0.06264199       0.63796201 </v>
   <v>      -0.53105541      -0.44300980       1.26752060 </v>
   <v>      -1.26749973      -1.14853718       0.19019528 </v>
   <v>       0.13313610      -0.40980390       0.51730227 </v>
   <v>      -1.07487380       0.11278984      -0.58452479 </v>
   <v>      -0.32651874      -1.87502474      -0.34344021 </v>
   <v>       0.14033241      -0.27049981       0.79651146 </v>
   <v>       0.40787920       0.16579305      -0.82430565 </v>
   <v>      -0.68372616       0.37735898      -0.50116122 </v>
   <v>       1.50059307       0.29187968       0.84270742 </v>
   <v>       0.64473248       0.34144439       0.05043829 </v>
   <v>       0.92044317      -0.43544834       0.62105115 </v>
   <v>      -0.09467275       0.06387554       0.32344329 </v>
   <v>      -0.24636605      -0.70738725       0.53747801 </v>
   <v>       1.05254212       0.26135105       0.36778527 </v>
   <v>       0.90585377      -1.15733041       0.37829485 </v>
   <v>       0.48854676       0.96904896       0.19575957 </v>
  </varray>
  <varray name="stress" >
   <v>       3.84440425       0.15553079       0.74096157 </v>
   <v>       0.15553077       4.48891102      -1.61256774 </v>
   <v>       0.74096157      -1.61256771       1.64224763 </v>
  </varray>
  <energy>
   <i name="e_fr_energy">   -525.02361854 </i>
   <i name="e_wo_entrp">   -525.02361854 </i>
   <i name="e_0_energy">     -0.00000000 </i>
  </energy>
  <time name="totalsc"> 1901.09 1901.42</time>
  <eigenvalues>
   <array>
    <dimension dim="1">band</dimension>
    <dimension dim="2">kpoint</dimension>
    <dimension dim="3">spin</dimension>
    <field>eigene</field>
    <field>occ</field>
    <set>
     <set comment="spin 1">
      <set comment="kpoint 1">
       <r>  -51.9487    1.0000 </r>
       <r>  -51.8154    1.0000 </r>
       <r>  -51.7619    1.0000 </r>
       <r>  -51.6746    1.0000 </r>
       <r>  -51.6484    1.0000 </r>
       <r>  -51.6272    1.0000 </r>
       <r>  -51.6068    1.0000 </r>
       <r>  -51.5975    1.0000 </r>
       <r>  -51.5438    1.0000 </r>
       <r>  -51.5272    1.0000 </r>
       <r>  -51.5114    1.0000 </r>
       <r>  -51.5043    1.0000 </r>
       <r>  -51.4668    1.0000 </r>
       <r>  -51.4616    1.0000 </r>
       <r>  -51.4494    1.0000 </r>
       <r>  -51.4424    1.0000 </r>
       <r>  -51.4208    1.0000 </r>
       <r>  -51.4154    1.0000 </r>
       <r>  -51.3656    1.0000 </r>
       <r>  -51.3084    1.0000 </r>
       <r>  -51.2325    1.0000 </r>
       <r>  -51.2180    1.0000 </r>
       <r>  -51.2156    1.0000 </r>
       <r>  -51.2119    1.0000 </r>
       <r>  -51.1511    1.0000 </r>
       <r>  -51.1260    1.0000 </r>
       <r>  -51.0950    1.0000 </r>
       <r>  -51.0899    1.0000 </r>
       <r>  -51.0823    1.0000 </r>
       <r>  -51.0734    1.0000 </r>
       <r>  -51.0710    1.0000 </r>
       <r>  -51.0602    1.0000 </r>
       <r>  -30.6207    1.0000 </r>
       <r>  -30.5968    1.0000 </r>
       <r>  -30.5803    1.0000 </r>
       <r>  -30.5233    1.0000 </r>
       <r>  -30.4973    1.0000 </r>
       <r>  -30.4691    1.0000 </r>
       <r>  -30.4559    1.0000 </r>
       <r>  -30.4096    1.0000 </r>
       <r>  -30.3745    1.0000 </r>
       <r>  -30.3698    1.0000 </r>
       <r>  -30.3675    1.0000 </r>
       <r>  -30.3496    1.0000 </r>
       <r>  -30.3335    1.0000 </r>
       <r>  -30.3302    1.0000 </r>
       <r>  -30.3227    1.0000 </r>
       <r>  -30.3170    1.0000 </r>
       <r>  -30.3140    1.0000 </r>
       <r>  -30.3061    1.0000 </r>
       <r>  -30.3045    1.0000 </r>
       <r>  -30.2954    1.0000 </r>
       <r>  -30.2880    1.0000 </r>
       <r>  -30.2817    1.0000 </r>
       <r>  -30.2806    1.0000 </r>
       <r>  -30.2561    1.0000 </r>
       <r>  -30.2420    1.0000 </r>
       <r>  -30.2369    1.0000 </r>
       <r>  -30.2341    1.0000 </r>
       <r>  -30.2266    1.0000 </r>
       <r>  -30.2230    1.0000 </r>
       <r>  -30.2169    1.0000 </r>
       <r>  -30.2091    1.0000 </r>
       <r>  -30.2055    1.0000 </r>
       <r>  -30.1959    1.0000 </r>
       <r>  -30.1936    1.0000 </r>
       <r>  -30.1831    1.0000 </r>
       <r>  -30.1796    1.0000 </r>
       <r>  -30.1733    1.0000 </r>
       <r>  -30.1551    1.0000 </r>
       <r>  -30.1519    1.0000 </r>
       <r>  -30.1356    1.0000 </r>
       <r>  -30.1258    1.0000 </r>
       <r>  -30.1251    1.0000 </r>
       <r>  -30.1126    1.0000 </r>
       <r>  -30.1083    1.0000 </r>
       <r>  -30.1024    1.0000 </r>
       <r>  -30.0934    1.0000 </r>
       <r>  -30.0927    1.0000 </r>
       <r>  -30.0910    1.0000 </r>
       <r>  -30.0749    1.0000 </r>
       <r>  -30.0672    1.0000 </r>
       <r>  -30.0593    1.0000 </r>
       <r>  -30.0523    1.0000 </r>
       <r>  -30.0442    1.0000 </r>
       <r>  -30.0305    1.0000 </r>
       <r>  -30.0226    1.0000 </r>
       <r>  -30.0114    1.0000 </r>
       <r>  -30.0036    1.0000 </r>
       <r>  -29.9926    1.0000 </r>
       <r>  -29.9781    1.0000 </r>
       <r>  -29.9498    1.0000 </r>
       <r>  -29.9370    1.0000 </r>
       <r>  -29.9261    1.0000 </r>
       <r>  -29.9193    1.0000 </r>
       <r>  -29.9175    1.0000 </r>
       <r>  -29.9115    1.0000 </r>
       <r>  -29.9014    1.0000 </r>
       <r>  -29.8992    1.0000 </r>
       <r>  -29.8820    1.0000 </r>
       <r>  -29.8725    1.0000 </r>
       <r>  -29.8573    1.0000 </r>
       <r>  -29.8542    1.0000 </r>
       <r>  -29.8484    1.0000 </r>
       <r>  -29.8431    1.0000 </r>
       <r>  -29.8317    1.0000 </r>
       <r>  -29.8286    1.0000 </r>
       <r>  -29.8022    1.0000 </r>
       <r>  -29.7919    1.0000 </r>
       <r>  -29.7866    1.0000 </r>
       <r>  -29.7830    1.0000 </r>
       <r>  -29.7800    1.0000 </r>
       <r>  -29.7680    1.0000 </r>
       <r>  -29.7577    1.0000 </r>
       <r>  -29.7551    1.0000 </r>
       <r>  -29.7482    1.0000 </r>
       <r>  -29.7428    1.0000 </r>
       <r>  -29.7375    1.0000 </r>
       <r>  -29.7314    1.0000 </r>
       <r>  -29.7267    1.0000 </r>
       <r>  -29.7150    1.0000 </r>
       <r>  -29.7084    1.0000 </r>
       <r>  -29.7023    1.0000 </r>
       <r>  -29.6972    1.0000 </r>
       <r>  -29.6861    1.0000 </r>
       <r>  -29.6658    1.0000 </r>
       <r>  -29.6536    1.0000 </r>
       <r>  -29.6475    1.0000 </r>
       <r>  -18.6895    1.0000 </r>
       <r>  -18.6591    1.0000 </r>
       <r>  -18.4250    1.0000 </r>
       <r>  -18.4162    1.0000 </r>
       <r>  -18.3573    1.0000 </r>
       <r>  -18.2891    1.0000 </r>
       <r>  -18.2703    1.0000 </r>
       <r>  -18.2446    1.0000 </r>
       <r>  -18.2238    1.0000 </r>
       <r>  -18.1911    1.0000 </r>
       <r>  -18.1691    1.0000 </r>
       <r>  -18.1568    1.0000 </r>
       <r>  -18.1261    1.0000 </r>
       <r>  -18.0703    1.0000 </r>
       <r>  -18.0640    1.0000 </r>
       <r>  -18.0079    1.0000 </r>
       <r>  -17.9931    1.0000 </r>
       <r>  -17.9629    1.0000 </r>
       <r>  -17.9502    1.0000 </r>
       <r>  -17.9354    1.0000 </r>
       <r>  -17.9222    1.0000 </r>
       <r>  -17.8633    1.0000 </r>
       <r>  -17.8503    1.0000 </r>
       <r>  -17.7991    1.0000 </r>
       <r>  -17.7970    1.0000 </r>
       <r>  -17.7930    1.0000 </r>
       <r>  -17.7454    1.0000 </r>
       <r>  -17.6544    1.0000 </r>
       <r>  -17.6424    1.0000 </r>
       <r>  -17.4950    1.0000 </r>
       <r>  -17.4132    1.0000 </r>
       <r>  -17.2366    1.0000 </r>
       <r>  -11.8074    1.0000 </r>
       <r>  -11.4910    1.0000 </r>
       <r>  -11.4274    1.0000 </r>
       <r>  -11.4022    1.0000 </r>
       <r>  -11.3756    1.0000 </r>
       <r>  -11.3499    1.0000 </r>
       <r>  -11.3061    1.0000 </r>
       <r>  -11.0024    1.0000 </r>
       <r>  -10.9982    1.0000 </r>
       <r>  -10.9710    1.0000 </r>
       <r>  -10.9194    1.0000 </r>
       <r>  -10.9024    1.0000 </r>
       <r>  -10.8695    1.0000 </r>
       <r>  -10.8534    1.0000 </r>
       <r>  -10.7400    1.0000 </r>
       <r>  -10.6750    1.0000 </r>
       <r>   -8.0335    1.0000 </r>
       <r>   -8.0031    1.0000 </r>
       <r>   -7.9776    1.0000 </r>
       <r>   -7.8672    1.0000 </r>
       <r>   -7.8174    1.0000 </r>
       <r>   -7.7767    1.0000 </r>
       <r>   -7.5789    1.0000 </r>
       <r>   -7.5679    1.0000 </r>
       <r>   -7.5459    1.0000 </r>
       <r>   -7.4952    1.0000 </r>
       <r>   -7.4786    1.0000 </r>
       <r>   -7.4651    1.0000 </r>
       <r>   -7.4312    1.0000 </r>
       <r>   -7.3937    1.0000 </r>
       <r>   -7.3709    1.0000 </r>
       <r>   -7.3629    1.0000 </r>
       <r>   -7.3390    1.0000 </r>
       <r>   -7.3259    1.0000 </r>
       <r>   -7.3054    1.0000 </r>
       <r>   -7.2888    1.0000 </r>
       <r>   -7.1479    1.0000 </r>
       <r>   -7.0870    1.0000 </r>
       <r>   -7.0484    1.0000 </r>
       <r>   -7.0016    1.0000 </r>
       <r>   -6.9990    1.0000 </r>
       <r>   -6.9625    1.0000 </r>
       <r>   -6.9435    1.0000 </r>
       <r>   -6.9335    1.0000 </r>
       <r>   -6.8901    1.0000 </r>
       <r>   -6.8834    1.0000 </r>
       <r>   -6.8675    1.0000 </r>
       <r>   -6.8343    1.0000 </r>
       <r>   -6.8233    1.0000 </r>
       <r>   -6.7900    1.0000 </r>
       <r>   -6.7751    1.0000 </r>
       <r>   -6.7634    1.0000 </r>
       <r>   -6.7568    1.0000 </r>
       <r>   -6.7413    1.0000 </r>
       <r>   -6.7260    1.0000 </r>
       <r>   -6.7125    1.0000 </r>
       <r>   -6.6830    1.0000 </r>
       <r>   -6.6719    1.0000 </r>
       <r>   -6.6508    1.0000 </r>
       <r>   -6.6359    1.0000 </r>
       <r>   -6.6347    1.0000 </r>
       <r>   -6.6193    1.0000 </r>
       <r>   -6.5936    1.0000 </r>
       <r>   -6.5805    1.0000 </r>
       <r>   -6.5744    1.0000 </r>
       <r>   -6.5657    1.0000 </r>
       <r>   -6.5552    1.0000 </r>
       <r>   -6.5377    1.0000 </r>
       <r>   -6.5162    1.0000 </r>
       <r>   -6.5003    1.0000 </r>
       <r>   -6.4916    1.0000 </r>
       <r>   -6.4792    1.0000 </r>
       <r>   -6.4653    1.0000 </r>
       <r>   -6.4622    1.0000 </r>
       <r>   -6.4507    1.0000 </r>
       <r>   -6.4215    1.0000 </r>
       <r>   -6.4169    1.0000 </r>
       <r>   -6.4118    1.0000 </r>
       <r>   -6.4029    1.0000 </r>
       <r>   -6.3736    1.0000 </r>
       <r>   -6.3507    1.0000 </r>
       <r>   -6.3262    1.0000 </r>
       <r>   -6.3023    1.0000 </r>
       <r>   -6.2462    1.0000 </r>
       <r>   -6.2341    1.0000 </r>
       <r>   -6.1889    1.0000 </r>
       <r>   -6.1643    1.0000 </r>
       <r>   -6.1509    1.0000 </r>
       <r>   -6.1078    1.0000 </r>
       <r>   -6.0244    1.0000 </r>
       <r>   -5.8961    1.0000 </r>
       <r>   -5.8599    1.0000 </r>
       <r>   -5.8224    1.0000 </r>
       <r>   -5.7990    1.0000 </r>
       <r>   -5.7764    1.0000 </r>
       <r>   -5.7510    1.0000 </r>
       <r>   -5.6523    1.0000 </r>
       <r>   -5.6208    1.0000 </r>
       <r>   -5.5999    1.0000 </r>
       <r>   -5.5676    1.0000 </r>
       <r>   -5.5220    1.0000 </r>
       <r>   -5.5066    1.0000 </r>
       <r>   -5.4912    1.0000 </r>
       <r>   -5.4677    1.0000 </r>
       <r>   -5.3744    1.0000 </r>
       <r>   -5.3605    1.0000 </r>
       <r>   -5.2846    1.0000 </r>
       <r>   -5.2400    1.0000 </r>
       <r>   -5.1648    1.0000 </r>
       <r>   -5.1117    1.0000 </r>
       <r>   -5.0291    1.0000 </r>
       <r>   -4.9692    1.0000 </r>
       <r>   -4.8855    1.0000 </r>
       <r>   -4.8459    1.0000 </r>
       <r>   -4.8104    1.0000 </r>
       <r>   -4.6628    1.0000 </r>
       <r>   -4.6451    1.0000 </r>
       <r>   -4.5952    1.0000 </r>
       <r>   -4.5621    1.0000 </r>
       <r>   -4.5271    1.0000 </r>
       <r>   -4.4866    1.0000 </r>
       <r>   -4.2610    1.0000 </r>
       <r>   -4.2307    1.0000 </r>
       <r>   -4.2219    1.0000 </r>
       <r>   -4.1536    1.0000 </r>
       <r>   -4.1261    1.0000 </r>
       <r>   -4.0994    1.0000 </r>
       <r>   -4.0815    1.0000 </r>
       <r>   -4.0666    1.0000 </r>
       <r>   -4.0450    1.0000 </r>
       <r>   -4.0317    1.0000 </r>
       <r>   -4.0179    1.0000 </r>
       <r>   -3.9670    1.0000 </r>
       <r>   -3.9459    1.0000 </r>
       <r>   -3.9140    1.0000 </r>
       <r>   -3.8765    1.0000 </r>
       <r>   -3.8500    1.0000 </r>
       <r>   -3.8182    1.0000 </r>
       <r>   -3.7862    1.0000 </r>
       <r>   -3.7652    1.0000 </r>
       <r>   -3.7212    1.0000 </r>
       <r>   -3.7093    1.0000 </r>
       <r>   -3.6860    1.0000 </r>
       <r>   -3.6767    1.0000 </r>
       <r>   -3.6506    1.0000 </r>
       <r>   -3.6402    1.0000 </r>
       <r>   -3.5098    1.0000 </r>
       <r>   -3.4650    1.0000 </r>
       <r>   -3.4339    1.0000 </r>
       <r>   -3.4114    1.0000 </r>
       <r>   -3.3621    1.0000 </r>
       <r>   -3.3330    1.0000 </r>
       <r>   -3.2954    1.0000 </r>
       <r>   -3.2876    1.0000 </r>
       <r>   -3.2659    1.0000 </r>
       <r>   -3.2351    1.0000 </r>
       <r>   -3.1830    1.0000 </r>
       <r>   -3.1305    1.0000 </r>
       <r>   -3.0036    1.0000 </r>
       <r>   -2.9747    1.0000 </r>
       <r>   -2.0820    0.0000 </r>
       <r>   -2.0614    0.0000 </r>
       <r>   -2.0232    0.0000 </r>
       <r>   -1.4928    0.0000 </r>
       <r>   -1.4649    0.0000 </r>
       <r>   -1.4487    0.0000 </r>
       <r>   -1.4349    0.0000 </r>
       <r>   -1.3983    0.0000 </r>
       <r>   -1.3612    0.0000 </r>
       <r>   -0.7669    0.0000 </r>
       <r>   -0.7032    0.0000 </r>
       <r>   -0.6653    0.0000 </r>
       <r>   -0.6529    0.0000 </r>
       <r>   -0.5912    0.0000 </r>
       <r>   -0.5859    0.0000 </r>
       <r>   -0.5454    0.0000 </r>
       <r>   -0.5090    0.0000 </r>
       <r>   -0.4809    0.0000 </r>
       <r>   -0.4586    0.0000 </r>
       <r>   -0.4218    0.0000 </r>
       <r>   -0.3811    0.0000 </r>
       <r>   -0.3638    0.0000 </r>
       <r>   -0.3539    0.0000 </r>
       <r>   -0.2531    0.0000 </r>
       <r>    0.0243    0.0000 </r>
       <r>    0.0360    0.0000 </r>
       <r>    0.0530    0.0000 </r>
       <r>    0.1133    0.0000 </r>
       <r>    0.1264    0.0000 </r>
       <r>    0.1636    0.0000 </r>
       <r>    0.1877    0.0000 </r>
       <r>    0.2077    0.0000 </r>
       <r>    0.2411    0.0000 </r>
       <r>    0.2513    0.0000 </r>
       <r>    0.2902    0.0000 </r>
       <r>    0.3217    0.0000 </r>
       <r>    0.3984    0.0000 </r>
       <r>    0.5201    0.0000 </r>
       <r>    0.5298    0.0000 </r>
       <r>    0.5593    0.0000 </r>
       <r>    0.6234    0.0000 </r>
       <r>    0.6557    0.0000 </r>
       <r>    0.6796    0.0000 </r>
       <r>    0.6860    0.0000 </r>
       <r>    0.7212    0.0000 </r>
       <r>    0.7451    0.0000 </r>
       <r>    0.7468    0.0000 </r>
       <r>    0.7665    0.0000 </r>
       <r>    0.7837    0.0000 </r>
       <r>    0.7986    0.0000 </r>
       <r>    0.8090    0.0000 </r>
       <r>    0.8400    0.0000 </r>
       <r>    0.8527    0.0000 </r>
       <r>    0.8766    0.0000 </r>
       <r>    0.8879    0.0000 </r>
       <r>    0.9017    0.0000 </r>
       <r>    0.9212    0.0000 </r>
       <r>    0.9286    0.0000 </r>
       <r>    0.9428    0.0000 </r>
       <r>    0.9734    0.0000 </r>
       <r>    0.9964    0.0000 </r>
       <r>    1.0099    0.0000 </r>
       <r>    1.0414    0.0000 </r>
       <r>    1.0655    0.0000 </r>
      </set>
      <set comment="kpoint 2">
       <r>  -51.9487    1.0000 </r>
       <r>  -51.8154    1.0000 </r>
       <r>  -51.7619    1.0000 </r>
       <r>  -51.6746    1.0000 </r>
       <r>  -51.6484    1.0000 </r>
       <r>  -51.6272    1.0000 </r>
       <r>  -51.6068    1.0000 </r>
       <r>  -51.5975    1.0000 </r>
       <r>  -51.5438    1.0000 </r>
       <r>  -51.5272    1.0000 </r>
       <r>  -51.5114    1.0000 </r>
       <r>  -51.5043    1.0000 </r>
       <r>  -51.4668    1.0000 </r>
       <r>  -51.4616    1.0000 </r>
       <r>  -51.4494    1.0000 </r>
       <r>  -51.4424    1.0000 </r>
       <r>  -51.4208    1.0000 </r>
       <r>  -51.4154    1.0000 </r>
       <r>  -51.3656    1.0000 </r>
       <r>  -51.3084    1.0000 </r>
       <r>  -51.2325    1.0000 </r>
       <r>  -51.2180    1.0000 </r>
       <r>  -51.2156    1.0000 </r>
       <r>  -51.2119    1.0000 </r>
       <r>  -51.1511    1.0000 </r>
       <r>  -51.1260    1.0000 </r>
       <r>  -51.0950    1.0000 </r>
       <r>  -51.0899    1.0000 </r>
       <r>  -51.0823    1.0000 </r>
       <r>  -51.0734    1.0000 </r>
       <r>  -51.0710    1.0000 </r>
       <r>  -51.0602    1.0000 </r>
       <r>  -30.6206    1.0000 </r>
       <r>  -30.5967    1.0000 </r>
       <r>  -30.5803    1.0000 </r>
       <r>  -30.5233    1.0000 </r>
       <r>  -30.4973    1.0000 </r>
       <r>  -30.4692    1.0000 </r>
       <r>  -30.4556    1.0000 </r>
       <r>  -30.4093    1.0000 </r>
       <r>  -30.3745    1.0000 </r>
       <r>  -30.3696    1.0000 </r>
       <r>  -30.3676    1.0000 </r>
       <r>  -30.3486    1.0000 </r>
       <r>  -30.3343    1.0000 </r>
       <r>  -30.3300    1.0000 </r>
       <r>  -30.3234    1.0000 </r>
       <r>  -30.3167    1.0000 </r>
       <r>  -30.3146    1.0000 </r>
       <r>  -30.3060    1.0000 </r>
       <r>  -30.3047    1.0000 </r>
       <r>  -30.2952    1.0000 </r>
       <r>  -30.2888    1.0000 </r>
       <r>  -30.2819    1.0000 </r>
       <r>  -30.2800    1.0000 </r>
       <r>  -30.2567    1.0000 </r>
       <r>  -30.2418    1.0000 </r>
       <r>  -30.2369    1.0000 </r>
       <r>  -30.2317    1.0000 </r>
       <r>  -30.2264    1.0000 </r>
       <r>  -30.2226    1.0000 </r>
       <r>  -30.2181    1.0000 </r>
       <r>  -30.2084    1.0000 </r>
       <r>  -30.2049    1.0000 </r>
       <r>  -30.2003    1.0000 </r>
       <r>  -30.1921    1.0000 </r>
       <r>  -30.1870    1.0000 </r>
       <r>  -30.1805    1.0000 </r>
       <r>  -30.1729    1.0000 </r>
       <r>  -30.1563    1.0000 </r>
       <r>  -30.1517    1.0000 </r>
       <r>  -30.1341    1.0000 </r>
       <r>  -30.1272    1.0000 </r>
       <r>  -30.1223    1.0000 </r>
       <r>  -30.1119    1.0000 </r>
       <r>  -30.1073    1.0000 </r>
       <r>  -30.1023    1.0000 </r>
       <r>  -30.0947    1.0000 </r>
       <r>  -30.0918    1.0000 </r>
       <r>  -30.0911    1.0000 </r>
       <r>  -30.0753    1.0000 </r>
       <r>  -30.0667    1.0000 </r>
       <r>  -30.0603    1.0000 </r>
       <r>  -30.0511    1.0000 </r>
       <r>  -30.0435    1.0000 </r>
       <r>  -30.0300    1.0000 </r>
       <r>  -30.0218    1.0000 </r>
       <r>  -30.0120    1.0000 </r>
       <r>  -30.0029    1.0000 </r>
       <r>  -29.9921    1.0000 </r>
       <r>  -29.9788    1.0000 </r>
       <r>  -29.9497    1.0000 </r>
       <r>  -29.9338    1.0000 </r>
       <r>  -29.9267    1.0000 </r>
       <r>  -29.9237    1.0000 </r>
       <r>  -29.9162    1.0000 </r>
       <r>  -29.9093    1.0000 </r>
       <r>  -29.9021    1.0000 </r>
       <r>  -29.8990    1.0000 </r>
       <r>  -29.8822    1.0000 </r>
       <r>  -29.8736    1.0000 </r>
       <r>  -29.8586    1.0000 </r>
       <r>  -29.8545    1.0000 </r>
       <r>  -29.8495    1.0000 </r>
       <r>  -29.8460    1.0000 </r>
       <r>  -29.8317    1.0000 </r>
       <r>  -29.8264    1.0000 </r>
       <r>  -29.8024    1.0000 </r>
       <r>  -29.7935    1.0000 </r>
       <r>  -29.7862    1.0000 </r>
       <r>  -29.7819    1.0000 </r>
       <r>  -29.7760    1.0000 </r>
       <r>  -29.7679    1.0000 </r>
       <r>  -29.7569    1.0000 </r>
       <r>  -29.7542    1.0000 </r>
       <r>  -29.7480    1.0000 </r>
       <r>  -29.7422    1.0000 </r>
       <r>  -29.7377    1.0000 </r>
       <r>  -29.7317    1.0000 </r>
       <r>  -29.7269    1.0000 </r>
       <r>  -29.7150    1.0000 </r>
       <r>  -29.7076    1.0000 </r>
       <r>  -29.7032    1.0000 </r>
       <r>  -29.6988    1.0000 </r>
       <r>  -29.6868    1.0000 </r>
       <r>  -29.6661    1.0000 </r>
       <r>  -29.6538    1.0000 </r>
       <r>  -29.6476    1.0000 </r>
       <r>  -18.6874    1.0000 </r>
       <r>  -18.6547    1.0000 </r>
       <r>  -18.4237    1.0000 </r>
       <r>  -18.4089    1.0000 </r>
       <r>  -18.3900    1.0000 </r>
       <r>  -18.3042    1.0000 </r>
       <r>  -18.2651    1.0000 </r>
       <r>  -18.2374    1.0000 </r>
       <r>  -18.2331    1.0000 </r>
       <r>  -18.1973    1.0000 </r>
       <r>  -18.1673    1.0000 </r>
       <r>  -18.1210    1.0000 </r>
       <r>  -18.1095    1.0000 </r>
       <r>  -18.0729    1.0000 </r>
       <r>  -18.0539    1.0000 </r>
       <r>  -18.0082    1.0000 </r>
       <r>  -18.0032    1.0000 </r>
       <r>  -17.9655    1.0000 </r>
       <r>  -17.9608    1.0000 </r>
       <r>  -17.9248    1.0000 </r>
       <r>  -17.9066    1.0000 </r>
       <r>  -17.8687    1.0000 </r>
       <r>  -17.8644    1.0000 </r>
       <r>  -17.8358    1.0000 </r>
       <r>  -17.7997    1.0000 </r>
       <r>  -17.7686    1.0000 </r>
       <r>  -17.7425    1.0000 </r>
       <r>  -17.6520    1.0000 </r>
       <r>  -17.6414    1.0000 </r>
[...]
       <r>   -32.4380     0.0000    64.0000 </r>
       <r>   -32.2436     0.0000    64.0000 </r>
       <r>   -32.0492     0.0000    64.0000 </r>
       <r>   -31.8548     0.0000    64.0000 </r>
       <r>   -31.6604     0.0000    64.0000 </r>
       <r>   -31.4660     0.0000    64.0000 </r>
       <r>   -31.2716     0.0000    64.0000 </r>
       <r>   -31.0772     0.0000    64.0000 </r>
       <r>   -30.8828     0.0000    64.0000 </r>
       <r>   -30.6884     0.3414    64.0664 </r>
       <r>   -30.4940    48.1967    73.4358 </r>
       <r>   -30.2996   141.1242   100.8703 </r>
       <r>   -30.1052   265.0839   152.4025 </r>
       <r>   -29.9108   206.3311   192.5132 </r>
       <r>   -29.7164   244.2249   239.9905 </r>
       <r>   -29.5220    82.3505   255.9994 </r>
       <r>   -29.3276     0.0031   256.0000 </r>
       <r>   -29.1332     0.0000   256.0000 </r>
       <r>   -28.9388     0.0000   256.0000 </r>
       <r>   -28.7444     0.0000   256.0000 </r>
       <r>   -28.5500     0.0000   256.0000 </r>
       <r>   -28.3556     0.0000   256.0000 </r>
       <r>   -28.1612     0.0000   256.0000 </r>
       <r>   -27.9668     0.0000   256.0000 </r>
       <r>   -27.7724     0.0000   256.0000 </r>
       <r>   -27.5780     0.0000   256.0000 </r>
       <r>   -27.3836     0.0000   256.0000 </r>
       <r>   -27.1892     0.0000   256.0000 </r>
       <r>   -26.9948     0.0000   256.0000 </r>
       <r>   -26.8004     0.0000   256.0000 </r>
       <r>   -26.6060     0.0000   256.0000 </r>
       <r>   -26.4116     0.0000   256.0000 </r>
       <r>   -26.2172     0.0000   256.0000 </r>
       <r>   -26.0228     0.0000   256.0000 </r>
       <r>   -25.8284     0.0000   256.0000 </r>
       <r>   -25.6340     0.0000   256.0000 </r>
       <r>   -25.4396     0.0000   256.0000 </r>
       <r>   -25.2452     0.0000   256.0000 </r>
       <r>   -25.0508     0.0000   256.0000 </r>
       <r>   -24.8564     0.0000   256.0000 </r>
       <r>   -24.6620     0.0000   256.0000 </r>
       <r>   -24.4676     0.0000   256.0000 </r>
       <r>   -24.2732     0.0000   256.0000 </r>
       <r>   -24.0788     0.0000   256.0000 </r>
       <r>   -23.8844     0.0000   256.0000 </r>
       <r>   -23.6900     0.0000   256.0000 </r>
       <r>   -23.4956     0.0000   256.0000 </r>
       <r>   -23.3012     0.0000   256.0000 </r>
       <r>   -23.1068     0.0000   256.0000 </r>
       <r>   -22.9124     0.0000   256.0000 </r>
       <r>   -22.7180     0.0000   256.0000 </r>
       <r>   -22.5236     0.0000   256.0000 </r>
       <r>   -22.3292     0.0000   256.0000 </r>
       <r>   -22.1348     0.0000   256.0000 </r>
       <r>   -21.9404     0.0000   256.0000 </r>
       <r>   -21.7460     0.0000   256.0000 </r>
       <r>   -21.5516     0.0000   256.0000 </r>
       <r>   -21.3572     0.0000   256.0000 </r>
       <r>   -21.1628     0.0000   256.0000 </r>
       <r>   -20.9684     0.0000   256.0000 </r>
       <r>   -20.7740     0.0000   256.0000 </r>
       <r>   -20.5796     0.0000   256.0000 </r>
       <r>   -20.3852     0.0000   256.0000 </r>
       <r>   -20.1908     0.0000   256.0000 </r>
       <r>   -19.9964     0.0000   256.0000 </r>
       <r>   -19.8020     0.0000   256.0000 </r>
       <r>   -19.6076     0.0000   256.0000 </r>
       <r>   -19.4132     0.0000   256.0000 </r>
       <r>   -19.2188     0.0000   256.0000 </r>
       <r>   -19.0244     0.0000   256.0000 </r>
       <r>   -18.8300     0.0003   256.0001 </r>
       <r>   -18.6356    16.8001   259.2660 </r>
       <r>   -18.4412    10.0728   261.2241 </r>
       <r>   -18.2468    50.5093   271.0431 </r>
       <r>   -18.0524    70.3434   284.7179 </r>
       <r>   -17.8580    81.8516   300.6298 </r>
       <r>   -17.6636    54.7970   311.2823 </r>
       <r>   -17.4692    22.5290   315.6619 </r>
       <r>   -17.2748    13.4476   318.2761 </r>
       <r>   -17.0804     8.8676   320.0000 </r>
       <r>   -16.8860     0.0001   320.0000 </r>
       <r>   -16.6916     0.0000   320.0000 </r>
       <r>   -16.4972     0.0000   320.0000 </r>
       <r>   -16.3028     0.0000   320.0000 </r>
       <r>   -16.1084     0.0000   320.0000 </r>
       <r>   -15.9140     0.0000   320.0000 </r>
       <r>   -15.7196     0.0000   320.0000 </r>
       <r>   -15.5252     0.0000   320.0000 </r>
       <r>   -15.3308     0.0000   320.0000 </r>
       <r>   -15.1364     0.0000   320.0000 </r>
       <r>   -14.9420     0.0000   320.0000 </r>
       <r>   -14.7476     0.0000   320.0000 </r>
       <r>   -14.5532     0.0000   320.0000 </r>
       <r>   -14.3588     0.0000   320.0000 </r>
       <r>   -14.1644     0.0000   320.0000 </r>
       <r>   -13.9700     0.0000   320.0000 </r>
       <r>   -13.7756     0.0000   320.0000 </r>
       <r>   -13.5812     0.0000   320.0000 </r>
       <r>   -13.3868     0.0000   320.0000 </r>
       <r>   -13.1924     0.0000   320.0000 </r>
       <r>   -12.9980     0.0000   320.0000 </r>
       <r>   -12.8036     0.0000   320.0000 </r>
       <r>   -12.6092     0.0000   320.0000 </r>
       <r>   -12.4148     0.0000   320.0000 </r>
       <r>   -12.2204     0.0000   320.0000 </r>
       <r>   -12.0260     0.0000   320.0000 </r>
       <r>   -11.8316     0.4115   320.0800 </r>
       <r>   -11.6372    13.4763   322.6998 </r>
       <r>   -11.4428    19.7298   326.5353 </r>
       <r>   -11.2484    21.8992   330.7925 </r>
       <r>   -11.0540    30.1754   336.6585 </r>
       <r>   -10.8596    46.1453   345.6292 </r>
       <r>   -10.6652    26.8122   350.8415 </r>
       <r>   -10.4708     5.9596   352.0000 </r>
       <r>   -10.2764     0.0000   352.0000 </r>
       <r>   -10.0820     0.0000   352.0000 </r>
       <r>    -9.8876     0.0000   352.0000 </r>
       <r>    -9.6932     0.0000   352.0000 </r>
       <r>    -9.4988     0.0000   352.0000 </r>
       <r>    -9.3044     0.0000   352.0000 </r>
       <r>    -9.1100     0.0000   352.0000 </r>
       <r>    -8.9156     0.0000   352.0000 </r>
       <r>    -8.7212     0.0000   352.0000 </r>
       <r>    -8.5268     0.0000   352.0000 </r>
       <r>    -8.3324     0.0000   352.0000 </r>
       <r>    -8.1380     0.0019   352.0004 </r>
       <r>    -7.9436     9.5727   353.8613 </r>
       <r>    -7.7492    39.8307   361.6044 </r>
       <r>    -7.5548    42.4585   369.8583 </r>
       <r>    -7.3604    72.6848   383.9882 </r>
       <r>    -7.1660    60.9426   395.8354 </r>
       <r>    -6.9716    63.1784   408.1173 </r>
       <r>    -6.7772    88.8891   425.3973 </r>
       <r>    -6.5828   119.0903   448.5484 </r>
       <r>    -6.3884   107.0659   469.3620 </r>
       <r>    -6.1940    72.7521   483.5050 </r>
       <r>    -5.9996    61.3972   495.4406 </r>
       <r>    -5.8052    65.8879   508.2492 </r>
       <r>    -5.6108    55.8452   519.1055 </r>
       <r>    -5.4164    54.5058   529.7014 </r>
       <r>    -5.2220    35.7905   536.6590 </r>
       <r>    -5.0276    29.2365   542.3426 </r>
       <r>    -4.8332    16.2546   545.5025 </r>
       <r>    -4.6388    43.7967   554.0166 </r>
       <r>    -4.4444    41.6419   562.1117 </r>
       <r>    -4.2500    30.9677   568.1318 </r>
       <r>    -4.0556    30.3719   574.0361 </r>
       <r>    -3.8612    68.1838   587.2910 </r>
       <r>    -3.6668    97.6555   606.2752 </r>
       <r>    -3.4724    62.5568   618.4363 </r>
       <r>    -3.2780    64.5901   630.9926 </r>
       <r>    -3.0836    35.1053   637.8170 </r>
       <r>    -2.8892    11.2178   639.9977 </r>
       <r>    -2.6948     0.0116   640.0000 </r>
       <r>    -2.5004     0.0000   640.0000 </r>
       <r>    -2.3060     0.0000   640.0000 </r>
       <r>    -2.1116     0.3278   640.0637 </r>
       <r>    -1.9172     9.8634   641.9812 </r>
       <r>    -1.7228    20.0444   645.8778 </r>
       <r>    -1.5284    14.5804   648.7122 </r>
       <r>    -1.3340    20.3731   652.6728 </r>
       <r>    -1.1396    23.5296   657.2469 </r>
       <r>    -0.9452    33.7539   663.8087 </r>
       <r>    -0.7508    12.6381   666.2655 </r>
       <r>    -0.5564    29.9762   672.0929 </r>
       <r>    -0.3620    36.9393   679.2739 </r>
       <r>    -0.1676    28.7770   684.8681 </r>
       <r>     0.0268    33.8461   691.4478 </r>
       <r>     0.2212    39.6708   699.1598 </r>
       <r>     0.4156    41.9410   707.3131 </r>
       <r>     0.6100    63.0154   719.5633 </r>
       <r>     0.8043   107.2678   740.4161 </r>
       <r>     0.9987   117.5631   763.2703 </r>
       <r>     1.1931    24.3289   767.9999 </r>
       <r>     1.3875     0.0007   768.0000 </r>
       <r>     1.5819     0.0000   768.0000 </r>
       <r>     1.7763     0.0000   768.0000 </r>
       <r>     1.9707     0.0000   768.0000 </r>
       <r>     2.1651     0.0000   768.0000 </r>
       <r>     2.3595     0.0000   768.0000 </r>
       <r>     2.5539     0.0000   768.0000 </r>
       <r>     2.7483     0.0000   768.0000 </r>
       <r>     2.9427     0.0000   768.0000 </r>
       <r>     3.1371     0.0000   768.0000 </r>
       <r>     3.3315     0.0000   768.0000 </r>
       <r>     3.5259     0.0000   768.0000 </r>
       <r>     3.7203     0.0000   768.0000 </r>
      </set>
     </set>
    </array>
   </total>
  </dos>
 </calculation>
 <structure name="finalpos" >
  <crystal>
   <varray name="basis" >
    <v>      13.79398668       0.00000000       0.00000000 </v>
    <v>      -6.89699334      11.94594288       0.00000000 </v>
    <v>       0.00000000       0.00000000      27.81022107 </v>
   </varray>
   <i name="volume">   4582.62876984 </i>
   <varray name="rec_basis" >
    <v>       0.07249536       0.04185521       0.00000000 </v>
    <v>       0.00000000       0.08371043       0.00000000 </v>
    <v>       0.00000000       0.00000000       0.03595800 </v>
   </varray>
  </crystal>
  <varray name="positions" >
   <v>       0.08257881       0.16582225       0.54949721 </v>
   <v>       0.09841001       0.42824082       0.54945637 </v>
   <v>       0.08435315       0.66793042       0.54059620 </v>
   <v>       0.07742731       0.91060353       0.54488161 </v>
   <v>       0.33441759       0.16418506       0.54355548 </v>
   <v>       0.34007892       0.41942443       0.53825413 </v>
   <v>       0.32971073       0.66035191       0.54047505 </v>
   <v>       0.33669871       0.91949929       0.54217448 </v>
   <v>       0.57765295       0.17001732       0.54516935 </v>
   <v>       0.57794449       0.41303058       0.54253636 </v>
   <v>       0.58465440       0.65976268       0.54317486 </v>
   <v>       0.57323834       0.91298352       0.54343643 </v>
   <v>       0.83404184       0.17082400       0.55208445 </v>
   <v>       0.83525809       0.42145971       0.54422933 </v>
   <v>       0.83117592       0.67272353       0.54177309 </v>
   <v>       0.84042316       0.91505990       0.54631060 </v>
   <v>       0.16228260       0.08554285       0.45911705 </v>
   <v>       0.16188721       0.32905396       0.45566546 </v>
   <v>       0.15812175       0.57499891       0.45181046 </v>
   <v>       0.17245071       0.83871111       0.45914206 </v>
   <v>       0.40598609       0.07096646       0.45391304 </v>
   <v>       0.42966100       0.33700076       0.45022111 </v>
   <v>       0.42171147       0.58394052       0.45142278 </v>
   <v>       0.42040121       0.81945402       0.45341251 </v>
   <v>       0.66640390       0.07771857       0.46266599 </v>
   <v>       0.66943870       0.32092040       0.45147470 </v>
   <v>       0.66623525       0.57119626       0.45581674 </v>
   <v>       0.66433365       0.82442395       0.44995880 </v>
   <v>       0.90642046       0.08639428       0.46294031 </v>
   <v>       0.91960424       0.33604275       0.46031060 </v>
   <v>       0.91744237       0.57445800       0.45528587 </v>
   <v>       0.91802472       0.83285253       0.45519205 </v>
   <v>       0.07195553       0.15714048       0.39985903 </v>
   <v>       0.07948388       0.42120235       0.39841012 </v>
   <v>       0.09094914       0.67645564       0.39970669 </v>
   <v>       0.07780528       0.91431214       0.39955542 </v>
   <v>       0.33085639       0.15070851       0.39060132 </v>
   <v>       0.33467067       0.41335988       0.39733956 </v>
   <v>       0.32294265       0.66113020       0.39541346 </v>
   <v>       0.33630983       0.91219651       0.39729107 </v>
   <v>       0.58649670       0.17001566       0.39704942 </v>
   <v>       0.58305806       0.43049343       0.38808444 </v>
   <v>       0.58265448       0.66436371       0.38939608 </v>
   <v>       0.58105312       0.92936487       0.38524706 </v>
   <v>       0.83919666       0.17513010       0.39760728 </v>
   <v>       0.83197910       0.41457013       0.39411642 </v>
   <v>       0.83892250       0.66820158       0.39842478 </v>
   <v>       0.83065052       0.92043749       0.39528036 </v>
   <v>       0.17100369       0.08920892       0.60447584 </v>
   <v>       0.17486769       0.33444395       0.60956033 </v>
   <v>       0.16955651       0.58678793       0.60684708 </v>
   <v>       0.17757379       0.82239445       0.60294063 </v>
   <v>       0.42149958       0.08528294       0.60421877 </v>
   <v>       0.41805879       0.32418482       0.60982599 </v>
   <v>       0.41964379       0.59265423       0.60031948 </v>
   <v>       0.41030469       0.84238860       0.60448996 </v>
   <v>       0.65521160       0.07875421       0.60347250 </v>
   <v>       0.66606075       0.34102263       0.60704878 </v>
   <v>       0.64845792       0.59569512       0.60589194 </v>
   <v>       0.67282042       0.84579907       0.60173720 </v>
   <v>       0.92707032       0.08866972       0.61001074 </v>
   <v>       0.90898197       0.34067634       0.60753687 </v>
   <v>       0.91662623       0.58721189       0.60286019 </v>
   <v>       0.92254032       0.83128601       0.60340785 </v>
   <v>       0.00081750       0.00003831       0.49933431 </v>
   <v>       0.01373282       0.26401930       0.50456809 </v>
   <v>       0.99716796       0.50232510       0.49782606 </v>
   <v>       0.01109423       0.75493378       0.50242514 </v>
   <v>       0.25962925       0.01457009       0.50141974 </v>
   <v>       0.25093684       0.25428936       0.49603316 </v>
   <v>       0.24605633       0.49834945       0.50248933 </v>
   <v>       0.25329624       0.74398479       0.50010467 </v>
   <v>       0.48733369       0.99282172       0.49655423 </v>
   <v>       0.49728748       0.25231931       0.49876062 </v>
   <v>       0.49635461       0.50233121       0.49488266 </v>
   <v>       0.50464575       0.74893761       0.49471700 </v>
   <v>       0.75562817       0.01269558       0.50331987 </v>
   <v>       0.73950996       0.24992217       0.50104890 </v>
   <v>       0.75092812       0.51250574       0.50005331 </v>
   <v>       0.74348431       0.74357117       0.49791432 </v>
  </varray>
  <varray name="velocities" >
   <v>       0.00000000       0.00000000       0.00000000 </v>
   <v>       0.00000000       0.00000000       0.00000000 </v>
   <v>       0.00000000       0.00000000       0.00000000 </v>
   <v>       0.00000000       0.00000000       0.00000000 </v>
   <v>       0.00000000       0.00000000       0.00000000 </v>
   <v>       0.00000000       0.00000000       0.00000000 </v>
   <v>       0.00000000       0.00000000       0.00000000 </v>
   <v>       0.00000000       0.00000000       0.00000000 </v>
   <v>       0.00000000       0.00000000       0.00000000 </v>
   <v>       0.00000000       0.00000000       0.00000000 </v>
   <v>       0.00000000       0.00000000       0.00000000 </v>
   <v>       0.00000000       0.00000000       0.00000000 </v>
   <v>       0.00000000       0.00000000       0.00000000 </v>
   <v>       0.00000000       0.00000000       0.00000000 </v>
   <v>       0.00000000       0.00000000       0.00000000 </v>
   <v>       0.00000000       0.00000000       0.00000000 </v>
   <v>       0.00000000       0.00000000       0.00000000 </v>
   <v>       0.00000000       0.00000000       0.00000000 </v>
   <v>       0.00000000       0.00000000       0.00000000 </v>
   <v>       0.00000000       0.00000000       0.00000000 </v>
   <v>       0.00000000       0.00000000       0.00000000 </v>
   <v>       0.00000000       0.00000000       0.00000000 </v>
   <v>       0.00000000       0.00000000       0.00000000 </v>
   <v>       0.00000000       0.00000000       0.00000000 </v>
   <v>       0.00000000       0.00000000       0.00000000 </v>
   <v>       0.00000000       0.00000000       0.00000000 </v>
   <v>       0.00000000       0.00000000       0.00000000 </v>
   <v>       0.00000000       0.00000000       0.00000000 </v>
   <v>       0.00000000       0.00000000       0.00000000 </v>
   <v>       0.00000000       0.00000000       0.00000000 </v>
   <v>       0.00000000       0.00000000       0.00000000 </v>
   <v>       0.00000000       0.00000000       0.00000000 </v>
   <v>       0.00000000       0.00000000       0.00000000 </v>
   <v>       0.00000000       0.00000000       0.00000000 </v>
   <v>       0.00000000       0.00000000       0.00000000 </v>
   <v>       0.00000000       0.00000000       0.00000000 </v>
   <v>       0.00000000       0.00000000       0.00000000 </v>
   <v>       0.00000000       0.00000000       0.00000000 </v>
   <v>       0.00000000       0.00000000       0.00000000 </v>
   <v>       0.00000000       0.00000000       0.00000000 </v>
   <v>       0.00000000       0.00000000       0.00000000 </v>
   <v>       0.00000000       0.00000000       0.00000000 </v>
   <v>       0.00000000       0.00000000       0.00000000 </v>
   <v>       0.00000000       0.00000000       0.00000000 </v>
   <v>       0.00000000       0.00000000       0.00000000 </v>
   <v>       0.00000000       0.00000000       0.00000000 </v>
   <v>       0.00000000       0.00000000       0.00000000 </v>
   <v>       0.00000000       0.00000000       0.00000000 </v>
   <v>       0.00000000       0.00000000       0.00000000 </v>
   <v>       0.00000000       0.00000000       0.00000000 </v>
   <v>       0.00000000       0.00000000       0.00000000 </v>
   <v>       0.00000000       0.00000000       0.00000000 </v>
   <v>       0.00000000       0.00000000       0.00000000 </v>
   <v>       0.00000000       0.00000000       0.00000000 </v>
   <v>       0.00000000       0.00000000       0.00000000 </v>
   <v>       0.00000000       0.00000000       0.00000000 </v>
   <v>       0.00000000       0.00000000       0.00000000 </v>
   <v>       0.00000000       0.00000000       0.00000000 </v>
   <v>       0.00000000       0.00000000       0.00000000 </v>
   <v>       0.00000000       0.00000000       0.00000000 </v>
   <v>       0.00000000       0.00000000       0.00000000 </v>
   <v>       0.00000000       0.00000000       0.00000000 </v>
   <v>       0.00000000       0.00000000       0.00000000 </v>
   <v>       0.00000000       0.00000000       0.00000000 </v>
   <v>       0.00000000       0.00000000       0.00000000 </v>
   <v>       0.00000000       0.00000000       0.00000000 </v>
   <v>       0.00000000       0.00000000       0.00000000 </v>
   <v>       0.00000000       0.00000000       0.00000000 </v>
   <v>       0.00000000       0.00000000       0.00000000 </v>
   <v>       0.00000000       0.00000000       0.00000000 </v>
   <v>       0.00000000       0.00000000       0.00000000 </v>
   <v>       0.00000000       0.00000000       0.00000000 </v>
   <v>       0.00000000       0.00000000       0.00000000 </v>
   <v>       0.00000000       0.00000000       0.00000000 </v>
   <v>       0.00000000       0.00000000       0.00000000 </v>
   <v>       0.00000000       0.00000000       0.00000000 </v>
   <v>       0.00000000       0.00000000       0.00000000 </v>
   <v>       0.00000000       0.00000000       0.00000000 </v>
   <v>       0.00000000       0.00000000       0.00000000 </v>
   <v>       0.00000000       0.00000000       0.00000000 </v>
  </varray>
 </structure>
</modeling>
