 running on   52 total cores
 distrk:  each k-point on   52 cores,    1 groups
 distr:  one band on   13 cores,    4 groups
 using from now: INCAR     
 vasp.5.4.4.18Apr17-6-g9f103f2a35 (build Oct 31 2019 15:01:46) complex          
  
 POSCAR found type information on POSCAR  Sc F  C 
 POSCAR found :  3 types and      80 ions
 scaLAPACK is switched off
 LDA part: xc-table for Pade appr. of Perdew
 generate k-points for:    3    3    1
 POSCAR, INCAR and KPOINTS ok, starting setup
 FFT: planning ...
 WAVECAR not read
 entering main loop
       N       E                     dE             d eps       ncg     rms          rms(c)
DAV:   1     0.136583658599E+05    0.13658E+05   -0.27891E+05  4240   0.156E+03
DAV:   2     0.249797426093E+04   -0.11160E+05   -0.10860E+05  4616   0.533E+02
DAV:   3    -0.383527758530E+03   -0.28815E+04   -0.27691E+04  6776   0.295E+02
DAV:   4    -0.741638015491E+03   -0.35811E+03   -0.35391E+03  6080   0.139E+02
DAV:   5    -0.755954033963E+03   -0.14316E+02   -0.14262E+02  6080   0.351E+01    0.764E+01
DAV:   6    -0.600196545451E+03    0.15576E+03   -0.83749E+02  5680   0.640E+01    0.250E+01
DAV:   7    -0.600097486234E+03    0.99059E-01   -0.52467E+01  5920   0.209E+01    0.163E+01
DAV:   8    -0.598433278146E+03    0.16642E+01   -0.10582E+01  5632   0.744E+00    0.443E+00
DAV:   9    -0.597899646202E+03    0.53363E+00   -0.30383E+00  5472   0.501E+00    0.216E+00
DAV:  10    -0.597859063212E+03    0.40583E-01   -0.24183E-01  5808   0.169E+00    0.113E+00
DAV:  11    -0.597718198459E+03    0.14086E+00   -0.18426E-01  5464   0.103E+00    0.830E-01
DAV:  12    -0.597693886540E+03    0.24312E-01   -0.58515E-02  5816   0.638E-01    0.343E-01
DAV:  13    -0.597684646830E+03    0.92397E-02   -0.40449E-02  5704   0.483E-01    0.330E-01
DAV:  14    -0.597681466545E+03    0.31803E-02   -0.13937E-02  5664   0.279E-01    0.152E-01
DAV:  15    -0.597687463778E+03   -0.59972E-02   -0.90971E-03  5656   0.207E-01    0.101E-01
DAV:  16    -0.597690914911E+03   -0.34511E-02   -0.19550E-03  5448   0.131E-01    0.785E-02
DAV:  17    -0.597696648049E+03   -0.57331E-02   -0.22480E-03  5904   0.108E-01    0.939E-02
DAV:  18    -0.597700208380E+03   -0.35603E-02   -0.98485E-04  5416   0.872E-02    0.528E-02
DAV:  19    -0.597701725475E+03   -0.15171E-02   -0.42495E-04  5704   0.498E-02    0.208E-02
DAV:  20    -0.597704820523E+03   -0.30950E-02   -0.15235E-04  5112   0.228E-02    0.199E-02
DAV:  21    -0.597707349792E+03   -0.25293E-02   -0.13596E-04  4360   0.164E-02    0.132E-02
DAV:  22    -0.597708499112E+03   -0.11493E-02   -0.10992E-04  4584   0.165E-02    0.762E-03
DAV:  23    -0.597708883569E+03   -0.38446E-03   -0.14229E-05  4752   0.972E-03    0.438E-03
DAV:  24    -0.597709199858E+03   -0.31629E-03   -0.11623E-05  4136   0.527E-03    0.262E-03
DAV:  25    -0.597709365154E+03   -0.16530E-03   -0.52512E-06  4016   0.412E-03    0.187E-03
DAV:  26    -0.597709451235E+03   -0.86081E-04   -0.16630E-06  3128   0.234E-03    0.191E-03
DAV:  27    -0.597709478949E+03   -0.27714E-04   -0.52216E-07  2680   0.265E-03    0.949E-04
DAV:  28    -0.597709495435E+03   -0.16485E-04   -0.95782E-07  2752   0.250E-03    0.124E-03
DAV:  29    -0.597709500600E+03   -0.51652E-05   -0.47924E-07  2592   0.256E-03    0.125E-03
DAV:  30    -0.597709505975E+03   -0.53748E-05   -0.20709E-07  2632   0.151E-03    0.752E-04
DAV:  31    -0.597709507152E+03   -0.11769E-05   -0.15328E-07  2520   0.120E-03    0.481E-04
DAV:  32    -0.597709508050E+03   -0.89836E-06   -0.10848E-07  2520   0.943E-04
   1 F= -.59770951E+03 E0= -.59770951E+03  d E =-.286870E-16
