 vasp.5.4.4.18Apr17-6-g9f103f2a35 (build Oct 31 2019 15:01:46) complex          
  
 executed on             LinuxIFC date 2024.04.30  11:37:51
 running on   52 total cores
 distrk:  each k-point on   52 cores,    1 groups
 distr:  one band on NCORES_PER_BAND=  13 cores,    4 groups


--------------------------------------------------------------------------------------------------------


 INCAR:
 POTCAR:    PAW_PBE Sc_sv 07Sep2000               
 POTCAR:    PAW_PBE Cl 06Sep2000                  
 POTCAR:    PAW_PBE C 08Apr2002                   
 POTCAR:    PAW_PBE Sc_sv 07Sep2000               
   VRHFIN =Sc: 3p4s3d                                                           
   LEXCH  = PE                                                                  
   EATOM  =  1273.2868 eV,   93.5839 Ry                                         
                                                                                
   TITEL  = PAW_PBE Sc_sv 07Sep2000                                             
   LULTRA =        F    use ultrasoft PP ?                                      
   IUNSCR =        1    unscreen: 0-lin 1-nonlin 2-no                           
   RPACOR =    2.200    partial core radius                                     
   POMASS =   44.956; ZVAL   =   11.000    mass and valenz                      
   RCORE  =    2.500    outmost cutoff radius                                   
   RWIGS  =    2.700; RWIGS  =    1.429    wigner-seitz radius (au A)           
   ENMAX  =  222.660; ENMIN  =  166.995 eV                                      
   RCLOC  =    1.805    cutoff for local pot                                    
   LCOR   =        T    correct aug charges                                     
   LPAW   =        T    paw PP                                                  
   EAUG   =  443.063                                                            
   RMAX   =    2.551    core radius for proj-oper                               
   RAUG   =    1.300    factor for augmentation sphere                          
   RDEP   =    2.650    radius for radial grids                                 
   RDEPT  =    2.038    core radius for aug-charge                              
                                                                                
   Atomic configuration                                                         
    8 entries                                                                   
     n  l   j            E        occ.                                          
     1  0  0.50     -4394.2533   2.0000                                         
     2  0  0.50      -471.0040   2.0000                                         
     2  1  1.50      -384.9788   6.0000                                         
     3  0  0.50       -52.1410   2.0000                                         
     4  0  0.50        -3.5584   1.0000                                         
     3  1  1.50       -30.8841   6.0000                                         
     3  2  2.50        -1.3655   2.0000                                         
     4  3  2.50        -1.3606   0.0000                                         
   Description                                                                  
     l       E           TYP  RCUT    TYP  RCUT                                 
     0    -52.1409870     23  1.800                                             
     0     -3.5583698     23  2.500                                             
     1    -30.8840697     23  2.300                                             
     1      4.0817478     23  2.300                                             
     2     -1.3655397     23  2.500                                             
     2      0.3564476     23  2.500                                             
  local pseudopotential read in
  partial core-charges read in
  partial kinetic energy density read in
  atomic valenz-charges read in
  non local Contribution for L=           0  read in
    real space projection operators read in
  non local Contribution for L=           0  read in
    real space projection operators read in
  non local Contribution for L=           1  read in
    real space projection operators read in
  non local Contribution for L=           1  read in
    real space projection operators read in
  non local Contribution for L=           2  read in
    real space projection operators read in
  non local Contribution for L=           2  read in
    real space projection operators read in
    PAW grid and wavefunctions read in
 
   number of l-projection  operators is LMAX  =           6
   number of lm-projection operators is LMMAX =          18
 
 POTCAR:    PAW_PBE Cl 06Sep2000                  
   VRHFIN =Cl: s2p5                                                             
   LEXCH  = PE                                                                  
   EATOM  =   409.7259 eV,   30.1140 Ry                                         
                                                                                
   TITEL  = PAW_PBE Cl 06Sep2000                                                
   LULTRA =        F    use ultrasoft PP ?                                      
   IUNSCR =        1    unscreen: 0-lin 1-nonlin 2-no                           
   RPACOR =    1.500    partial core radius                                     
   POMASS =   35.453; ZVAL   =    7.000    mass and valenz                      
   RCORE  =    1.900    outmost cutoff radius                                   
   RWIGS  =    2.100; RWIGS  =    1.111    wigner-seitz radius (au A)           
   ENMAX  =  262.472; ENMIN  =  196.854 eV                                      
   ICORE  =        2    local potential                                         
   LCOR   =        T    correct aug charges                                     
   LPAW   =        T    paw PP                                                  
   EAUG   =  356.192                                                            
   DEXC   =    0.000                                                            
   RMAX   =    1.945    core radius for proj-oper                               
   RAUG   =    1.300    factor for augmentation sphere                          
   RDEP   =    2.020    radius for radial grids                                 
   RDEPT  =    1.678    core radius for aug-charge                              
                                                                                
   Atomic configuration                                                         
    6 entries                                                                   
     n  l   j            E        occ.                                          
     1  0  0.50     -2751.1850   2.0000                                         
     2  0  0.50      -252.6861   2.0000                                         
     2  1  1.50      -191.6157   6.0000                                         
     3  0  0.50       -20.6916   2.0000                                         
     3  1  0.50        -8.5949   5.0000                                         
     3  2  1.50        -8.1635   0.0000                                         
   Description                                                                  
     l       E           TYP  RCUT    TYP  RCUT                                 
     0    -20.6915656     23  1.900                                             
     0    -22.0521482     23  1.900                                             
     1     -8.5948577     23  1.900                                             
     1     -5.3847331     23  1.900                                             
     2     -8.1634956     23  1.900                                             
  local pseudopotential read in
  partial core-charges read in
  partial kinetic energy density read in
  atomic valenz-charges read in
  non local Contribution for L=           0  read in
    real space projection operators read in
  non local Contribution for L=           0  read in
    real space projection operators read in
  non local Contribution for L=           1  read in
    real space projection operators read in
  non local Contribution for L=           1  read in
    real space projection operators read in
    PAW grid and wavefunctions read in
 
   number of l-projection  operators is LMAX  =           4
   number of lm-projection operators is LMMAX =           8
 
 POTCAR:    PAW_PBE C 08Apr2002                   
   VRHFIN =C: s2p2                                                              
   LEXCH  = PE                                                                  
   EATOM  =   147.1560 eV,   10.8157 Ry                                         
                                                                                
   TITEL  = PAW_PBE C 08Apr2002                                                 
   LULTRA =        F    use ultrasoft PP ?                                      
   IUNSCR =        1    unscreen: 0-lin 1-nonlin 2-no                           
   RPACOR =    1.200    partial core radius                                     
   POMASS =   12.011; ZVAL   =    4.000    mass and valenz                      
   RCORE  =    1.500    outmost cutoff radius                                   
   RWIGS  =    1.630; RWIGS  =    0.863    wigner-seitz radius (au A)           
   ENMAX  =  400.000; ENMIN  =  300.000 eV                                      
   ICORE  =        2    local potential                                         
   LCOR   =        T    correct aug charges                                     
   LPAW   =        T    paw PP                                                  
   EAUG   =  644.873                                                            
   DEXC   =    0.000                                                            
   RMAX   =    1.529    core radius for proj-oper                               
   RAUG   =    1.300    factor for augmentation sphere                          
   RDEP   =    1.501    radius for radial grids                                 
   RDEPT  =    1.300    core radius for aug-charge                              
                                                                                
   Atomic configuration                                                         
    4 entries                                                                   
     n  l   j            E        occ.                                          
     1  0  0.50      -273.3789   2.0000                                         
     2  0  0.50       -13.7508   2.0000                                         
     2  1  0.50        -5.2854   2.0000                                         
     3  2  1.50        -5.4423   0.0000                                         
   Description                                                                  
     l       E           TYP  RCUT    TYP  RCUT                                 
     0    -13.7508458     23  1.200                                             
     0     -8.2022199     23  1.200                                             
     1     -5.2854383     23  1.500                                             
     1     34.0145650     23  1.500                                             
     2     -5.4423304      7  1.500                                             
  local pseudopotential read in
  partial core-charges read in
  partial kinetic energy density read in
  atomic valenz-charges read in
  non local Contribution for L=           0  read in
    real space projection operators read in
  non local Contribution for L=           0  read in
    real space projection operators read in
  non local Contribution for L=           1  read in
    real space projection operators read in
  non local Contribution for L=           1  read in
    real space projection operators read in
    PAW grid and wavefunctions read in
 
   number of l-projection  operators is LMAX  =           4
   number of lm-projection operators is LMMAX =           8
 
 Optimization of the real space projectors (new method)

 maximal supplied QI-value         = 15.12
 optimisation between [QCUT,QGAM] = [ 12.55, 25.10] = [ 44.09,176.36] Ry 
 Optimized for a Real-space Cutoff    1.56 Angstroem

   l    n(q)    QCUT    max X(q) W(low)/X(q) W(high)/X(q)  e(spline) 
   0     12    12.548     2.962    0.12E-05    0.11E-06    0.46E-07
   0     12    12.548    26.414    0.30E-04    0.15E-05    0.76E-07
   1     11    12.548     3.969    0.45E-05    0.12E-05    0.60E-07
   1     11    12.548     5.137    0.15E-04    0.18E-04    0.36E-06
   2     11    12.548   143.970    0.20E-03    0.19E-03    0.76E-06
   2     11    12.548   121.201    0.20E-03    0.19E-03    0.76E-06
 Optimization of the real space projectors (new method)

 maximal supplied QI-value         = 19.84
 optimisation between [QCUT,QGAM] = [ 12.50, 25.00] = [ 43.76,175.03] Ry 
 Optimized for a Real-space Cutoff    1.20 Angstroem

   l    n(q)    QCUT    max X(q) W(low)/X(q) W(high)/X(q)  e(spline) 
   0      9    12.501   168.010    0.44E-04    0.61E-04    0.77E-07
   0      9    12.501   164.674    0.43E-04    0.60E-04    0.75E-07
   1      8    12.501    69.222    0.11E-03    0.13E-03    0.91E-07
   1      8    12.501    56.786    0.11E-03    0.13E-03    0.90E-07
 Optimization of the real space projectors (new method)

 maximal supplied QI-value         = 25.13
 optimisation between [QCUT,QGAM] = [ 12.32, 24.88] = [ 42.47,173.37] Ry 
 Optimized for a Real-space Cutoff    1.16 Angstroem

   l    n(q)    QCUT    max X(q) W(low)/X(q) W(high)/X(q)  e(spline) 
   0      9    12.315   115.676    0.19E-03    0.80E-05    0.34E-06
   0      9    12.315    87.132    0.19E-03    0.82E-05    0.34E-06
   1      8    12.315     4.429    0.18E-03    0.13E-03    0.22E-06
   1      8    12.315     2.733    0.14E-03    0.10E-03    0.18E-06
  PAW_PBE Sc_sv 07Sep2000               :
 energy of atom  1       EATOM=-1273.2868
 kinetic energy error for atom=    0.0014 (will be added to EATOM!!)
  PAW_PBE Cl 06Sep2000                  :
 energy of atom  2       EATOM= -409.7259
 kinetic energy error for atom=    0.0013 (will be added to EATOM!!)
  PAW_PBE C 08Apr2002                   :
 energy of atom  3       EATOM= -147.1560
 kinetic energy error for atom=    0.0057 (will be added to EATOM!!)
 
 
 POSCAR: Sc Cl  C                                
  positions in cartesian coordinates
  No initial velocities read in
 exchange correlation table for  LEXCH =        8
   RHO(1)=    0.500       N(1)  =     2000
   RHO(2)=  100.500       N(2)  =     4000
 


--------------------------------------------------------------------------------------------------------


 ion  position               nearest neighbor table
   1  0.081  0.171  0.542-  66 2.31  65 2.35  70 2.46  50 2.59  61 2.62  49 2.69  29 3.03  17 3.18
                            18 3.19  13 3.32   2 3.38
   2  0.088  0.420  0.543-  67 2.36  66 2.42  71 2.47  51 2.56  62 2.58  50 2.67  19 3.14  18 3.26
                            30 3.35   1 3.38
   3  0.082  0.666  0.546-  67 2.30  72 2.31  68 2.38  63 2.55  51 2.71  52 2.73  20 3.20  19 3.27
                            31 3.30  14 3.32  15 3.35   7 3.38   8 3.39
   4  0.079  0.920  0.543-  65 2.22  68 2.42  69 2.47  64 2.56  49 2.60  52 2.68  17 3.09  32 3.15
                            20 3.22  15 3.40   8 3.41  16 3.42
   5  0.337  0.166  0.545-  69 2.33  74 2.34  70 2.41  49 2.52  54 2.61  53 2.68  21 3.06  17 3.23
                            22 3.28   8 3.37   9 3.42
   6  0.345  0.423  0.537-  75 2.22  71 2.35  70 2.39  54 2.58  55 2.59  50 2.72  23 3.09  22 3.12
                            18 3.23  11 3.31  10 3.38
   7  0.332  0.676  0.545-  76 2.25  72 2.29  71 2.48  51 2.58  56 2.59  55 2.88  24 3.11  23 3.22
                             8 3.35  19 3.36   3 3.38  12 3.39
   8  0.324  0.915  0.547-  69 2.26  72 2.36  73 2.37  52 2.44  53 2.58  56 2.76  20 3.12  21 3.17
                            24 3.20   7 3.35   5 3.37   3 3.39   4 3.41
   9  0.588  0.171  0.548-  78 2.33  74 2.34  73 2.56  53 2.59  57 2.69  58 2.72  25 3.12  21 3.20
                            26 3.29   5 3.42  10 3.42
  10  0.588  0.419  0.543-  79 2.23  74 2.26  75 2.37  59 2.46  58 2.54  54 2.84  27 3.18  26 3.19
                            22 3.20   6 3.38   9 3.42
  11  0.581  0.664  0.547-  75 2.30  76 2.33  80 2.51  59 2.55  55 2.57  60 2.63  23 3.19  28 3.20
                            27 3.25   6 3.31  16 3.31  12 3.43
  12  0.584  0.914  0.546-  76 2.16  77 2.23  73 2.36  56 2.52  57 2.63  60 2.78  28 3.06  24 3.20
                            25 3.25  16 3.37   7 3.39  11 3.43
  13  0.836  0.162  0.548-  78 2.28  77 2.36  66 2.41  57 2.65  62 2.69  61 2.70  29 3.16  30 3.26
                            25 3.29   1 3.32
  14  0.841  0.425  0.546-  67 2.20  79 2.36  63 2.50  62 2.51  78 2.57  58 2.85  31 3.18  26 3.32
                             3 3.32  15 3.35  30 3.38
  15  0.840  0.667  0.538-  80 2.22  68 2.24  79 2.40  64 2.67  59 2.70  63 2.90  31 3.06  32 3.08
                            27 3.17   3 3.35  14 3.35  16 3.39   4 3.40
  16  0.823  0.903  0.548-  80 2.27  77 2.29  65 2.49  60 2.54  64 2.58  61 2.84  28 3.07  29 3.30
                            11 3.31  32 3.36  12 3.37  15 3.39   4 3.42
  17  0.165  0.079  0.456-  70 2.29  65 2.34  69 2.36  37 2.59  33 2.63  36 2.73   4 3.09   1 3.18
                             5 3.23  32 3.40  29 3.42
  18  0.165  0.331  0.450-  66 2.38  70 2.42  71 2.44  33 2.50  38 2.52  34 2.53   1 3.19   6 3.23
                             2 3.26  29 3.43
  19  0.154  0.574  0.452-  67 2.37  71 2.38  72 2.50  35 2.50  39 2.51  34 2.57   2 3.14   3 3.27
                             7 3.36  31 3.37
  20  0.170  0.833  0.456-  72 2.25  68 2.30  69 2.36  40 2.53  36 2.63  35 2.72   8 3.12   3 3.20
                             4 3.22  24 3.35  32 3.41
  21  0.418  0.087  0.460-  69 2.21  74 2.34  73 2.36  40 2.63  41 2.69  37 2.78   5 3.06   8 3.17
                             9 3.20  25 3.30  22 3.37  24 3.41
  22  0.424  0.333  0.452-  70 2.35  74 2.39  37 2.46  75 2.47  38 2.61  42 2.74   6 3.12  10 3.20
                             5 3.28  26 3.36  21 3.37  27 3.39
  23  0.422  0.598  0.455-  71 2.23  76 2.41  75 2.42  43 2.43  38 2.53  39 2.72   6 3.09  11 3.19
                             7 3.22  24 3.36  28 3.37  27 3.42
  24  0.415  0.838  0.457-  73 2.16  72 2.37  76 2.45  44 2.47  40 2.61  39 2.76   7 3.11   8 3.20
                            12 3.20  20 3.35  23 3.36  21 3.41  25 3.43
  25  0.659  0.090  0.458-  78 2.15  73 2.36  77 2.61  45 2.62  41 2.63  44 2.83   9 3.12  12 3.25
                            30 3.28  13 3.29  21 3.30  26 3.30  24 3.43
  26  0.668  0.334  0.453-  79 2.25  74 2.38  46 2.51  41 2.54  78 2.56  42 2.60  10 3.19   9 3.29
                            25 3.30  14 3.32  31 3.36  22 3.36  30 3.41
  27  0.663  0.585  0.453-  75 2.24  80 2.37  79 2.45  42 2.48  43 2.54  47 2.70  15 3.17  10 3.18
                            11 3.25  22 3.39  23 3.42
  28  0.669  0.840  0.460-  77 2.20  76 2.42  80 2.43  44 2.49  43 2.59  48 2.60  12 3.06  16 3.07
                            11 3.20  23 3.37  29 3.40
  29  0.918  0.082  0.458-  66 2.26  65 2.30  77 2.46  33 2.61  48 2.64  45 2.90   1 3.03  13 3.16
                            16 3.30  30 3.32  28 3.40  17 3.42  18 3.43
  30  0.906  0.316  0.451-  66 2.27  78 2.35  45 2.44  34 2.56  67 2.65  46 2.70  13 3.26  25 3.28
                            29 3.32   2 3.35  14 3.38  26 3.41
  31  0.912  0.578  0.453-  67 2.38  68 2.38  79 2.39  35 2.58  47 2.62  46 2.69  15 3.06  14 3.18
                             3 3.30  26 3.36  19 3.37  32 3.41
  32  0.921  0.830  0.452-  68 2.29  80 2.33  65 2.43  47 2.53  36 2.61  48 2.77  15 3.08   4 3.15
                            16 3.36  17 3.40  20 3.41  31 3.41
  33  0.081  0.165  0.396-  18 2.50  29 2.61  17 2.63
  34  0.074  0.406  0.394-  18 2.53  30 2.56  19 2.57
  35  0.078  0.658  0.394-  19 2.50  31 2.58  20 2.72
  36  0.086  0.908  0.391-  32 2.61  20 2.63  17 2.73
  37  0.329  0.176  0.395-  22 2.46  17 2.59  21 2.78
  38  0.339  0.430  0.399-  18 2.52  23 2.53  22 2.61
  39  0.313  0.663  0.393-  19 2.51  23 2.72  24 2.76
  40  0.331  0.922  0.397-  20 2.53  24 2.61  21 2.63
  41  0.582  0.173  0.393-  26 2.54  25 2.63  21 2.69
  42  0.606  0.435  0.392-  27 2.48  26 2.60  22 2.74
  43  0.581  0.675  0.400-  23 2.43  27 2.54  28 2.59
  44  0.571  0.895  0.400-  24 2.47  28 2.49  25 2.83
  45  0.816  0.167  0.392-  30 2.44  25 2.62  29 2.90
  46  0.820  0.406  0.390-  26 2.51  31 2.69  30 2.70
  47  0.839  0.672  0.392-  32 2.53  31 2.62  27 2.70
  48  0.823  0.920  0.394-  28 2.60  29 2.64  32 2.77
  49  0.173  0.088  0.602-   5 2.52   4 2.60   1 2.69
  50  0.177  0.334  0.603-   1 2.59   2 2.67   6 2.72
  51  0.170  0.576  0.606-   2 2.56   7 2.58   3 2.71
  52  0.175  0.847  0.606-   8 2.44   4 2.68   3 2.73
  53  0.420  0.078  0.607-   8 2.58   9 2.59   5 2.68
  54  0.399  0.333  0.605-   6 2.58   5 2.61  10 2.84
  55  0.417  0.567  0.606-  11 2.57   6 2.59   7 2.88
  56  0.428  0.837  0.607-  12 2.52   7 2.59   8 2.76
  57  0.668  0.078  0.610-  12 2.63  13 2.65   9 2.69
  58  0.656  0.345  0.611-  10 2.54   9 2.72  14 2.85
  59  0.667  0.576  0.600-  10 2.46  11 2.55  15 2.70
  60  0.670  0.825  0.612-  16 2.54  11 2.63  12 2.78
  61  0.933  0.088  0.611-   1 2.62  13 2.70  16 2.84
  62  0.925  0.346  0.604-  14 2.51   2 2.58  13 2.69
  63  0.927  0.575  0.609-  14 2.50   3 2.55  15 2.90
  64  0.920  0.829  0.604-   4 2.56  16 2.58  15 2.67
  65  1.000  0.999  0.501-   4 2.22  29 2.30  17 2.34   1 2.35  32 2.43  16 2.49
  66  0.997  0.249  0.496-  29 2.26  30 2.27   1 2.31  18 2.38  13 2.41   2 2.42
  67  0.996  0.502  0.503-  14 2.20   3 2.30   2 2.36  19 2.37  31 2.38  30 2.65
  68  0.002  0.749  0.497-  15 2.24  32 2.29  20 2.30   3 2.38  31 2.38   4 2.42
  69  0.258  0.003  0.499-  21 2.21   8 2.26   5 2.33  20 2.36  17 2.36   4 2.47
  70  0.255  0.248  0.495-  17 2.29  22 2.35   6 2.39   5 2.41  18 2.42   1 2.46
  71  0.259  0.508  0.494-  23 2.23   6 2.35  19 2.38  18 2.44   2 2.47   7 2.48
  72  0.244  0.749  0.500-  20 2.25   7 2.29   3 2.31   8 2.36  24 2.37  19 2.50
  73  0.491  0.988  0.501-  24 2.16  25 2.36  21 2.36  12 2.36   8 2.37   9 2.56
  74  0.507  0.255  0.503-  10 2.26  21 2.34   9 2.34   5 2.34  26 2.38  22 2.39
  75  0.508  0.509  0.499-   6 2.22  27 2.24  11 2.30  10 2.37  23 2.42  22 2.47
  76  0.500  0.757  0.508-  12 2.16   7 2.25  11 2.33  23 2.41  28 2.42  24 2.45
  77  0.746  0.990  0.506-  28 2.20  12 2.23  16 2.29  13 2.36  29 2.46  25 2.61
  78  0.750  0.235  0.503-  25 2.15  13 2.28   9 2.33  30 2.35  26 2.56  14 2.57
  79  0.743  0.489  0.499-  10 2.23  26 2.25  14 2.36  31 2.39  15 2.40  27 2.45
  80  0.760  0.750  0.500-  15 2.22  16 2.27  32 2.33  27 2.37  28 2.43  11 2.51
 
  LATTYP: Found a hexagonal cell.
 ALAT       =    13.7939866762
 C/A-ratio  =     2.0161119278
  
  Lattice vectors:
  
 A1 = (  13.7939866800,   0.0000000000,   0.0000000000)
 A2 = (  -6.8969933400,  11.9459428800,   0.0000000000)
 A3 = (   0.0000000000,   0.0000000000,  27.8102210700)


Analysis of symmetry for initial positions (statically):
=====================================================================
 Subroutine PRICEL returns:
 Original cell was already a primitive cell.
 

 Routine SETGRP: Setting up the symmetry group for a 
 hexagonal supercell.


 Subroutine GETGRP returns: Found  1 space group operations
 (whereof  1 operations were pure point group operations)
 out of a pool of 24 trial point group operations.


The static configuration has the point symmetry C_1 .


Analysis of symmetry for dynamics (positions and initial velocities):
=====================================================================
 Subroutine PRICEL returns:
 Original cell was already a primitive cell.
 

 Routine SETGRP: Setting up the symmetry group for a 
 hexagonal supercell.


 Subroutine GETGRP returns: Found  1 space group operations
 (whereof  1 operations were pure point group operations)
 out of a pool of 24 trial point group operations.


The dynamic configuration has the point symmetry C_1 .


 Subroutine INISYM returns: Found  1 space group operations
 (whereof  1 operations are pure point group operations),
 and found     1 'primitive' translations

 
 

Automatic generation of k-mesh.
 generate k-points for:    3    3    1
Space group operators:
 irot       det(A)        alpha          n_x          n_y          n_z        tau_x        tau_y        tau_z
    1     1.000000     0.000000     1.000000     0.000000     0.000000     0.000000     0.000000     0.000000
 
 Subroutine IBZKPT returns following result:
 ===========================================
 
 Found      5 irreducible k-points:
 
 Following reciprocal coordinates:
            Coordinates               Weight
  0.000000  0.000000  0.000000      1.000000
  0.333333 -0.000000  0.000000      2.000000
  0.000000  0.333333  0.000000      2.000000
  0.333333  0.333333  0.000000      2.000000
 -0.333333  0.333333  0.000000      2.000000
 
 Following cartesian coordinates:
            Coordinates               Weight
  0.000000  0.000000  0.000000      1.000000
  0.024165  0.013952  0.000000      2.000000
  0.000000  0.027903  0.000000      2.000000
  0.024165  0.041855  0.000000      2.000000
 -0.024165  0.013952  0.000000      2.000000
 


--------------------------------------------------------------------------------------------------------




 Dimension of arrays:
   k-points           NKPTS =      5   k-points in BZ     NKDIM =      5   number of bands    NBANDS=    384
   number of dos      NEDOS =    301   number of ions     NIONS =     80
   non local maximal  LDIM  =      6   non local SUM 2l+1 LMDIM =     18
   total plane-waves  NPLWV = ******
   max r-space proj   IRMAX =   9806   max aug-charges    IRDMAX= 216835
   dimension x,y,z NGX =   112 NGY =  112 NGZ =  224
   dimension x,y,z NGXF=   224 NGYF=  224 NGZF=  448
   support grid    NGXF=   448 NGYF=  448 NGZF=  896
   ions per type =              32  32  16
   NGX,Y,Z   is equivalent  to a cutoff of  13.50, 13.50, 13.39 a.u.
   NGXF,Y,Z  is equivalent  to a cutoff of  27.00, 27.00, 26.78 a.u.

 SYSTEM =  unknown system                          
 POSCAR =  Sc Cl  C                                

 Startparameter for this run:
   NWRITE =      2    write-flag & timer
   PREC   = anorma    normal or accurate (medium, high low for compatibility)
   ISTART =      0    job   : 0-new  1-cont  2-samecut
   ICHARG =      2    charge: 1-file 2-atom 10-const
   ISPIN  =      1    spin polarized calculation?
   LNONCOLLINEAR =      F non collinear calculations
   LSORBIT =      F    spin-orbit coupling
   INIWAV =      1    electr: 0-lowe 1-rand  2-diag
   LASPH  =      F    aspherical Exc in radial PAW
   METAGGA=      F    non-selfconsistent MetaGGA calc.

 Electronic Relaxation 1
   ENCUT  =  600.0 eV  44.10 Ry    6.64 a.u.  27.55 27.55 55.54*2*pi/ulx,y,z
   ENINI  =  600.0     initial cutoff
   ENAUG  =  644.9 eV  augmentation charge cutoff
   NELM   =     60;   NELMIN=  2; NELMDL= -5     # of ELM steps 
   EDIFF  = 0.1E-05   stopping-criterion for ELM
   LREAL  =      T    real-space projection
   NLSPLINE    = F    spline interpolate recip. space projectors
   LCOMPAT=      F    compatible to vasp.4.4
   GGA_COMPAT  = T    GGA compatible to vasp.4.4-vasp.4.6
   LMAXPAW     = -100 max onsite density
   LMAXMIX     =    2 max onsite mixed and CHGCAR
   VOSKOWN=      0    Vosko Wilk Nusair interpolation
   ROPT   =   -0.00025  -0.00025  -0.00025
 Ionic relaxation
   EDIFFG = -.1E-01   stopping-criterion for IOM
   NSW    =      1    number of steps for IOM
   NBLOCK =      1;   KBLOCK =      1    inner block; outer block 
   IBRION =     -1    ionic relax: 0-MD 1-quasi-New 2-CG
   NFREE  =      0    steps in history (QN), initial steepest desc. (CG)
   ISIF   =      2    stress and relaxation
   IWAVPR =     10    prediction:  0-non 1-charg 2-wave 3-comb
   ISYM   =      2    0-nonsym 1-usesym 2-fastsym
   LCORR  =      T    Harris-Foulkes like correction to forces

   POTIM  = 1.0000    time-step for ionic-motion
   TEIN   =    0.0    initial temperature
   TEBEG  =    0.0;   TEEND  =   0.0 temperature during run
   SMASS  =  -3.00    Nose mass-parameter (am)
   estimated Nose-frequenzy (Omega)   =  0.10E-29 period in steps =****** mass=  -0.435E-26a.u.
   SCALEE = 1.0000    scale energy and forces
   NPACO  =    256;   APACO  = 16.0  distance and # of slots for P.C.
   PSTRESS=    0.0 pullay stress

  Mass of Ions in am
   POMASS =  44.96 35.45 12.01
  Ionic Valenz
   ZVAL   =  11.00  7.00  4.00
  Atomic Wigner-Seitz radii
   RWIGS  =  -1.00 -1.00 -1.00
  virtual crystal weights 
   VCA    =   1.00  1.00  1.00
   NELECT =     640.0000    total number of electrons
   NUPDOWN=      -1.0000    fix difference up-down

 DOS related values:
   EMIN   =  10.00;   EMAX   =-10.00  energy-range for DOS
   EFERMI =   0.00
   ISMEAR =     0;   SIGMA  =   0.05  broadening in eV -4-tet -1-fermi 0-gaus

 Electronic relaxation 2 (details)
   IALGO  =     38    algorithm
   LDIAG  =      T    sub-space diagonalisation (order eigenvalues)
   LSUBROT=      F    optimize rotation matrix (better conditioning)
   TURBO    =      0    0=normal 1=particle mesh
   IRESTART =      0    0=no restart 2=restart with 2 vectors
   NREBOOT  =      0    no. of reboots
   NMIN     =      0    reboot dimension
   EREF     =   0.00    reference energy to select bands
   IMIX   =      4    mixing-type and parameters
     AMIX     =   0.40;   BMIX     =  1.00
     AMIX_MAG =   1.60;   BMIX_MAG =  1.00
     AMIN     =   0.10
     WC   =   100.;   INIMIX=   1;  MIXPRE=   1;  MAXMIX= -45

 Intra band minimization:
   WEIMIN = 0.0000     energy-eigenvalue tresh-hold
   EBREAK =  0.65E-09  absolut break condition
   DEPER  =   0.30     relativ break condition  

   TIME   =   0.40     timestep for ELM

  volume/ion in A,a.u.               =      57.28       386.56
  Fermi-wavevector in a.u.,A,eV,Ry     =   0.849369  1.605075  9.815628  0.721428
  Thomas-Fermi vector in A             =   1.965179
 
 Write flags
   LWAVE        =      F    write WAVECAR
   LDOWNSAMPLE  =      F    k-point downsampling of WAVECAR
   LCHARG       =      F    write CHGCAR
   LVTOT        =      F    write LOCPOT, total local potential
   LVHAR        =      F    write LOCPOT, Hartree potential only
   LELF         =      F    write electronic localiz. function (ELF)
   LORBIT       =      0    0 simple, 1 ext, 2 COOP (PROOUT), +10 PAW based schemes


 Dipole corrections
   LMONO  =      F    monopole corrections only (constant potential shift)
   LDIPOL =      F    correct potential (dipole corrections)
   IDIPOL =      0    1-x, 2-y, 3-z, 4-all directions 
   EPSILON=  1.0000000 bulk dielectric constant

 Exchange correlation treatment:
   GGA     =    --    GGA type
   LEXCH   =     8    internal setting for exchange type
   VOSKOWN=      0    Vosko Wilk Nusair interpolation
   LHFCALC =     F    Hartree Fock is set to
   LHFONE  =     F    Hartree Fock one center treatment
   AEXX    =    0.0000 exact exchange contribution

 Linear response parameters
   LEPSILON=     F    determine dielectric tensor
   LRPA    =     F    only Hartree local field effects (RPA)
   LNABLA  =     F    use nabla operator in PAW spheres
   LVEL    =     F    velocity operator in full k-point grid
   LINTERFAST=   F  fast interpolation
   KINTER  =     0    interpolate to denser k-point grid
   CSHIFT  =0.1000    complex shift for real part using Kramers Kronig
   OMEGAMAX=  -1.0    maximum frequency
   DEG_THRESHOLD= 0.2000000E-02 threshold for treating states as degnerate
   RTIME   =   -0.100 relaxation time in fs
  (WPLASMAI=    0.000 imaginary part of plasma frequency in eV, 0.658/RTIME)
   DFIELD  = 0.0000000 0.0000000 0.0000000 field for delta impulse in time
 
 Orbital magnetization related:
   ORBITALMAG=     F  switch on orbital magnetization
   LCHIMAG   =     F  perturbation theory with respect to B field
   DQ        =  0.001000  dq finite difference perturbation B field
   LLRAUG    =     F  two centre corrections for induced B field



--------------------------------------------------------------------------------------------------------


 Static calculation
 charge density and potential will be updated during run
 non-spin polarized calculation
 Variant of blocked Davidson
 Davidson routine will perform the subspace rotation
 perform sub-space diagonalisation
    after iterative eigenvector-optimisation
 modified Broyden-mixing scheme, WC =      100.0
 initial mixing is a Kerker type mixing with AMIX =  0.4000 and BMIX =      1.0000
 Hartree-type preconditioning will be used
 using additional bands           64
 real space projection scheme for non local part
 use partial core corrections
 calculate Harris-corrections to forces 
   (improved forces if not selfconsistent)
 use gradient corrections 
 use of overlap-Matrix (Vanderbilt PP)
 Gauss-broadening in eV      SIGMA  =   0.05


--------------------------------------------------------------------------------------------------------


  energy-cutoff  :      600.00
  volume of cell :     4582.63
      direct lattice vectors                 reciprocal lattice vectors
    13.793986680  0.000000000  0.000000000     0.072495358  0.041855214  0.000000000
    -6.896993340 11.945942880  0.000000000     0.000000000  0.083710429  0.000000000
     0.000000000  0.000000000 27.810221070     0.000000000  0.000000000  0.035958003

  length of vectors
    13.793986680 13.793986676 27.810221070     0.083710429  0.083710429  0.035958003


 
 k-points in units of 2pi/SCALE and weight: read from INCAR                         
   0.00000000  0.00000000  0.00000000       0.111
   0.02416512  0.01395174  0.00000000       0.222
   0.00000000  0.02790348  0.00000000       0.222
   0.02416512  0.04185521  0.00000000       0.222
  -0.02416512  0.01395174  0.00000000       0.222
 
 k-points in reciprocal lattice and weights: read from INCAR                         
   0.00000000  0.00000000  0.00000000       0.111
   0.33333333 -0.00000000  0.00000000       0.222
   0.00000000  0.33333333  0.00000000       0.222
   0.33333333  0.33333333  0.00000000       0.222
  -0.33333333  0.33333333  0.00000000       0.222
 
 position of ions in fractional coordinates (direct lattice) 
   0.08084152  0.17146528  0.54162947
   0.08780835  0.41957418  0.54298225
   0.08214928  0.66602044  0.54601085
   0.07897473  0.91997613  0.54317178
   0.33747072  0.16642474  0.54514094
   0.34469312  0.42333240  0.53670452
   0.33181344  0.67633065  0.54507919
   0.32400758  0.91533757  0.54658027
   0.58779142  0.17141844  0.54843549
   0.58759334  0.41914372  0.54277034
   0.58093054  0.66444966  0.54715154
   0.58443166  0.91449050  0.54631066
   0.83632077  0.16228090  0.54793527
   0.84118468  0.42511850  0.54640980
   0.84039378  0.66703411  0.53812994
   0.82271759  0.90272984  0.54801327
   0.16514578  0.07928087  0.45585882
   0.16518333  0.33120213  0.44988979
   0.15384224  0.57396787  0.45171355
   0.16987001  0.83270216  0.45617149
   0.41830730  0.08677392  0.45951358
   0.42408616  0.33311549  0.45150045
   0.42233535  0.59802710  0.45489717
   0.41503196  0.83801507  0.45730283
   0.65928947  0.09033943  0.45759018
   0.66836306  0.33385885  0.45294677
   0.66298907  0.58455706  0.45335714
   0.66860561  0.83964264  0.46013523
   0.91831809  0.08209862  0.45802623
   0.90637910  0.31601659  0.45115088
   0.91164117  0.57774204  0.45267844
   0.92124577  0.82997108  0.45236118
   0.08126552  0.16477854  0.39552032
   0.07406174  0.40621582  0.39385384
   0.07803902  0.65775881  0.39351572
   0.08622097  0.90838454  0.39087656
   0.32852442  0.17570657  0.39527889
   0.33937094  0.43022094  0.39926526
   0.31311459  0.66305384  0.39315108
   0.33105773  0.92156876  0.39730303
   0.58172032  0.17348061  0.39297537
   0.60634781  0.43547056  0.39185798
   0.58073240  0.67457411  0.39982213
   0.57141725  0.89493667  0.40023901
   0.81601350  0.16675684  0.39181330
   0.82001479  0.40553802  0.39034001
   0.83851644  0.67169840  0.39198766
   0.82272150  0.91950827  0.39410053
   0.17324966  0.08847553  0.60205056
   0.17675435  0.33412154  0.60273815
   0.17049202  0.57553387  0.60609579
   0.17481495  0.84658778  0.60640510
   0.42015153  0.07766712  0.60726531
   0.39949326  0.33341303  0.60485907
   0.41712840  0.56740214  0.60638520
   0.42818201  0.83657290  0.60705817
   0.66812616  0.07752827  0.60984629
   0.65579213  0.34548318  0.61071366
   0.66662298  0.57575714  0.59999670
   0.67030630  0.82465563  0.61176736
   0.93330623  0.08836134  0.61113635
   0.92480225  0.34598586  0.60357366
   0.92687682  0.57537532  0.60874763
   0.91968957  0.82887953  0.60425962
   0.99963475  0.99894268  0.50114730
   0.99729591  0.24896128  0.49595843
   0.99559122  0.50158276  0.50328758
   0.00171051  0.74872834  0.49679008
   0.25844015  0.00292197  0.49921021
   0.25542325  0.24834735  0.49485335
   0.25935720  0.50760670  0.49370445
   0.24375848  0.74934625  0.50043729
   0.49093785  0.98770999  0.50088167
   0.50661221  0.25469293  0.50260533
   0.50810442  0.50876192  0.49858148
   0.50008523  0.75653398  0.50845832
   0.74574412  0.99013133  0.50602793
   0.75008040  0.23529774  0.50267411
   0.74298713  0.48904280  0.49856812
   0.76012087  0.75006849  0.49973630
 
 position of ions in cartesian coordinates  (Angst):
  -0.06746805  2.04831440 15.06283523
  -1.68257307  5.01220919 15.10045639
  -3.46037253  7.95624215 15.18468232
  -5.25569289 10.98998232 15.10572716
   3.50723630  1.98810048 15.16049014
   1.83497158  5.05710469 14.92587129
  -0.08761787  8.07940733 15.15877289
  -1.84372082 10.93457032 15.20051803
   6.92571519  2.04775492 15.25211214
   5.21442322  5.00706689 15.09456328
   3.43064327  7.93747772 15.21640541
   1.75440768 10.92445125 15.19302026
  10.41694734  1.93859836 15.23820093
   8.67125077  5.07844135 15.19577743
   6.99185082  7.96835133 14.96551265
   5.12243379 10.78395905 15.24037022
   1.73121910  0.94708477 12.67753460
  -0.00576226  3.95652171 12.51153465
  -1.83655474  6.85658743 12.56225370
  -3.39995666  9.94741248 12.68622999
   5.17164616  1.03659635 12.77917421
   3.55234349  3.97937859 12.55632744
   1.70109927  7.14399753 12.65079096
  -0.05483905 10.01088014 12.71769273
   8.47115976  1.07918962 12.72568416
   6.91676886  3.98825871 12.59654973
   5.11357620  6.98308530 12.60796219
   3.43172718 10.03032304 12.79646253
  12.10103389  0.98074543 12.73781072
  10.32301684  3.77511619 12.54660572
   8.59048307  6.90167346 12.58908742
   6.98334687  9.91478708 12.58026443
  -0.01550102  1.96843500 10.99950742
  -1.78006121  4.85263103 10.95316229
  -3.46008895  7.85754922 10.94375903
  -5.07579121 10.85150982 10.87036361
   3.31981438  2.09898070 10.99279340
   1.71404728  5.13939479 11.10365503
  -0.25397944  7.92080329 10.93361858
  -1.78944769 11.00900775 11.04908496
   6.82774774  2.07238945 10.92873193
   5.36051606  5.20210647 10.89765703
   3.35808181  8.05842380 11.11914184
   1.70974962 10.69086239 11.13073534
  10.10595854  1.99206764 10.89641445
   8.51428005  4.84453398 10.85544195
   6.93378530  8.02407068 10.90126359
   5.00676695 10.98439331 10.96002282
   1.77958839  1.05692366 16.74315912
   0.13371318  3.99139680 16.76228131
  -1.61768865  6.87529471 16.85565804
  -3.42751517 10.11328922 16.86426002
   5.25989503  0.92780696 16.88818263
   3.21105725  3.98293305 16.82126455
   1.84049482  6.77815350 16.86370654
   0.13649922  9.99365205 16.88242189
   8.68141135  0.92614824 16.95996004
   6.66319267  4.12712239 16.98408201
   5.22439530  6.87796196 16.68604098
   3.55855177  9.85128903 17.01338562
  12.26458606  1.05555957 16.99583688
  10.37044775  4.13312734 16.78551700
   8.81696677  6.87340072 16.92940627
   6.96940909  9.90174755 16.80459360
   6.89924742 11.93331224 13.93701723
  12.03960225  2.97407727 13.79271350
  10.27375904  5.99187903 13.99653881
  -5.14037966  8.94426604 13.81584197
   3.54476720  0.03490569 13.88314629
   1.81045492  2.96674323 13.76198112
   0.07660969  6.06384062 13.73002979
  -1.80583489  8.95164753 13.91727166
  -0.04023908 11.79912714 13.92962989
   5.23158663  3.04254718 13.97756521
   3.49985797  6.07764087 13.86566107
   1.68035914  9.03751173 14.14033841
   3.45785528 11.82805234 14.07274861
   8.72375215  2.81085337 13.97947816
   6.87582968  5.84207735 13.86528960
   5.31187980  8.96027537 13.89777692
 


--------------------------------------------------------------------------------------------------------


 k-point  1 :   0.0000 0.0000 0.0000  plane waves:  153003
 k-point  2 :   0.3333-0.0000 0.0000  plane waves:  152954
 k-point  3 :   0.0000 0.3333 0.0000  plane waves:  152954
 k-point  4 :   0.3333 0.3333 0.0000  plane waves:  152898
 k-point  5 :  -0.3333 0.3333 0.0000  plane waves:  152954

 maximum and minimum number of plane-waves per node :     11814    11730

 maximum number of plane-waves:    153003
 maximum index in each direction: 
   IXMAX=   27   IYMAX=   27   IZMAX=   55
   IXMIN=  -27   IYMIN=  -27   IZMIN=  -55


 real space projection operators:
  total allocation   :      55009.09 KBytes
  max/ min on nodes  :       4437.88       3889.48


 parallel 3D FFT for wavefunctions:
    minimum data exchange during FFTs selected (reduces bandwidth)
 parallel 3D FFT for charge:
    minimum data exchange during FFTs selected (reduces bandwidth)


 total amount of memory used by VASP MPI-rank0   253974. kBytes
=======================================================================

   base      :      30000. kBytes
   nonlr-proj:      18790. kBytes
   fftplans  :      72602. kBytes
   grid      :      41267. kBytes
   one-center:        108. kBytes
   wavefun   :      91207. kBytes
 
     INWAV:  cpu time    0.0001: real time    0.0000
 Broyden mixing: mesh for mixing (old mesh)
   NGX = 55   NGY = 55   NGZ =111
  (NGX  =224   NGY  =224   NGZ  =448)
  gives a total of 335775 points

 initial charge density was supplied:
 charge density of overlapping atoms calculated
 number of electron     640.0000000 magnetization 
 keeping initial charge density in first step


--------------------------------------------------------------------------------------------------------


 Maximum index for non-local projection operator          943
 Maximum index for augmentation-charges         4809 (set IRDMAX)


--------------------------------------------------------------------------------------------------------


 First call to EWALD:  gamma=   0.107
 Maximum number of real-space cells 4x 4x 2
 Maximum number of reciprocal cells 2x 2x 4

    FEWALD:  cpu time    0.0029: real time    0.0029


--------------------------------------- Iteration      1(   1)  ---------------------------------------


    POTLOK:  cpu time    0.4116: real time    0.4163
    SETDIJ:  cpu time    0.4202: real time    0.4207
     EDDAV:  cpu time   50.2587: real time   50.2697
       DOS:  cpu time    0.0015: real time    0.0015
    --------------------------------------------
      LOOP:  cpu time   51.0920: real time   51.1082

 eigenvalue-minimisations  :  4432
 total energy-change (2. order) : 0.1221111E+05  (-0.2677722E+05)
 number of electron     640.0000000 magnetization 
 augmentation part      640.0000000 magnetization 

 Free energy of the ion-electron system (eV)
  ---------------------------------------------------
  alpha Z        PSCENC =       784.57699423
  Ewald energy   TEWEN  =    251193.03546248
  -Hartree energ DENC   =   -298867.07149147
  -exchange      EXHF   =         0.00000000
  -V(xc)+E(xc)   XCENC  =      2501.90504397
  PAW double counting   =     43679.68029659   -43417.33247688
  entropy T*S    EENTRO =        -0.06801391
  eigenvalues    EBANDS =       125.65554155
  atomic energy  EATOM  =     56210.72393729
  Solvation  Ediel_sol  =         0.00000000
  ---------------------------------------------------
  free energy    TOTEN  =     12211.10529385 eV

  energy without entropy =    12211.17330776  energy(sigma->0) =    12211.13930080


--------------------------------------------------------------------------------------------------------




--------------------------------------- Iteration      1(   2)  ---------------------------------------


     EDDAV:  cpu time   56.8930: real time   56.9113
       DOS:  cpu time    0.0011: real time    0.0011
    --------------------------------------------
      LOOP:  cpu time   56.8942: real time   56.9125

 eigenvalue-minimisations  :  5216
 total energy-change (2. order) :-0.1046490E+05  (-0.1019899E+05)
 number of electron     640.0000000 magnetization 
 augmentation part      640.0000000 magnetization 

 Free energy of the ion-electron system (eV)
  ---------------------------------------------------
  alpha Z        PSCENC =       784.57699423
  Ewald energy   TEWEN  =    251193.03546248
  -Hartree energ DENC   =   -298867.07149147
  -exchange      EXHF   =         0.00000000
  -V(xc)+E(xc)   XCENC  =      2501.90504397
  PAW double counting   =     43679.68029659   -43417.33247688
  entropy T*S    EENTRO =        -0.04655794
  eigenvalues    EBANDS =    -10339.27045165
  atomic energy  EATOM  =     56210.72393729
  Solvation  Ediel_sol  =         0.00000000
  ---------------------------------------------------
  free energy    TOTEN  =      1746.20075662 eV

  energy without entropy =     1746.24731456  energy(sigma->0) =     1746.22403559


--------------------------------------------------------------------------------------------------------




--------------------------------------- Iteration      1(   3)  ---------------------------------------


     EDDAV:  cpu time   70.8975: real time   70.9161
       DOS:  cpu time    0.0008: real time    0.0008
    --------------------------------------------
      LOOP:  cpu time   70.8982: real time   70.9169

 eigenvalue-minimisations  :  6800
 total energy-change (2. order) :-0.2150691E+04  (-0.2063957E+04)
 number of electron     640.0000000 magnetization 
 augmentation part      640.0000000 magnetization 

 Free energy of the ion-electron system (eV)
  ---------------------------------------------------
  alpha Z        PSCENC =       784.57699423
  Ewald energy   TEWEN  =    251193.03546248
  -Hartree energ DENC   =   -298867.07149147
  -exchange      EXHF   =         0.00000000
  -V(xc)+E(xc)   XCENC  =      2501.90504397
  PAW double counting   =     43679.68029659   -43417.33247688
  entropy T*S    EENTRO =        -0.00000004
  eigenvalues    EBANDS =    -12490.00770593
  atomic energy  EATOM  =     56210.72393729
  Solvation  Ediel_sol  =         0.00000000
  ---------------------------------------------------
  free energy    TOTEN  =      -404.48993976 eV

  energy without entropy =     -404.48993972  energy(sigma->0) =     -404.48993974


--------------------------------------------------------------------------------------------------------




--------------------------------------- Iteration      1(   4)  ---------------------------------------


     EDDAV:  cpu time   64.6269: real time   64.6477
       DOS:  cpu time    0.0005: real time    0.0005
    --------------------------------------------
      LOOP:  cpu time   64.6274: real time   64.6482

 eigenvalue-minimisations  :  6088
 total energy-change (2. order) :-0.2390442E+03  (-0.2345023E+03)
 number of electron     640.0000000 magnetization 
 augmentation part      640.0000000 magnetization 

 Free energy of the ion-electron system (eV)
  ---------------------------------------------------
  alpha Z        PSCENC =       784.57699423
  Ewald energy   TEWEN  =    251193.03546248
  -Hartree energ DENC   =   -298867.07149147
  -exchange      EXHF   =         0.00000000
  -V(xc)+E(xc)   XCENC  =      2501.90504397
  PAW double counting   =     43679.68029659   -43417.33247688
  entropy T*S    EENTRO =        -0.00000000
  eigenvalues    EBANDS =    -12729.05189383
  atomic energy  EATOM  =     56210.72393729
  Solvation  Ediel_sol  =         0.00000000
  ---------------------------------------------------
  free energy    TOTEN  =      -643.53412762 eV

  energy without entropy =     -643.53412762  energy(sigma->0) =     -643.53412762


--------------------------------------------------------------------------------------------------------




--------------------------------------- Iteration      1(   5)  ---------------------------------------


     EDDAV:  cpu time   64.5226: real time   64.5435
       DOS:  cpu time    0.0006: real time    0.0006
    CHARGE:  cpu time    3.8889: real time    3.8896
    MIXING:  cpu time    0.0136: real time    0.0138
    --------------------------------------------
      LOOP:  cpu time   68.4257: real time   68.4475

 eigenvalue-minimisations  :  6080
 total energy-change (2. order) :-0.1053395E+02  (-0.1048007E+02)
 number of electron     640.0000003 magnetization 
 augmentation part       59.1334838 magnetization 

 Broyden mixing:
  rms(total) = 0.68919E+01    rms(broyden)= 0.68917E+01
  rms(prec ) = 0.72572E+01
  weight for this iteration     100.00

 Free energy of the ion-electron system (eV)
  ---------------------------------------------------
  alpha Z        PSCENC =       784.57699423
  Ewald energy   TEWEN  =    251193.03546248
  -Hartree energ DENC   =   -298867.07149147
  -exchange      EXHF   =         0.00000000
  -V(xc)+E(xc)   XCENC  =      2501.90504397
  PAW double counting   =     43679.68029659   -43417.33247688
  entropy T*S    EENTRO =        -0.00000000
  eigenvalues    EBANDS =    -12739.58584205
  atomic energy  EATOM  =     56210.72393729
  Solvation  Ediel_sol  =         0.00000000
  ---------------------------------------------------
  free energy    TOTEN  =      -654.06807585 eV

  energy without entropy =     -654.06807585  energy(sigma->0) =     -654.06807585


--------------------------------------------------------------------------------------------------------




--------------------------------------- Iteration      1(   6)  ---------------------------------------


    POTLOK:  cpu time    0.3852: real time    0.3933
    SETDIJ:  cpu time    0.4168: real time    0.4170
     EDDAV:  cpu time   62.4614: real time   62.4734
       DOS:  cpu time    0.0007: real time    0.0007
    CHARGE:  cpu time    3.8799: real time    3.8807
    MIXING:  cpu time    0.0141: real time    0.0141
    --------------------------------------------
      LOOP:  cpu time   67.1580: real time   67.1791

 eigenvalue-minimisations  :  5832
 total energy-change (2. order) : 0.1304605E+03  (-0.6999248E+02)
 number of electron     640.0000004 magnetization 
 augmentation part       70.0168259 magnetization 

 Broyden mixing:
  rms(total) = 0.30084E+01    rms(broyden)= 0.30082E+01
  rms(prec ) = 0.30410E+01
  weight for this iteration     100.00

 eigenvalues of (default mixing * dielectric matrix)
  average eigenvalue GAMMA=   0.9478
  0.9478

 Free energy of the ion-electron system (eV)
  ---------------------------------------------------
  alpha Z        PSCENC =       784.57699423
  Ewald energy   TEWEN  =    251193.03546248
  -Hartree energ DENC   =   -298665.23414836
  -exchange      EXHF   =         0.00000000
  -V(xc)+E(xc)   XCENC  =      2491.46309956
  PAW double counting   =     49092.68265186   -48884.79005412
  entropy T*S    EENTRO =        -0.00000000
  eigenvalues    EBANDS =    -12746.06555813
  atomic energy  EATOM  =     56210.72393729
  Solvation  Ediel_sol  =         0.00000000
  ---------------------------------------------------
  free energy    TOTEN  =      -523.60761520 eV

  energy without entropy =     -523.60761520  energy(sigma->0) =     -523.60761520


--------------------------------------------------------------------------------------------------------




--------------------------------------- Iteration      1(   7)  ---------------------------------------


    POTLOK:  cpu time    0.3842: real time    0.3951
    SETDIJ:  cpu time    0.4164: real time    0.4166
     EDDAV:  cpu time   62.8722: real time   62.8844
       DOS:  cpu time    0.0006: real time    0.0006
    CHARGE:  cpu time    3.8780: real time    3.8787
    MIXING:  cpu time    0.0144: real time    0.0144
    --------------------------------------------
      LOOP:  cpu time   67.5658: real time   67.5897

 eigenvalue-minimisations  :  5880
 total energy-change (2. order) :-0.4817195E+01  (-0.8672941E+01)
 number of electron     640.0000004 magnetization 
 augmentation part       69.4995153 magnetization 

 Broyden mixing:
  rms(total) = 0.15150E+01    rms(broyden)= 0.15149E+01
  rms(prec ) = 0.15511E+01
  weight for this iteration     100.00

 eigenvalues of (default mixing * dielectric matrix)
  average eigenvalue GAMMA=   1.0005
  1.0005  1.0005

 Free energy of the ion-electron system (eV)
  ---------------------------------------------------
  alpha Z        PSCENC =       784.57699423
  Ewald energy   TEWEN  =    251193.03546248
  -Hartree energ DENC   =   -298760.66179785
  -exchange      EXHF   =         0.00000000
  -V(xc)+E(xc)   XCENC  =      2487.37287619
  PAW double counting   =     54010.13065074   -53816.43053522
  entropy T*S    EENTRO =        -0.00000000
  eigenvalues    EBANDS =    -12637.17239766
  atomic energy  EATOM  =     56210.72393729
  Solvation  Ediel_sol  =         0.00000000
  ---------------------------------------------------
  free energy    TOTEN  =      -528.42480981 eV

  energy without entropy =     -528.42480981  energy(sigma->0) =     -528.42480981


--------------------------------------------------------------------------------------------------------




--------------------------------------- Iteration      1(   8)  ---------------------------------------


    POTLOK:  cpu time    0.3851: real time    0.3929
    SETDIJ:  cpu time    0.4167: real time    0.4166
     EDDAV:  cpu time   63.5702: real time   63.5839
       DOS:  cpu time    0.0005: real time    0.0005
    CHARGE:  cpu time    3.8842: real time    3.8849
    MIXING:  cpu time    0.0139: real time    0.0139
    --------------------------------------------
      LOOP:  cpu time   68.2706: real time   68.2928

 eigenvalue-minimisations  :  5960
 total energy-change (2. order) : 0.2238930E+01  (-0.9755679E+00)
 number of electron     640.0000004 magnetization 
 augmentation part       69.2303315 magnetization 

 Broyden mixing:
  rms(total) = 0.91970E+00    rms(broyden)= 0.91969E+00
  rms(prec ) = 0.93557E+00
  weight for this iteration     100.00

 eigenvalues of (default mixing * dielectric matrix)
  average eigenvalue GAMMA=   1.4330
  2.5617  0.8687  0.8687

 Free energy of the ion-electron system (eV)
  ---------------------------------------------------
  alpha Z        PSCENC =       784.57699423
  Ewald energy   TEWEN  =    251193.03546248
  -Hartree energ DENC   =   -298827.83972274
  -exchange      EXHF   =         0.00000000
  -V(xc)+E(xc)   XCENC  =      2487.37675763
  PAW double counting   =     55897.71988355   -55714.56551607
  entropy T*S    EENTRO =        -0.00000000
  eigenvalues    EBANDS =    -12557.21367613
  atomic energy  EATOM  =     56210.72393729
  Solvation  Ediel_sol  =         0.00000000
  ---------------------------------------------------
  free energy    TOTEN  =      -526.18587976 eV

  energy without entropy =     -526.18587976  energy(sigma->0) =     -526.18587976


--------------------------------------------------------------------------------------------------------




--------------------------------------- Iteration      1(   9)  ---------------------------------------


    POTLOK:  cpu time    0.3846: real time    0.3935
    SETDIJ:  cpu time    0.4163: real time    0.4165
     EDDAV:  cpu time   57.8816: real time   57.8928
       DOS:  cpu time    0.0005: real time    0.0005
    CHARGE:  cpu time    3.8839: real time    3.8846
    MIXING:  cpu time    0.0145: real time    0.0145
    --------------------------------------------
      LOOP:  cpu time   62.5814: real time   62.6024

 eigenvalue-minimisations  :  5312
 total energy-change (2. order) : 0.5182399E+00  (-0.3632805E+00)
 number of electron     640.0000004 magnetization 
 augmentation part       69.9641547 magnetization 

 Broyden mixing:
  rms(total) = 0.30248E+00    rms(broyden)= 0.30246E+00
  rms(prec ) = 0.31510E+00
  weight for this iteration     100.00

 eigenvalues of (default mixing * dielectric matrix)
  average eigenvalue GAMMA=   1.2247
  2.1209  0.8668  0.8668  1.0443

 Free energy of the ion-electron system (eV)
  ---------------------------------------------------
  alpha Z        PSCENC =       784.57699423
  Ewald energy   TEWEN  =    251193.03546248
  -Hartree energ DENC   =   -298953.20044790
  -exchange      EXHF   =         0.00000000
  -V(xc)+E(xc)   XCENC  =      2486.80521347
  PAW double counting   =     59639.33878592   -59473.33578759
  entropy T*S    EENTRO =        -0.00000000
  eigenvalues    EBANDS =    -12413.61179777
  atomic energy  EATOM  =     56210.72393729
  Solvation  Ediel_sol  =         0.00000000
  ---------------------------------------------------
  free energy    TOTEN  =      -525.66763988 eV

  energy without entropy =     -525.66763988  energy(sigma->0) =     -525.66763988


--------------------------------------------------------------------------------------------------------




--------------------------------------- Iteration      1(  10)  ---------------------------------------


    POTLOK:  cpu time    0.3860: real time    0.3941
    SETDIJ:  cpu time    0.4171: real time    0.4171
     EDDAV:  cpu time   60.6312: real time   60.6498
       DOS:  cpu time    0.0006: real time    0.0006
    CHARGE:  cpu time    3.8791: real time    3.8798
    MIXING:  cpu time    0.0142: real time    0.0142
    --------------------------------------------
      LOOP:  cpu time   65.3282: real time   65.3556

 eigenvalue-minimisations  :  5624
 total energy-change (2. order) : 0.1269262E+00  (-0.5992564E-01)
 number of electron     640.0000004 magnetization 
 augmentation part       69.7584940 magnetization 

 Broyden mixing:
  rms(total) = 0.17164E+00    rms(broyden)= 0.17164E+00
  rms(prec ) = 0.17804E+00
  weight for this iteration     100.00

 eigenvalues of (default mixing * dielectric matrix)
  average eigenvalue GAMMA=   1.2344
  1.9352  1.7899  0.9000  0.9000  0.6468

 Free energy of the ion-electron system (eV)
  ---------------------------------------------------
  alpha Z        PSCENC =       784.57699423
  Ewald energy   TEWEN  =    251193.03546248
  -Hartree energ DENC   =   -298980.08999723
  -exchange      EXHF   =         0.00000000
  -V(xc)+E(xc)   XCENC  =      2487.44906481
  PAW double counting   =     59042.54747081   -58873.87715791
  entropy T*S    EENTRO =        -0.00000000
  eigenvalues    EBANDS =    -12389.90648817
  atomic energy  EATOM  =     56210.72393729
  Solvation  Ediel_sol  =         0.00000000
  ---------------------------------------------------
  free energy    TOTEN  =      -525.54071370 eV

  energy without entropy =     -525.54071370  energy(sigma->0) =     -525.54071370


--------------------------------------------------------------------------------------------------------




--------------------------------------- Iteration      1(  11)  ---------------------------------------


    POTLOK:  cpu time    0.3855: real time    0.3933
    SETDIJ:  cpu time    0.4173: real time    0.4173
     EDDAV:  cpu time   60.8666: real time   60.8782
       DOS:  cpu time    0.0006: real time    0.0006
    CHARGE:  cpu time    3.8750: real time    3.8755
    MIXING:  cpu time    0.0191: real time    0.0191
    --------------------------------------------
      LOOP:  cpu time   65.5642: real time   65.5841

 eigenvalue-minimisations  :  5648
 total energy-change (2. order) : 0.1965320E-01  (-0.1844052E-01)
 number of electron     640.0000004 magnetization 
 augmentation part       69.6840511 magnetization 

 Broyden mixing:
  rms(total) = 0.77285E-01    rms(broyden)= 0.77284E-01
  rms(prec ) = 0.82937E-01
  weight for this iteration     100.00

 eigenvalues of (default mixing * dielectric matrix)
  average eigenvalue GAMMA=   1.2788
  2.5375  1.6456  0.8934  0.8934  0.9709  0.7319

 Free energy of the ion-electron system (eV)
  ---------------------------------------------------
  alpha Z        PSCENC =       784.57699423
  Ewald energy   TEWEN  =    251193.03546248
  -Hartree energ DENC   =   -299030.41483434
  -exchange      EXHF   =         0.00000000
  -V(xc)+E(xc)   XCENC  =      2488.05914904
  PAW double counting   =     59158.58137917   -58990.08508052
  entropy T*S    EENTRO =        -0.00000000
  eigenvalues    EBANDS =    -12339.99806785
  atomic energy  EATOM  =     56210.72393729
  Solvation  Ediel_sol  =         0.00000000
  ---------------------------------------------------
  free energy    TOTEN  =      -525.52106050 eV

  energy without entropy =     -525.52106050  energy(sigma->0) =     -525.52106050


--------------------------------------------------------------------------------------------------------




--------------------------------------- Iteration      1(  12)  ---------------------------------------


    POTLOK:  cpu time    0.3861: real time    0.3935
    SETDIJ:  cpu time    0.4179: real time    0.4179
     EDDAV:  cpu time   64.4945: real time   64.5070
       DOS:  cpu time    0.0006: real time    0.0006
    CHARGE:  cpu time    3.8679: real time    3.8688
    MIXING:  cpu time    0.0191: real time    0.0191
    --------------------------------------------
      LOOP:  cpu time   69.1859: real time   69.2067

 eigenvalue-minimisations  :  6064
 total energy-change (2. order) : 0.1371364E-01  (-0.3352544E-02)
 number of electron     640.0000004 magnetization 
 augmentation part       69.7049260 magnetization 

 Broyden mixing:
  rms(total) = 0.28942E-01    rms(broyden)= 0.28941E-01
  rms(prec ) = 0.35627E-01
  weight for this iteration     100.00

 eigenvalues of (default mixing * dielectric matrix)
  average eigenvalue GAMMA=   1.2770
  2.2318  2.2318  0.9345  0.9345  0.9585  0.9585  0.6897

 Free energy of the ion-electron system (eV)
  ---------------------------------------------------
  alpha Z        PSCENC =       784.57699423
  Ewald energy   TEWEN  =    251193.03546248
  -Hartree energ DENC   =   -299063.21947332
  -exchange      EXHF   =         0.00000000
  -V(xc)+E(xc)   XCENC  =      2488.40619218
  PAW double counting   =     59301.81588834   -59133.79749013
  entropy T*S    EENTRO =        -0.00000000
  eigenvalues    EBANDS =    -12307.04885793
  atomic energy  EATOM  =     56210.72393729
  Solvation  Ediel_sol  =         0.00000000
  ---------------------------------------------------
  free energy    TOTEN  =      -525.50734686 eV

  energy without entropy =     -525.50734686  energy(sigma->0) =     -525.50734686


--------------------------------------------------------------------------------------------------------




--------------------------------------- Iteration      1(  13)  ---------------------------------------


    POTLOK:  cpu time    0.3849: real time    0.3938
    SETDIJ:  cpu time    0.4173: real time    0.4175
     EDDAV:  cpu time   58.4427: real time   58.4544
       DOS:  cpu time    0.0006: real time    0.0006
    CHARGE:  cpu time    3.8850: real time    3.8857
    MIXING:  cpu time    0.0190: real time    0.0190
    --------------------------------------------
      LOOP:  cpu time   63.1495: real time   63.1709

 eigenvalue-minimisations  :  5376
 total energy-change (2. order) : 0.2433375E-02  (-0.7579109E-03)
 number of electron     640.0000004 magnetization 
 augmentation part       69.7073231 magnetization 

 Broyden mixing:
  rms(total) = 0.17287E-01    rms(broyden)= 0.17286E-01
  rms(prec ) = 0.23892E-01
  weight for this iteration     100.00

 eigenvalues of (default mixing * dielectric matrix)
  average eigenvalue GAMMA=   1.3234
  2.7305  2.1265  1.4513  0.9094  0.9094  0.9011  0.9011  0.6576

 Free energy of the ion-electron system (eV)
  ---------------------------------------------------
  alpha Z        PSCENC =       784.57699423
  Ewald energy   TEWEN  =    251193.03546248
  -Hartree energ DENC   =   -299083.41849578
  -exchange      EXHF   =         0.00000000
  -V(xc)+E(xc)   XCENC  =      2488.58995364
  PAW double counting   =     59249.34134499   -59081.08982068
  entropy T*S    EENTRO =        -0.00000000
  eigenvalues    EBANDS =    -12287.26428965
  atomic energy  EATOM  =     56210.72393729
  Solvation  Ediel_sol  =         0.00000000
  ---------------------------------------------------
  free energy    TOTEN  =      -525.50491348 eV

  energy without entropy =     -525.50491348  energy(sigma->0) =     -525.50491348


--------------------------------------------------------------------------------------------------------




--------------------------------------- Iteration      1(  14)  ---------------------------------------


    POTLOK:  cpu time    0.3847: real time    0.3928
    SETDIJ:  cpu time    0.4173: real time    0.4173
     EDDAV:  cpu time   58.7303: real time   58.7296
       DOS:  cpu time    0.0005: real time    0.0005
    CHARGE:  cpu time    3.8802: real time    3.8801
    MIXING:  cpu time    0.0184: real time    0.0184
    --------------------------------------------
      LOOP:  cpu time   63.4314: real time   63.4388

 eigenvalue-minimisations  :  5408
 total energy-change (2. order) : 0.1728019E-02  (-0.5800086E-03)
 number of electron     640.0000004 magnetization 
 augmentation part       69.7154152 magnetization 

 Broyden mixing:
  rms(total) = 0.15955E-01    rms(broyden)= 0.15955E-01
  rms(prec ) = 0.19480E-01
  weight for this iteration     100.00

 eigenvalues of (default mixing * dielectric matrix)
  average eigenvalue GAMMA=   1.3305
  2.6172  2.6172  1.6498  0.9406  0.9406  0.9219  0.9219  0.6825  0.6825

 Free energy of the ion-electron system (eV)
  ---------------------------------------------------
  alpha Z        PSCENC =       784.57699423
  Ewald energy   TEWEN  =    251193.03546248
  -Hartree energ DENC   =   -299109.33170192
  -exchange      EXHF   =         0.00000000
  -V(xc)+E(xc)   XCENC  =      2488.75821525
  PAW double counting   =     59252.43435762   -59084.20090004
  entropy T*S    EENTRO =        -0.00000000
  eigenvalues    EBANDS =    -12261.49955037
  atomic energy  EATOM  =     56210.72393729
  Solvation  Ediel_sol  =         0.00000000
  ---------------------------------------------------
  free energy    TOTEN  =      -525.50318546 eV

  energy without entropy =     -525.50318546  energy(sigma->0) =     -525.50318546


--------------------------------------------------------------------------------------------------------




--------------------------------------- Iteration      1(  15)  ---------------------------------------


    POTLOK:  cpu time    0.3846: real time    0.3932
    SETDIJ:  cpu time    0.4184: real time    0.4184
     EDDAV:  cpu time   59.6439: real time   59.6427
       DOS:  cpu time    0.0007: real time    0.0007
    CHARGE:  cpu time    3.8830: real time    3.8830
    MIXING:  cpu time    0.0183: real time    0.0183
    --------------------------------------------
      LOOP:  cpu time   64.3489: real time   64.3562

 eigenvalue-minimisations  :  5512
 total energy-change (2. order) :-0.1454217E-02  (-0.1808283E-03)
 number of electron     640.0000004 magnetization 
 augmentation part       69.7173329 magnetization 

 Broyden mixing:
  rms(total) = 0.10256E-01    rms(broyden)= 0.10256E-01
  rms(prec ) = 0.13054E-01
  weight for this iteration     100.00

 eigenvalues of (default mixing * dielectric matrix)
  average eigenvalue GAMMA=   1.3470
  2.8128  2.8128  1.3747  1.3747  0.9484  0.9484  0.8622  0.8622  0.8412  0.6323

 Free energy of the ion-electron system (eV)
  ---------------------------------------------------
  alpha Z        PSCENC =       784.57699423
  Ewald energy   TEWEN  =    251193.03546248
  -Hartree energ DENC   =   -299124.96599537
  -exchange      EXHF   =         0.00000000
  -V(xc)+E(xc)   XCENC  =      2488.82672976
  PAW double counting   =     59223.75502241   -59055.43119810
  entropy T*S    EENTRO =        -0.00000000
  eigenvalues    EBANDS =    -12246.02559237
  atomic energy  EATOM  =     56210.72393729
  Solvation  Ediel_sol  =         0.00000000
  ---------------------------------------------------
  free energy    TOTEN  =      -525.50463968 eV

  energy without entropy =     -525.50463968  energy(sigma->0) =     -525.50463968


--------------------------------------------------------------------------------------------------------




--------------------------------------- Iteration      1(  16)  ---------------------------------------


    POTLOK:  cpu time    0.3880: real time    0.3965
    SETDIJ:  cpu time    0.4185: real time    0.4185
     EDDAV:  cpu time   64.5647: real time   64.5797
       DOS:  cpu time    0.0006: real time    0.0006
    CHARGE:  cpu time    3.8779: real time    3.8786
    MIXING:  cpu time    0.0206: real time    0.0206
    --------------------------------------------
      LOOP:  cpu time   69.2702: real time   69.2945

 eigenvalue-minimisations  :  6072
 total energy-change (2. order) :-0.2129974E-02  (-0.9402318E-04)
 number of electron     640.0000004 magnetization 
 augmentation part       69.7162878 magnetization 

 Broyden mixing:
  rms(total) = 0.56141E-02    rms(broyden)= 0.56140E-02
  rms(prec ) = 0.78870E-02
  weight for this iteration     100.00

 eigenvalues of (default mixing * dielectric matrix)
  average eigenvalue GAMMA=   1.4164
  3.5139  2.5570  2.1299  1.3578  0.9841  0.9585  0.9585  0.8752  0.8752  0.7260
  0.6444

 Free energy of the ion-electron system (eV)
  ---------------------------------------------------
  alpha Z        PSCENC =       784.57699423
  Ewald energy   TEWEN  =    251193.03546248
  -Hartree energ DENC   =   -299137.42821959
  -exchange      EXHF   =         0.00000000
  -V(xc)+E(xc)   XCENC  =      2488.88289559
  PAW double counting   =     59210.40744653   -59042.06967074
  entropy T*S    EENTRO =        -0.00000000
  eigenvalues    EBANDS =    -12233.63561544
  atomic energy  EATOM  =     56210.72393729
  Solvation  Ediel_sol  =         0.00000000
  ---------------------------------------------------
  free energy    TOTEN  =      -525.50676965 eV

  energy without entropy =     -525.50676965  energy(sigma->0) =     -525.50676965


--------------------------------------------------------------------------------------------------------




--------------------------------------- Iteration      1(  17)  ---------------------------------------


    POTLOK:  cpu time    0.3884: real time    0.3966
    SETDIJ:  cpu time    0.4176: real time    0.4177
     EDDAV:  cpu time   54.9325: real time   54.9436
       DOS:  cpu time    0.0006: real time    0.0006
    CHARGE:  cpu time    3.8775: real time    3.8783
    MIXING:  cpu time    0.0204: real time    0.0204
    --------------------------------------------
      LOOP:  cpu time   59.6369: real time   59.6572

 eigenvalue-minimisations  :  4976
 total energy-change (2. order) :-0.3443280E-02  (-0.6847730E-04)
 number of electron     640.0000004 magnetization 
 augmentation part       69.7165232 magnetization 

 Broyden mixing:
  rms(total) = 0.32502E-02    rms(broyden)= 0.32501E-02
  rms(prec ) = 0.46298E-02
  weight for this iteration     100.00

 eigenvalues of (default mixing * dielectric matrix)
  average eigenvalue GAMMA=   1.4549
  4.1737  2.6896  2.3484  1.3408  1.0719  0.9312  0.9312  0.8910  0.8910  0.7755
  0.7755  0.6393

 Free energy of the ion-electron system (eV)
  ---------------------------------------------------
  alpha Z        PSCENC =       784.57699423
  Ewald energy   TEWEN  =    251193.03546248
  -Hartree energ DENC   =   -299150.61858514
  -exchange      EXHF   =         0.00000000
  -V(xc)+E(xc)   XCENC  =      2488.92409706
  PAW double counting   =     59209.19518381   -59040.90547675
  entropy T*S    EENTRO =        -0.00000000
  eigenvalues    EBANDS =    -12220.44182591
  atomic energy  EATOM  =     56210.72393729
  Solvation  Ediel_sol  =         0.00000000
  ---------------------------------------------------
  free energy    TOTEN  =      -525.51021293 eV

  energy without entropy =     -525.51021293  energy(sigma->0) =     -525.51021293


--------------------------------------------------------------------------------------------------------




--------------------------------------- Iteration      1(  18)  ---------------------------------------


    POTLOK:  cpu time    0.3901: real time    0.3949
    SETDIJ:  cpu time    0.4171: real time    0.4171
     EDDAV:  cpu time   54.7840: real time   54.7940
       DOS:  cpu time    0.0006: real time    0.0006
    CHARGE:  cpu time    3.8823: real time    3.8830
    MIXING:  cpu time    0.0208: real time    0.0208
    --------------------------------------------
      LOOP:  cpu time   59.4949: real time   59.5104

 eigenvalue-minimisations  :  4960
 total energy-change (2. order) :-0.1969352E-02  (-0.2138449E-04)
 number of electron     640.0000004 magnetization 
 augmentation part       69.7170346 magnetization 

 Broyden mixing:
  rms(total) = 0.21964E-02    rms(broyden)= 0.21964E-02
  rms(prec ) = 0.30303E-02
  weight for this iteration     100.00

 eigenvalues of (default mixing * dielectric matrix)
  average eigenvalue GAMMA=   1.4856
  4.6140  2.6946  2.2716  1.6319  1.1051  1.1051  0.9451  0.9451  0.9008  0.9008
  0.8422  0.6463  0.7096

 Free energy of the ion-electron system (eV)
  ---------------------------------------------------
  alpha Z        PSCENC =       784.57699423
  Ewald energy   TEWEN  =    251193.03546248
  -Hartree energ DENC   =   -299157.64939502
  -exchange      EXHF   =         0.00000000
  -V(xc)+E(xc)   XCENC  =      2488.94329832
  PAW double counting   =     59206.31183218   -59038.03229810
  entropy T*S    EENTRO =        -0.00000000
  eigenvalues    EBANDS =    -12213.42201365
  atomic energy  EATOM  =     56210.72393729
  Solvation  Ediel_sol  =         0.00000000
  ---------------------------------------------------
  free energy    TOTEN  =      -525.51218229 eV

  energy without entropy =     -525.51218229  energy(sigma->0) =     -525.51218229


--------------------------------------------------------------------------------------------------------




--------------------------------------- Iteration      1(  19)  ---------------------------------------


    POTLOK:  cpu time    0.3916: real time    0.3995
    SETDIJ:  cpu time    0.4172: real time    0.4171
     EDDAV:  cpu time   54.4402: real time   54.4501
       DOS:  cpu time    0.0006: real time    0.0006
    CHARGE:  cpu time    3.8728: real time    3.8735
    MIXING:  cpu time    0.0215: real time    0.0215
    --------------------------------------------
      LOOP:  cpu time   59.1438: real time   59.1624

 eigenvalue-minimisations  :  4912
 total energy-change (2. order) :-0.1247549E-02  (-0.1286532E-04)
 number of electron     640.0000004 magnetization 
 augmentation part       69.7164837 magnetization 

 Broyden mixing:
  rms(total) = 0.15674E-02    rms(broyden)= 0.15673E-02
  rms(prec ) = 0.21309E-02
  weight for this iteration     100.00

 eigenvalues of (default mixing * dielectric matrix)
  average eigenvalue GAMMA=   1.5510
  5.2187  2.9168  2.2154  2.2154  1.1717  1.1717  0.9918  0.9918  0.8957  0.8957
  0.8458  0.8458  0.6381  0.7000

 Free energy of the ion-electron system (eV)
  ---------------------------------------------------
  alpha Z        PSCENC =       784.57699423
  Ewald energy   TEWEN  =    251193.03546248
  -Hartree energ DENC   =   -299161.63713052
  -exchange      EXHF   =         0.00000000
  -V(xc)+E(xc)   XCENC  =      2488.95538670
  PAW double counting   =     59205.63160619   -59037.34993321
  entropy T*S    EENTRO =        -0.00000000
  eigenvalues    EBANDS =    -12209.44975300
  atomic energy  EATOM  =     56210.72393729
  Solvation  Ediel_sol  =         0.00000000
  ---------------------------------------------------
  free energy    TOTEN  =      -525.51342984 eV

  energy without entropy =     -525.51342984  energy(sigma->0) =     -525.51342984


--------------------------------------------------------------------------------------------------------




--------------------------------------- Iteration      1(  20)  ---------------------------------------


    POTLOK:  cpu time    0.3924: real time    0.3975
    SETDIJ:  cpu time    0.4173: real time    0.4174
     EDDAV:  cpu time   51.2048: real time   51.2149
       DOS:  cpu time    0.0006: real time    0.0005
    CHARGE:  cpu time    3.8883: real time    3.8891
    MIXING:  cpu time    0.0219: real time    0.0219
    --------------------------------------------
      LOOP:  cpu time   55.9253: real time   55.9413

 eigenvalue-minimisations  :  4536
 total energy-change (2. order) :-0.1063700E-02  (-0.3855639E-05)
 number of electron     640.0000004 magnetization 
 augmentation part       69.7164234 magnetization 

 Broyden mixing:
  rms(total) = 0.10142E-02    rms(broyden)= 0.10140E-02
  rms(prec ) = 0.13430E-02
  weight for this iteration     100.00

 eigenvalues of (default mixing * dielectric matrix)
  average eigenvalue GAMMA=   1.5800
  5.9994  3.0247  2.4655  2.0400  1.3519  1.0630  1.0630  0.9603  0.9603  0.8868
  0.8868  0.8782  0.7857  0.7009  0.6330

 Free energy of the ion-electron system (eV)
  ---------------------------------------------------
  alpha Z        PSCENC =       784.57699423
  Ewald energy   TEWEN  =    251193.03546248
  -Hartree energ DENC   =   -299164.57181805
  -exchange      EXHF   =         0.00000000
  -V(xc)+E(xc)   XCENC  =      2488.95918393
  PAW double counting   =     59205.95702773   -59037.67765002
  entropy T*S    EENTRO =        -0.00000000
  eigenvalues    EBANDS =    -12206.51763112
  atomic energy  EATOM  =     56210.72393729
  Solvation  Ediel_sol  =         0.00000000
  ---------------------------------------------------
  free energy    TOTEN  =      -525.51449354 eV

  energy without entropy =     -525.51449354  energy(sigma->0) =     -525.51449354


--------------------------------------------------------------------------------------------------------




--------------------------------------- Iteration      1(  21)  ---------------------------------------


    POTLOK:  cpu time    0.3924: real time    0.4004
    SETDIJ:  cpu time    0.4166: real time    0.4166
     EDDAV:  cpu time   47.9283: real time   47.9389
       DOS:  cpu time    0.0006: real time    0.0006
    CHARGE:  cpu time    3.8821: real time    3.8829
    MIXING:  cpu time    0.0216: real time    0.0216
    --------------------------------------------
      LOOP:  cpu time   52.6416: real time   52.6610

 eigenvalue-minimisations  :  4160
 total energy-change (2. order) :-0.4362532E-03  (-0.1743995E-05)
 number of electron     640.0000004 magnetization 
 augmentation part       69.7164977 magnetization 

 Broyden mixing:
  rms(total) = 0.74787E-03    rms(broyden)= 0.74770E-03
  rms(prec ) = 0.98720E-03
  weight for this iteration     100.00

 eigenvalues of (default mixing * dielectric matrix)
  average eigenvalue GAMMA=   1.5942
  6.4684  2.9996  2.4945  1.6819  1.6819  1.2304  1.2304  1.0410  1.0410  0.8909
  0.8909  0.8823  0.8316  0.8316  0.6782  0.6328

 Free energy of the ion-electron system (eV)
  ---------------------------------------------------
  alpha Z        PSCENC =       784.57699423
  Ewald energy   TEWEN  =    251193.03546248
  -Hartree energ DENC   =   -299165.89900173
  -exchange      EXHF   =         0.00000000
[...]
    -6.896993340 11.945942880  0.000000000     0.000000000  0.083710429  0.000000000
     0.000000000  0.000000000 27.810221070     0.000000000  0.000000000  0.035958003

  length of vectors
    13.793986680 13.793986676 27.810221070     0.083710429  0.083710429  0.035958003


 FORCES acting on ions
    electron-ion (+dipol)            ewald-force                    non-local-force                 convergence-correction
 -----------------------------------------------------------------------------------------------
   -.786E+01 -.136E+02 -.101E+04   0.878E+01 0.133E+02 0.101E+04   0.148E+00 0.144E+00 0.361E+01   0.423E-04 0.238E-04 0.266E-06
   -.269E+02 0.203E+02 -.101E+04   0.269E+02 -.198E+02 0.100E+04   0.272E+00 -.468E+00 0.345E+01   0.858E-04 -.260E-05 -.439E-05
   -.660E+01 -.138E+02 -.111E+04   0.700E+01 0.136E+02 0.111E+04   -.127E+00 0.281E+00 0.475E+01   -.871E-05 0.475E-04 0.382E-04
   -.441E+01 0.456E+01 -.105E+04   0.389E+01 -.398E+01 0.104E+04   0.937E+00 -.678E+00 0.390E+01   0.131E-04 -.450E-05 0.421E-04
   0.967E+01 -.238E+02 -.109E+04   -.106E+02 0.247E+02 0.108E+04   0.337E+00 -.146E+00 0.384E+01   -.469E-04 0.601E-05 0.188E-04
   0.509E+02 0.278E+02 -.884E+03   -.511E+02 -.279E+02 0.882E+03   -.627E+00 -.445E+00 0.364E+01   -.440E-04 -.355E-04 -.840E-05
   0.455E+01 0.549E+02 -.109E+04   -.381E+01 -.547E+02 0.109E+04   -.103E+00 -.936E+00 0.433E+01   0.533E-05 -.230E-04 0.480E-05
   -.264E+02 0.494E+01 -.112E+04   0.270E+02 -.445E+01 0.112E+04   0.486E+00 -.312E+00 0.426E+01   -.105E-04 -.352E-05 0.354E-04
   -.291E+02 -.128E+02 -.116E+04   0.290E+02 0.128E+02 0.116E+04   0.132E+00 -.674E-01 0.406E+01   -.148E-04 -.257E-04 -.575E-05
   0.144E+02 0.289E+02 -.104E+04   -.139E+02 -.292E+02 0.103E+04   -.920E+00 -.274E-01 0.383E+01   -.415E-05 0.547E-04 0.670E-04
   -.310E+01 -.112E+02 -.112E+04   0.235E+01 0.105E+02 0.112E+04   0.704E+00 0.598E+00 0.328E+01   0.336E-04 -.740E-05 0.409E-04
   0.143E+01 -.466E+02 -.112E+04   -.205E+01 0.462E+02 0.111E+04   0.122E+00 0.803E+00 0.449E+01   -.243E-04 -.339E-05 0.321E-04
   -.682E+01 -.156E+02 -.116E+04   0.559E+01 0.147E+02 0.115E+04   0.658E+00 0.777E+00 0.427E+01   0.257E-04 -.877E-05 0.113E-04
   0.285E+02 0.686E+02 -.109E+04   -.277E+02 -.684E+02 0.109E+04   -.116E+01 -.112E+01 0.387E+01   -.584E-04 -.490E-05 0.439E-04
   -.109E+02 0.176E+02 -.980E+03   0.949E+01 -.168E+02 0.976E+03   0.669E+00 -.946E+00 0.521E+01   -.184E-04 -.120E-04 0.370E-04
   -.278E+02 -.504E+02 -.114E+04   0.280E+02 0.507E+02 0.114E+04   0.536E+00 0.666E+00 0.416E+01   0.135E-04 -.219E-04 0.314E-04
   0.977E+01 0.118E+02 0.107E+04   -.926E+01 -.104E+02 -.106E+04   -.328E+00 -.884E+00 -.466E+01   0.528E-05 0.553E-04 -.591E-05
   -.750E+01 -.573E+01 0.114E+04   0.850E+01 0.610E+01 -.114E+04   -.412E+00 0.688E-01 -.370E+01   0.423E-04 0.516E-05 0.322E-04
   -.938E+01 0.819E+01 0.109E+04   0.108E+02 -.715E+01 -.109E+04   -.587E+00 -.359E+00 -.360E+01   0.725E-04 0.174E-05 0.122E-04
   0.124E+02 0.467E+01 0.106E+04   -.123E+02 -.489E+01 -.106E+04   -.325E+00 0.123E+00 -.464E+01   0.621E-05 0.209E-04 -.177E-04
   -.138E+02 -.174E+02 0.101E+04   0.138E+02 0.162E+02 -.101E+04   0.229E+00 0.740E+00 -.504E+01   0.108E-04 -.103E-04 -.468E-04
   -.212E+01 -.782E+01 0.115E+04   0.464E+00 0.713E+01 -.115E+04   0.987E+00 0.874E+00 -.431E+01   -.385E-04 -.212E-04 -.338E-05
   0.269E+02 -.117E+02 0.107E+04   -.281E+02 0.103E+02 -.107E+04   0.379E+00 0.897E+00 -.440E+01   -.120E-04 -.146E-04 -.223E-04
   0.204E+00 0.265E+02 0.105E+04   -.654E+00 -.258E+02 -.105E+04   0.160E+00 -.117E+01 -.446E+01   0.207E-04 0.214E-04 -.401E-04
   -.253E+02 0.515E+02 0.103E+04   0.253E+02 -.520E+02 -.102E+04   0.537E+00 -.855E+00 -.486E+01   -.281E-04 -.336E-04 -.311E-04
   -.108E+02 0.275E+02 0.107E+04   0.101E+02 -.266E+02 -.106E+04   0.402E+00 -.803E+00 -.384E+01   -.526E-05 -.255E-04 -.150E-04
   -.601E+01 -.243E+02 0.111E+04   0.563E+01 0.244E+02 -.110E+04   0.788E+00 0.404E+00 -.453E+01   -.106E-04 0.242E-04 -.161E-04
   -.253E+02 -.118E+02 0.976E+03   0.257E+02 0.125E+02 -.972E+03   -.113E+00 -.980E+00 -.421E+01   -.224E-04 -.231E-04 -.565E-04
   0.326E+02 0.282E+02 0.103E+04   -.319E+02 -.292E+02 -.102E+04   -.108E+01 0.144E+00 -.488E+01   0.107E-04 0.907E-05 -.222E-04
   0.414E+01 -.396E+02 0.110E+04   -.384E+01 0.387E+02 -.109E+04   -.507E+00 0.172E+01 -.379E+01   0.120E-04 -.122E-04 -.969E-05
   -.181E+02 0.197E+02 0.111E+04   0.186E+02 -.195E+02 -.111E+04   -.323E-01 -.223E+00 -.432E+01   -.397E-04 0.265E-04 -.295E-05
   0.345E+02 -.537E+02 0.115E+04   -.348E+02 0.533E+02 -.114E+04   -.390E+00 0.769E+00 -.435E+01   -.103E-05 -.118E-04 -.732E-05
   0.297E+01 0.249E+02 0.145E+04   -.294E+01 -.250E+02 -.145E+04   -.153E+00 -.294E+00 0.179E+01   0.114E-04 0.820E-06 0.116E-04
   -.144E+01 0.108E+00 0.146E+04   0.145E+01 -.707E-01 -.146E+04   -.168E+00 0.984E-01 0.173E+01   0.157E-04 -.452E-06 0.221E-04
   0.358E+01 -.175E+02 0.146E+04   -.349E+01 0.176E+02 -.146E+04   -.408E+00 0.825E-01 0.204E+01   0.645E-05 0.129E-04 0.322E-04
   0.472E+01 -.227E+02 0.147E+04   -.456E+01 0.226E+02 -.148E+04   -.419E+00 0.547E+00 0.260E+01   0.111E-04 0.902E-05 0.241E-04
   -.729E+01 0.188E+02 0.145E+04   0.720E+01 -.188E+02 -.146E+04   0.680E+00 -.470E+00 0.171E+01   -.190E-05 -.488E-05 0.108E-04
   -.901E+01 0.116E+01 0.142E+04   0.899E+01 -.100E+01 -.143E+04   0.353E+00 -.506E+00 0.127E+01   -.127E-05 -.647E-06 -.431E-05
   -.200E+02 -.167E+02 0.145E+04   0.198E+02 0.167E+02 -.146E+04   0.924E+00 0.245E+00 0.230E+01   0.142E-04 0.375E-05 0.874E-05
   -.134E+02 -.159E+02 0.145E+04   0.133E+02 0.158E+02 -.145E+04   0.435E+00 0.904E-01 0.190E+01   0.560E-05 0.161E-04 0.594E-05
   0.178E+02 0.390E+02 0.146E+04   -.178E+02 -.390E+02 -.147E+04   -.220E+00 -.638E+00 0.244E+01   -.988E-05 -.140E-04 0.178E-04
   0.276E+02 0.147E+02 0.148E+04   -.273E+02 -.144E+02 -.148E+04   -.101E+01 -.113E+01 0.204E+01   -.662E-05 0.554E-05 0.142E-04
   -.746E+01 -.120E+02 0.144E+04   0.728E+01 0.121E+02 -.144E+04   0.791E+00 -.168E+00 0.110E+01   -.815E-06 0.992E-05 -.225E-04
   0.148E+01 -.323E+02 0.142E+04   -.136E+01 0.319E+02 -.142E+04   -.331E+00 0.137E+01 0.145E+01   0.245E-05 -.732E-05 -.987E-05
   -.201E+02 0.557E+02 0.147E+04   0.200E+02 -.557E+02 -.147E+04   0.626E+00 -.747E+00 0.208E+01   -.619E-05 -.108E-04 0.312E-04
   -.249E+02 -.135E+02 0.147E+04   0.247E+02 0.134E+02 -.147E+04   0.866E+00 0.682E+00 0.251E+01   -.127E-04 -.117E-04 0.315E-04
   0.135E+02 -.795E+01 0.147E+04   -.134E+02 0.803E+01 -.147E+04   -.164E+00 -.237E+00 0.222E+01   -.166E-04 -.247E-05 0.286E-04
   -.548E+01 -.958E+01 0.144E+04   0.522E+01 0.959E+01 -.145E+04   0.716E+00 0.916E-01 0.259E+01   -.147E-04 -.635E-05 0.122E-04
   0.166E+02 -.177E+01 -.142E+04   -.166E+02 0.194E+01 0.143E+04   -.251E+00 -.480E+00 -.220E+01   0.367E-05 0.416E-05 0.958E-05
   0.752E+01 -.552E+01 -.141E+04   -.713E+01 0.552E+01 0.141E+04   -.114E+01 0.634E-01 -.278E+01   0.157E-04 -.418E-05 -.129E-04
   -.882E+01 -.334E+01 -.145E+04   0.896E+01 0.313E+01 0.145E+04   -.256E+00 0.650E+00 -.237E+01   0.302E-05 0.762E-05 -.314E-05
   0.224E+02 0.222E+02 -.147E+04   -.223E+02 -.219E+02 0.147E+04   -.543E+00 -.109E+01 -.195E+01   -.670E-05 0.324E-05 0.220E-04
   -.209E+00 -.145E+02 -.146E+04   0.259E+00 0.144E+02 0.147E+04   -.225E+00 0.510E+00 -.241E+01   -.148E-04 -.128E-04 0.235E-05
   -.115E+02 0.561E+01 -.144E+04   0.111E+02 -.545E+01 0.144E+04   0.149E+01 -.395E+00 -.264E+01   -.123E-05 0.268E-05 0.120E-05
   0.318E+02 -.385E+01 -.145E+04   -.317E+02 0.342E+01 0.145E+04   -.352E+00 0.114E+01 -.255E+01   0.930E-05 -.387E-05 0.236E-05
   0.159E+02 0.858E+01 -.147E+04   -.157E+02 -.845E+01 0.147E+04   -.855E+00 -.483E+00 -.204E+01   0.391E-05 0.490E-05 0.513E-05
   -.451E+01 -.231E+02 -.147E+04   0.446E+01 0.229E+02 0.147E+04   0.881E-01 0.766E+00 -.261E+01   -.655E-05 -.244E-04 -.152E-04
   -.233E+02 0.130E+02 -.147E+04   0.229E+02 -.127E+02 0.148E+04   0.118E+01 -.100E+01 -.275E+01   -.226E-04 0.277E-04 -.135E-04
   -.234E+02 -.194E+02 -.142E+04   0.234E+02 0.191E+02 0.142E+04   0.171E+00 0.994E+00 -.164E+01   -.551E-06 -.645E-05 0.985E-05
   0.461E+01 -.363E+01 -.150E+04   -.457E+01 0.362E+01 0.150E+04   -.146E+00 0.895E-01 -.251E+01   0.163E-05 -.122E-04 -.407E-05
   0.111E+01 0.190E+01 -.147E+04   -.786E+00 -.181E+01 0.147E+04   -.782E+00 -.181E+00 -.304E+01   0.168E-04 -.452E-05 -.628E-05
   -.558E+01 0.317E+02 -.143E+04   0.563E+01 -.315E+02 0.143E+04   0.187E+00 -.112E+01 -.206E+01   0.448E-05 0.768E-05 0.310E-05
   0.264E+02 -.247E+02 -.148E+04   -.262E+02 0.245E+02 0.148E+04   -.752E+00 0.807E+00 -.223E+01   -.985E-05 0.160E-04 0.368E-05
   -.994E+01 0.130E+02 -.145E+04   0.998E+01 -.130E+02 0.145E+04   0.725E-01 -.192E+00 -.221E+01   0.260E-05 -.878E-05 0.198E-04
   0.195E+02 0.469E+01 -.101E+02   -.195E+02 -.467E+01 0.103E+02   0.577E-01 0.279E+00 -.762E+00   0.106E-05 0.716E-05 0.192E-05
   0.407E+01 -.168E+02 0.199E+02   -.416E+01 0.169E+02 -.201E+02   0.340E+00 -.148E+00 0.777E+00   0.124E-04 -.135E-05 -.125E-05
   -.126E+02 0.196E+02 -.111E+02   0.125E+02 -.194E+02 0.116E+02   0.472E+00 -.308E+00 -.152E+01   0.146E-05 0.935E-05 0.395E-05
   -.149E+02 -.334E+01 0.214E+02   0.150E+02 0.337E+01 -.215E+02   -.314E+00 -.656E-01 0.439E+00   0.239E-05 -.210E-05 0.478E-05
   0.227E+02 0.222E+01 0.796E+01   -.224E+02 -.212E+01 -.821E+01   -.129E+01 -.369E+00 0.562E+00   0.429E-05 0.541E-05 -.468E-05
   0.929E+01 -.455E+01 0.325E+02   -.909E+01 0.446E+01 -.327E+02   -.492E+00 0.330E+00 0.458E+00   -.649E-05 -.506E-05 -.471E-06
   0.176E+02 0.715E+01 0.382E+02   -.172E+02 -.686E+01 -.386E+02   -.154E+01 -.928E+00 0.121E+01   -.744E-05 -.557E-05 0.857E-06
   -.747E+01 0.201E+02 0.197E+01   0.734E+01 -.200E+02 -.203E+01   0.303E+00 -.123E+00 0.403E+00   -.498E-05 -.400E-05 0.349E-05
   -.595E+01 -.248E+02 -.248E+02   0.594E+01 0.242E+02 0.246E+02   0.871E-01 0.243E+01 0.174E+00   0.417E-05 0.731E-05 -.413E-05
   -.171E+01 0.257E+01 -.242E+02   0.176E+01 -.241E+01 0.245E+02   -.135E-01 -.744E+00 -.111E+01   0.251E-06 -.406E-05 -.297E-05
   0.319E+01 0.931E+01 0.208E+02   -.307E+01 -.911E+01 -.206E+02   -.153E+00 -.433E+00 -.526E+00   0.912E-05 0.217E-05 0.295E-05
   0.472E-01 0.162E+02 -.606E+02   -.204E+00 -.161E+02 0.613E+02   0.546E+00 -.866E+00 -.222E+01   0.130E-05 0.748E-05 0.634E-05
   -.337E+01 -.396E+02 -.382E+02   0.342E+01 0.392E+02 0.385E+02   0.535E+00 0.126E+01 -.823E+00   -.603E-05 -.345E-05 -.169E-05
   0.153E+01 -.338E+02 -.480E+02   -.113E+01 0.333E+02 0.483E+02   -.989E+00 0.142E+01 -.517E+00   -.650E-05 -.810E-05 -.823E-05
   -.101E+02 -.579E+01 0.672E+01   0.991E+01 0.532E+01 -.657E+01   0.999E+00 0.142E+01 -.459E+00   -.850E-05 0.238E-05 0.671E-05
   0.151E+02 -.204E+01 0.118E+02   -.146E+02 0.216E+01 -.118E+02   -.106E+01 -.177E+00 -.168E+00   -.712E-06 -.655E-05 0.243E-05
 -----------------------------------------------------------------------------------------------
   0.333E+00 -.663E+00 0.149E+02   -.153E-12 0.135E-12 -.122E-10   -.332E+00 0.665E+00 -.149E+02   0.293E-05 -.120E-04 0.380E-03
 
 
 POSITION                                       TOTAL-FORCE (eV/Angst)
 -----------------------------------------------------------------------------------
     -0.06747      2.04831     15.06284         1.068886     -0.173734      0.689566
     -1.68257      5.01221     15.10046         0.213580     -0.057747     -0.257744
     -3.46037      7.95624     15.18468         0.271638      0.080796     -0.467787
     -5.25569     10.98998     15.10573         0.422935     -0.098404      0.372574
      3.50724      1.98810     15.16049        -0.568053      0.678796      0.020039
      1.83497      5.05710     14.92587        -0.848167     -0.580151      0.902860
     -0.08762      8.07941     15.15877         0.634346     -0.793376      0.057805
     -1.84372     10.93457     15.20052         1.164223      0.171282     -0.353696
      6.92572      2.04775     15.25211         0.002218     -0.066781      0.235409
      5.21442      5.00707     15.09456        -0.415696     -0.273839      0.177242
      3.43064      7.93748     15.21641        -0.046985     -0.110875     -0.018866
      1.75441     10.92445     15.19302        -0.497417      0.385754      0.778150
     10.41695      1.93860     15.23820        -0.571578     -0.063765      0.032760
      8.67125      5.07844     15.19578        -0.365851     -0.857019     -0.384019
      6.99185      7.96835     14.96551        -0.751357     -0.162912      1.231948
      5.12243     10.78396     15.24037         0.682229      0.916384     -0.156434
      1.73122      0.94708     12.67753         0.188359      0.536181     -0.140119
     -0.00576      3.95652     12.51153         0.595394      0.434282      1.045175
     -1.83655      6.85659     12.56225         0.828180      0.688664      1.110940
     -3.39996      9.94741     12.68623        -0.278155     -0.087328     -0.250626
      5.17165      1.03660     12.77917         0.215416     -0.472175     -0.607056
      3.55234      3.97938     12.55633        -0.671029      0.182129      0.717389
      1.70110      7.14400     12.65079        -0.777793     -0.515850      0.610436
     -0.05484     10.01088     12.71769        -0.289921     -0.392555      0.173062
      8.47116      1.07919     12.72568         0.564941     -1.376108     -0.019058
      6.91677      3.98826     12.59655        -0.257427      0.111471      1.012808
      5.11358      6.98309     12.60796         0.409243      0.496401      0.514310
      3.43173     10.03032     12.79646         0.313339     -0.258474     -0.070048
     12.10103      0.98075     12.73781        -0.393463     -0.847901     -0.436702
     10.32302      3.77512     12.54661        -0.206961      0.800910      1.235630
      8.59048      6.90167     12.58909         0.383417     -0.042785      0.193194
      6.98335      9.91479     12.58026        -0.683109      0.370854      0.178431
     -0.01550      1.96843     10.99951        -0.122002     -0.379174     -0.316535
     -1.78006      4.85263     10.95316        -0.157377      0.135777     -0.373334
     -3.46009      7.85755     10.94376        -0.321729      0.152365     -0.038105
     -5.07579     10.85151     10.87036        -0.262918      0.413022      0.452851
      3.31981      2.09898     10.99279         0.591624     -0.431284     -0.354255
      1.71405      5.13939     11.10366         0.337875     -0.347622     -0.908415
     -0.25398      7.92080     10.93362         0.741033      0.321628      0.113609
     -1.78945     11.00901     11.04908         0.346241      0.066528     -0.196788
      6.82775      2.07239     10.92873        -0.172522     -0.585719      0.323078
      5.36052      5.20211     10.89766        -0.729414     -0.827080     -0.056701
      3.35808      8.05842     11.11914         0.608533     -0.056284     -0.830021
      1.70975     10.69086     11.13074        -0.217721      1.000775     -0.541325
     10.10596      1.99207     10.89641         0.473748     -0.661561      0.147262
      8.51428      4.84453     10.85544         0.656154      0.536378      0.374419
      6.93379      8.02407     10.90126        -0.116857     -0.158264      0.102573
      5.00677     10.98439     10.96002         0.458775      0.094750      0.428373
      1.77959      1.05692     16.74316        -0.254583     -0.311886     -0.040568
      0.13371      3.99140     16.76228        -0.742180      0.061499     -0.662666
     -1.61769      6.87529     16.85566        -0.109134      0.440887     -0.228721
     -3.42752     10.11329     16.86426        -0.455107     -0.756748      0.100570
      5.25990      0.92781     16.88818        -0.175477      0.383849     -0.228038
      3.21106      3.98293     16.82126         1.045958     -0.244264     -0.539465
      1.84049      6.77815     16.86371        -0.302334      0.717469     -0.463832
      0.13650      9.99365     16.88242        -0.679302     -0.350381      0.092845
      8.68141      0.92615     16.95996         0.041510      0.500867     -0.398036
      6.66319      4.12712     16.98408         0.813533     -0.695880     -0.577570
      5.22440      6.87796     16.68604         0.217333      0.771316      0.485350
      3.55855      9.85129     17.01339        -0.105136      0.077665     -0.416703
     12.26459      1.05556     16.99584        -0.458424     -0.085978     -0.808216
     10.37045      4.13313     16.78552         0.233205     -0.876903      0.139520
      8.81697      6.87340     16.92941        -0.645392      0.636449     -0.214566
      6.96941      9.90175     16.80459         0.111685     -0.210618     -0.083939
      6.89925     11.93331     13.93702         0.104808      0.298435     -0.555390
     12.03960      2.97408     13.79271         0.252059     -0.120085      0.565598
     10.27376      5.99188     13.99654         0.356830     -0.116085     -1.009163
     -5.14038      8.94427     13.81584        -0.219864     -0.033880      0.312958
      3.54477      0.03491     13.88315        -0.919797     -0.267266      0.313108
      1.81045      2.96674     13.76198        -0.286802      0.240882      0.262628
      0.07661      6.06384     13.73003        -1.140927     -0.640668      0.849898
     -1.80583      8.95165     13.91727         0.173124     -0.066428      0.345239
     -0.04024     11.79913     13.92963         0.082043      1.742284      0.038050
      5.23159      3.04255     13.97757         0.036445     -0.586997     -0.759792
      3.49986      6.07764     13.86566        -0.040860     -0.233447     -0.294980
      1.68036      9.03751     14.14034         0.388794     -0.842815     -1.528663
      3.45786     11.82805     14.07275         0.593392      0.877936     -0.511989
      8.72375      2.81085     13.97948        -0.593669      0.895343     -0.253266
      6.87583      5.84208     13.86529         0.848473      0.955953     -0.307615
      5.31188      8.96028     13.89778        -0.619030     -0.056860     -0.076846
 -----------------------------------------------------------------------------------
    total drift:                                0.001764      0.002394     -0.000811


--------------------------------------------------------------------------------------------------------



  FREE ENERGIE OF THE ION-ELECTRON SYSTEM (eV)
  ---------------------------------------------------
  free  energy   TOTEN  =      -525.51623395 eV

  energy  without entropy=     -525.51623395  energy(sigma->0) =     -525.51623395
 


--------------------------------------------------------------------------------------------------------


    POTLOK:  cpu time    0.8086: real time    0.8085


--------------------------------------------------------------------------------------------------------


     LOOP+:  cpu time 1891.2025: real time 1891.7768
    4ORBIT:  cpu time    0.0000: real time    0.0000

 total amount of memory used by VASP MPI-rank0   253974. kBytes
=======================================================================

   base      :      30000. kBytes
   nonlr-proj:      18790. kBytes
   fftplans  :      72602. kBytes
   grid      :      41267. kBytes
   one-center:        108. kBytes
   wavefun   :      91207. kBytes
 
  
  
 General timing and accounting informations for this job:
 ========================================================
  
                  Total CPU time used (sec):     1921.740
                            User time (sec):     1916.599
                          System time (sec):        5.141
                         Elapsed time (sec):     1922.428
  
                   Maximum memory used (kb):      465332.
                   Average memory used (kb):           0.
  
                          Minor page faults:       228640
                          Major page faults:            0
                 Voluntary context switches:         1750
