<?xml version="1.0" encoding="ISO-8859-1"?>
<modeling>
 <generator>
  <i name="program" type="string">vasp </i>
  <i name="version" type="string">5.4.4.18Apr17-6-g9f103f2a35  </i>
  <i name="subversion" type="string">(build Oct 31 2019 15:01:46) complex            parallel </i>
  <i name="platform" type="string">LinuxIFC </i>
  <i name="date" type="string">2024 04 30 </i>
  <i name="time" type="string">11:37:51 </i>
 </generator>
 <incar>
  <i type="int" name="ISTART">     0</i>
  <i type="string" name="PREC">anormal</i>
  <i type="logical" name="ADDGRID"> T  </i>
  <i type="int" name="IBRION">    -1</i>
  <i name="EDIFF">      0.00000100</i>
  <i name="EDIFFG">     -0.01000000</i>
  <i type="int" name="NSW">     1</i>
  <i type="int" name="ISIF">     2</i>
  <i type="int" name="ISYM">     2</i>
  <i name="ENCUT">    600.00000000</i>
  <i name="POTIM">      1.00000000</i>
  <i type="string" name="LREAL"> Auto.</i>
  <i type="int" name="ISMEAR">     0</i>
  <i name="SIGMA">      0.05000000</i>
  <i name="KSPACING">      0.25000000</i>
  <i type="logical" name="LWAVE"> F  </i>
  <i type="logical" name="LCHARG"> F  </i>
  <i type="logical" name="LSCALAPACK"> F  </i>
  <v type="int" name="KPOINT_BSE">    -1     0     0     0</v>
 </incar>
 <structure name="primitive_cell" >
  <crystal>
   <varray name="basis" >
    <v>      13.79398668       0.00000000       0.00000000 </v>
    <v>      -6.89699334      11.94594288       0.00000000 </v>
    <v>       0.00000000       0.00000000      27.81022107 </v>
   </varray>
   <i name="volume">   4582.62876984 </i>
   <varray name="rec_basis" >
    <v>       0.07249536       0.04185521       0.00000000 </v>
    <v>       0.00000000       0.08371043       0.00000000 </v>
    <v>       0.00000000       0.00000000       0.03595800 </v>
   </varray>
  </crystal>
  <varray name="positions" >
   <v>       0.08084152       0.17146528      -0.45837053 </v>
   <v>      -0.00270409       0.24896128       0.49595843 </v>
   <v>      -0.00036525      -0.00105732      -0.49885270 </v>
   <v>       0.25542325       0.24834735       0.49485335 </v>
   <v>       0.17675435       0.33412154      -0.39726185 </v>
   <v>      -0.06669377       0.08836134      -0.38886365 </v>
   <v>       0.17324966       0.08847553      -0.39794944 </v>
   <v>      -0.08168191       0.08209862       0.45802623 </v>
   <v>       0.16514578       0.07928087       0.45585882 </v>
   <v>       0.16518333       0.33120213       0.44988979 </v>
   <v>      -0.16367923       0.16228090      -0.45206473 </v>
   <v>       0.08780835       0.41957418      -0.45701775 </v>
   <v>       0.07897473      -0.08002387      -0.45682822 </v>
   <v>       0.34469312       0.42333240      -0.46329548 </v>
   <v>       0.33747072       0.16642474      -0.45485906 </v>
   <v>      -0.17728241      -0.09727016      -0.45198673 </v>
   <v>       0.08126552       0.16477854       0.39552032 </v>
   <v>      -0.25425588      -0.00986867      -0.49397207 </v>
   <v>       0.39949326       0.33341303      -0.39514093 </v>
   <v>       0.25935720      -0.49239330       0.49370445 </v>
   <v>       0.25844015       0.00292197       0.49921021 </v>
   <v>      -0.07519775       0.34598586      -0.39642634 </v>
   <v>      -0.08031043      -0.17112047      -0.39574038 </v>
   <v>      -0.09362090       0.31601659       0.45115088 </v>
   <v>      -0.07875423      -0.17002892       0.45236118 </v>
   <v>       0.42408616       0.33311549       0.45150045 </v>
   <v>      -0.24991960       0.23529774      -0.49732589 </v>
   <v>       0.07406174       0.40621582       0.39385384 </v>
   <v>       0.32852442       0.17570657       0.39527889 </v>
   <v>       0.33937094       0.43022094       0.39926526 </v>
   <v>      -0.00440878      -0.49841724      -0.49671242 </v>
   <v>       0.17049202      -0.42446613      -0.39390421 </v>
   <v>      -0.23987913      -0.24993151       0.49973630 </v>
   <v>      -0.17727850      -0.08049173       0.39410053 </v>
   <v>       0.41712840      -0.43259786      -0.39361480 </v>
   <v>      -0.49338779       0.25469293      -0.49739467 </v>
   <v>      -0.33187384       0.07752827      -0.39015371 </v>
   <v>       0.00171051      -0.25127166       0.49679008 </v>
   <v>      -0.49189558      -0.49123808       0.49858148 </v>
   <v>      -0.18398650       0.16675684       0.39181330 </v>
   <v>       0.17481495      -0.15341222      -0.39359490 </v>
   <v>       0.08622097      -0.09161546       0.39087656 </v>
   <v>      -0.32969370      -0.17534437      -0.38823264 </v>
   <v>      -0.33139439      -0.16035736       0.46013523 </v>
   <v>       0.15384224      -0.42603213       0.45171355 </v>
   <v>       0.42015153       0.07766712      -0.39273469 </v>
   <v>       0.41830730       0.08677392       0.45951358 </v>
   <v>      -0.34071053       0.09033943       0.45759018 </v>
   <v>       0.16987001      -0.16729784       0.45617149 </v>
   <v>      -0.15881532       0.42511850      -0.45359020 </v>
   <v>       0.42233535      -0.40197290       0.45489717 </v>
   <v>      -0.41556834      -0.08550950      -0.45368934 </v>
   <v>       0.32400758      -0.08466243      -0.45341973 </v>
   <v>      -0.15960622      -0.33296589      -0.46187006 </v>
   <v>       0.33181344      -0.32366935      -0.45492081 </v>
   <v>      -0.41240666       0.41914372      -0.45722966 </v>
   <v>      -0.41220858       0.17141844      -0.45156451 </v>
   <v>       0.08214928      -0.33397956      -0.45398915 </v>
   <v>      -0.41906946      -0.33555034      -0.45284846 </v>
   <v>      -0.07312318      -0.42462468      -0.39125237 </v>
   <v>       0.31311459      -0.33694616       0.39315108 </v>
   <v>       0.33105773      -0.07843124       0.39730303 </v>
   <v>      -0.49991477      -0.24346602      -0.49154168 </v>
   <v>       0.24375848      -0.25065375      -0.49956271 </v>
   <v>      -0.42858275      -0.10506333       0.40023901 </v>
   <v>      -0.17998521       0.40553802       0.39034001 </v>
   <v>      -0.16148356      -0.32830160       0.39198766 </v>
   <v>       0.49093785      -0.01229001      -0.49911833 </v>
   <v>      -0.34420787       0.34548318      -0.38928634 </v>
   <v>      -0.33337702      -0.42424286      -0.40000330 </v>
   <v>      -0.08835883      -0.42225796       0.45267844 </v>
   <v>      -0.33163694       0.33385885       0.45294677 </v>
   <v>      -0.39365219       0.43547056       0.39185798 </v>
   <v>      -0.33701093      -0.41544294       0.45335714 </v>
   <v>       0.07803902      -0.34224119       0.39351572 </v>
   <v>      -0.25701287       0.48904280       0.49856812 </v>
   <v>      -0.41926760      -0.32542589       0.39982213 </v>
   <v>       0.42818201      -0.16342710      -0.39294183 </v>
   <v>      -0.41827968       0.17348061       0.39297537 </v>
   <v>       0.41503196      -0.16198493       0.45730283 </v>
  </varray>
 </structure>
 <varray name="primitive_index" >
  <v type="int" >        1 </v>
  <v type="int" >       66 </v>
  <v type="int" >       65 </v>
  <v type="int" >       70 </v>
  <v type="int" >       50 </v>
  <v type="int" >       61 </v>
  <v type="int" >       49 </v>
  <v type="int" >       29 </v>
  <v type="int" >       17 </v>
  <v type="int" >       18 </v>
  <v type="int" >       13 </v>
  <v type="int" >        2 </v>
  <v type="int" >        4 </v>
  <v type="int" >        6 </v>
  <v type="int" >        5 </v>
  <v type="int" >       16 </v>
  <v type="int" >       33 </v>
  <v type="int" >       77 </v>
  <v type="int" >       54 </v>
  <v type="int" >       71 </v>
  <v type="int" >       69 </v>
  <v type="int" >       62 </v>
  <v type="int" >       64 </v>
  <v type="int" >       30 </v>
  <v type="int" >       32 </v>
  <v type="int" >       22 </v>
  <v type="int" >       78 </v>
  <v type="int" >       34 </v>
  <v type="int" >       37 </v>
  <v type="int" >       38 </v>
  <v type="int" >       67 </v>
  <v type="int" >       51 </v>
  <v type="int" >       80 </v>
  <v type="int" >       48 </v>
  <v type="int" >       55 </v>
  <v type="int" >       74 </v>
  <v type="int" >       57 </v>
  <v type="int" >       68 </v>
  <v type="int" >       75 </v>
  <v type="int" >       45 </v>
  <v type="int" >       52 </v>
  <v type="int" >       36 </v>
  <v type="int" >       60 </v>
  <v type="int" >       28 </v>
  <v type="int" >       19 </v>
  <v type="int" >       53 </v>
  <v type="int" >       21 </v>
  <v type="int" >       25 </v>
  <v type="int" >       20 </v>
  <v type="int" >       14 </v>
  <v type="int" >       23 </v>
  <v type="int" >       12 </v>
  <v type="int" >        8 </v>
  <v type="int" >       15 </v>
  <v type="int" >        7 </v>
  <v type="int" >       10 </v>
  <v type="int" >        9 </v>
  <v type="int" >        3 </v>
  <v type="int" >       11 </v>
  <v type="int" >       63 </v>
  <v type="int" >       39 </v>
  <v type="int" >       40 </v>
  <v type="int" >       76 </v>
  <v type="int" >       72 </v>
  <v type="int" >       44 </v>
  <v type="int" >       46 </v>
  <v type="int" >       47 </v>
  <v type="int" >       73 </v>
  <v type="int" >       58 </v>
  <v type="int" >       59 </v>
  <v type="int" >       31 </v>
  <v type="int" >       26 </v>
  <v type="int" >       42 </v>
  <v type="int" >       27 </v>
  <v type="int" >       35 </v>
  <v type="int" >       79 </v>
  <v type="int" >       43 </v>
  <v type="int" >       56 </v>
  <v type="int" >       41 </v>
  <v type="int" >       24 </v>
 </varray>
 <kpoints>
  <generation param="Gamma">
   <v type="int" name="divisions">       3        3        1 </v>
   <v name="usershift">      0.00000000       0.00000000       0.00000000 </v>
   <v name="genvec1">      0.33333333      -0.00000000       0.00000000 </v>
   <v name="genvec2">      0.00000000       0.33333333       0.00000000 </v>
   <v name="genvec3">      0.00000000       0.00000000       1.00000000 </v>
   <v name="shift">      0.00000000       0.00000000       0.00000000 </v>
  </generation>
  <varray name="kpointlist" >
   <v>       0.00000000       0.00000000       0.00000000 </v>
   <v>       0.33333333      -0.00000000       0.00000000 </v>
   <v>       0.00000000       0.33333333       0.00000000 </v>
   <v>       0.33333333       0.33333333       0.00000000 </v>
   <v>      -0.33333333       0.33333333       0.00000000 </v>
  </varray>
  <varray name="weights" >
   <v>       0.11111111 </v>
   <v>       0.22222222 </v>
   <v>       0.22222222 </v>
   <v>       0.22222222 </v>
   <v>       0.22222222 </v>
  </varray>
 </kpoints>
 <parameters>
  <separator name="general" >
   <i type="string" name="SYSTEM">unknown system</i>
   <i type="logical" name="LCOMPAT"> F  </i>
  </separator>
  <separator name="electronic" >
   <i type="string" name="PREC">anorma</i>
   <i name="ENMAX">    600.00000000</i>
   <i name="ENAUG">    644.87300000</i>
   <i name="EDIFF">      0.00000100</i>
   <i type="int" name="IALGO">    38</i>
   <i type="int" name="IWAVPR">    10</i>
   <i type="int" name="NBANDS">   384</i>
   <i name="NELECT">    640.00000000</i>
   <i type="int" name="TURBO">     0</i>
   <i type="int" name="IRESTART">     0</i>
   <i type="int" name="NREBOOT">     0</i>
   <i type="int" name="NMIN">     0</i>
   <i name="EREF">      0.00000000</i>
   <separator name="electronic smearing" >
    <i type="int" name="ISMEAR">     0</i>
    <i name="SIGMA">      0.05000000</i>
    <i name="KSPACING">      0.25000000</i>
    <i type="logical" name="KGAMMA"> T  </i>
   </separator>
   <separator name="electronic projectors" >
    <i type="logical" name="LREAL"> T  </i>
    <v name="ROPT">     -0.00025000     -0.00025000     -0.00025000</v>
    <i type="int" name="LMAXPAW">  -100</i>
    <i type="int" name="LMAXMIX">     2</i>
    <i type="logical" name="NLSPLINE"> F  </i>
   </separator>
   <separator name="electronic startup" >
    <i type="int" name="ISTART">     0</i>
    <i type="int" name="ICHARG">     2</i>
    <i type="int" name="INIWAV">     1</i>
   </separator>
   <separator name="electronic spin" >
    <i type="int" name="ISPIN">     1</i>
    <i type="logical" name="LNONCOLLINEAR"> F  </i>
    <v name="MAGMOM">      1.00000000      1.00000000      1.00000000      1.00000000      1.00000000      1.00000000      1.00000000      1.00000000      1.00000000      1.00000000      1.00000000      1.00000000      1.00000000      1.00000000      1.00000000      1.00000000      1.00000000      1.00000000      1.00000000      1.00000000
      1.00000000      1.00000000      1.00000000      1.00000000      1.00000000      1.00000000      1.00000000      1.00000000      1.00000000      1.00000000      1.00000000      1.00000000      1.00000000      1.00000000      1.00000000      1.00000000      1.00000000      1.00000000      1.00000000      1.00000000
      1.00000000      1.00000000      1.00000000      1.00000000      1.00000000      1.00000000      1.00000000      1.00000000      1.00000000      1.00000000      1.00000000      1.00000000      1.00000000      1.00000000      1.00000000      1.00000000      1.00000000      1.00000000      1.00000000      1.00000000
      1.00000000      1.00000000      1.00000000      1.00000000      1.00000000      1.00000000      1.00000000      1.00000000      1.00000000      1.00000000      1.00000000      1.00000000      1.00000000      1.00000000      1.00000000      1.00000000      1.00000000      1.00000000      1.00000000      1.00000000
</v>
    <i name="NUPDOWN">     -1.00000000</i>
    <i type="logical" name="LSORBIT"> F  </i>
    <v name="SAXIS">      0.00000000      0.00000000      1.00000000</v>
    <i type="logical" name="LSPIRAL"> F  </i>
    <v name="QSPIRAL">      0.00000000      0.00000000      0.00000000</v>
    <i type="logical" name="LZEROZ"> F  </i>
   </separator>
   <separator name="electronic exchange-correlation" >
    <i type="logical" name="LASPH"> F  </i>
    <i type="logical" name="LMETAGGA"> F  </i>
   </separator>
   <separator name="electronic convergence" >
    <i type="int" name="NELM">    60</i>
    <i type="int" name="NELMDL">    -5</i>
    <i type="int" name="NELMIN">     2</i>
    <i name="ENINI">    600.00000000</i>
    <separator name="electronic convergence detail" >
     <i type="logical" name="LDIAG"> T  </i>
     <i type="logical" name="LSUBROT"> F  </i>
     <i name="WEIMIN">      0.00000000</i>
     <i name="EBREAK">      0.00000000</i>
     <i name="DEPER">      0.30000000</i>
     <i type="int" name="NRMM">     4</i>
     <i name="TIME">      0.40000000</i>
    </separator>
   </separator>
   <separator name="electronic mixer" >
    <i name="AMIX">      0.40000000</i>
    <i name="BMIX">      1.00000000</i>
    <i name="AMIN">      0.10000000</i>
    <i name="AMIX_MAG">      1.60000000</i>
    <i name="BMIX_MAG">      1.00000000</i>
    <separator name="electronic mixer details" >
     <i type="int" name="IMIX">     4</i>
     <i type="logical" name="MIXFIRST"> F  </i>
     <i type="int" name="MAXMIX">   -45</i>
     <i name="WC">    100.00000000</i>
     <i type="int" name="INIMIX">     1</i>
     <i type="int" name="MIXPRE">     1</i>
     <i type="int" name="MREMOVE">     5</i>
    </separator>
   </separator>
   <separator name="electronic dipolcorrection" >
    <i type="logical" name="LDIPOL"> F  </i>
    <i type="logical" name="LMONO"> F  </i>
    <i type="int" name="IDIPOL">     0</i>
    <i name="EPSILON">      1.00000000</i>
    <v name="DIPOL">   -100.00000000   -100.00000000   -100.00000000</v>
    <i name="EFIELD">      0.00000000</i>
   </separator>
  </separator>
  <separator name="grids" >
   <i type="int" name="NGX">   112</i>
   <i type="int" name="NGY">   112</i>
   <i type="int" name="NGZ">   224</i>
   <i type="int" name="NGXF">   224</i>
   <i type="int" name="NGYF">   224</i>
   <i type="int" name="NGZF">   448</i>
   <i type="logical" name="ADDGRID"> T  </i>
  </separator>
  <separator name="ionic" >
   <i type="int" name="NSW">     1</i>
   <i type="int" name="IBRION">    -1</i>
   <i type="int" name="MDALGO">     0</i>
   <i type="int" name="ISIF">     2</i>
   <i name="PSTRESS">      0.00000000</i>
   <i name="EDIFFG">     -0.01000000</i>
   <i type="int" name="NFREE">     0</i>
   <i name="POTIM">      1.00000000</i>
   <i name="SMASS">     -3.00000000</i>
   <i name="SCALEE">      1.00000000</i>
  </separator>
  <separator name="ionic md" >
   <i name="TEBEG">      0.00010000</i>
   <i name="TEEND">      0.00010000</i>
   <i type="int" name="NBLOCK">     1</i>
   <i type="int" name="KBLOCK">     1</i>
   <i type="int" name="NPACO">   256</i>
   <i name="APACO">     16.00000000</i>
  </separator>
  <separator name="symmetry" >
   <i type="int" name="ISYM">     2</i>
   <i name="SYMPREC">      0.00001000</i>
  </separator>
  <separator name="dos" >
   <i type="int" name="LORBIT">     0</i>
   <v name="RWIGS">     -1.00000000     -1.00000000     -1.00000000</v>
   <i type="int" name="NEDOS">   301</i>
   <i name="EMIN">     10.00000000</i>
   <i name="EMAX">    -10.00000000</i>
   <i name="EFERMI">      0.00000000</i>
  </separator>
  <separator name="writing" >
   <i type="int" name="NWRITE">     2</i>
   <i type="logical" name="LWAVE"> F  </i>
   <i type="logical" name="LDOWNSAMPLE"> F  </i>
   <i type="logical" name="LCHARG"> F  </i>
   <i type="logical" name="LPARD"> F  </i>
   <i type="logical" name="LVTOT"> F  </i>
   <i type="logical" name="LVHAR"> F  </i>
   <i type="logical" name="LELF"> F  </i>
   <i type="logical" name="LOPTICS"> F  </i>
   <v name="STM">      0.00000000      0.00000000      0.00000000      0.00000000      0.00000000      0.00000000      0.00000000</v>
  </separator>
  <separator name="performance" >
   <i type="int" name="NPAR">     4</i>
   <i type="int" name="NSIM">     4</i>
   <i type="int" name="NBLK">    -1</i>
   <i type="logical" name="LPLANE"> T  </i>
   <i type="logical" name="LSCALAPACK"> F  </i>
   <i type="logical" name="LSCAAWARE"> F  </i>
   <i type="logical" name="LSCALU"> F  </i>
   <i type="logical" name="LASYNC"> F  </i>
   <i type="logical" name="LORBITALREAL"> F  </i>
  </separator>
  <separator name="miscellaneous" >
   <i type="int" name="IDIOT">     3</i>
   <i type="int" name="ISPECIAL">     0</i>
   <i type="logical" name="LMUSIC"> F  </i>
   <v name="POMASS">     44.95600000     35.45300000     12.01100000</v>
   <v name="DARWINR">      0.00000000      0.00000000      0.00000000</v>
   <v name="DARWINV">      1.00000000      1.00000000      1.00000000</v>
   <i type="logical" name="LCORR"> T  </i>
  </separator>
  <i type="logical" name="GGA_COMPAT"> T  </i>
  <i type="logical" name="LBERRY"> F  </i>
  <i type="int" name="ICORELEVEL">     0</i>
  <i type="logical" name="LDAU"> F  </i>
  <i type="int" name="I_CONSTRAINED_M">     0</i>
  <separator name="electronic exchange-correlation" >
   <i type="string" name="GGA">--</i>
   <i type="int" name="VOSKOWN">     0</i>
   <i type="logical" name="LHFCALC"> F  </i>
   <i type="string" name="PRECFOCK"></i>
   <i type="logical" name="LSYMGRAD"> F  </i>
   <i type="logical" name="LHFONE"> F  </i>
   <i type="logical" name="LRHFCALC"> F  </i>
   <i type="logical" name="LTHOMAS"> F  </i>
   <i type="logical" name="LMODELHF"> F  </i>
   <i name="ENCUT4O">     -1.00000000</i>
   <i type="int" name="EXXOEP">     0</i>
   <i type="int" name="FOURORBIT">     0</i>
   <i name="AEXX">      0.00000000</i>
   <i name="HFALPHA">      0.00000000</i>
   <i name="MCALPHA">      0.00000000</i>
   <i name="ALDAX">      1.00000000</i>
   <i name="AGGAX">      1.00000000</i>
   <i name="ALDAC">      1.00000000</i>
   <i name="AGGAC">      1.00000000</i>
   <i type="int" name="NKREDX">     1</i>
   <i type="int" name="NKREDY">     1</i>
   <i type="int" name="NKREDZ">     1</i>
   <i type="logical" name="SHIFTRED"> F  </i>
   <i type="logical" name="ODDONLY"> F  </i>
   <i type="logical" name="EVENONLY"> F  </i>
   <i type="int" name="LMAXFOCK">     0</i>
   <i type="int" name="NMAXFOCKAE">     0</i>
   <i type="logical" name="LFOCKAEDFT"> F  </i>
   <i name="HFSCREEN">      0.00000000</i>
   <i name="HFSCREENC">      0.00000000</i>
   <i type="int" name="NBANDSGWLOW">     0</i>
  </separator>
  <separator name="vdW DFT" >
   <i type="logical" name="LUSE_VDW"> F  </i>
   <i name="Zab_VDW">     -0.84910000</i>
   <i name="PARAM1">      0.12340000</i>
   <i name="PARAM2">      1.00000000</i>
   <i name="PARAM3">      0.00000000</i>
  </separator>
  <separator name="model GW" >
   <i type="int" name="MODEL_GW">     0</i>
   <i name="MODEL_EPS0">     34.36971577</i>
   <i name="MODEL_ALPHA">      1.00000000</i>
  </separator>
  <separator name="linear response parameters" >
   <i type="logical" name="LEPSILON"> F  </i>
   <i type="logical" name="LRPA"> F  </i>
   <i type="logical" name="LNABLA"> F  </i>
   <i type="logical" name="LVEL"> F  </i>
   <i type="int" name="KINTER">     0</i>
   <i name="CSHIFT">      0.10000000</i>
   <i name="OMEGAMAX">     -1.00000000</i>
   <i name="DEG_THRESHOLD">      0.00200000</i>
   <i name="RTIME">     -0.10000000</i>
   <i name="WPLASMAI">      0.00000000</i>
   <v name="DFIELD">      0.00000000      0.00000000      0.00000000</v>
   <v name="WPLASMA">      0.00000000      0.00000000      0.00000000      0.00000000      0.00000000      0.00000000      0.00000000      0.00000000      0.00000000</v>
  </separator>
  <separator name="orbital magnetization" >
   <i type="logical" name="NUCIND"> F  </i>
   <v name="MAGPOS">      0.00000000      0.00000000      0.00000000</v>
   <i type="logical" name="LNICSALL"> T  </i>
   <i type="logical" name="ORBITALMAG"> F  </i>
   <i type="logical" name="LMAGBLOCH"> F  </i>
   <i type="logical" name="LCHIMAG"> F  </i>
   <i type="logical" name="LGAUGE"> T  </i>
   <i type="int" name="MAGATOM">     0</i>
   <v name="MAGDIPOL">      0.00000000      0.00000000      0.00000000</v>
   <v name="AVECCONST">      0.00000000      0.00000000      0.00000000</v>
  </separator>
  <separator name="response functions" >
   <i type="logical" name="LADDER"> F  </i>
   <i type="logical" name="LRPAFORCE"> F  </i>
   <i type="logical" name="LFXC"> F  </i>
   <i type="logical" name="LHARTREE"> T  </i>
   <i type="int" name="IBSE">     0</i>
   <v type="int" name="KPOINT">    -1     0     0     0</v>
   <i type="logical" name="LTCTE"> F  </i>
   <i type="logical" name="LTETE"> F  </i>
   <i type="logical" name="LTRIPLET"> F  </i>
   <i type="logical" name="LFXCEPS"> F  </i>
   <i type="logical" name="LFXHEG"> F  </i>
   <i type="int" name="NATURALO">     2</i>
   <i type="logical" name="L2ORDER"> F  </i>
   <i type="logical" name="LMP2LT"> F  </i>
   <i type="logical" name="LUSEW"> F  </i>
   <i name="ENCUTGW">     -2.00000000</i>
   <i name="ENCUTGWSOFT">     -2.00000000</i>
   <i name="ENCUTLF">     -1.00000000</i>
   <i type="int" name="LMAXMP2">    -1</i>
   <i name="SCISSOR">      0.00000000</i>
   <i type="int" name="NOMEGA">     0</i>
   <i type="int" name="NOMEGAR">     0</i>
   <i type="int" name="NBANDSGW">    -1</i>
   <i type="int" name="NBANDSO">    -1</i>
   <i type="int" name="NBANDSV">    -1</i>
   <i type="int" name="NELM">     1</i>
   <i type="int" name="NELMHF">     1</i>
   <i type="int" name="DIM">     3</i>
   <i type="int" name="ANTIRES">     0</i>
   <i name="OMEGAMAX">    -30.00000000</i>
   <i name="OMEGAMIN">    -30.00000000</i>
   <i name="OMEGATL">   -200.00000000</i>
   <i type="int" name="OMEGAGRID">   140</i>
   <i name="CSHIFT">     -0.10000000</i>
   <i type="logical" name="SELFENERGY"> F  </i>
   <i type="logical" name="LSPECTRAL"> F  </i>
   <i type="logical" name="LSPECTRALGW"> F  </i>
   <i type="logical" name="LSINGLES"> F  </i>
   <i type="logical" name="LFERMIGW"> F  </i>
   <i type="logical" name="ODDONLYGW"> F  </i>
   <i type="logical" name="EVENONLYGW"> F  </i>
   <i type="int" name="NKREDLFX">     1</i>
   <i type="int" name="NKREDLFY">     1</i>
   <i type="int" name="NKREDLFZ">     1</i>
   <i type="int" name="MAXMEM">  2800</i>
   <i type="int" name="TELESCOPE">     0</i>
   <i type="int" name="TAUPAR">     1</i>
   <i type="int" name="OMEGAPAR">    -1</i>
   <i name="LAMBDA">      1.00000000</i>
  </separator>
  <separator name="External order field" >
   <i name="OFIELD_KAPPA">      0.00000000</i>
   <v name="OFIELD_K">      0.00000000      0.00000000      0.00000000</v>
   <i name="OFIELD_Q6_NEAR">      0.00000000</i>
   <i name="OFIELD_Q6_FAR">      0.00000000</i>
   <i name="OFIELD_A">      0.00000000</i>
  </separator>
 </parameters>
 <atominfo>
  <atoms>      80 </atoms>
  <types>       3 </types>
  <array name="atoms" >
   <dimension dim="1">ion</dimension>
   <field type="string">element</field>
   <field type="int">atomtype</field>
   <set>
    <rc><c>Sc</c><c>   1</c></rc>
    <rc><c>Sc</c><c>   1</c></rc>
    <rc><c>Sc</c><c>   1</c></rc>
    <rc><c>Sc</c><c>   1</c></rc>
    <rc><c>Sc</c><c>   1</c></rc>
    <rc><c>Sc</c><c>   1</c></rc>
    <rc><c>Sc</c><c>   1</c></rc>
    <rc><c>Sc</c><c>   1</c></rc>
    <rc><c>Sc</c><c>   1</c></rc>
    <rc><c>Sc</c><c>   1</c></rc>
    <rc><c>Sc</c><c>   1</c></rc>
    <rc><c>Sc</c><c>   1</c></rc>
    <rc><c>Sc</c><c>   1</c></rc>
    <rc><c>Sc</c><c>   1</c></rc>
    <rc><c>Sc</c><c>   1</c></rc>
    <rc><c>Sc</c><c>   1</c></rc>
    <rc><c>Sc</c><c>   1</c></rc>
    <rc><c>Sc</c><c>   1</c></rc>
    <rc><c>Sc</c><c>   1</c></rc>
    <rc><c>Sc</c><c>   1</c></rc>
    <rc><c>Sc</c><c>   1</c></rc>
    <rc><c>Sc</c><c>   1</c></rc>
    <rc><c>Sc</c><c>   1</c></rc>
    <rc><c>Sc</c><c>   1</c></rc>
    <rc><c>Sc</c><c>   1</c></rc>
    <rc><c>Sc</c><c>   1</c></rc>
    <rc><c>Sc</c><c>   1</c></rc>
    <rc><c>Sc</c><c>   1</c></rc>
    <rc><c>Sc</c><c>   1</c></rc>
    <rc><c>Sc</c><c>   1</c></rc>
    <rc><c>Sc</c><c>   1</c></rc>
    <rc><c>Sc</c><c>   1</c></rc>
    <rc><c>Cl</c><c>   2</c></rc>
    <rc><c>Cl</c><c>   2</c></rc>
    <rc><c>Cl</c><c>   2</c></rc>
    <rc><c>Cl</c><c>   2</c></rc>
    <rc><c>Cl</c><c>   2</c></rc>
    <rc><c>Cl</c><c>   2</c></rc>
    <rc><c>Cl</c><c>   2</c></rc>
    <rc><c>Cl</c><c>   2</c></rc>
    <rc><c>Cl</c><c>   2</c></rc>
    <rc><c>Cl</c><c>   2</c></rc>
    <rc><c>Cl</c><c>   2</c></rc>
    <rc><c>Cl</c><c>   2</c></rc>
    <rc><c>Cl</c><c>   2</c></rc>
    <rc><c>Cl</c><c>   2</c></rc>
    <rc><c>Cl</c><c>   2</c></rc>
    <rc><c>Cl</c><c>   2</c></rc>
    <rc><c>Cl</c><c>   2</c></rc>
    <rc><c>Cl</c><c>   2</c></rc>
    <rc><c>Cl</c><c>   2</c></rc>
    <rc><c>Cl</c><c>   2</c></rc>
    <rc><c>Cl</c><c>   2</c></rc>
    <rc><c>Cl</c><c>   2</c></rc>
    <rc><c>Cl</c><c>   2</c></rc>
    <rc><c>Cl</c><c>   2</c></rc>
    <rc><c>Cl</c><c>   2</c></rc>
    <rc><c>Cl</c><c>   2</c></rc>
    <rc><c>Cl</c><c>   2</c></rc>
    <rc><c>Cl</c><c>   2</c></rc>
    <rc><c>Cl</c><c>   2</c></rc>
    <rc><c>Cl</c><c>   2</c></rc>
    <rc><c>Cl</c><c>   2</c></rc>
    <rc><c>Cl</c><c>   2</c></rc>
    <rc><c>C </c><c>   3</c></rc>
    <rc><c>C </c><c>   3</c></rc>
    <rc><c>C </c><c>   3</c></rc>
    <rc><c>C </c><c>   3</c></rc>
    <rc><c>C </c><c>   3</c></rc>
    <rc><c>C </c><c>   3</c></rc>
    <rc><c>C </c><c>   3</c></rc>
    <rc><c>C </c><c>   3</c></rc>
    <rc><c>C </c><c>   3</c></rc>
    <rc><c>C </c><c>   3</c></rc>
    <rc><c>C </c><c>   3</c></rc>
    <rc><c>C </c><c>   3</c></rc>
    <rc><c>C </c><c>   3</c></rc>
    <rc><c>C </c><c>   3</c></rc>
    <rc><c>C </c><c>   3</c></rc>
    <rc><c>C </c><c>   3</c></rc>
   </set>
  </array>
  <array name="atomtypes" >
   <dimension dim="1">type</dimension>
   <field type="int">atomspertype</field>
   <field type="string">element</field>
   <field>mass</field>
   <field>valence</field>
   <field type="string">pseudopotential</field>
   <set>
    <rc><c>  32</c><c>Sc</c><c>     44.95600000</c><c>     11.00000000</c><c>  PAW_PBE Sc_sv 07Sep2000               </c></rc>
    <rc><c>  32</c><c>Cl</c><c>     35.45300000</c><c>      7.00000000</c><c>  PAW_PBE Cl 06Sep2000                  </c></rc>
    <rc><c>  16</c><c>C </c><c>     12.01100000</c><c>      4.00000000</c><c>  PAW_PBE C 08Apr2002                   </c></rc>
   </set>
  </array>
 </atominfo>
 <structure name="initialpos" >
  <crystal>
   <varray name="basis" >
    <v>      13.79398668       0.00000000       0.00000000 </v>
    <v>      -6.89699334      11.94594288       0.00000000 </v>
    <v>       0.00000000       0.00000000      27.81022107 </v>
   </varray>
   <i name="volume">   4582.62876984 </i>
   <varray name="rec_basis" >
    <v>       0.07249536       0.04185521       0.00000000 </v>
    <v>       0.00000000       0.08371043       0.00000000 </v>
    <v>       0.00000000       0.00000000       0.03595800 </v>
   </varray>
  </crystal>
  <varray name="positions" >
   <v>       0.08084152       0.17146528       0.54162947 </v>
   <v>       0.08780835       0.41957418       0.54298225 </v>
   <v>       0.08214928       0.66602044       0.54601085 </v>
   <v>       0.07897473       0.91997613       0.54317178 </v>
   <v>       0.33747072       0.16642474       0.54514094 </v>
   <v>       0.34469312       0.42333240       0.53670452 </v>
   <v>       0.33181344       0.67633065       0.54507919 </v>
   <v>       0.32400758       0.91533757       0.54658027 </v>
   <v>       0.58779142       0.17141844       0.54843549 </v>
   <v>       0.58759334       0.41914372       0.54277034 </v>
   <v>       0.58093054       0.66444966       0.54715154 </v>
   <v>       0.58443166       0.91449050       0.54631066 </v>
   <v>       0.83632077       0.16228090       0.54793527 </v>
   <v>       0.84118468       0.42511850       0.54640980 </v>
   <v>       0.84039378       0.66703411       0.53812994 </v>
   <v>       0.82271759       0.90272984       0.54801327 </v>
   <v>       0.16514578       0.07928087       0.45585882 </v>
   <v>       0.16518333       0.33120213       0.44988979 </v>
   <v>       0.15384224       0.57396787       0.45171355 </v>
   <v>       0.16987001       0.83270216       0.45617149 </v>
   <v>       0.41830730       0.08677392       0.45951358 </v>
   <v>       0.42408616       0.33311549       0.45150045 </v>
   <v>       0.42233535       0.59802710       0.45489717 </v>
   <v>       0.41503196       0.83801507       0.45730283 </v>
   <v>       0.65928947       0.09033943       0.45759018 </v>
   <v>       0.66836306       0.33385885       0.45294677 </v>
   <v>       0.66298907       0.58455706       0.45335714 </v>
   <v>       0.66860561       0.83964264       0.46013523 </v>
   <v>       0.91831809       0.08209862       0.45802623 </v>
   <v>       0.90637910       0.31601659       0.45115088 </v>
   <v>       0.91164117       0.57774204       0.45267844 </v>
   <v>       0.92124577       0.82997108       0.45236118 </v>
   <v>       0.08126552       0.16477854       0.39552032 </v>
   <v>       0.07406174       0.40621582       0.39385384 </v>
   <v>       0.07803902       0.65775881       0.39351572 </v>
   <v>       0.08622097       0.90838454       0.39087656 </v>
   <v>       0.32852442       0.17570657       0.39527889 </v>
   <v>       0.33937094       0.43022094       0.39926526 </v>
   <v>       0.31311459       0.66305384       0.39315108 </v>
   <v>       0.33105773       0.92156876       0.39730303 </v>
   <v>       0.58172032       0.17348061       0.39297537 </v>
   <v>       0.60634781       0.43547056       0.39185798 </v>
   <v>       0.58073240       0.67457411       0.39982213 </v>
   <v>       0.57141725       0.89493667       0.40023901 </v>
   <v>       0.81601350       0.16675684       0.39181330 </v>
   <v>       0.82001479       0.40553802       0.39034001 </v>
   <v>       0.83851644       0.67169840       0.39198766 </v>
   <v>       0.82272150       0.91950827       0.39410053 </v>
   <v>       0.17324966       0.08847553       0.60205056 </v>
   <v>       0.17675435       0.33412154       0.60273815 </v>
   <v>       0.17049202       0.57553387       0.60609579 </v>
   <v>       0.17481495       0.84658778       0.60640510 </v>
   <v>       0.42015153       0.07766712       0.60726531 </v>
   <v>       0.39949326       0.33341303       0.60485907 </v>
   <v>       0.41712840       0.56740214       0.60638520 </v>
   <v>       0.42818201       0.83657290       0.60705817 </v>
   <v>       0.66812616       0.07752827       0.60984629 </v>
   <v>       0.65579213       0.34548318       0.61071366 </v>
   <v>       0.66662298       0.57575714       0.59999670 </v>
   <v>       0.67030630       0.82465563       0.61176736 </v>
   <v>       0.93330623       0.08836134       0.61113635 </v>
   <v>       0.92480225       0.34598586       0.60357366 </v>
   <v>       0.92687682       0.57537532       0.60874763 </v>
   <v>       0.91968957       0.82887953       0.60425962 </v>
   <v>       0.99963475       0.99894268       0.50114730 </v>
   <v>       0.99729591       0.24896128       0.49595843 </v>
   <v>       0.99559122       0.50158276       0.50328758 </v>
   <v>       0.00171051       0.74872834       0.49679008 </v>
   <v>       0.25844015       0.00292197       0.49921021 </v>
   <v>       0.25542325       0.24834735       0.49485335 </v>
   <v>       0.25935720       0.50760670       0.49370445 </v>
   <v>       0.24375848       0.74934625       0.50043729 </v>
   <v>       0.49093785       0.98770999       0.50088167 </v>
   <v>       0.50661221       0.25469293       0.50260533 </v>
   <v>       0.50810442       0.50876192       0.49858148 </v>
   <v>       0.50008523       0.75653398       0.50845832 </v>
   <v>       0.74574412       0.99013133       0.50602793 </v>
   <v>       0.75008040       0.23529774       0.50267411 </v>
   <v>       0.74298713       0.48904280       0.49856812 </v>
   <v>       0.76012087       0.75006849       0.49973630 </v>
  </varray>
  <varray name="velocities" >
   <v>       0.00000000       0.00000000       0.00000000 </v>
   <v>       0.00000000       0.00000000       0.00000000 </v>
   <v>       0.00000000       0.00000000       0.00000000 </v>
   <v>       0.00000000       0.00000000       0.00000000 </v>
   <v>       0.00000000       0.00000000       0.00000000 </v>
   <v>       0.00000000       0.00000000       0.00000000 </v>
   <v>       0.00000000       0.00000000       0.00000000 </v>
   <v>       0.00000000       0.00000000       0.00000000 </v>
   <v>       0.00000000       0.00000000       0.00000000 </v>
   <v>       0.00000000       0.00000000       0.00000000 </v>
   <v>       0.00000000       0.00000000       0.00000000 </v>
   <v>       0.00000000       0.00000000       0.00000000 </v>
   <v>       0.00000000       0.00000000       0.00000000 </v>
   <v>       0.00000000       0.00000000       0.00000000 </v>
   <v>       0.00000000       0.00000000       0.00000000 </v>
   <v>       0.00000000       0.00000000       0.00000000 </v>
   <v>       0.00000000       0.00000000       0.00000000 </v>
   <v>       0.00000000       0.00000000       0.00000000 </v>
   <v>       0.00000000       0.00000000       0.00000000 </v>
   <v>       0.00000000       0.00000000       0.00000000 </v>
   <v>       0.00000000       0.00000000       0.00000000 </v>
   <v>       0.00000000       0.00000000       0.00000000 </v>
   <v>       0.00000000       0.00000000       0.00000000 </v>
   <v>       0.00000000       0.00000000       0.00000000 </v>
   <v>       0.00000000       0.00000000       0.00000000 </v>
   <v>       0.00000000       0.00000000       0.00000000 </v>
   <v>       0.00000000       0.00000000       0.00000000 </v>
   <v>       0.00000000       0.00000000       0.00000000 </v>
   <v>       0.00000000       0.00000000       0.00000000 </v>
   <v>       0.00000000       0.00000000       0.00000000 </v>
   <v>       0.00000000       0.00000000       0.00000000 </v>
   <v>       0.00000000       0.00000000       0.00000000 </v>
   <v>       0.00000000       0.00000000       0.00000000 </v>
   <v>       0.00000000       0.00000000       0.00000000 </v>
   <v>       0.00000000       0.00000000       0.00000000 </v>
   <v>       0.00000000       0.00000000       0.00000000 </v>
   <v>       0.00000000       0.00000000       0.00000000 </v>
   <v>       0.00000000       0.00000000       0.00000000 </v>
   <v>       0.00000000       0.00000000       0.00000000 </v>
   <v>       0.00000000       0.00000000       0.00000000 </v>
   <v>       0.00000000       0.00000000       0.00000000 </v>
   <v>       0.00000000       0.00000000       0.00000000 </v>
   <v>       0.00000000       0.00000000       0.00000000 </v>
   <v>       0.00000000       0.00000000       0.00000000 </v>
   <v>       0.00000000       0.00000000       0.00000000 </v>
   <v>       0.00000000       0.00000000       0.00000000 </v>
   <v>       0.00000000       0.00000000       0.00000000 </v>
   <v>       0.00000000       0.00000000       0.00000000 </v>
   <v>       0.00000000       0.00000000       0.00000000 </v>
   <v>       0.00000000       0.00000000       0.00000000 </v>
   <v>       0.00000000       0.00000000       0.00000000 </v>
   <v>       0.00000000       0.00000000       0.00000000 </v>
   <v>       0.00000000       0.00000000       0.00000000 </v>
   <v>       0.00000000       0.00000000       0.00000000 </v>
   <v>       0.00000000       0.00000000       0.00000000 </v>
   <v>       0.00000000       0.00000000       0.00000000 </v>
   <v>       0.00000000       0.00000000       0.00000000 </v>
   <v>       0.00000000       0.00000000       0.00000000 </v>
   <v>       0.00000000       0.00000000       0.00000000 </v>
   <v>       0.00000000       0.00000000       0.00000000 </v>
   <v>       0.00000000       0.00000000       0.00000000 </v>
   <v>       0.00000000       0.00000000       0.00000000 </v>
   <v>       0.00000000       0.00000000       0.00000000 </v>
   <v>       0.00000000       0.00000000       0.00000000 </v>
   <v>       0.00000000       0.00000000       0.00000000 </v>
   <v>       0.00000000       0.00000000       0.00000000 </v>
   <v>       0.00000000       0.00000000       0.00000000 </v>
   <v>       0.00000000       0.00000000       0.00000000 </v>
   <v>       0.00000000       0.00000000       0.00000000 </v>
   <v>       0.00000000       0.00000000       0.00000000 </v>
   <v>       0.00000000       0.00000000       0.00000000 </v>
   <v>       0.00000000       0.00000000       0.00000000 </v>
   <v>       0.00000000       0.00000000       0.00000000 </v>
   <v>       0.00000000       0.00000000       0.00000000 </v>
   <v>       0.00000000       0.00000000       0.00000000 </v>
   <v>       0.00000000       0.00000000       0.00000000 </v>
   <v>       0.00000000       0.00000000       0.00000000 </v>
   <v>       0.00000000       0.00000000       0.00000000 </v>
   <v>       0.00000000       0.00000000       0.00000000 </v>
   <v>       0.00000000       0.00000000       0.00000000 </v>
  </varray>
 </structure>
 <calculation>
  <scstep>
   <time name="dav">   50.26   50.27</time>
   <time name="total">   51.09   51.11</time>
   <energy>
    <i name="alphaZ">    784.57699423 </i>
    <i name="ewald"> 251193.03546248 </i>
    <i name="hartreedc">-298867.07149147 </i>
    <i name="XCdc">   2501.90504397 </i>
    <i name="pawpsdc">  43679.68029659 </i>
    <i name="pawaedc"> -43417.33247688 </i>
    <i name="eentropy">     -0.06801391 </i>
    <i name="bandstr">    125.65554155 </i>
    <i name="atom">  56210.72393729 </i>
    <i name="e_fr_energy">  12211.10529385 </i>
    <i name="e_wo_entrp">  12211.17330776 </i>
    <i name="e_0_energy">  12211.13930080 </i>
   </energy>
  </scstep>
  <scstep>
   <time name="dav">   56.89   56.91</time>
   <time name="total">   56.89   56.91</time>
   <energy>
    <i name="e_fr_energy">   1746.20075662 </i>
    <i name="e_wo_entrp">   1746.24731456 </i>
    <i name="e_0_energy">   1746.22403559 </i>
   </energy>
  </scstep>
  <scstep>
   <time name="dav">   70.90   70.92</time>
   <time name="total">   70.90   70.92</time>
   <energy>
    <i name="e_fr_energy">   -404.48993976 </i>
    <i name="e_wo_entrp">   -404.48993972 </i>
    <i name="e_0_energy">   -404.48993974 </i>
   </energy>
  </scstep>
  <scstep>
   <time name="dav">   64.63   64.65</time>
   <time name="total">   64.63   64.65</time>
   <energy>
    <i name="e_fr_energy">   -643.53412762 </i>
    <i name="e_wo_entrp">   -643.53412762 </i>
    <i name="e_0_energy">   -643.53412762 </i>
   </energy>
  </scstep>
  <scstep>
   <time name="dav">   64.52   64.54</time>
   <time name="total">   68.43   68.45</time>
   <energy>
    <i name="e_fr_energy">   -654.06807585 </i>
    <i name="e_wo_entrp">   -654.06807585 </i>
    <i name="e_0_energy">   -654.06807585 </i>
   </energy>
  </scstep>
  <scstep>
   <time name="dav">   62.46   62.47</time>
   <time name="total">   67.16   67.18</time>
   <energy>
    <i name="e_fr_energy">   -523.60761520 </i>
    <i name="e_wo_entrp">   -523.60761520 </i>
    <i name="e_0_energy">   -523.60761520 </i>
   </energy>
  </scstep>
  <scstep>
   <time name="dav">   62.87   62.88</time>
   <time name="total">   67.57   67.59</time>
   <energy>
    <i name="e_fr_energy">   -528.42480981 </i>
    <i name="e_wo_entrp">   -528.42480981 </i>
    <i name="e_0_energy">   -528.42480981 </i>
   </energy>
  </scstep>
  <scstep>
   <time name="dav">   63.57   63.58</time>
   <time name="total">   68.27   68.29</time>
   <energy>
    <i name="e_fr_energy">   -526.18587976 </i>
    <i name="e_wo_entrp">   -526.18587976 </i>
    <i name="e_0_energy">   -526.18587976 </i>
   </energy>
  </scstep>
  <scstep>
   <time name="dav">   57.88   57.89</time>
   <time name="total">   62.58   62.60</time>
   <energy>
    <i name="e_fr_energy">   -525.66763988 </i>
    <i name="e_wo_entrp">   -525.66763988 </i>
    <i name="e_0_energy">   -525.66763988 </i>
   </energy>
  </scstep>
  <scstep>
   <time name="dav">   60.63   60.65</time>
   <time name="total">   65.33   65.36</time>
   <energy>
    <i name="e_fr_energy">   -525.54071370 </i>
    <i name="e_wo_entrp">   -525.54071370 </i>
    <i name="e_0_energy">   -525.54071370 </i>
   </energy>
  </scstep>
  <scstep>
   <time name="dav">   60.87   60.88</time>
   <time name="total">   65.56   65.58</time>
   <energy>
    <i name="e_fr_energy">   -525.52106050 </i>
    <i name="e_wo_entrp">   -525.52106050 </i>
    <i name="e_0_energy">   -525.52106050 </i>
   </energy>
  </scstep>
  <scstep>
   <time name="dav">   64.49   64.51</time>
   <time name="total">   69.19   69.21</time>
   <energy>
    <i name="e_fr_energy">   -525.50734686 </i>
    <i name="e_wo_entrp">   -525.50734686 </i>
    <i name="e_0_energy">   -525.50734686 </i>
   </energy>
  </scstep>
  <scstep>
   <time name="dav">   58.44   58.45</time>
   <time name="total">   63.15   63.17</time>
   <energy>
    <i name="e_fr_energy">   -525.50491348 </i>
    <i name="e_wo_entrp">   -525.50491348 </i>
    <i name="e_0_energy">   -525.50491348 </i>
   </energy>
  </scstep>
  <scstep>
   <time name="dav">   58.73   58.73</time>
   <time name="total">   63.43   63.44</time>
   <energy>
    <i name="e_fr_energy">   -525.50318546 </i>
    <i name="e_wo_entrp">   -525.50318546 </i>
    <i name="e_0_energy">   -525.50318546 </i>
   </energy>
  </scstep>
  <scstep>
   <time name="dav">   59.64   59.64</time>
   <time name="total">   64.35   64.36</time>
   <energy>
    <i name="e_fr_energy">   -525.50463968 </i>
    <i name="e_wo_entrp">   -525.50463968 </i>
    <i name="e_0_energy">   -525.50463968 </i>
   </energy>
  </scstep>
  <scstep>
   <time name="dav">   64.56   64.58</time>
   <time name="total">   69.27   69.29</time>
   <energy>
    <i name="e_fr_energy">   -525.50676965 </i>
    <i name="e_wo_entrp">   -525.50676965 </i>
    <i name="e_0_energy">   -525.50676965 </i>
   </energy>
  </scstep>
  <scstep>
   <time name="dav">   54.93   54.94</time>
   <time name="total">   59.64   59.66</time>
   <energy>
    <i name="e_fr_energy">   -525.51021293 </i>
    <i name="e_wo_entrp">   -525.51021293 </i>
    <i name="e_0_energy">   -525.51021293 </i>
   </energy>
  </scstep>
  <scstep>
   <time name="dav">   54.78   54.79</time>
   <time name="total">   59.49   59.51</time>
   <energy>
    <i name="e_fr_energy">   -525.51218229 </i>
    <i name="e_wo_entrp">   -525.51218229 </i>
    <i name="e_0_energy">   -525.51218229 </i>
   </energy>
  </scstep>
  <scstep>
   <time name="dav">   54.44   54.45</time>
   <time name="total">   59.14   59.16</time>
   <energy>
    <i name="e_fr_energy">   -525.51342984 </i>
    <i name="e_wo_entrp">   -525.51342984 </i>
    <i name="e_0_energy">   -525.51342984 </i>
   </energy>
  </scstep>
  <scstep>
   <time name="dav">   51.20   51.21</time>
   <time name="total">   55.93   55.94</time>
   <energy>
    <i name="e_fr_energy">   -525.51449354 </i>
    <i name="e_wo_entrp">   -525.51449354 </i>
    <i name="e_0_energy">   -525.51449354 </i>
   </energy>
  </scstep>
  <scstep>
   <time name="dav">   47.93   47.94</time>
   <time name="total">   52.64   52.66</time>
   <energy>
    <i name="e_fr_energy">   -525.51492979 </i>
    <i name="e_wo_entrp">   -525.51492979 </i>
    <i name="e_0_energy">   -525.51492979 </i>
   </energy>
  </scstep>
  <scstep>
   <time name="dav">   43.41   43.42</time>
   <time name="total">   48.12   48.13</time>
   <energy>
    <i name="e_fr_energy">   -525.51534543 </i>
    <i name="e_wo_entrp">   -525.51534543 </i>
    <i name="e_0_energy">   -525.51534543 </i>
   </energy>
  </scstep>
  <scstep>
   <time name="dav">   42.41   42.42</time>
   <time name="total">   47.12   47.14</time>
   <energy>
    <i name="e_fr_energy">   -525.51586096 </i>
    <i name="e_wo_entrp">   -525.51586096 </i>
    <i name="e_0_energy">   -525.51586096 </i>
   </energy>
  </scstep>
  <scstep>
   <time name="dav">   44.70   44.71</time>
   <time name="total">   49.41   49.42</time>
   <energy>
    <i name="e_fr_energy">   -525.51603212 </i>
    <i name="e_wo_entrp">   -525.51603212 </i>
    <i name="e_0_energy">   -525.51603212 </i>
   </energy>
  </scstep>
  <scstep>
   <time name="dav">   36.60   36.61</time>
   <time name="total">   41.32   41.33</time>
   <energy>
    <i name="e_fr_energy">   -525.51610241 </i>
    <i name="e_wo_entrp">   -525.51610241 </i>
    <i name="e_0_energy">   -525.51610241 </i>
   </energy>
  </scstep>
  <scstep>
   <time name="dav">   40.78   40.79</time>
   <time name="total">   45.49   45.50</time>
   <energy>
    <i name="e_fr_energy">   -525.51618811 </i>
    <i name="e_wo_entrp">   -525.51618811 </i>
    <i name="e_0_energy">   -525.51618811 </i>
   </energy>
  </scstep>
  <scstep>
   <time name="dav">   34.84   34.85</time>
   <time name="total">   39.55   39.57</time>
   <energy>
    <i name="e_fr_energy">   -525.51619966 </i>
    <i name="e_wo_entrp">   -525.51619966 </i>
    <i name="e_0_energy">   -525.51619966 </i>
   </energy>
  </scstep>
  <scstep>
   <time name="dav">   34.59   34.60</time>
   <time name="total">   39.30   39.32</time>
   <energy>
    <i name="e_fr_energy">   -525.51621040 </i>
    <i name="e_wo_entrp">   -525.51621040 </i>
    <i name="e_0_energy">   -525.51621040 </i>
   </energy>
  </scstep>
  <scstep>
   <time name="dav">   34.12   34.13</time>
   <time name="total">   38.83   38.84</time>
   <energy>
    <i name="e_fr_energy">   -525.51621759 </i>
    <i name="e_wo_entrp">   -525.51621759 </i>
    <i name="e_0_energy">   -525.51621759 </i>
   </energy>
  </scstep>
  <scstep>
   <time name="dav">   35.26   35.27</time>
   <time name="total">   39.98   40.00</time>
   <energy>
    <i name="e_fr_energy">   -525.51622806 </i>
    <i name="e_wo_entrp">   -525.51622806 </i>
    <i name="e_0_energy">   -525.51622806 </i>
   </energy>
  </scstep>
  <scstep>
   <time name="dav">   33.44   33.45</time>
   <time name="total">   38.19   38.19</time>
   <energy>
    <i name="e_fr_energy">   -525.51623093 </i>
    <i name="e_wo_entrp">   -525.51623093 </i>
    <i name="e_0_energy">   -525.51623093 </i>
   </energy>
  </scstep>
  <scstep>
   <time name="dav">   33.63   33.63</time>
   <time name="total">   38.36   38.37</time>
   <energy>
    <i name="e_fr_energy">   -525.51623327 </i>
    <i name="e_wo_entrp">   -525.51623327 </i>
    <i name="e_0_energy">   -525.51623327 </i>
   </energy>
  </scstep>
  <scstep>
   <time name="dav">   32.54   32.54</time>
   <time name="total">   33.35   33.36</time>
   <energy>
    <i name="alphaZ">    784.57699423 </i>
    <i name="ewald"> 251193.03546248 </i>
    <i name="hartreedc">-299167.53829897 </i>
    <i name="XCdc">   2488.95737849 </i>
    <i name="pawpsdc">  59206.15352143 </i>
    <i name="pawaedc"> -59037.87034202 </i>
    <i name="eentropy">     -0.00000000 </i>
    <i name="bandstr"> -12203.55488687 </i>
    <i name="atom">  56210.72393729 </i>
    <i name="e_fr_energy">   -525.51623395 </i>
    <i name="e_wo_entrp">   -525.51623395 </i>
    <i name="e_0_energy">   -525.51623395 </i>
   </energy>
  </scstep>
  <structure>
   <crystal>
    <varray name="basis" >
     <v>      13.79398668       0.00000000       0.00000000 </v>
     <v>      -6.89699334      11.94594288       0.00000000 </v>
     <v>       0.00000000       0.00000000      27.81022107 </v>
    </varray>
    <i name="volume">   4582.62876984 </i>
    <varray name="rec_basis" >
     <v>       0.07249536       0.04185521       0.00000000 </v>
     <v>       0.00000000       0.08371043       0.00000000 </v>
     <v>       0.00000000       0.00000000       0.03595800 </v>
    </varray>
   </crystal>
   <varray name="positions" >
    <v>       0.08084152       0.17146528       0.54162947 </v>
    <v>       0.08780835       0.41957418       0.54298225 </v>
    <v>       0.08214928       0.66602044       0.54601085 </v>
    <v>       0.07897473       0.91997613       0.54317178 </v>
    <v>       0.33747072       0.16642474       0.54514094 </v>
    <v>       0.34469312       0.42333240       0.53670452 </v>
    <v>       0.33181344       0.67633065       0.54507919 </v>
    <v>       0.32400758       0.91533757       0.54658027 </v>
    <v>       0.58779142       0.17141844       0.54843549 </v>
    <v>       0.58759334       0.41914372       0.54277034 </v>
    <v>       0.58093054       0.66444966       0.54715154 </v>
    <v>       0.58443166       0.91449050       0.54631066 </v>
    <v>       0.83632077       0.16228090       0.54793527 </v>
    <v>       0.84118468       0.42511850       0.54640980 </v>
    <v>       0.84039378       0.66703411       0.53812994 </v>
    <v>       0.82271759       0.90272984       0.54801327 </v>
    <v>       0.16514578       0.07928087       0.45585882 </v>
    <v>       0.16518333       0.33120213       0.44988979 </v>
    <v>       0.15384224       0.57396787       0.45171355 </v>
    <v>       0.16987001       0.83270216       0.45617149 </v>
    <v>       0.41830730       0.08677392       0.45951358 </v>
    <v>       0.42408616       0.33311549       0.45150045 </v>
    <v>       0.42233535       0.59802710       0.45489717 </v>
    <v>       0.41503196       0.83801507       0.45730283 </v>
    <v>       0.65928947       0.09033943       0.45759018 </v>
    <v>       0.66836306       0.33385885       0.45294677 </v>
    <v>       0.66298907       0.58455706       0.45335714 </v>
    <v>       0.66860561       0.83964264       0.46013523 </v>
    <v>       0.91831809       0.08209862       0.45802623 </v>
    <v>       0.90637910       0.31601659       0.45115088 </v>
    <v>       0.91164117       0.57774204       0.45267844 </v>
    <v>       0.92124577       0.82997108       0.45236118 </v>
    <v>       0.08126552       0.16477854       0.39552032 </v>
    <v>       0.07406174       0.40621582       0.39385384 </v>
    <v>       0.07803902       0.65775881       0.39351572 </v>
    <v>       0.08622097       0.90838454       0.39087656 </v>
    <v>       0.32852442       0.17570657       0.39527889 </v>
    <v>       0.33937094       0.43022094       0.39926526 </v>
    <v>       0.31311459       0.66305384       0.39315108 </v>
    <v>       0.33105773       0.92156876       0.39730303 </v>
    <v>       0.58172032       0.17348061       0.39297537 </v>
    <v>       0.60634781       0.43547056       0.39185798 </v>
    <v>       0.58073240       0.67457411       0.39982213 </v>
    <v>       0.57141725       0.89493667       0.40023901 </v>
    <v>       0.81601350       0.16675684       0.39181330 </v>
    <v>       0.82001479       0.40553802       0.39034001 </v>
    <v>       0.83851644       0.67169840       0.39198766 </v>
    <v>       0.82272150       0.91950827       0.39410053 </v>
    <v>       0.17324966       0.08847553       0.60205056 </v>
    <v>       0.17675435       0.33412154       0.60273815 </v>
    <v>       0.17049202       0.57553387       0.60609579 </v>
    <v>       0.17481495       0.84658778       0.60640510 </v>
    <v>       0.42015153       0.07766712       0.60726531 </v>
    <v>       0.39949326       0.33341303       0.60485907 </v>
    <v>       0.41712840       0.56740214       0.60638520 </v>
    <v>       0.42818201       0.83657290       0.60705817 </v>
    <v>       0.66812616       0.07752827       0.60984629 </v>
    <v>       0.65579213       0.34548318       0.61071366 </v>
    <v>       0.66662298       0.57575714       0.59999670 </v>
    <v>       0.67030630       0.82465563       0.61176736 </v>
    <v>       0.93330623       0.08836134       0.61113635 </v>
    <v>       0.92480225       0.34598586       0.60357366 </v>
    <v>       0.92687682       0.57537532       0.60874763 </v>
    <v>       0.91968957       0.82887953       0.60425962 </v>
    <v>       0.99963475       0.99894268       0.50114730 </v>
    <v>       0.99729591       0.24896128       0.49595843 </v>
    <v>       0.99559122       0.50158276       0.50328758 </v>
    <v>       0.00171051       0.74872834       0.49679008 </v>
    <v>       0.25844015       0.00292197       0.49921021 </v>
    <v>       0.25542325       0.24834735       0.49485335 </v>
    <v>       0.25935720       0.50760670       0.49370445 </v>
    <v>       0.24375848       0.74934625       0.50043729 </v>
    <v>       0.49093785       0.98770999       0.50088167 </v>
    <v>       0.50661221       0.25469293       0.50260533 </v>
    <v>       0.50810442       0.50876192       0.49858148 </v>
    <v>       0.50008523       0.75653398       0.50845832 </v>
    <v>       0.74574412       0.99013133       0.50602793 </v>
    <v>       0.75008040       0.23529774       0.50267411 </v>
    <v>       0.74298713       0.48904280       0.49856812 </v>
    <v>       0.76012087       0.75006849       0.49973630 </v>
   </varray>
  </structure>
  <varray name="forces" >
   <v>       1.06888600      -0.17373431       0.68956587 </v>
   <v>       0.21357969      -0.05774668      -0.25774438 </v>
   <v>       0.27163825       0.08079580      -0.46778709 </v>
   <v>       0.42293547      -0.09840398       0.37257352 </v>
   <v>      -0.56805299       0.67879560       0.02003913 </v>
   <v>      -0.84816702      -0.58015062       0.90285987 </v>
   <v>       0.63434643      -0.79337632       0.05780528 </v>
   <v>       1.16422342       0.17128223      -0.35369578 </v>
   <v>       0.00221802      -0.06678081       0.23540924 </v>
   <v>      -0.41569636      -0.27383950       0.17724151 </v>
   <v>      -0.04698521      -0.11087536      -0.01886645 </v>
   <v>      -0.49741668       0.38575380       0.77814994 </v>
   <v>      -0.57157830      -0.06376528       0.03275996 </v>
   <v>      -0.36585118      -0.85701950      -0.38401927 </v>
   <v>      -0.75135658      -0.16291171       1.23194780 </v>
   <v>       0.68222931       0.91638358      -0.15643364 </v>
   <v>       0.18835910       0.53618131      -0.14011930 </v>
   <v>       0.59539389       0.43428160       1.04517506 </v>
   <v>       0.82818000       0.68866432       1.11094042 </v>
   <v>      -0.27815509      -0.08732772      -0.25062597 </v>
   <v>       0.21541601      -0.47217526      -0.60705640 </v>
   <v>      -0.67102885       0.18212857       0.71738902 </v>
   <v>      -0.77779277      -0.51585029       0.61043631 </v>
   <v>      -0.28992137      -0.39255505       0.17306167 </v>
   <v>       0.56494147      -1.37610751      -0.01905767 </v>
   <v>      -0.25742698       0.11147133       1.01280780 </v>
   <v>       0.40924328       0.49640092       0.51430991 </v>
   <v>       0.31333923      -0.25847436      -0.07004805 </v>
   <v>      -0.39346282      -0.84790143      -0.43670187 </v>
   <v>      -0.20696148       0.80090978       1.23563032 </v>
   <v>       0.38341718      -0.04278514       0.19319363 </v>
   <v>      -0.68310932       0.37085444       0.17843100 </v>
   <v>      -0.12200226      -0.37917364      -0.31653452 </v>
   <v>      -0.15737697       0.13577712      -0.37333355 </v>
   <v>      -0.32172886       0.15236457      -0.03810516 </v>
   <v>      -0.26291824       0.41302197       0.45285055 </v>
   <v>       0.59162373      -0.43128448      -0.35425453 </v>
   <v>       0.33787513      -0.34762245      -0.90841537 </v>
   <v>       0.74103271       0.32162824       0.11360877 </v>
   <v>       0.34624136       0.06652828      -0.19678796 </v>
   <v>      -0.17252249      -0.58571883       0.32307818 </v>
   <v>      -0.72941443      -0.82708007      -0.05670118 </v>
   <v>       0.60853259      -0.05628436      -0.83002081 </v>
   <v>      -0.21772092       1.00077520      -0.54132465 </v>
   <v>       0.47374827      -0.66156092       0.14726229 </v>
   <v>       0.65615413       0.53637750       0.37441876 </v>
   <v>      -0.11685747      -0.15826446       0.10257311 </v>
   <v>       0.45877464       0.09474976       0.42837342 </v>
   <v>      -0.25458255      -0.31188583      -0.04056773 </v>
   <v>      -0.74218013       0.06149896      -0.66266613 </v>
   <v>      -0.10913407       0.44088721      -0.22872062 </v>
   <v>      -0.45510691      -0.75674847       0.10057040 </v>
   <v>      -0.17547717       0.38384901      -0.22803783 </v>
   <v>       1.04595820      -0.24426380      -0.53946538 </v>
   <v>      -0.30233367       0.71746942      -0.46383184 </v>
   <v>      -0.67930234      -0.35038087       0.09284479 </v>
   <v>       0.04151027       0.50086670      -0.39803613 </v>
   <v>       0.81353253      -0.69587970      -0.57756974 </v>
   <v>       0.21733326       0.77131600       0.48534989 </v>
   <v>      -0.10513620       0.07766477      -0.41670304 </v>
   <v>      -0.45842422      -0.08597814      -0.80821560 </v>
   <v>       0.23320489      -0.87690321       0.13952039 </v>
   <v>      -0.64539164       0.63644919      -0.21456643 </v>
   <v>       0.11168450      -0.21061832      -0.08393862 </v>
   <v>       0.10480817       0.29843510      -0.55538979 </v>
   <v>       0.25205863      -0.12008521       0.56559782 </v>
   <v>       0.35682987      -0.11608542      -1.00916346 </v>
   <v>      -0.21986381      -0.03387957       0.31295824 </v>
   <v>      -0.91979676      -0.26726645       0.31310783 </v>
   <v>      -0.28680170       0.24088177       0.26262755 </v>
   <v>      -1.14092687      -0.64066840       0.84989815 </v>
   <v>       0.17312421      -0.06642773       0.34523865 </v>
   <v>       0.08204348       1.74228410       0.03805007 </v>
   <v>       0.03644464      -0.58699690      -0.75979159 </v>
   <v>      -0.04085965      -0.23344715      -0.29497984 </v>
   <v>       0.38879359      -0.84281546      -1.52866270 </v>
   <v>       0.59339221       0.87793596      -0.51198885 </v>
   <v>      -0.59366852       0.89534303      -0.25326639 </v>
   <v>       0.84847286       0.95595330      -0.30761495 </v>
   <v>      -0.61902978      -0.05685976      -0.07684583 </v>
  </varray>
  <varray name="stress" >
   <v>       1.41932852       0.48505642      -3.21973561 </v>
   <v>       0.48505641       2.42315817       0.48831881 </v>
   <v>      -3.21973562       0.48831882      -4.47403309 </v>
  </varray>
  <energy>
   <i name="e_fr_energy">   -525.51623395 </i>
   <i name="e_wo_entrp">   -525.51623395 </i>
   <i name="e_0_energy">     -0.00000000 </i>
  </energy>
  <time name="totalsc"> 1891.20 1891.78</time>
  <eigenvalues>
   <array>
    <dimension dim="1">band</dimension>
    <dimension dim="2">kpoint</dimension>
    <dimension dim="3">spin</dimension>
    <field>eigene</field>
    <field>occ</field>
    <set>
     <set comment="spin 1">
      <set comment="kpoint 1">
       <r>  -51.7874    1.0000 </r>
       <r>  -51.7588    1.0000 </r>
       <r>  -51.6981    1.0000 </r>
       <r>  -51.6971    1.0000 </r>
       <r>  -51.6892    1.0000 </r>
       <r>  -51.6415    1.0000 </r>
       <r>  -51.6268    1.0000 </r>
       <r>  -51.5948    1.0000 </r>
       <r>  -51.5820    1.0000 </r>
       <r>  -51.5411    1.0000 </r>
       <r>  -51.5221    1.0000 </r>
       <r>  -51.5130    1.0000 </r>
       <r>  -51.5031    1.0000 </r>
       <r>  -51.4927    1.0000 </r>
       <r>  -51.4889    1.0000 </r>
       <r>  -51.4699    1.0000 </r>
       <r>  -51.4598    1.0000 </r>
       <r>  -51.4560    1.0000 </r>
       <r>  -51.4168    1.0000 </r>
       <r>  -51.4053    1.0000 </r>
       <r>  -51.3861    1.0000 </r>
       <r>  -51.3249    1.0000 </r>
       <r>  -51.3120    1.0000 </r>
       <r>  -51.3033    1.0000 </r>
       <r>  -51.2880    1.0000 </r>
       <r>  -51.2731    1.0000 </r>
       <r>  -51.2610    1.0000 </r>
       <r>  -51.2590    1.0000 </r>
       <r>  -51.2111    1.0000 </r>
       <r>  -51.1087    1.0000 </r>
       <r>  -51.0868    1.0000 </r>
       <r>  -50.9272    1.0000 </r>
       <r>  -30.4991    1.0000 </r>
       <r>  -30.4620    1.0000 </r>
       <r>  -30.4577    1.0000 </r>
       <r>  -30.4509    1.0000 </r>
       <r>  -30.4308    1.0000 </r>
       <r>  -30.4257    1.0000 </r>
       <r>  -30.4098    1.0000 </r>
       <r>  -30.3948    1.0000 </r>
       <r>  -30.3882    1.0000 </r>
       <r>  -30.3854    1.0000 </r>
       <r>  -30.3670    1.0000 </r>
       <r>  -30.3632    1.0000 </r>
       <r>  -30.3610    1.0000 </r>
       <r>  -30.3517    1.0000 </r>
       <r>  -30.3483    1.0000 </r>
       <r>  -30.3365    1.0000 </r>
       <r>  -30.3265    1.0000 </r>
       <r>  -30.3043    1.0000 </r>
       <r>  -30.2908    1.0000 </r>
       <r>  -30.2869    1.0000 </r>
       <r>  -30.2756    1.0000 </r>
       <r>  -30.2692    1.0000 </r>
       <r>  -30.2644    1.0000 </r>
       <r>  -30.2556    1.0000 </r>
       <r>  -30.2544    1.0000 </r>
       <r>  -30.2480    1.0000 </r>
       <r>  -30.2430    1.0000 </r>
       <r>  -30.2252    1.0000 </r>
       <r>  -30.2228    1.0000 </r>
       <r>  -30.2192    1.0000 </r>
       <r>  -30.2053    1.0000 </r>
       <r>  -30.2005    1.0000 </r>
       <r>  -30.1979    1.0000 </r>
       <r>  -30.1949    1.0000 </r>
       <r>  -30.1942    1.0000 </r>
       <r>  -30.1799    1.0000 </r>
       <r>  -30.1739    1.0000 </r>
       <r>  -30.1689    1.0000 </r>
       <r>  -30.1649    1.0000 </r>
       <r>  -30.1594    1.0000 </r>
       <r>  -30.1478    1.0000 </r>
       <r>  -30.1417    1.0000 </r>
       <r>  -30.1386    1.0000 </r>
       <r>  -30.1364    1.0000 </r>
       <r>  -30.1313    1.0000 </r>
       <r>  -30.1270    1.0000 </r>
       <r>  -30.1231    1.0000 </r>
       <r>  -30.1183    1.0000 </r>
       <r>  -30.1139    1.0000 </r>
       <r>  -30.1072    1.0000 </r>
       <r>  -30.1039    1.0000 </r>
       <r>  -30.0970    1.0000 </r>
       <r>  -30.0889    1.0000 </r>
       <r>  -30.0875    1.0000 </r>
       <r>  -30.0747    1.0000 </r>
       <r>  -30.0733    1.0000 </r>
       <r>  -30.0649    1.0000 </r>
       <r>  -30.0647    1.0000 </r>
       <r>  -30.0575    1.0000 </r>
       <r>  -30.0535    1.0000 </r>
       <r>  -30.0450    1.0000 </r>
       <r>  -30.0330    1.0000 </r>
       <r>  -30.0301    1.0000 </r>
       <r>  -30.0262    1.0000 </r>
       <r>  -30.0067    1.0000 </r>
       <r>  -30.0036    1.0000 </r>
       <r>  -29.9945    1.0000 </r>
       <r>  -29.9848    1.0000 </r>
       <r>  -29.9714    1.0000 </r>
       <r>  -29.9524    1.0000 </r>
       <r>  -29.9479    1.0000 </r>
       <r>  -29.9436    1.0000 </r>
       <r>  -29.9410    1.0000 </r>
       <r>  -29.9355    1.0000 </r>
       <r>  -29.9268    1.0000 </r>
       <r>  -29.9202    1.0000 </r>
       <r>  -29.9123    1.0000 </r>
       <r>  -29.9115    1.0000 </r>
       <r>  -29.8900    1.0000 </r>
       <r>  -29.8853    1.0000 </r>
       <r>  -29.8788    1.0000 </r>
       <r>  -29.8769    1.0000 </r>
       <r>  -29.8698    1.0000 </r>
       <r>  -29.8635    1.0000 </r>
       <r>  -29.8436    1.0000 </r>
       <r>  -29.8355    1.0000 </r>
       <r>  -29.8266    1.0000 </r>
       <r>  -29.7940    1.0000 </r>
       <r>  -29.7715    1.0000 </r>
       <r>  -29.7641    1.0000 </r>
       <r>  -29.7412    1.0000 </r>
       <r>  -29.7279    1.0000 </r>
       <r>  -29.7070    1.0000 </r>
       <r>  -29.6134    1.0000 </r>
       <r>  -29.5870    1.0000 </r>
       <r>  -29.5746    1.0000 </r>
       <r>  -18.6424    1.0000 </r>
       <r>  -18.5263    1.0000 </r>
       <r>  -18.4287    1.0000 </r>
       <r>  -18.3463    1.0000 </r>
       <r>  -18.3383    1.0000 </r>
       <r>  -18.3064    1.0000 </r>
       <r>  -18.2674    1.0000 </r>
       <r>  -18.2161    1.0000 </r>
       <r>  -18.2077    1.0000 </r>
       <r>  -18.1346    1.0000 </r>
       <r>  -18.1170    1.0000 </r>
       <r>  -18.0842    1.0000 </r>
       <r>  -18.0544    1.0000 </r>
       <r>  -18.0522    1.0000 </r>
       <r>  -18.0181    1.0000 </r>
       <r>  -18.0072    1.0000 </r>
       <r>  -17.9921    1.0000 </r>
       <r>  -17.9839    1.0000 </r>
       <r>  -17.9822    1.0000 </r>
       <r>  -17.9611    1.0000 </r>
       <r>  -17.8745    1.0000 </r>
       <r>  -17.8341    1.0000 </r>
       <r>  -17.8325    1.0000 </r>
       <r>  -17.7947    1.0000 </r>
       <r>  -17.7367    1.0000 </r>
       <r>  -17.7316    1.0000 </r>
       <r>  -17.7109    1.0000 </r>
       <r>  -17.6861    1.0000 </r>
       <r>  -17.5992    1.0000 </r>
       <r>  -17.5748    1.0000 </r>
       <r>  -17.4660    1.0000 </r>
       <r>  -17.3394    1.0000 </r>
       <r>  -11.7972    1.0000 </r>
       <r>  -11.4727    1.0000 </r>
       <r>  -11.4243    1.0000 </r>
       <r>  -11.3820    1.0000 </r>
       <r>  -11.3475    1.0000 </r>
       <r>  -11.3207    1.0000 </r>
       <r>  -11.2769    1.0000 </r>
       <r>  -10.9716    1.0000 </r>
       <r>  -10.9571    1.0000 </r>
       <r>  -10.9501    1.0000 </r>
       <r>  -10.8916    1.0000 </r>
       <r>  -10.8582    1.0000 </r>
       <r>  -10.8243    1.0000 </r>
       <r>  -10.8195    1.0000 </r>
       <r>  -10.7810    1.0000 </r>
       <r>  -10.7248    1.0000 </r>
       <r>   -8.0734    1.0000 </r>
       <r>   -8.0212    1.0000 </r>
       <r>   -7.9641    1.0000 </r>
       <r>   -7.7148    1.0000 </r>
       <r>   -7.6874    1.0000 </r>
       <r>   -7.6809    1.0000 </r>
       <r>   -7.6675    1.0000 </r>
       <r>   -7.6245    1.0000 </r>
       <r>   -7.5495    1.0000 </r>
       <r>   -7.5284    1.0000 </r>
       <r>   -7.5234    1.0000 </r>
       <r>   -7.4837    1.0000 </r>
       <r>   -7.4320    1.0000 </r>
       <r>   -7.3958    1.0000 </r>
       <r>   -7.2822    1.0000 </r>
       <r>   -7.2718    1.0000 </r>
       <r>   -7.2554    1.0000 </r>
       <r>   -7.2094    1.0000 </r>
       <r>   -7.1661    1.0000 </r>
       <r>   -7.1306    1.0000 </r>
       <r>   -7.1065    1.0000 </r>
       <r>   -7.0648    1.0000 </r>
       <r>   -7.0381    1.0000 </r>
       <r>   -7.0301    1.0000 </r>
       <r>   -7.0193    1.0000 </r>
       <r>   -6.9626    1.0000 </r>
       <r>   -6.9485    1.0000 </r>
       <r>   -6.9270    1.0000 </r>
       <r>   -6.8933    1.0000 </r>
       <r>   -6.8774    1.0000 </r>
       <r>   -6.8386    1.0000 </r>
       <r>   -6.8040    1.0000 </r>
       <r>   -6.7867    1.0000 </r>
       <r>   -6.7661    1.0000 </r>
       <r>   -6.7652    1.0000 </r>
       <r>   -6.7470    1.0000 </r>
       <r>   -6.7422    1.0000 </r>
       <r>   -6.7192    1.0000 </r>
       <r>   -6.7028    1.0000 </r>
       <r>   -6.7019    1.0000 </r>
       <r>   -6.6743    1.0000 </r>
       <r>   -6.6702    1.0000 </r>
       <r>   -6.6612    1.0000 </r>
       <r>   -6.6545    1.0000 </r>
       <r>   -6.6469    1.0000 </r>
       <r>   -6.6084    1.0000 </r>
       <r>   -6.6045    1.0000 </r>
       <r>   -6.5766    1.0000 </r>
       <r>   -6.5624    1.0000 </r>
       <r>   -6.5310    1.0000 </r>
       <r>   -6.5300    1.0000 </r>
       <r>   -6.5167    1.0000 </r>
       <r>   -6.5022    1.0000 </r>
       <r>   -6.4838    1.0000 </r>
       <r>   -6.4577    1.0000 </r>
       <r>   -6.4497    1.0000 </r>
       <r>   -6.4276    1.0000 </r>
       <r>   -6.4188    1.0000 </r>
       <r>   -6.3990    1.0000 </r>
       <r>   -6.3975    1.0000 </r>
       <r>   -6.3829    1.0000 </r>
       <r>   -6.3642    1.0000 </r>
       <r>   -6.3388    1.0000 </r>
       <r>   -6.3351    1.0000 </r>
       <r>   -6.3011    1.0000 </r>
       <r>   -6.2918    1.0000 </r>
       <r>   -6.2764    1.0000 </r>
       <r>   -6.2574    1.0000 </r>
       <r>   -6.1981    1.0000 </r>
       <r>   -6.1878    1.0000 </r>
       <r>   -6.1246    1.0000 </r>
       <r>   -6.0876    1.0000 </r>
       <r>   -6.0785    1.0000 </r>
       <r>   -6.0133    1.0000 </r>
       <r>   -5.9876    1.0000 </r>
       <r>   -5.9253    1.0000 </r>
       <r>   -5.8387    1.0000 </r>
       <r>   -5.7714    1.0000 </r>
       <r>   -5.7265    1.0000 </r>
       <r>   -5.6426    1.0000 </r>
       <r>   -5.6154    1.0000 </r>
       <r>   -5.6035    1.0000 </r>
       <r>   -5.5880    1.0000 </r>
       <r>   -5.5281    1.0000 </r>
       <r>   -5.5039    1.0000 </r>
       <r>   -5.4850    1.0000 </r>
       <r>   -5.4554    1.0000 </r>
       <r>   -5.4120    1.0000 </r>
       <r>   -5.3759    1.0000 </r>
       <r>   -5.3372    1.0000 </r>
       <r>   -5.3223    1.0000 </r>
       <r>   -5.2572    1.0000 </r>
       <r>   -5.1767    1.0000 </r>
       <r>   -5.1653    1.0000 </r>
       <r>   -4.9200    1.0000 </r>
       <r>   -4.9016    1.0000 </r>
       <r>   -4.8985    1.0000 </r>
       <r>   -4.8549    1.0000 </r>
       <r>   -4.8041    1.0000 </r>
       <r>   -4.6497    1.0000 </r>
       <r>   -4.6248    1.0000 </r>
       <r>   -4.5952    1.0000 </r>
       <r>   -4.5620    1.0000 </r>
       <r>   -4.5447    1.0000 </r>
       <r>   -4.5084    1.0000 </r>
       <r>   -4.2417    1.0000 </r>
       <r>   -4.1827    1.0000 </r>
       <r>   -4.1745    1.0000 </r>
       <r>   -4.1452    1.0000 </r>
       <r>   -4.1199    1.0000 </r>
       <r>   -4.1032    1.0000 </r>
       <r>   -4.0565    1.0000 </r>
       <r>   -4.0535    1.0000 </r>
       <r>   -4.0091    1.0000 </r>
       <r>   -4.0010    1.0000 </r>
       <r>   -3.9699    1.0000 </r>
       <r>   -3.9585    1.0000 </r>
       <r>   -3.9282    1.0000 </r>
       <r>   -3.9237    1.0000 </r>
       <r>   -3.8755    1.0000 </r>
       <r>   -3.8402    1.0000 </r>
       <r>   -3.8311    1.0000 </r>
       <r>   -3.7997    1.0000 </r>
       <r>   -3.7552    1.0000 </r>
       <r>   -3.7419    1.0000 </r>
       <r>   -3.7190    1.0000 </r>
       <r>   -3.6792    1.0000 </r>
       <r>   -3.6448    1.0000 </r>
       <r>   -3.6298    1.0000 </r>
       <r>   -3.5803    1.0000 </r>
       <r>   -3.5388    1.0000 </r>
       <r>   -3.4111    1.0000 </r>
       <r>   -3.3895    1.0000 </r>
       <r>   -3.3606    1.0000 </r>
       <r>   -3.3463    1.0000 </r>
       <r>   -3.2855    1.0000 </r>
       <r>   -3.2510    1.0000 </r>
       <r>   -3.2315    1.0000 </r>
       <r>   -3.2207    1.0000 </r>
       <r>   -3.2006    1.0000 </r>
       <r>   -3.1590    1.0000 </r>
       <r>   -3.1340    1.0000 </r>
       <r>   -3.0001    1.0000 </r>
       <r>   -2.9398    1.0000 </r>
       <r>   -2.1275    0.0000 </r>
       <r>   -2.0586    0.0000 </r>
       <r>   -2.0559    0.0000 </r>
       <r>   -1.4961    0.0000 </r>
       <r>   -1.4839    0.0000 </r>
       <r>   -1.4464    0.0000 </r>
       <r>   -1.4134    0.0000 </r>
       <r>   -1.4001    0.0000 </r>
       <r>   -1.3597    0.0000 </r>
       <r>   -0.7259    0.0000 </r>
       <r>   -0.6939    0.0000 </r>
       <r>   -0.6598    0.0000 </r>
       <r>   -0.6224    0.0000 </r>
       <r>   -0.6088    0.0000 </r>
       <r>   -0.5422    0.0000 </r>
       <r>   -0.5364    0.0000 </r>
       <r>   -0.5145    0.0000 </r>
       <r>   -0.4837    0.0000 </r>
       <r>   -0.4570    0.0000 </r>
       <r>   -0.4381    0.0000 </r>
       <r>   -0.4104    0.0000 </r>
       <r>   -0.3796    0.0000 </r>
       <r>   -0.3557    0.0000 </r>
       <r>   -0.3285    0.0000 </r>
       <r>    0.0095    0.0000 </r>
       <r>    0.0215    0.0000 </r>
       <r>    0.0883    0.0000 </r>
       <r>    0.1294    0.0000 </r>
       <r>    0.1408    0.0000 </r>
       <r>    0.1613    0.0000 </r>
       <r>    0.2001    0.0000 </r>
       <r>    0.2162    0.0000 </r>
       <r>    0.2264    0.0000 </r>
       <r>    0.2435    0.0000 </r>
       <r>    0.2594    0.0000 </r>
       <r>    0.2819    0.0000 </r>
       <r>    0.3933    0.0000 </r>
       <r>    0.4545    0.0000 </r>
       <r>    0.4946    0.0000 </r>
       <r>    0.5141    0.0000 </r>
       <r>    0.5919    0.0000 </r>
       <r>    0.6131    0.0000 </r>
       <r>    0.6343    0.0000 </r>
       <r>    0.6749    0.0000 </r>
       <r>    0.6816    0.0000 </r>
       <r>    0.7087    0.0000 </r>
       <r>    0.7375    0.0000 </r>
       <r>    0.7391    0.0000 </r>
       <r>    0.7751    0.0000 </r>
       <r>    0.7859    0.0000 </r>
       <r>    0.8079    0.0000 </r>
       <r>    0.8190    0.0000 </r>
       <r>    0.8446    0.0000 </r>
       <r>    0.8518    0.0000 </r>
       <r>    0.8717    0.0000 </r>
       <r>    0.8827    0.0000 </r>
       <r>    0.8949    0.0000 </r>
       <r>    0.9087    0.0000 </r>
       <r>    0.9201    0.0000 </r>
       <r>    0.9375    0.0000 </r>
       <r>    0.9530    0.0000 </r>
       <r>    0.9640    0.0000 </r>
       <r>    0.9758    0.0000 </r>
       <r>    1.0121    0.0000 </r>
      </set>
      <set comment="kpoint 2">
       <r>  -51.7874    1.0000 </r>
       <r>  -51.7588    1.0000 </r>
       <r>  -51.6981    1.0000 </r>
       <r>  -51.6971    1.0000 </r>
       <r>  -51.6892    1.0000 </r>
       <r>  -51.6415    1.0000 </r>
       <r>  -51.6268    1.0000 </r>
       <r>  -51.5948    1.0000 </r>
       <r>  -51.5820    1.0000 </r>
       <r>  -51.5411    1.0000 </r>
       <r>  -51.5221    1.0000 </r>
       <r>  -51.5130    1.0000 </r>
       <r>  -51.5031    1.0000 </r>
       <r>  -51.4927    1.0000 </r>
       <r>  -51.4889    1.0000 </r>
       <r>  -51.4699    1.0000 </r>
       <r>  -51.4599    1.0000 </r>
       <r>  -51.4560    1.0000 </r>
       <r>  -51.4168    1.0000 </r>
       <r>  -51.4053    1.0000 </r>
       <r>  -51.3861    1.0000 </r>
       <r>  -51.3249    1.0000 </r>
       <r>  -51.3120    1.0000 </r>
       <r>  -51.3033    1.0000 </r>
       <r>  -51.2880    1.0000 </r>
       <r>  -51.2731    1.0000 </r>
       <r>  -51.2610    1.0000 </r>
       <r>  -51.2590    1.0000 </r>
       <r>  -51.2111    1.0000 </r>
       <r>  -51.1087    1.0000 </r>
       <r>  -51.0868    1.0000 </r>
       <r>  -50.9272    1.0000 </r>
       <r>  -30.4990    1.0000 </r>
       <r>  -30.4606    1.0000 </r>
       <r>  -30.4568    1.0000 </r>
       <r>  -30.4501    1.0000 </r>
       <r>  -30.4308    1.0000 </r>
       <r>  -30.4252    1.0000 </r>
       <r>  -30.4096    1.0000 </r>
       <r>  -30.3959    1.0000 </r>
       <r>  -30.3928    1.0000 </r>
       <r>  -30.3838    1.0000 </r>
       <r>  -30.3673    1.0000 </r>
       <r>  -30.3661    1.0000 </r>
       <r>  -30.3609    1.0000 </r>
       <r>  -30.3522    1.0000 </r>
       <r>  -30.3488    1.0000 </r>
       <r>  -30.3367    1.0000 </r>
       <r>  -30.3245    1.0000 </r>
       <r>  -30.2961    1.0000 </r>
       <r>  -30.2923    1.0000 </r>
       <r>  -30.2857    1.0000 </r>
       <r>  -30.2767    1.0000 </r>
       <r>  -30.2727    1.0000 </r>
       <r>  -30.2651    1.0000 </r>
       <r>  -30.2555    1.0000 </r>
       <r>  -30.2532    1.0000 </r>
       <r>  -30.2475    1.0000 </r>
       <r>  -30.2442    1.0000 </r>
       <r>  -30.2265    1.0000 </r>
       <r>  -30.2246    1.0000 </r>
       <r>  -30.2186    1.0000 </r>
       <r>  -30.2060    1.0000 </r>
       <r>  -30.2011    1.0000 </r>
       <r>  -30.1982    1.0000 </r>
       <r>  -30.1974    1.0000 </r>
       <r>  -30.1901    1.0000 </r>
       <r>  -30.1781    1.0000 </r>
       <r>  -30.1735    1.0000 </r>
       <r>  -30.1710    1.0000 </r>
       <r>  -30.1670    1.0000 </r>
       <r>  -30.1560    1.0000 </r>
       <r>  -30.1464    1.0000 </r>
       <r>  -30.1426    1.0000 </r>
       <r>  -30.1396    1.0000 </r>
       <r>  -30.1372    1.0000 </r>
       <r>  -30.1355    1.0000 </r>
       <r>  -30.1266    1.0000 </r>
       <r>  -30.1221    1.0000 </r>
       <r>  -30.1176    1.0000 </r>
       <r>  -30.1116    1.0000 </r>
       <r>  -30.1072    1.0000 </r>
       <r>  -30.1022    1.0000 </r>
       <r>  -30.0985    1.0000 </r>
       <r>  -30.0901    1.0000 </r>
       <r>  -30.0841    1.0000 </r>
       <r>  -30.0748    1.0000 </r>
       <r>  -30.0729    1.0000 </r>
       <r>  -30.0671    1.0000 </r>
       <r>  -30.0638    1.0000 </r>
       <r>  -30.0586    1.0000 </r>
       <r>  -30.0548    1.0000 </r>
       <r>  -30.0436    1.0000 </r>
       <r>  -30.0322    1.0000 </r>
       <r>  -30.0299    1.0000 </r>
       <r>  -30.0257    1.0000 </r>
       <r>  -30.0058    1.0000 </r>
       <r>  -30.0038    1.0000 </r>
       <r>  -29.9952    1.0000 </r>
       <r>  -29.9847    1.0000 </r>
       <r>  -29.9721    1.0000 </r>
       <r>  -29.9516    1.0000 </r>
       <r>  -29.9477    1.0000 </r>
       <r>  -29.9436    1.0000 </r>
       <r>  -29.9415    1.0000 </r>
       <r>  -29.9351    1.0000 </r>
       <r>  -29.9263    1.0000 </r>
       <r>  -29.9203    1.0000 </r>
       <r>  -29.9119    1.0000 </r>
       <r>  -29.9107    1.0000 </r>
       <r>  -29.8899    1.0000 </r>
       <r>  -29.8847    1.0000 </r>
       <r>  -29.8789    1.0000 </r>
       <r>  -29.8761    1.0000 </r>
       <r>  -29.8704    1.0000 </r>
       <r>  -29.8640    1.0000 </r>
       <r>  -29.8449    1.0000 </r>
       <r>  -29.8358    1.0000 </r>
       <r>  -29.8268    1.0000 </r>
       <r>  -29.7938    1.0000 </r>
       <r>  -29.7716    1.0000 </r>
       <r>  -29.7640    1.0000 </r>
       <r>  -29.7413    1.0000 </r>
       <r>  -29.7280    1.0000 </r>
       <r>  -29.7073    1.0000 </r>
       <r>  -29.6134    1.0000 </r>
       <r>  -29.5870    1.0000 </r>
       <r>  -29.5746    1.0000 </r>
       <r>  -18.6189    1.0000 </r>
       <r>  -18.5608    1.0000 </r>
       <r>  -18.4307    1.0000 </r>
       <r>  -18.3409    1.0000 </r>
       <r>  -18.3297    1.0000 </r>
       <r>  -18.3263    1.0000 </r>
       <r>  -18.2373    1.0000 </r>
       <r>  -18.2164    1.0000 </r>
       <r>  -18.1825    1.0000 </r>
       <r>  -18.1677    1.0000 </r>
       <r>  -18.1400    1.0000 </r>
       <r>  -18.0880    1.0000 </r>
       <r>  -18.0570    1.0000 </r>
       <r>  -18.0433    1.0000 </r>
       <r>  -18.0234    1.0000 </r>
       <r>  -18.0149    1.0000 </r>
       <r>  -17.9884    1.0000 </r>
       <r>  -17.9734    1.0000 </r>
       <r>  -17.9620    1.0000 </r>
       <r>  -17.9348    1.0000 </r>
       <r>  -17.8891    1.0000 </r>
       <r>  -17.8435    1.0000 </r>
       <r>  -17.8261    1.0000 </r>
       <r>  -17.8057    1.0000 </r>
       <r>  -17.7350    1.0000 </r>
       <r>  -17.7307    1.0000 </r>
       <r>  -17.7104    1.0000 </r>
       <r>  -17.6903    1.0000 </r>
       <r>  -17.5988    1.0000 </r>
[...]
       <r>   -32.3490     0.0000    64.0000 </r>
       <r>   -32.1554     0.0000    64.0000 </r>
       <r>   -31.9617     0.0000    64.0000 </r>
       <r>   -31.7680     0.0000    64.0000 </r>
       <r>   -31.5743     0.0000    64.0000 </r>
       <r>   -31.3806     0.0000    64.0000 </r>
       <r>   -31.1870     0.0000    64.0000 </r>
       <r>   -30.9933     0.0000    64.0000 </r>
       <r>   -30.7996     0.0000    64.0000 </r>
       <r>   -30.6059     0.0131    64.0025 </r>
       <r>   -30.4122    68.8187    77.3313 </r>
       <r>   -30.2186   236.7081   123.1768 </r>
       <r>   -30.0249   339.2488   188.8823 </r>
       <r>   -29.8312   235.2378   234.4430 </r>
       <r>   -29.6375    83.7361   250.6609 </r>
       <r>   -29.4438    27.5652   255.9997 </r>
       <r>   -29.2502     0.0014   256.0000 </r>
       <r>   -29.0565     0.0000   256.0000 </r>
       <r>   -28.8628     0.0000   256.0000 </r>
       <r>   -28.6691     0.0000   256.0000 </r>
       <r>   -28.4755     0.0000   256.0000 </r>
       <r>   -28.2818     0.0000   256.0000 </r>
       <r>   -28.0881     0.0000   256.0000 </r>
       <r>   -27.8944     0.0000   256.0000 </r>
       <r>   -27.7007     0.0000   256.0000 </r>
       <r>   -27.5071     0.0000   256.0000 </r>
       <r>   -27.3134     0.0000   256.0000 </r>
       <r>   -27.1197     0.0000   256.0000 </r>
       <r>   -26.9260     0.0000   256.0000 </r>
       <r>   -26.7323     0.0000   256.0000 </r>
       <r>   -26.5387     0.0000   256.0000 </r>
       <r>   -26.3450     0.0000   256.0000 </r>
       <r>   -26.1513     0.0000   256.0000 </r>
       <r>   -25.9576     0.0000   256.0000 </r>
       <r>   -25.7639     0.0000   256.0000 </r>
       <r>   -25.5703     0.0000   256.0000 </r>
       <r>   -25.3766     0.0000   256.0000 </r>
       <r>   -25.1829     0.0000   256.0000 </r>
       <r>   -24.9892     0.0000   256.0000 </r>
       <r>   -24.7955     0.0000   256.0000 </r>
       <r>   -24.6019     0.0000   256.0000 </r>
       <r>   -24.4082     0.0000   256.0000 </r>
       <r>   -24.2145     0.0000   256.0000 </r>
       <r>   -24.0208     0.0000   256.0000 </r>
       <r>   -23.8271     0.0000   256.0000 </r>
       <r>   -23.6335     0.0000   256.0000 </r>
       <r>   -23.4398     0.0000   256.0000 </r>
       <r>   -23.2461     0.0000   256.0000 </r>
       <r>   -23.0524     0.0000   256.0000 </r>
       <r>   -22.8588     0.0000   256.0000 </r>
       <r>   -22.6651     0.0000   256.0000 </r>
       <r>   -22.4714     0.0000   256.0000 </r>
       <r>   -22.2777     0.0000   256.0000 </r>
       <r>   -22.0840     0.0000   256.0000 </r>
       <r>   -21.8904     0.0000   256.0000 </r>
       <r>   -21.6967     0.0000   256.0000 </r>
       <r>   -21.5030     0.0000   256.0000 </r>
       <r>   -21.3093     0.0000   256.0000 </r>
       <r>   -21.1156     0.0000   256.0000 </r>
       <r>   -20.9220     0.0000   256.0000 </r>
       <r>   -20.7283     0.0000   256.0000 </r>
       <r>   -20.5346     0.0000   256.0000 </r>
       <r>   -20.3409     0.0000   256.0000 </r>
       <r>   -20.1472     0.0000   256.0000 </r>
       <r>   -19.9536     0.0000   256.0000 </r>
       <r>   -19.7599     0.0000   256.0000 </r>
       <r>   -19.5662     0.0000   256.0000 </r>
       <r>   -19.3725     0.0000   256.0000 </r>
       <r>   -19.1788     0.0000   256.0000 </r>
       <r>   -18.9852     0.0000   256.0000 </r>
       <r>   -18.7915     0.0000   256.0000 </r>
       <r>   -18.5978     8.6811   257.6814 </r>
       <r>   -18.4041    22.0027   261.9428 </r>
       <r>   -18.2104    50.2513   271.6755 </r>
       <r>   -18.0168    74.3528   286.0761 </r>
       <r>   -17.8231    77.4064   301.0681 </r>
       <r>   -17.6294    58.8588   312.4678 </r>
       <r>   -17.4357    26.5249   317.6052 </r>
       <r>   -17.2420    12.3306   319.9933 </r>
       <r>   -17.0484     0.0344   320.0000 </r>
       <r>   -16.8547     0.0000   320.0000 </r>
       <r>   -16.6610     0.0000   320.0000 </r>
       <r>   -16.4673     0.0000   320.0000 </r>
       <r>   -16.2737     0.0000   320.0000 </r>
       <r>   -16.0800     0.0000   320.0000 </r>
       <r>   -15.8863     0.0000   320.0000 </r>
       <r>   -15.6926     0.0000   320.0000 </r>
       <r>   -15.4989     0.0000   320.0000 </r>
       <r>   -15.3053     0.0000   320.0000 </r>
       <r>   -15.1116     0.0000   320.0000 </r>
       <r>   -14.9179     0.0000   320.0000 </r>
       <r>   -14.7242     0.0000   320.0000 </r>
       <r>   -14.5305     0.0000   320.0000 </r>
       <r>   -14.3369     0.0000   320.0000 </r>
       <r>   -14.1432     0.0000   320.0000 </r>
       <r>   -13.9495     0.0000   320.0000 </r>
       <r>   -13.7558     0.0000   320.0000 </r>
       <r>   -13.5621     0.0000   320.0000 </r>
       <r>   -13.3685     0.0000   320.0000 </r>
       <r>   -13.1748     0.0000   320.0000 </r>
       <r>   -12.9811     0.0000   320.0000 </r>
       <r>   -12.7874     0.0000   320.0000 </r>
       <r>   -12.5937     0.0000   320.0000 </r>
       <r>   -12.4001     0.0000   320.0000 </r>
       <r>   -12.2064     0.0000   320.0000 </r>
       <r>   -12.0127     0.0000   320.0000 </r>
       <r>   -11.8190     0.4678   320.0906 </r>
       <r>   -11.6253    13.1339   322.6344 </r>
       <r>   -11.4317    18.8544   326.2861 </r>
       <r>   -11.2380    20.8176   330.3180 </r>
       <r>   -11.0443    28.9045   335.9162 </r>
       <r>   -10.8506    42.0378   344.0581 </r>
       <r>   -10.6570    39.4236   351.6936 </r>
       <r>   -10.4633     1.5819   352.0000 </r>
       <r>   -10.2696     0.0000   352.0000 </r>
       <r>   -10.0759     0.0000   352.0000 </r>
       <r>    -9.8822     0.0000   352.0000 </r>
       <r>    -9.6886     0.0000   352.0000 </r>
       <r>    -9.4949     0.0000   352.0000 </r>
       <r>    -9.3012     0.0000   352.0000 </r>
       <r>    -9.1075     0.0000   352.0000 </r>
       <r>    -8.9138     0.0000   352.0000 </r>
       <r>    -8.7202     0.0000   352.0000 </r>
       <r>    -8.5265     0.0000   352.0000 </r>
       <r>    -8.3328     0.0000   352.0000 </r>
       <r>    -8.1391     0.0368   352.0071 </r>
       <r>    -7.9454    11.8958   354.3111 </r>
       <r>    -7.7518    25.1325   359.1787 </r>
       <r>    -7.5581    53.3558   369.5127 </r>
       <r>    -7.3644    60.2810   381.1878 </r>
       <r>    -7.1707    63.7058   393.5263 </r>
       <r>    -6.9770    61.9393   405.5227 </r>
       <r>    -6.7834    90.2566   423.0035 </r>
       <r>    -6.5897   116.6059   445.5877 </r>
       <r>    -6.3960   108.1674   466.5375 </r>
       <r>    -6.2023    76.1917   481.2943 </r>
       <r>    -6.0086    69.9564   494.8434 </r>
       <r>    -5.8150    51.0876   504.7380 </r>
       <r>    -5.6213    63.1459   516.9680 </r>
       <r>    -5.4276    62.3776   529.0493 </r>
       <r>    -5.2339    43.0585   537.3888 </r>
       <r>    -5.0403    14.0305   540.1062 </r>
       <r>    -4.8466    27.6165   545.4550 </r>
       <r>    -4.6529    38.6842   552.9473 </r>
       <r>    -4.4592    43.9941   561.4681 </r>
       <r>    -4.2655    25.8955   566.4835 </r>
       <r>    -4.0719    32.2865   572.7367 </r>
       <r>    -3.8782    68.4943   586.0027 </r>
       <r>    -3.6845    83.2345   602.1235 </r>
       <r>    -3.4908    69.6704   615.6172 </r>
       <r>    -3.2971    65.8934   628.3794 </r>
       <r>    -3.1035    45.3080   637.1546 </r>
       <r>    -2.9098    14.3554   639.9350 </r>
       <r>    -2.7161     0.3357   640.0000 </r>
       <r>    -2.5224     0.0000   640.0000 </r>
       <r>    -2.3287     0.0000   640.0000 </r>
       <r>    -2.1351     0.5133   640.0994 </r>
       <r>    -1.9414     9.6396   641.9664 </r>
       <r>    -1.7477    18.6091   645.5706 </r>
       <r>    -1.5540    15.8037   648.6315 </r>
       <r>    -1.3603    19.7138   652.4496 </r>
       <r>    -1.1667    20.5801   656.4356 </r>
       <r>    -0.9730    33.3104   662.8871 </r>
       <r>    -0.7793    13.4416   665.4905 </r>
       <r>    -0.5856    27.8418   670.8828 </r>
       <r>    -0.3919    39.6915   678.5703 </r>
       <r>    -0.1983    29.2356   684.2326 </r>
       <r>    -0.0046    33.1976   690.6623 </r>
       <r>     0.1891    37.5928   697.9432 </r>
       <r>     0.3828    43.9751   706.4603 </r>
       <r>     0.5765    64.7883   719.0085 </r>
       <r>     0.7701    97.5405   737.9000 </r>
       <r>     0.9638   122.0517   761.5389 </r>
       <r>     1.1575    33.3587   767.9998 </r>
       <r>     1.3512     0.0008   768.0000 </r>
       <r>     1.5448     0.0000   768.0000 </r>
       <r>     1.7385     0.0000   768.0000 </r>
       <r>     1.9322     0.0000   768.0000 </r>
       <r>     2.1259     0.0000   768.0000 </r>
       <r>     2.3196     0.0000   768.0000 </r>
       <r>     2.5132     0.0000   768.0000 </r>
       <r>     2.7069     0.0000   768.0000 </r>
       <r>     2.9006     0.0000   768.0000 </r>
       <r>     3.0943     0.0000   768.0000 </r>
       <r>     3.2880     0.0000   768.0000 </r>
       <r>     3.4816     0.0000   768.0000 </r>
       <r>     3.6753     0.0000   768.0000 </r>
      </set>
     </set>
    </array>
   </total>
  </dos>
 </calculation>
 <structure name="finalpos" >
  <crystal>
   <varray name="basis" >
    <v>      13.79398668       0.00000000       0.00000000 </v>
    <v>      -6.89699334      11.94594288       0.00000000 </v>
    <v>       0.00000000       0.00000000      27.81022107 </v>
   </varray>
   <i name="volume">   4582.62876984 </i>
   <varray name="rec_basis" >
    <v>       0.07249536       0.04185521       0.00000000 </v>
    <v>       0.00000000       0.08371043       0.00000000 </v>
    <v>       0.00000000       0.00000000       0.03595800 </v>
   </varray>
  </crystal>
  <varray name="positions" >
   <v>       0.08084152       0.17146528       0.54162947 </v>
   <v>       0.08780835       0.41957418       0.54298225 </v>
   <v>       0.08214928       0.66602044       0.54601085 </v>
   <v>       0.07897473       0.91997613       0.54317178 </v>
   <v>       0.33747072       0.16642474       0.54514094 </v>
   <v>       0.34469312       0.42333240       0.53670452 </v>
   <v>       0.33181344       0.67633065       0.54507919 </v>
   <v>       0.32400758       0.91533757       0.54658027 </v>
   <v>       0.58779142       0.17141844       0.54843549 </v>
   <v>       0.58759334       0.41914372       0.54277034 </v>
   <v>       0.58093054       0.66444966       0.54715154 </v>
   <v>       0.58443166       0.91449050       0.54631066 </v>
   <v>       0.83632077       0.16228090       0.54793527 </v>
   <v>       0.84118468       0.42511850       0.54640980 </v>
   <v>       0.84039378       0.66703411       0.53812994 </v>
   <v>       0.82271759       0.90272984       0.54801327 </v>
   <v>       0.16514578       0.07928087       0.45585882 </v>
   <v>       0.16518333       0.33120213       0.44988979 </v>
   <v>       0.15384224       0.57396787       0.45171355 </v>
   <v>       0.16987001       0.83270216       0.45617149 </v>
   <v>       0.41830730       0.08677392       0.45951358 </v>
   <v>       0.42408616       0.33311549       0.45150045 </v>
   <v>       0.42233535       0.59802710       0.45489717 </v>
   <v>       0.41503196       0.83801507       0.45730283 </v>
   <v>       0.65928947       0.09033943       0.45759018 </v>
   <v>       0.66836306       0.33385885       0.45294677 </v>
   <v>       0.66298907       0.58455706       0.45335714 </v>
   <v>       0.66860561       0.83964264       0.46013523 </v>
   <v>       0.91831809       0.08209862       0.45802623 </v>
   <v>       0.90637910       0.31601659       0.45115088 </v>
   <v>       0.91164117       0.57774204       0.45267844 </v>
   <v>       0.92124577       0.82997108       0.45236118 </v>
   <v>       0.08126552       0.16477854       0.39552032 </v>
   <v>       0.07406174       0.40621582       0.39385384 </v>
   <v>       0.07803902       0.65775881       0.39351572 </v>
   <v>       0.08622097       0.90838454       0.39087656 </v>
   <v>       0.32852442       0.17570657       0.39527889 </v>
   <v>       0.33937094       0.43022094       0.39926526 </v>
   <v>       0.31311459       0.66305384       0.39315108 </v>
   <v>       0.33105773       0.92156876       0.39730303 </v>
   <v>       0.58172032       0.17348061       0.39297537 </v>
   <v>       0.60634781       0.43547056       0.39185798 </v>
   <v>       0.58073240       0.67457411       0.39982213 </v>
   <v>       0.57141725       0.89493667       0.40023901 </v>
   <v>       0.81601350       0.16675684       0.39181330 </v>
   <v>       0.82001479       0.40553802       0.39034001 </v>
   <v>       0.83851644       0.67169840       0.39198766 </v>
   <v>       0.82272150       0.91950827       0.39410053 </v>
   <v>       0.17324966       0.08847553       0.60205056 </v>
   <v>       0.17675435       0.33412154       0.60273815 </v>
   <v>       0.17049202       0.57553387       0.60609579 </v>
   <v>       0.17481495       0.84658778       0.60640510 </v>
   <v>       0.42015153       0.07766712       0.60726531 </v>
   <v>       0.39949326       0.33341303       0.60485907 </v>
   <v>       0.41712840       0.56740214       0.60638520 </v>
   <v>       0.42818201       0.83657290       0.60705817 </v>
   <v>       0.66812616       0.07752827       0.60984629 </v>
   <v>       0.65579213       0.34548318       0.61071366 </v>
   <v>       0.66662298       0.57575714       0.59999670 </v>
   <v>       0.67030630       0.82465563       0.61176736 </v>
   <v>       0.93330623       0.08836134       0.61113635 </v>
   <v>       0.92480225       0.34598586       0.60357366 </v>
   <v>       0.92687682       0.57537532       0.60874763 </v>
   <v>       0.91968957       0.82887953       0.60425962 </v>
   <v>       0.99963475       0.99894268       0.50114730 </v>
   <v>       0.99729591       0.24896128       0.49595843 </v>
   <v>       0.99559122       0.50158276       0.50328758 </v>
   <v>       0.00171051       0.74872834       0.49679008 </v>
   <v>       0.25844015       0.00292197       0.49921021 </v>
   <v>       0.25542325       0.24834735       0.49485335 </v>
   <v>       0.25935720       0.50760670       0.49370445 </v>
   <v>       0.24375848       0.74934625       0.50043729 </v>
   <v>       0.49093785       0.98770999       0.50088167 </v>
   <v>       0.50661221       0.25469293       0.50260533 </v>
   <v>       0.50810442       0.50876192       0.49858148 </v>
   <v>       0.50008523       0.75653398       0.50845832 </v>
   <v>       0.74574412       0.99013133       0.50602793 </v>
   <v>       0.75008040       0.23529774       0.50267411 </v>
   <v>       0.74298713       0.48904280       0.49856812 </v>
   <v>       0.76012087       0.75006849       0.49973630 </v>
  </varray>
  <varray name="velocities" >
   <v>       0.00000000       0.00000000       0.00000000 </v>
   <v>       0.00000000       0.00000000       0.00000000 </v>
   <v>       0.00000000       0.00000000       0.00000000 </v>
   <v>       0.00000000       0.00000000       0.00000000 </v>
   <v>       0.00000000       0.00000000       0.00000000 </v>
   <v>       0.00000000       0.00000000       0.00000000 </v>
   <v>       0.00000000       0.00000000       0.00000000 </v>
   <v>       0.00000000       0.00000000       0.00000000 </v>
   <v>       0.00000000       0.00000000       0.00000000 </v>
   <v>       0.00000000       0.00000000       0.00000000 </v>
   <v>       0.00000000       0.00000000       0.00000000 </v>
   <v>       0.00000000       0.00000000       0.00000000 </v>
   <v>       0.00000000       0.00000000       0.00000000 </v>
   <v>       0.00000000       0.00000000       0.00000000 </v>
   <v>       0.00000000       0.00000000       0.00000000 </v>
   <v>       0.00000000       0.00000000       0.00000000 </v>
   <v>       0.00000000       0.00000000       0.00000000 </v>
   <v>       0.00000000       0.00000000       0.00000000 </v>
   <v>       0.00000000       0.00000000       0.00000000 </v>
   <v>       0.00000000       0.00000000       0.00000000 </v>
   <v>       0.00000000       0.00000000       0.00000000 </v>
   <v>       0.00000000       0.00000000       0.00000000 </v>
   <v>       0.00000000       0.00000000       0.00000000 </v>
   <v>       0.00000000       0.00000000       0.00000000 </v>
   <v>       0.00000000       0.00000000       0.00000000 </v>
   <v>       0.00000000       0.00000000       0.00000000 </v>
   <v>       0.00000000       0.00000000       0.00000000 </v>
   <v>       0.00000000       0.00000000       0.00000000 </v>
   <v>       0.00000000       0.00000000       0.00000000 </v>
   <v>       0.00000000       0.00000000       0.00000000 </v>
   <v>       0.00000000       0.00000000       0.00000000 </v>
   <v>       0.00000000       0.00000000       0.00000000 </v>
   <v>       0.00000000       0.00000000       0.00000000 </v>
   <v>       0.00000000       0.00000000       0.00000000 </v>
   <v>       0.00000000       0.00000000       0.00000000 </v>
   <v>       0.00000000       0.00000000       0.00000000 </v>
   <v>       0.00000000       0.00000000       0.00000000 </v>
   <v>       0.00000000       0.00000000       0.00000000 </v>
   <v>       0.00000000       0.00000000       0.00000000 </v>
   <v>       0.00000000       0.00000000       0.00000000 </v>
   <v>       0.00000000       0.00000000       0.00000000 </v>
   <v>       0.00000000       0.00000000       0.00000000 </v>
   <v>       0.00000000       0.00000000       0.00000000 </v>
   <v>       0.00000000       0.00000000       0.00000000 </v>
   <v>       0.00000000       0.00000000       0.00000000 </v>
   <v>       0.00000000       0.00000000       0.00000000 </v>
   <v>       0.00000000       0.00000000       0.00000000 </v>
   <v>       0.00000000       0.00000000       0.00000000 </v>
   <v>       0.00000000       0.00000000       0.00000000 </v>
   <v>       0.00000000       0.00000000       0.00000000 </v>
   <v>       0.00000000       0.00000000       0.00000000 </v>
   <v>       0.00000000       0.00000000       0.00000000 </v>
   <v>       0.00000000       0.00000000       0.00000000 </v>
   <v>       0.00000000       0.00000000       0.00000000 </v>
   <v>       0.00000000       0.00000000       0.00000000 </v>
   <v>       0.00000000       0.00000000       0.00000000 </v>
   <v>       0.00000000       0.00000000       0.00000000 </v>
   <v>       0.00000000       0.00000000       0.00000000 </v>
   <v>       0.00000000       0.00000000       0.00000000 </v>
   <v>       0.00000000       0.00000000       0.00000000 </v>
   <v>       0.00000000       0.00000000       0.00000000 </v>
   <v>       0.00000000       0.00000000       0.00000000 </v>
   <v>       0.00000000       0.00000000       0.00000000 </v>
   <v>       0.00000000       0.00000000       0.00000000 </v>
   <v>       0.00000000       0.00000000       0.00000000 </v>
   <v>       0.00000000       0.00000000       0.00000000 </v>
   <v>       0.00000000       0.00000000       0.00000000 </v>
   <v>       0.00000000       0.00000000       0.00000000 </v>
   <v>       0.00000000       0.00000000       0.00000000 </v>
   <v>       0.00000000       0.00000000       0.00000000 </v>
   <v>       0.00000000       0.00000000       0.00000000 </v>
   <v>       0.00000000       0.00000000       0.00000000 </v>
   <v>       0.00000000       0.00000000       0.00000000 </v>
   <v>       0.00000000       0.00000000       0.00000000 </v>
   <v>       0.00000000       0.00000000       0.00000000 </v>
   <v>       0.00000000       0.00000000       0.00000000 </v>
   <v>       0.00000000       0.00000000       0.00000000 </v>
   <v>       0.00000000       0.00000000       0.00000000 </v>
   <v>       0.00000000       0.00000000       0.00000000 </v>
   <v>       0.00000000       0.00000000       0.00000000 </v>
  </varray>
 </structure>
</modeling>
