<?xml version="1.0" encoding="ISO-8859-1"?>
<modeling>
 <generator>
  <i name="program" type="string">vasp </i>
  <i name="version" type="string">5.4.4.18Apr17-6-g9f103f2a35  </i>
  <i name="subversion" type="string">(build Oct 31 2019 15:01:46) complex            parallel </i>
  <i name="platform" type="string">LinuxIFC </i>
  <i name="date" type="string">2024 04 20 </i>
  <i name="time" type="string">17:32:17 </i>
 </generator>
 <incar>
  <i type="int" name="ISTART">     0</i>
  <i type="string" name="PREC">anormal</i>
  <i type="logical" name="ADDGRID"> T  </i>
  <i type="int" name="IBRION">    -1</i>
  <i name="EDIFF">      0.00000100</i>
  <i name="EDIFFG">     -0.01000000</i>
  <i type="int" name="NSW">     1</i>
  <i type="int" name="ISIF">     2</i>
  <i type="int" name="ISYM">     2</i>
  <i name="ENCUT">    600.00000000</i>
  <i name="POTIM">      1.00000000</i>
  <i type="string" name="LREAL"> Auto.</i>
  <i type="int" name="ISMEAR">     0</i>
  <i name="SIGMA">      0.05000000</i>
  <i name="KSPACING">      0.25000000</i>
  <i type="logical" name="LWAVE"> F  </i>
  <i type="logical" name="LCHARG"> F  </i>
  <i type="logical" name="LSCALAPACK"> F  </i>
  <v type="int" name="KPOINT_BSE">    -1     0     0     0</v>
 </incar>
 <structure name="primitive_cell" >
  <crystal>
   <varray name="basis" >
    <v>      13.12862340       0.00000000       0.00000000 </v>
    <v>      -6.56431170      11.36972138       0.00000000 </v>
    <v>       0.00000000       0.00000000      26.82809424 </v>
   </varray>
   <i name="volume">   4004.59716953 </i>
   <varray name="rec_basis" >
    <v>       0.07616945       0.04397645       0.00000000 </v>
    <v>       0.00000000       0.08795290       0.00000000 </v>
    <v>       0.00000000       0.00000000       0.03727436 </v>
   </varray>
  </crystal>
  <varray name="positions" >
   <v>       0.09142239       0.16485452       0.45091125 </v>
   <v>      -0.06899405       0.09124536       0.41209493 </v>
   <v>       0.24522735       0.24362751       0.49450092 </v>
   <v>       0.16324366       0.08158311       0.40632285 </v>
   <v>       0.15489785       0.33282985       0.41167573 </v>
   <v>      -0.00712969      -0.01129434       0.49557523 </v>
   <v>       0.01123461       0.25918393      -0.49665789 </v>
   <v>       0.15602496       0.30962114      -0.45555348 </v>
   <v>       0.15919527       0.07257210      -0.45836869 </v>
   <v>       0.07439371      -0.08307359       0.44919451 </v>
   <v>       0.33117961       0.15799868       0.44527413 </v>
   <v>       0.32370627       0.42522193       0.45665077 </v>
   <v>      -0.08408204       0.08885337      -0.45229171 </v>
   <v>      -0.16045515      -0.08382932       0.45043694 </v>
   <v>      -0.16540194       0.16158400       0.45250169 </v>
   <v>       0.09120015       0.42955713       0.45966766 </v>
   <v>       0.07934970       0.15375330      -0.41441233 </v>
   <v>      -0.07157949      -0.15315788       0.39990479 </v>
   <v>      -0.06548297       0.33474291       0.40924028 </v>
   <v>       0.24828054       0.00207681      -0.49701600 </v>
   <v>       0.42563933       0.36732793       0.40620578 </v>
   <v>       0.25589049      -0.49724329      -0.49879525 </v>
   <v>      -0.25284629      -0.00789792      -0.49794709 </v>
   <v>      -0.08381182      -0.15631276      -0.45380402 </v>
   <v>       0.41578004       0.33379920      -0.45245775 </v>
   <v>      -0.07093321       0.32777675      -0.45147674 </v>
   <v>       0.30703591       0.15438088      -0.40972907 </v>
   <v>       0.31922805       0.38688146      -0.40507677 </v>
   <v>       0.39961477       0.07487569       0.40529968 </v>
   <v>       0.07601973      -0.08460437      -0.40832916 </v>
   <v>       0.16085928      -0.16248597       0.40777614 </v>
   <v>      -0.16968052      -0.08305383      -0.41266020 </v>
   <v>      -0.00439490      -0.24758439       0.49701535 </v>
   <v>      -0.16167571       0.16796898      -0.40661557 </v>
   <v>       0.17536314      -0.42019021       0.41475544 </v>
   <v>       0.07796289       0.42072618      -0.40991105 </v>
   <v>      -0.49109710       0.25937301       0.49713814 </v>
   <v>      -0.32591590       0.09211106       0.41430557 </v>
   <v>      -0.33684032      -0.15218647       0.40930566 </v>
   <v>      -0.23921668      -0.25131609      -0.49414852 </v>
   <v>      -0.49696334      -0.48791757      -0.49905601 </v>
   <v>      -0.24903967       0.24742452      -0.49838175 </v>
   <v>       0.43032252      -0.39284897       0.41160646 </v>
   <v>       0.17482989      -0.14933652      -0.45530539 </v>
   <v>      -0.42940149       0.40739945       0.44863005 </v>
   <v>       0.40842621       0.09147050      -0.44604093 </v>
   <v>       0.00689325      -0.47984459      -0.49648495 </v>
   <v>       0.33223141      -0.34294498       0.45531414 </v>
   <v>       0.33216018      -0.08786711       0.45127236 </v>
   <v>      -0.15681985       0.41271104       0.45159291 </v>
   <v>       0.42209004      -0.42301780      -0.44916152 </v>
   <v>      -0.33981728      -0.16462283      -0.45156266 </v>
   <v>      -0.17580432      -0.34163859       0.45441982 </v>
   <v>      -0.33835180       0.07634687      -0.45204787 </v>
   <v>       0.16847234      -0.40616061      -0.45009743 </v>
   <v>      -0.42484693      -0.08788069       0.44879935 </v>
   <v>       0.07766481      -0.33069670       0.45221623 </v>
   <v>      -0.41737357      -0.34624860       0.45477379 </v>
   <v>      -0.40373168       0.16504900       0.45550189 </v>
   <v>      -0.44000090       0.41279667      -0.40958359 </v>
   <v>      -0.15115995      -0.32456326      -0.40888448 </v>
   <v>      -0.31812707      -0.39937722       0.40899227 </v>
   <v>       0.32915002      -0.34280139      -0.40949470 </v>
   <v>       0.49662384       0.00222560       0.49961668 </v>
   <v>      -0.39619354      -0.08104778      -0.39922950 </v>
   <v>       0.24624055      -0.25310065      -0.49968726 </v>
   <v>      -0.08123399      -0.41716225       0.40999587 </v>
   <v>      -0.32884309       0.32930673       0.40811626 </v>
   <v>      -0.16521944       0.42346131      -0.41249975 </v>
   <v>       0.49786837      -0.25401521      -0.49801585 </v>
   <v>       0.33822232      -0.09621730      -0.40395678 </v>
   <v>      -0.08081517      -0.41114287      -0.45337578 </v>
   <v>      -0.32981484       0.33404833      -0.45397164 </v>
   <v>      -0.33267891      -0.41366562      -0.45405758 </v>
   <v>       0.43086416      -0.12734325       0.40298341 </v>
   <v>      -0.42221579       0.17847824      -0.40433492 </v>
   <v>       0.09186903      -0.33562952      -0.41460565 </v>
   <v>      -0.40935593      -0.34608562      -0.40825029 </v>
   <v>      -0.24339327      -0.49810643      -0.49997645 </v>
   <v>       0.40898827      -0.17264039      -0.45006211 </v>
  </varray>
 </structure>
 <varray name="primitive_index" >
  <v type="int" >        1 </v>
  <v type="int" >       61 </v>
  <v type="int" >       70 </v>
  <v type="int" >       49 </v>
  <v type="int" >       50 </v>
  <v type="int" >       65 </v>
  <v type="int" >       66 </v>
  <v type="int" >       18 </v>
  <v type="int" >       17 </v>
  <v type="int" >        4 </v>
  <v type="int" >        5 </v>
  <v type="int" >        6 </v>
  <v type="int" >       29 </v>
  <v type="int" >       16 </v>
  <v type="int" >       13 </v>
  <v type="int" >        2 </v>
  <v type="int" >       33 </v>
  <v type="int" >       64 </v>
  <v type="int" >       62 </v>
  <v type="int" >       69 </v>
  <v type="int" >       54 </v>
  <v type="int" >       71 </v>
  <v type="int" >       77 </v>
  <v type="int" >       32 </v>
  <v type="int" >       22 </v>
  <v type="int" >       30 </v>
  <v type="int" >       37 </v>
  <v type="int" >       38 </v>
  <v type="int" >       53 </v>
  <v type="int" >       36 </v>
  <v type="int" >       52 </v>
  <v type="int" >       48 </v>
  <v type="int" >       68 </v>
  <v type="int" >       45 </v>
  <v type="int" >       51 </v>
  <v type="int" >       34 </v>
  <v type="int" >       74 </v>
  <v type="int" >       57 </v>
  <v type="int" >       60 </v>
  <v type="int" >       80 </v>
  <v type="int" >       75 </v>
  <v type="int" >       78 </v>
  <v type="int" >       55 </v>
  <v type="int" >       20 </v>
  <v type="int" >       10 </v>
  <v type="int" >       21 </v>
  <v type="int" >       67 </v>
  <v type="int" >        7 </v>
  <v type="int" >        8 </v>
  <v type="int" >       14 </v>
  <v type="int" >       23 </v>
  <v type="int" >       28 </v>
  <v type="int" >       15 </v>
  <v type="int" >       25 </v>
  <v type="int" >       19 </v>
  <v type="int" >       12 </v>
  <v type="int" >        3 </v>
  <v type="int" >       11 </v>
  <v type="int" >        9 </v>
  <v type="int" >       42 </v>
  <v type="int" >       47 </v>
  <v type="int" >       59 </v>
  <v type="int" >       39 </v>
  <v type="int" >       73 </v>
  <v type="int" >       44 </v>
  <v type="int" >       72 </v>
  <v type="int" >       63 </v>
  <v type="int" >       58 </v>
  <v type="int" >       46 </v>
  <v type="int" >       76 </v>
  <v type="int" >       40 </v>
  <v type="int" >       31 </v>
  <v type="int" >       26 </v>
  <v type="int" >       27 </v>
  <v type="int" >       56 </v>
  <v type="int" >       41 </v>
  <v type="int" >       35 </v>
  <v type="int" >       43 </v>
  <v type="int" >       79 </v>
  <v type="int" >       24 </v>
 </varray>
 <kpoints>
  <generation param="Gamma">
   <v type="int" name="divisions">       3        3        1 </v>
   <v name="usershift">      0.00000000       0.00000000       0.00000000 </v>
   <v name="genvec1">      0.33333333       0.00000000       0.00000000 </v>
   <v name="genvec2">      0.00000000       0.33333333       0.00000000 </v>
   <v name="genvec3">      0.00000000       0.00000000       1.00000000 </v>
   <v name="shift">      0.00000000       0.00000000       0.00000000 </v>
  </generation>
  <varray name="kpointlist" >
   <v>       0.00000000       0.00000000       0.00000000 </v>
   <v>       0.33333333      -0.00000000       0.00000000 </v>
   <v>       0.00000000       0.33333333       0.00000000 </v>
   <v>       0.33333333       0.33333333       0.00000000 </v>
   <v>      -0.33333333       0.33333333       0.00000000 </v>
  </varray>
  <varray name="weights" >
   <v>       0.11111111 </v>
   <v>       0.22222222 </v>
   <v>       0.22222222 </v>
   <v>       0.22222222 </v>
   <v>       0.22222222 </v>
  </varray>
 </kpoints>
 <parameters>
  <separator name="general" >
   <i type="string" name="SYSTEM">unknown system</i>
   <i type="logical" name="LCOMPAT"> F  </i>
  </separator>
  <separator name="electronic" >
   <i type="string" name="PREC">anorma</i>
   <i name="ENMAX">    600.00000000</i>
   <i name="ENAUG">    644.87300000</i>
   <i name="EDIFF">      0.00000100</i>
   <i type="int" name="IALGO">    38</i>
   <i type="int" name="IWAVPR">    10</i>
   <i type="int" name="NBANDS">   384</i>
   <i name="NELECT">    640.00000000</i>
   <i type="int" name="TURBO">     0</i>
   <i type="int" name="IRESTART">     0</i>
   <i type="int" name="NREBOOT">     0</i>
   <i type="int" name="NMIN">     0</i>
   <i name="EREF">      0.00000000</i>
   <separator name="electronic smearing" >
    <i type="int" name="ISMEAR">     0</i>
    <i name="SIGMA">      0.05000000</i>
    <i name="KSPACING">      0.25000000</i>
    <i type="logical" name="KGAMMA"> T  </i>
   </separator>
   <separator name="electronic projectors" >
    <i type="logical" name="LREAL"> T  </i>
    <v name="ROPT">     -0.00025000     -0.00025000     -0.00025000</v>
    <i type="int" name="LMAXPAW">  -100</i>
    <i type="int" name="LMAXMIX">     2</i>
    <i type="logical" name="NLSPLINE"> F  </i>
   </separator>
   <separator name="electronic startup" >
    <i type="int" name="ISTART">     0</i>
    <i type="int" name="ICHARG">     2</i>
    <i type="int" name="INIWAV">     1</i>
   </separator>
   <separator name="electronic spin" >
    <i type="int" name="ISPIN">     1</i>
    <i type="logical" name="LNONCOLLINEAR"> F  </i>
    <v name="MAGMOM">      1.00000000      1.00000000      1.00000000      1.00000000      1.00000000      1.00000000      1.00000000      1.00000000      1.00000000      1.00000000      1.00000000      1.00000000      1.00000000      1.00000000      1.00000000      1.00000000      1.00000000      1.00000000      1.00000000      1.00000000
      1.00000000      1.00000000      1.00000000      1.00000000      1.00000000      1.00000000      1.00000000      1.00000000      1.00000000      1.00000000      1.00000000      1.00000000      1.00000000      1.00000000      1.00000000      1.00000000      1.00000000      1.00000000      1.00000000      1.00000000
      1.00000000      1.00000000      1.00000000      1.00000000      1.00000000      1.00000000      1.00000000      1.00000000      1.00000000      1.00000000      1.00000000      1.00000000      1.00000000      1.00000000      1.00000000      1.00000000      1.00000000      1.00000000      1.00000000      1.00000000
      1.00000000      1.00000000      1.00000000      1.00000000      1.00000000      1.00000000      1.00000000      1.00000000      1.00000000      1.00000000      1.00000000      1.00000000      1.00000000      1.00000000      1.00000000      1.00000000      1.00000000      1.00000000      1.00000000      1.00000000
</v>
    <i name="NUPDOWN">     -1.00000000</i>
    <i type="logical" name="LSORBIT"> F  </i>
    <v name="SAXIS">      0.00000000      0.00000000      1.00000000</v>
    <i type="logical" name="LSPIRAL"> F  </i>
    <v name="QSPIRAL">      0.00000000      0.00000000      0.00000000</v>
    <i type="logical" name="LZEROZ"> F  </i>
   </separator>
   <separator name="electronic exchange-correlation" >
    <i type="logical" name="LASPH"> F  </i>
    <i type="logical" name="LMETAGGA"> F  </i>
   </separator>
   <separator name="electronic convergence" >
    <i type="int" name="NELM">    60</i>
    <i type="int" name="NELMDL">    -5</i>
    <i type="int" name="NELMIN">     2</i>
    <i name="ENINI">    600.00000000</i>
    <separator name="electronic convergence detail" >
     <i type="logical" name="LDIAG"> T  </i>
     <i type="logical" name="LSUBROT"> F  </i>
     <i name="WEIMIN">      0.00000000</i>
     <i name="EBREAK">      0.00000000</i>
     <i name="DEPER">      0.30000000</i>
     <i type="int" name="NRMM">     4</i>
     <i name="TIME">      0.40000000</i>
    </separator>
   </separator>
   <separator name="electronic mixer" >
    <i name="AMIX">      0.40000000</i>
    <i name="BMIX">      1.00000000</i>
    <i name="AMIN">      0.10000000</i>
    <i name="AMIX_MAG">      1.60000000</i>
    <i name="BMIX_MAG">      1.00000000</i>
    <separator name="electronic mixer details" >
     <i type="int" name="IMIX">     4</i>
     <i type="logical" name="MIXFIRST"> F  </i>
     <i type="int" name="MAXMIX">   -45</i>
     <i name="WC">    100.00000000</i>
     <i type="int" name="INIMIX">     1</i>
     <i type="int" name="MIXPRE">     1</i>
     <i type="int" name="MREMOVE">     5</i>
    </separator>
   </separator>
   <separator name="electronic dipolcorrection" >
    <i type="logical" name="LDIPOL"> F  </i>
    <i type="logical" name="LMONO"> F  </i>
    <i type="int" name="IDIPOL">     0</i>
    <i name="EPSILON">      1.00000000</i>
    <v name="DIPOL">   -100.00000000   -100.00000000   -100.00000000</v>
    <i name="EFIELD">      0.00000000</i>
   </separator>
  </separator>
  <separator name="grids" >
   <i type="int" name="NGX">   108</i>
   <i type="int" name="NGY">   108</i>
   <i type="int" name="NGZ">   216</i>
   <i type="int" name="NGXF">   216</i>
   <i type="int" name="NGYF">   216</i>
   <i type="int" name="NGZF">   432</i>
   <i type="logical" name="ADDGRID"> T  </i>
  </separator>
  <separator name="ionic" >
   <i type="int" name="NSW">     1</i>
   <i type="int" name="IBRION">    -1</i>
   <i type="int" name="MDALGO">     0</i>
   <i type="int" name="ISIF">     2</i>
   <i name="PSTRESS">      0.00000000</i>
   <i name="EDIFFG">     -0.01000000</i>
   <i type="int" name="NFREE">     0</i>
   <i name="POTIM">      1.00000000</i>
   <i name="SMASS">     -3.00000000</i>
   <i name="SCALEE">      1.00000000</i>
  </separator>
  <separator name="ionic md" >
   <i name="TEBEG">      0.00010000</i>
   <i name="TEEND">      0.00010000</i>
   <i type="int" name="NBLOCK">     1</i>
   <i type="int" name="KBLOCK">     1</i>
   <i type="int" name="NPACO">   256</i>
   <i name="APACO">     16.00000000</i>
  </separator>
  <separator name="symmetry" >
   <i type="int" name="ISYM">     2</i>
   <i name="SYMPREC">      0.00001000</i>
  </separator>
  <separator name="dos" >
   <i type="int" name="LORBIT">     0</i>
   <v name="RWIGS">     -1.00000000     -1.00000000     -1.00000000</v>
   <i type="int" name="NEDOS">   301</i>
   <i name="EMIN">     10.00000000</i>
   <i name="EMAX">    -10.00000000</i>
   <i name="EFERMI">      0.00000000</i>
  </separator>
  <separator name="writing" >
   <i type="int" name="NWRITE">     2</i>
   <i type="logical" name="LWAVE"> F  </i>
   <i type="logical" name="LDOWNSAMPLE"> F  </i>
   <i type="logical" name="LCHARG"> F  </i>
   <i type="logical" name="LPARD"> F  </i>
   <i type="logical" name="LVTOT"> F  </i>
   <i type="logical" name="LVHAR"> F  </i>
   <i type="logical" name="LELF"> F  </i>
   <i type="logical" name="LOPTICS"> F  </i>
   <v name="STM">      0.00000000      0.00000000      0.00000000      0.00000000      0.00000000      0.00000000      0.00000000</v>
  </separator>
  <separator name="performance" >
   <i type="int" name="NPAR">     4</i>
   <i type="int" name="NSIM">     4</i>
   <i type="int" name="NBLK">    -1</i>
   <i type="logical" name="LPLANE"> T  </i>
   <i type="logical" name="LSCALAPACK"> F  </i>
   <i type="logical" name="LSCAAWARE"> F  </i>
   <i type="logical" name="LSCALU"> F  </i>
   <i type="logical" name="LASYNC"> F  </i>
   <i type="logical" name="LORBITALREAL"> F  </i>
  </separator>
  <separator name="miscellaneous" >
   <i type="int" name="IDIOT">     3</i>
   <i type="int" name="ISPECIAL">     0</i>
   <i type="logical" name="LMUSIC"> F  </i>
   <v name="POMASS">     44.95600000     18.99800000     12.01100000</v>
   <v name="DARWINR">      0.00000000      0.00000000      0.00000000</v>
   <v name="DARWINV">      1.00000000      1.00000000      1.00000000</v>
   <i type="logical" name="LCORR"> T  </i>
  </separator>
  <i type="logical" name="GGA_COMPAT"> T  </i>
  <i type="logical" name="LBERRY"> F  </i>
  <i type="int" name="ICORELEVEL">     0</i>
  <i type="logical" name="LDAU"> F  </i>
  <i type="int" name="I_CONSTRAINED_M">     0</i>
  <separator name="electronic exchange-correlation" >
   <i type="string" name="GGA">--</i>
   <i type="int" name="VOSKOWN">     0</i>
   <i type="logical" name="LHFCALC"> F  </i>
   <i type="string" name="PRECFOCK"></i>
   <i type="logical" name="LSYMGRAD"> F  </i>
   <i type="logical" name="LHFONE"> F  </i>
   <i type="logical" name="LRHFCALC"> F  </i>
   <i type="logical" name="LTHOMAS"> F  </i>
   <i type="logical" name="LMODELHF"> F  </i>
   <i name="ENCUT4O">     -1.00000000</i>
   <i type="int" name="EXXOEP">     0</i>
   <i type="int" name="FOURORBIT">     0</i>
   <i name="AEXX">      0.00000000</i>
   <i name="HFALPHA">      0.00000000</i>
   <i name="MCALPHA">      0.00000000</i>
   <i name="ALDAX">      1.00000000</i>
   <i name="AGGAX">      1.00000000</i>
   <i name="ALDAC">      1.00000000</i>
   <i name="AGGAC">      1.00000000</i>
   <i type="int" name="NKREDX">     1</i>
   <i type="int" name="NKREDY">     1</i>
   <i type="int" name="NKREDZ">     1</i>
   <i type="logical" name="SHIFTRED"> F  </i>
   <i type="logical" name="ODDONLY"> F  </i>
   <i type="logical" name="EVENONLY"> F  </i>
   <i type="int" name="LMAXFOCK">     0</i>
   <i type="int" name="NMAXFOCKAE">     0</i>
   <i type="logical" name="LFOCKAEDFT"> F  </i>
   <i name="HFSCREEN">      0.00000000</i>
   <i name="HFSCREENC">      0.00000000</i>
   <i type="int" name="NBANDSGWLOW">     0</i>
  </separator>
  <separator name="vdW DFT" >
   <i type="logical" name="LUSE_VDW"> F  </i>
   <i name="Zab_VDW">     -0.84910000</i>
   <i name="PARAM1">      0.12340000</i>
   <i name="PARAM2">      1.00000000</i>
   <i name="PARAM3">      0.00000000</i>
  </separator>
  <separator name="model GW" >
   <i type="int" name="MODEL_GW">     0</i>
   <i name="MODEL_EPS0">     30.03447877</i>
   <i name="MODEL_ALPHA">      1.00000000</i>
  </separator>
  <separator name="linear response parameters" >
   <i type="logical" name="LEPSILON"> F  </i>
   <i type="logical" name="LRPA"> F  </i>
   <i type="logical" name="LNABLA"> F  </i>
   <i type="logical" name="LVEL"> F  </i>
   <i type="int" name="KINTER">     0</i>
   <i name="CSHIFT">      0.10000000</i>
   <i name="OMEGAMAX">     -1.00000000</i>
   <i name="DEG_THRESHOLD">      0.00200000</i>
   <i name="RTIME">     -0.10000000</i>
   <i name="WPLASMAI">      0.00000000</i>
   <v name="DFIELD">      0.00000000      0.00000000      0.00000000</v>
   <v name="WPLASMA">      0.00000000      0.00000000      0.00000000      0.00000000      0.00000000      0.00000000      0.00000000      0.00000000      0.00000000</v>
  </separator>
  <separator name="orbital magnetization" >
   <i type="logical" name="NUCIND"> F  </i>
   <v name="MAGPOS">      0.00000000      0.00000000      0.00000000</v>
   <i type="logical" name="LNICSALL"> T  </i>
   <i type="logical" name="ORBITALMAG"> F  </i>
   <i type="logical" name="LMAGBLOCH"> F  </i>
   <i type="logical" name="LCHIMAG"> F  </i>
   <i type="logical" name="LGAUGE"> T  </i>
   <i type="int" name="MAGATOM">     0</i>
   <v name="MAGDIPOL">      0.00000000      0.00000000      0.00000000</v>
   <v name="AVECCONST">      0.00000000      0.00000000      0.00000000</v>
  </separator>
  <separator name="response functions" >
   <i type="logical" name="LADDER"> F  </i>
   <i type="logical" name="LRPAFORCE"> F  </i>
   <i type="logical" name="LFXC"> F  </i>
   <i type="logical" name="LHARTREE"> T  </i>
   <i type="int" name="IBSE">     0</i>
   <v type="int" name="KPOINT">    -1     0     0     0</v>
   <i type="logical" name="LTCTE"> F  </i>
   <i type="logical" name="LTETE"> F  </i>
   <i type="logical" name="LTRIPLET"> F  </i>
   <i type="logical" name="LFXCEPS"> F  </i>
   <i type="logical" name="LFXHEG"> F  </i>
   <i type="int" name="NATURALO">     2</i>
   <i type="logical" name="L2ORDER"> F  </i>
   <i type="logical" name="LMP2LT"> F  </i>
   <i type="logical" name="LUSEW"> F  </i>
   <i name="ENCUTGW">     -2.00000000</i>
   <i name="ENCUTGWSOFT">     -2.00000000</i>
   <i name="ENCUTLF">     -1.00000000</i>
   <i type="int" name="LMAXMP2">    -1</i>
   <i name="SCISSOR">      0.00000000</i>
   <i type="int" name="NOMEGA">     0</i>
   <i type="int" name="NOMEGAR">     0</i>
   <i type="int" name="NBANDSGW">    -1</i>
   <i type="int" name="NBANDSO">    -1</i>
   <i type="int" name="NBANDSV">    -1</i>
   <i type="int" name="NELM">     1</i>
   <i type="int" name="NELMHF">     1</i>
   <i type="int" name="DIM">     3</i>
   <i type="int" name="ANTIRES">     0</i>
   <i name="OMEGAMAX">    -30.00000000</i>
   <i name="OMEGAMIN">    -30.00000000</i>
   <i name="OMEGATL">   -200.00000000</i>
   <i type="int" name="OMEGAGRID">   140</i>
   <i name="CSHIFT">     -0.10000000</i>
   <i type="logical" name="SELFENERGY"> F  </i>
   <i type="logical" name="LSPECTRAL"> F  </i>
   <i type="logical" name="LSPECTRALGW"> F  </i>
   <i type="logical" name="LSINGLES"> F  </i>
   <i type="logical" name="LFERMIGW"> F  </i>
   <i type="logical" name="ODDONLYGW"> F  </i>
   <i type="logical" name="EVENONLYGW"> F  </i>
   <i type="int" name="NKREDLFX">     1</i>
   <i type="int" name="NKREDLFY">     1</i>
   <i type="int" name="NKREDLFZ">     1</i>
   <i type="int" name="MAXMEM">  2800</i>
   <i type="int" name="TELESCOPE">     0</i>
   <i type="int" name="TAUPAR">     1</i>
   <i type="int" name="OMEGAPAR">    -1</i>
   <i name="LAMBDA">      1.00000000</i>
  </separator>
  <separator name="External order field" >
   <i name="OFIELD_KAPPA">      0.00000000</i>
   <v name="OFIELD_K">      0.00000000      0.00000000      0.00000000</v>
   <i name="OFIELD_Q6_NEAR">      0.00000000</i>
   <i name="OFIELD_Q6_FAR">      0.00000000</i>
   <i name="OFIELD_A">      0.00000000</i>
  </separator>
 </parameters>
 <atominfo>
  <atoms>      80 </atoms>
  <types>       3 </types>
  <array name="atoms" >
   <dimension dim="1">ion</dimension>
   <field type="string">element</field>
   <field type="int">atomtype</field>
   <set>
    <rc><c>Sc</c><c>   1</c></rc>
    <rc><c>Sc</c><c>   1</c></rc>
    <rc><c>Sc</c><c>   1</c></rc>
    <rc><c>Sc</c><c>   1</c></rc>
    <rc><c>Sc</c><c>   1</c></rc>
    <rc><c>Sc</c><c>   1</c></rc>
    <rc><c>Sc</c><c>   1</c></rc>
    <rc><c>Sc</c><c>   1</c></rc>
    <rc><c>Sc</c><c>   1</c></rc>
    <rc><c>Sc</c><c>   1</c></rc>
    <rc><c>Sc</c><c>   1</c></rc>
    <rc><c>Sc</c><c>   1</c></rc>
    <rc><c>Sc</c><c>   1</c></rc>
    <rc><c>Sc</c><c>   1</c></rc>
    <rc><c>Sc</c><c>   1</c></rc>
    <rc><c>Sc</c><c>   1</c></rc>
    <rc><c>Sc</c><c>   1</c></rc>
    <rc><c>Sc</c><c>   1</c></rc>
    <rc><c>Sc</c><c>   1</c></rc>
    <rc><c>Sc</c><c>   1</c></rc>
    <rc><c>Sc</c><c>   1</c></rc>
    <rc><c>Sc</c><c>   1</c></rc>
    <rc><c>Sc</c><c>   1</c></rc>
    <rc><c>Sc</c><c>   1</c></rc>
    <rc><c>Sc</c><c>   1</c></rc>
    <rc><c>Sc</c><c>   1</c></rc>
    <rc><c>Sc</c><c>   1</c></rc>
    <rc><c>Sc</c><c>   1</c></rc>
    <rc><c>Sc</c><c>   1</c></rc>
    <rc><c>Sc</c><c>   1</c></rc>
    <rc><c>Sc</c><c>   1</c></rc>
    <rc><c>Sc</c><c>   1</c></rc>
    <rc><c>F </c><c>   2</c></rc>
    <rc><c>F </c><c>   2</c></rc>
    <rc><c>F </c><c>   2</c></rc>
    <rc><c>F </c><c>   2</c></rc>
    <rc><c>F </c><c>   2</c></rc>
    <rc><c>F </c><c>   2</c></rc>
    <rc><c>F </c><c>   2</c></rc>
    <rc><c>F </c><c>   2</c></rc>
    <rc><c>F </c><c>   2</c></rc>
    <rc><c>F </c><c>   2</c></rc>
    <rc><c>F </c><c>   2</c></rc>
    <rc><c>F </c><c>   2</c></rc>
    <rc><c>F </c><c>   2</c></rc>
    <rc><c>F </c><c>   2</c></rc>
    <rc><c>F </c><c>   2</c></rc>
    <rc><c>F </c><c>   2</c></rc>
    <rc><c>F </c><c>   2</c></rc>
    <rc><c>F </c><c>   2</c></rc>
    <rc><c>F </c><c>   2</c></rc>
    <rc><c>F </c><c>   2</c></rc>
    <rc><c>F </c><c>   2</c></rc>
    <rc><c>F </c><c>   2</c></rc>
    <rc><c>F </c><c>   2</c></rc>
    <rc><c>F </c><c>   2</c></rc>
    <rc><c>F </c><c>   2</c></rc>
    <rc><c>F </c><c>   2</c></rc>
    <rc><c>F </c><c>   2</c></rc>
    <rc><c>F </c><c>   2</c></rc>
    <rc><c>F </c><c>   2</c></rc>
    <rc><c>F </c><c>   2</c></rc>
    <rc><c>F </c><c>   2</c></rc>
    <rc><c>F </c><c>   2</c></rc>
    <rc><c>C </c><c>   3</c></rc>
    <rc><c>C </c><c>   3</c></rc>
    <rc><c>C </c><c>   3</c></rc>
    <rc><c>C </c><c>   3</c></rc>
    <rc><c>C </c><c>   3</c></rc>
    <rc><c>C </c><c>   3</c></rc>
    <rc><c>C </c><c>   3</c></rc>
    <rc><c>C </c><c>   3</c></rc>
    <rc><c>C </c><c>   3</c></rc>
    <rc><c>C </c><c>   3</c></rc>
    <rc><c>C </c><c>   3</c></rc>
    <rc><c>C </c><c>   3</c></rc>
    <rc><c>C </c><c>   3</c></rc>
    <rc><c>C </c><c>   3</c></rc>
    <rc><c>C </c><c>   3</c></rc>
    <rc><c>C </c><c>   3</c></rc>
   </set>
  </array>
  <array name="atomtypes" >
   <dimension dim="1">type</dimension>
   <field type="int">atomspertype</field>
   <field type="string">element</field>
   <field>mass</field>
   <field>valence</field>
   <field type="string">pseudopotential</field>
   <set>
    <rc><c>  32</c><c>Sc</c><c>     44.95600000</c><c>     11.00000000</c><c>  PAW_PBE Sc_sv 07Sep2000               </c></rc>
    <rc><c>  32</c><c>F </c><c>     18.99800000</c><c>      7.00000000</c><c>  PAW_PBE F 08Apr2002                   </c></rc>
    <rc><c>  16</c><c>C </c><c>     12.01100000</c><c>      4.00000000</c><c>  PAW_PBE C 08Apr2002                   </c></rc>
   </set>
  </array>
 </atominfo>
 <structure name="initialpos" >
  <crystal>
   <varray name="basis" >
    <v>      13.12862340       0.00000000       0.00000000 </v>
    <v>      -6.56431170      11.36972138       0.00000000 </v>
    <v>       0.00000000       0.00000000      26.82809424 </v>
   </varray>
   <i name="volume">   4004.59716953 </i>
   <varray name="rec_basis" >
    <v>       0.07616945       0.04397645       0.00000000 </v>
    <v>       0.00000000       0.08795290       0.00000000 </v>
    <v>       0.00000000       0.00000000       0.03727436 </v>
   </varray>
  </crystal>
  <varray name="positions" >
   <v>       0.09142239       0.16485452       0.45091125 </v>
   <v>       0.09120015       0.42955713       0.45966766 </v>
   <v>       0.07766481       0.66930330       0.45221623 </v>
   <v>       0.07439371       0.91692641       0.44919451 </v>
   <v>       0.33117961       0.15799868       0.44527413 </v>
   <v>       0.32370627       0.42522193       0.45665077 </v>
   <v>       0.33223141       0.65705502       0.45531414 </v>
   <v>       0.33216018       0.91213289       0.45127236 </v>
   <v>       0.59626832       0.16504900       0.45550189 </v>
   <v>       0.57059851       0.40739945       0.44863005 </v>
   <v>       0.58262643       0.65375140       0.45477379 </v>
   <v>       0.57515307       0.91211931       0.44879935 </v>
   <v>       0.83459806       0.16158400       0.45250169 </v>
   <v>       0.84318015       0.41271104       0.45159291 </v>
   <v>       0.82419568       0.65836141       0.45441982 </v>
   <v>       0.83954485       0.91617068       0.45043694 </v>
   <v>       0.15919527       0.07257210       0.54163131 </v>
   <v>       0.15602496       0.30962114       0.54444652 </v>
   <v>       0.16847234       0.59383939       0.54990257 </v>
   <v>       0.17482989       0.85066348       0.54469461 </v>
   <v>       0.40842621       0.09147050       0.55395907 </v>
   <v>       0.41578004       0.33379920       0.54754225 </v>
   <v>       0.42209004       0.57698220       0.55083848 </v>
   <v>       0.40898827       0.82735961       0.54993789 </v>
   <v>       0.66164820       0.07634687       0.54795213 </v>
   <v>       0.67018516       0.33404833       0.54602836 </v>
   <v>       0.66732109       0.58633438       0.54594242 </v>
   <v>       0.66018272       0.83537717       0.54843734 </v>
   <v>       0.91591796       0.08885337       0.54770829 </v>
   <v>       0.92906679       0.32777675       0.54852326 </v>
   <v>       0.91918483       0.58885713       0.54662422 </v>
   <v>       0.91618818       0.84368724       0.54619598 </v>
   <v>       0.07934970       0.15375330       0.58558767 </v>
   <v>       0.07796289       0.42072618       0.59008895 </v>
   <v>       0.09186903       0.66437048       0.58539435 </v>
   <v>       0.07601973       0.91539563       0.59167084 </v>
   <v>       0.30703591       0.15438088       0.59027093 </v>
   <v>       0.31922805       0.38688146       0.59492323 </v>
   <v>       0.32915002       0.65719861       0.59050530 </v>
   <v>       0.33822232       0.90378270       0.59604322 </v>
   <v>       0.57778421       0.17847824       0.59566508 </v>
   <v>       0.55999910       0.41279667       0.59041641 </v>
   <v>       0.59064407       0.65391438       0.59174971 </v>
   <v>       0.60380646       0.91895222       0.60077050 </v>
   <v>       0.83832429       0.16796898       0.59338443 </v>
   <v>       0.83478056       0.42346131       0.58750025 </v>
   <v>       0.84884005       0.67543674       0.59111552 </v>
   <v>       0.83031948       0.91694617       0.58733980 </v>
   <v>       0.16324366       0.08158311       0.40632285 </v>
   <v>       0.15489785       0.33282985       0.41167573 </v>
   <v>       0.17536314       0.57980979       0.41475544 </v>
   <v>       0.16085928       0.83751403       0.40777614 </v>
   <v>       0.39961477       0.07487569       0.40529968 </v>
   <v>       0.42563933       0.36732793       0.40620578 </v>
   <v>       0.43032252       0.60715103       0.41160646 </v>
   <v>       0.43086416       0.87265675       0.40298341 </v>
   <v>       0.67408410       0.09211106       0.41430557 </v>
   <v>       0.67115691       0.32930673       0.40811626 </v>
   <v>       0.68187293       0.60062278       0.40899227 </v>
   <v>       0.66315968       0.84781353       0.40930566 </v>
   <v>       0.93100595       0.09124536       0.41209493 </v>
   <v>       0.93451703       0.33474291       0.40924028 </v>
   <v>       0.91876601       0.58283775       0.40999587 </v>
   <v>       0.92842051       0.84684212       0.39990479 </v>
   <v>       0.99287031       0.98870566       0.49557523 </v>
   <v>       0.01123461       0.25918393       0.50334211 </v>
   <v>       0.00689325       0.52015541       0.50351505 </v>
   <v>       0.99560510       0.75241561       0.49701535 </v>
   <v>       0.24828054       0.00207681       0.50298400 </v>
   <v>       0.24522735       0.24362751       0.49450092 </v>
   <v>       0.25589049       0.50275671       0.50120475 </v>
   <v>       0.24624055       0.74689935       0.50031274 </v>
   <v>       0.49662384       0.00222560       0.49961668 </v>
   <v>       0.50890290       0.25937301       0.49713814 </v>
   <v>       0.50303666       0.51208243       0.50094399 </v>
   <v>       0.49786837       0.74598479       0.50198415 </v>
   <v>       0.74715371       0.99210208       0.50205291 </v>
   <v>       0.75096033       0.24742452       0.50161825 </v>
   <v>       0.75660673       0.50189357       0.50002355 </v>
   <v>       0.76078332       0.74868391       0.50585148 </v>
  </varray>
  <varray name="velocities" >
   <v>       0.00000000       0.00000000       0.00000000 </v>
   <v>       0.00000000       0.00000000       0.00000000 </v>
   <v>       0.00000000       0.00000000       0.00000000 </v>
   <v>       0.00000000       0.00000000       0.00000000 </v>
   <v>       0.00000000       0.00000000       0.00000000 </v>
   <v>       0.00000000       0.00000000       0.00000000 </v>
   <v>       0.00000000       0.00000000       0.00000000 </v>
   <v>       0.00000000       0.00000000       0.00000000 </v>
   <v>       0.00000000       0.00000000       0.00000000 </v>
   <v>       0.00000000       0.00000000       0.00000000 </v>
   <v>       0.00000000       0.00000000       0.00000000 </v>
   <v>       0.00000000       0.00000000       0.00000000 </v>
   <v>       0.00000000       0.00000000       0.00000000 </v>
   <v>       0.00000000       0.00000000       0.00000000 </v>
   <v>       0.00000000       0.00000000       0.00000000 </v>
   <v>       0.00000000       0.00000000       0.00000000 </v>
   <v>       0.00000000       0.00000000       0.00000000 </v>
   <v>       0.00000000       0.00000000       0.00000000 </v>
   <v>       0.00000000       0.00000000       0.00000000 </v>
   <v>       0.00000000       0.00000000       0.00000000 </v>
   <v>       0.00000000       0.00000000       0.00000000 </v>
   <v>       0.00000000       0.00000000       0.00000000 </v>
   <v>       0.00000000       0.00000000       0.00000000 </v>
   <v>       0.00000000       0.00000000       0.00000000 </v>
   <v>       0.00000000       0.00000000       0.00000000 </v>
   <v>       0.00000000       0.00000000       0.00000000 </v>
   <v>       0.00000000       0.00000000       0.00000000 </v>
   <v>       0.00000000       0.00000000       0.00000000 </v>
   <v>       0.00000000       0.00000000       0.00000000 </v>
   <v>       0.00000000       0.00000000       0.00000000 </v>
   <v>       0.00000000       0.00000000       0.00000000 </v>
   <v>       0.00000000       0.00000000       0.00000000 </v>
   <v>       0.00000000       0.00000000       0.00000000 </v>
   <v>       0.00000000       0.00000000       0.00000000 </v>
   <v>       0.00000000       0.00000000       0.00000000 </v>
   <v>       0.00000000       0.00000000       0.00000000 </v>
   <v>       0.00000000       0.00000000       0.00000000 </v>
   <v>       0.00000000       0.00000000       0.00000000 </v>
   <v>       0.00000000       0.00000000       0.00000000 </v>
   <v>       0.00000000       0.00000000       0.00000000 </v>
   <v>       0.00000000       0.00000000       0.00000000 </v>
   <v>       0.00000000       0.00000000       0.00000000 </v>
   <v>       0.00000000       0.00000000       0.00000000 </v>
   <v>       0.00000000       0.00000000       0.00000000 </v>
   <v>       0.00000000       0.00000000       0.00000000 </v>
   <v>       0.00000000       0.00000000       0.00000000 </v>
   <v>       0.00000000       0.00000000       0.00000000 </v>
   <v>       0.00000000       0.00000000       0.00000000 </v>
   <v>       0.00000000       0.00000000       0.00000000 </v>
   <v>       0.00000000       0.00000000       0.00000000 </v>
   <v>       0.00000000       0.00000000       0.00000000 </v>
   <v>       0.00000000       0.00000000       0.00000000 </v>
   <v>       0.00000000       0.00000000       0.00000000 </v>
   <v>       0.00000000       0.00000000       0.00000000 </v>
   <v>       0.00000000       0.00000000       0.00000000 </v>
   <v>       0.00000000       0.00000000       0.00000000 </v>
   <v>       0.00000000       0.00000000       0.00000000 </v>
   <v>       0.00000000       0.00000000       0.00000000 </v>
   <v>       0.00000000       0.00000000       0.00000000 </v>
   <v>       0.00000000       0.00000000       0.00000000 </v>
   <v>       0.00000000       0.00000000       0.00000000 </v>
   <v>       0.00000000       0.00000000       0.00000000 </v>
   <v>       0.00000000       0.00000000       0.00000000 </v>
   <v>       0.00000000       0.00000000       0.00000000 </v>
   <v>       0.00000000       0.00000000       0.00000000 </v>
   <v>       0.00000000       0.00000000       0.00000000 </v>
   <v>       0.00000000       0.00000000       0.00000000 </v>
   <v>       0.00000000       0.00000000       0.00000000 </v>
   <v>       0.00000000       0.00000000       0.00000000 </v>
   <v>       0.00000000       0.00000000       0.00000000 </v>
   <v>       0.00000000       0.00000000       0.00000000 </v>
   <v>       0.00000000       0.00000000       0.00000000 </v>
   <v>       0.00000000       0.00000000       0.00000000 </v>
   <v>       0.00000000       0.00000000       0.00000000 </v>
   <v>       0.00000000       0.00000000       0.00000000 </v>
   <v>       0.00000000       0.00000000       0.00000000 </v>
   <v>       0.00000000       0.00000000       0.00000000 </v>
   <v>       0.00000000       0.00000000       0.00000000 </v>
   <v>       0.00000000       0.00000000       0.00000000 </v>
   <v>       0.00000000       0.00000000       0.00000000 </v>
  </varray>
 </structure>
 <calculation>
  <scstep>
   <time name="dav">   46.67   46.67</time>
   <time name="total">   47.51   47.52</time>
   <energy>
    <i name="alphaZ">    871.83850952 </i>
    <i name="ewald"> 285952.65974802 </i>
    <i name="hartreedc">-340291.86256386 </i>
    <i name="XCdc">   3043.51379069 </i>
    <i name="pawpsdc">  50525.51240023 </i>
    <i name="pawaedc"> -50422.77561733 </i>
    <i name="eentropy">     -0.07631542 </i>
    <i name="bandstr">   -236.62910983 </i>
    <i name="atom">  64207.43592568 </i>
    <i name="e_fr_energy">  13649.61676771 </i>
    <i name="e_wo_entrp">  13649.69308312 </i>
    <i name="e_0_energy">  13649.65492542 </i>
   </energy>
  </scstep>
  <scstep>
   <time name="dav">   49.38   49.39</time>
   <time name="total">   49.38   49.39</time>
   <energy>
    <i name="e_fr_energy">   2492.22664950 </i>
    <i name="e_wo_entrp">   2492.27011017 </i>
    <i name="e_0_energy">   2492.24837983 </i>
   </energy>
  </scstep>
  <scstep>
   <time name="dav">   68.20   68.20</time>
   <time name="total">   68.20   68.20</time>
   <energy>
    <i name="e_fr_energy">   -375.81499875 </i>
    <i name="e_wo_entrp">   -375.81499875 </i>
    <i name="e_0_energy">   -375.81499875 </i>
   </energy>
  </scstep>
  <scstep>
   <time name="dav">   61.90   61.91</time>
   <time name="total">   61.90   61.91</time>
   <energy>
    <i name="e_fr_energy">   -735.90701545 </i>
    <i name="e_wo_entrp">   -735.90701545 </i>
    <i name="e_0_energy">   -735.90701545 </i>
   </energy>
  </scstep>
  <scstep>
   <time name="dav">   62.06   62.07</time>
   <time name="total">   65.74   65.75</time>
   <energy>
    <i name="e_fr_energy">   -750.63778414 </i>
    <i name="e_wo_entrp">   -750.63778414 </i>
    <i name="e_0_energy">   -750.63778414 </i>
   </energy>
  </scstep>
  <scstep>
   <time name="dav">   59.49   59.49</time>
   <time name="total">   63.92   63.93</time>
   <energy>
    <i name="e_fr_energy">   -594.81934968 </i>
    <i name="e_wo_entrp">   -594.81934968 </i>
    <i name="e_0_energy">   -594.81934968 </i>
   </energy>
  </scstep>
  <scstep>
   <time name="dav">   61.08   61.08</time>
   <time name="total">   65.51   65.52</time>
   <energy>
    <i name="e_fr_energy">   -594.88447125 </i>
    <i name="e_wo_entrp">   -594.88447125 </i>
    <i name="e_0_energy">   -594.88447125 </i>
   </energy>
  </scstep>
  <scstep>
   <time name="dav">   58.01   58.02</time>
   <time name="total">   62.46   62.47</time>
   <energy>
    <i name="e_fr_energy">   -593.41185591 </i>
    <i name="e_wo_entrp">   -593.41185591 </i>
    <i name="e_0_energy">   -593.41185591 </i>
   </energy>
  </scstep>
  <scstep>
   <time name="dav">   57.86   57.87</time>
   <time name="total">   62.32   62.34</time>
   <energy>
    <i name="e_fr_energy">   -592.92549546 </i>
    <i name="e_wo_entrp">   -592.92549546 </i>
    <i name="e_0_energy">   -592.92549546 </i>
   </energy>
  </scstep>
  <scstep>
   <time name="dav">   61.39   61.41</time>
   <time name="total">   65.82   65.85</time>
   <energy>
    <i name="e_fr_energy">   -592.88165193 </i>
    <i name="e_wo_entrp">   -592.88165193 </i>
    <i name="e_0_energy">   -592.88165193 </i>
   </energy>
  </scstep>
  <scstep>
   <time name="dav">   57.96   57.98</time>
   <time name="total">   62.41   62.43</time>
   <energy>
    <i name="e_fr_energy">   -592.78330566 </i>
    <i name="e_wo_entrp">   -592.78330566 </i>
    <i name="e_0_energy">   -592.78330566 </i>
   </energy>
  </scstep>
  <scstep>
   <time name="dav">   59.56   59.57</time>
   <time name="total">   64.03   64.05</time>
   <energy>
    <i name="e_fr_energy">   -592.74555061 </i>
    <i name="e_wo_entrp">   -592.74555061 </i>
    <i name="e_0_energy">   -592.74555061 </i>
   </energy>
  </scstep>
  <scstep>
   <time name="dav">   59.43   59.45</time>
   <time name="total">   63.86   63.89</time>
   <energy>
    <i name="e_fr_energy">   -592.73232154 </i>
    <i name="e_wo_entrp">   -592.73232154 </i>
    <i name="e_0_energy">   -592.73232154 </i>
   </energy>
  </scstep>
  <scstep>
   <time name="dav">   58.53   58.54</time>
   <time name="total">   63.01   63.02</time>
   <energy>
    <i name="e_fr_energy">   -592.72919428 </i>
    <i name="e_wo_entrp">   -592.72919428 </i>
    <i name="e_0_energy">   -592.72919428 </i>
   </energy>
  </scstep>
  <scstep>
   <time name="dav">   58.76   58.77</time>
   <time name="total">   63.17   63.19</time>
   <energy>
    <i name="e_fr_energy">   -592.73391091 </i>
    <i name="e_wo_entrp">   -592.73391091 </i>
    <i name="e_0_energy">   -592.73391091 </i>
   </energy>
  </scstep>
  <scstep>
   <time name="dav">   56.90   56.91</time>
   <time name="total">   61.46   61.48</time>
   <energy>
    <i name="e_fr_energy">   -592.73793490 </i>
    <i name="e_wo_entrp">   -592.73793490 </i>
    <i name="e_0_energy">   -592.73793490 </i>
   </energy>
  </scstep>
  <scstep>
   <time name="dav">   58.92   58.92</time>
   <time name="total">   63.35   63.36</time>
   <energy>
    <i name="e_fr_energy">   -592.74403451 </i>
    <i name="e_wo_entrp">   -592.74403451 </i>
    <i name="e_0_energy">   -592.74403451 </i>
   </energy>
  </scstep>
  <scstep>
   <time name="dav">   56.71   56.71</time>
   <time name="total">   61.19   61.21</time>
   <energy>
    <i name="e_fr_energy">   -592.74608163 </i>
    <i name="e_wo_entrp">   -592.74608163 </i>
    <i name="e_0_energy">   -592.74608163 </i>
   </energy>
  </scstep>
  <scstep>
   <time name="dav">   57.49   57.49</time>
   <time name="total">   61.96   61.98</time>
   <energy>
    <i name="e_fr_energy">   -592.74833681 </i>
    <i name="e_wo_entrp">   -592.74833681 </i>
    <i name="e_0_energy">   -592.74833681 </i>
   </energy>
  </scstep>
  <scstep>
   <time name="dav">   55.64   55.65</time>
   <time name="total">   60.07   60.08</time>
   <energy>
    <i name="e_fr_energy">   -592.75028373 </i>
    <i name="e_wo_entrp">   -592.75028373 </i>
    <i name="e_0_energy">   -592.75028373 </i>
   </energy>
  </scstep>
  <scstep>
   <time name="dav">   52.54   52.54</time>
   <time name="total">   57.05   57.06</time>
   <energy>
    <i name="e_fr_energy">   -592.75300407 </i>
    <i name="e_wo_entrp">   -592.75300407 </i>
    <i name="e_0_energy">   -592.75300407 </i>
   </energy>
  </scstep>
  <scstep>
   <time name="dav">   54.72   54.72</time>
   <time name="total">   59.15   59.16</time>
   <energy>
    <i name="e_fr_energy">   -592.75414920 </i>
    <i name="e_wo_entrp">   -592.75414920 </i>
    <i name="e_0_energy">   -592.75414920 </i>
   </energy>
  </scstep>
  <scstep>
   <time name="dav">   49.92   49.93</time>
   <time name="total">   54.44   54.45</time>
   <energy>
    <i name="e_fr_energy">   -592.75485078 </i>
    <i name="e_wo_entrp">   -592.75485078 </i>
    <i name="e_0_energy">   -592.75485078 </i>
   </energy>
  </scstep>
  <scstep>
   <time name="dav">   51.04   51.04</time>
   <time name="total">   55.49   55.49</time>
   <energy>
    <i name="e_fr_energy">   -592.75516170 </i>
    <i name="e_wo_entrp">   -592.75516170 </i>
    <i name="e_0_energy">   -592.75516170 </i>
   </energy>
  </scstep>
  <scstep>
   <time name="dav">   46.46   46.46</time>
   <time name="total">   50.91   50.92</time>
   <energy>
    <i name="e_fr_energy">   -592.75542066 </i>
    <i name="e_wo_entrp">   -592.75542066 </i>
    <i name="e_0_energy">   -592.75542066 </i>
   </energy>
  </scstep>
  <scstep>
   <time name="dav">   47.40   47.40</time>
   <time name="total">   51.87   51.88</time>
   <energy>
    <i name="e_fr_energy">   -592.75556347 </i>
    <i name="e_wo_entrp">   -592.75556347 </i>
    <i name="e_0_energy">   -592.75556347 </i>
   </energy>
  </scstep>
  <scstep>
   <time name="dav">   34.37   34.37</time>
   <time name="total">   38.85   38.86</time>
   <energy>
    <i name="e_fr_energy">   -592.75560678 </i>
    <i name="e_wo_entrp">   -592.75560678 </i>
    <i name="e_0_energy">   -592.75560678 </i>
   </energy>
  </scstep>
  <scstep>
   <time name="dav">   34.90   34.90</time>
   <time name="total">   39.42   39.43</time>
   <energy>
    <i name="e_fr_energy">   -592.75563570 </i>
    <i name="e_wo_entrp">   -592.75563570 </i>
    <i name="e_0_energy">   -592.75563570 </i>
   </energy>
  </scstep>
  <scstep>
   <time name="dav">   33.55   33.56</time>
   <time name="total">   38.03   38.05</time>
   <energy>
    <i name="e_fr_energy">   -592.75564642 </i>
    <i name="e_wo_entrp">   -592.75564642 </i>
    <i name="e_0_energy">   -592.75564642 </i>
   </energy>
  </scstep>
  <scstep>
   <time name="dav">   33.31   33.31</time>
   <time name="total">   37.73   37.74</time>
   <energy>
    <i name="e_fr_energy">   -592.75565437 </i>
    <i name="e_wo_entrp">   -592.75565437 </i>
    <i name="e_0_energy">   -592.75565437 </i>
   </energy>
  </scstep>
  <scstep>
   <time name="dav">   32.94   32.94</time>
   <time name="total">   37.36   37.37</time>
   <energy>
    <i name="e_fr_energy">   -592.75565789 </i>
    <i name="e_wo_entrp">   -592.75565789 </i>
    <i name="e_0_energy">   -592.75565789 </i>
   </energy>
  </scstep>
  <scstep>
   <time name="dav">   32.58   32.58</time>
   <time name="total">   37.00   37.01</time>
   <energy>
    <i name="e_fr_energy">   -592.75566065 </i>
    <i name="e_wo_entrp">   -592.75566065 </i>
    <i name="e_0_energy">   -592.75566065 </i>
   </energy>
  </scstep>
  <scstep>
   <time name="dav">   31.80   31.81</time>
   <time name="total">   32.65   32.67</time>
   <energy>
    <i name="alphaZ">    871.83850952 </i>
    <i name="ewald"> 285952.65974802 </i>
    <i name="hartreedc">-341485.71104266 </i>
    <i name="XCdc">   3055.33880025 </i>
    <i name="pawpsdc">  67040.52268345 </i>
    <i name="pawaedc"> -67033.80840084 </i>
    <i name="eentropy">     -0.00000000 </i>
    <i name="bandstr"> -13201.03188472 </i>
    <i name="atom">  64207.43592568 </i>
    <i name="e_fr_energy">   -592.75566130 </i>
    <i name="e_wo_entrp">   -592.75566130 </i>
    <i name="e_0_energy">   -592.75566130 </i>
   </energy>
  </scstep>
  <structure>
   <crystal>
    <varray name="basis" >
     <v>      13.12862340       0.00000000       0.00000000 </v>
     <v>      -6.56431170      11.36972138       0.00000000 </v>
     <v>       0.00000000       0.00000000      26.82809424 </v>
    </varray>
    <i name="volume">   4004.59716953 </i>
    <varray name="rec_basis" >
     <v>       0.07616945       0.04397645       0.00000000 </v>
     <v>       0.00000000       0.08795290       0.00000000 </v>
     <v>       0.00000000       0.00000000       0.03727436 </v>
    </varray>
   </crystal>
   <varray name="positions" >
    <v>       0.09142239       0.16485452       0.45091125 </v>
    <v>       0.09120015       0.42955713       0.45966766 </v>
    <v>       0.07766481       0.66930330       0.45221623 </v>
    <v>       0.07439371       0.91692641       0.44919451 </v>
    <v>       0.33117961       0.15799868       0.44527413 </v>
    <v>       0.32370627       0.42522193       0.45665077 </v>
    <v>       0.33223141       0.65705502       0.45531414 </v>
    <v>       0.33216018       0.91213289       0.45127236 </v>
    <v>       0.59626832       0.16504900       0.45550189 </v>
    <v>       0.57059851       0.40739945       0.44863005 </v>
    <v>       0.58262643       0.65375140       0.45477379 </v>
    <v>       0.57515307       0.91211931       0.44879935 </v>
    <v>       0.83459806       0.16158400       0.45250169 </v>
    <v>       0.84318015       0.41271104       0.45159291 </v>
    <v>       0.82419568       0.65836141       0.45441982 </v>
    <v>       0.83954485       0.91617068       0.45043694 </v>
    <v>       0.15919527       0.07257210       0.54163131 </v>
    <v>       0.15602496       0.30962114       0.54444652 </v>
    <v>       0.16847234       0.59383939       0.54990257 </v>
    <v>       0.17482989       0.85066348       0.54469461 </v>
    <v>       0.40842621       0.09147050       0.55395907 </v>
    <v>       0.41578004       0.33379920       0.54754225 </v>
    <v>       0.42209004       0.57698220       0.55083848 </v>
    <v>       0.40898827       0.82735961       0.54993789 </v>
    <v>       0.66164820       0.07634687       0.54795213 </v>
    <v>       0.67018516       0.33404833       0.54602836 </v>
    <v>       0.66732109       0.58633438       0.54594242 </v>
    <v>       0.66018272       0.83537717       0.54843734 </v>
    <v>       0.91591796       0.08885337       0.54770829 </v>
    <v>       0.92906679       0.32777675       0.54852326 </v>
    <v>       0.91918483       0.58885713       0.54662422 </v>
    <v>       0.91618818       0.84368724       0.54619598 </v>
    <v>       0.07934970       0.15375330       0.58558767 </v>
    <v>       0.07796289       0.42072618       0.59008895 </v>
    <v>       0.09186903       0.66437048       0.58539435 </v>
    <v>       0.07601973       0.91539563       0.59167084 </v>
    <v>       0.30703591       0.15438088       0.59027093 </v>
    <v>       0.31922805       0.38688146       0.59492323 </v>
    <v>       0.32915002       0.65719861       0.59050530 </v>
    <v>       0.33822232       0.90378270       0.59604322 </v>
    <v>       0.57778421       0.17847824       0.59566508 </v>
    <v>       0.55999910       0.41279667       0.59041641 </v>
    <v>       0.59064407       0.65391438       0.59174971 </v>
    <v>       0.60380646       0.91895222       0.60077050 </v>
    <v>       0.83832429       0.16796898       0.59338443 </v>
    <v>       0.83478056       0.42346131       0.58750025 </v>
    <v>       0.84884005       0.67543674       0.59111552 </v>
    <v>       0.83031948       0.91694617       0.58733980 </v>
    <v>       0.16324366       0.08158311       0.40632285 </v>
    <v>       0.15489785       0.33282985       0.41167573 </v>
    <v>       0.17536314       0.57980979       0.41475544 </v>
    <v>       0.16085928       0.83751403       0.40777614 </v>
    <v>       0.39961477       0.07487569       0.40529968 </v>
    <v>       0.42563933       0.36732793       0.40620578 </v>
    <v>       0.43032252       0.60715103       0.41160646 </v>
    <v>       0.43086416       0.87265675       0.40298341 </v>
    <v>       0.67408410       0.09211106       0.41430557 </v>
    <v>       0.67115691       0.32930673       0.40811626 </v>
    <v>       0.68187293       0.60062278       0.40899227 </v>
    <v>       0.66315968       0.84781353       0.40930566 </v>
    <v>       0.93100595       0.09124536       0.41209493 </v>
    <v>       0.93451703       0.33474291       0.40924028 </v>
    <v>       0.91876601       0.58283775       0.40999587 </v>
    <v>       0.92842051       0.84684212       0.39990479 </v>
    <v>       0.99287031       0.98870566       0.49557523 </v>
    <v>       0.01123461       0.25918393       0.50334211 </v>
    <v>       0.00689325       0.52015541       0.50351505 </v>
    <v>       0.99560510       0.75241561       0.49701535 </v>
    <v>       0.24828054       0.00207681       0.50298400 </v>
    <v>       0.24522735       0.24362751       0.49450092 </v>
    <v>       0.25589049       0.50275671       0.50120475 </v>
    <v>       0.24624055       0.74689935       0.50031274 </v>
    <v>       0.49662384       0.00222560       0.49961668 </v>
    <v>       0.50890290       0.25937301       0.49713814 </v>
    <v>       0.50303666       0.51208243       0.50094399 </v>
    <v>       0.49786837       0.74598479       0.50198415 </v>
    <v>       0.74715371       0.99210208       0.50205291 </v>
    <v>       0.75096033       0.24742452       0.50161825 </v>
    <v>       0.75660673       0.50189357       0.50002355 </v>
    <v>       0.76078332       0.74868391       0.50585148 </v>
   </varray>
  </structure>
  <varray name="forces" >
   <v>      -1.01178882       0.40695503      -0.79397890 </v>
   <v>      -0.35587626      -0.70929102      -1.12099916 </v>
   <v>       0.06201831       0.57748093       0.13373548 </v>
   <v>       0.85649452      -1.65120723      -0.36591993 </v>
   <v>      -0.24433052       0.81663782       1.64150062 </v>
   <v>       1.87833817      -1.39576798      -1.53793469 </v>
   <v>      -0.39495570       1.24743417       0.54187654 </v>
   <v>      -0.32068715       0.39272451       0.42601914 </v>
   <v>      -1.94060747       0.62113649      -0.17160614 </v>
   <v>       1.69436712       0.75203157       0.54538550 </v>
   <v>      -0.60262843       2.45857465      -0.50756894 </v>
   <v>       0.38231144      -0.10385914       1.50939074 </v>
   <v>       0.27188578       0.45578680       0.53972331 </v>
   <v>      -1.01593771       0.88039358       0.50878363 </v>
   <v>       1.52968315       0.73398097       0.00649045 </v>
   <v>      -1.16628299      -0.54907507       0.01416134 </v>
   <v>      -0.45990884       0.76338279       0.88797200 </v>
   <v>       1.73383224       2.55411644       1.86102630 </v>
   <v>       0.67936056      -1.25218699      -0.24971075 </v>
   <v>      -0.54412888      -2.88980098       0.85337131 </v>
   <v>       1.65232106      -0.42380100      -1.40891679 </v>
   <v>      -0.44165405      -0.44159245      -0.70974293 </v>
   <v>      -1.05337713       0.72067725       0.24128548 </v>
   <v>       0.42075627       0.00571225      -0.95117464 </v>
   <v>       0.08465123       0.13594268       0.36073829 </v>
   <v>       0.14476566       0.69207540       0.32337850 </v>
   <v>       1.45721957      -0.44215234       0.93716987 </v>
   <v>       1.18375657      -0.57379305       0.08986831 </v>
   <v>      -0.18033113      -1.70943441      -0.26176910 </v>
   <v>      -2.43008000       1.17589497       0.68236171 </v>
   <v>      -0.60556855       0.13460409       0.74350968 </v>
   <v>       0.94214030      -1.91456282       1.00548320 </v>
   <v>      -0.14264665      -0.00284427       0.53569358 </v>
   <v>       0.63264798      -0.04223997       0.23232838 </v>
   <v>      -1.44150193       1.16748755       1.51637420 </v>
   <v>       0.47171284       0.34553797      -0.48853376 </v>
   <v>       0.74750989       0.55053842       0.04429633 </v>
   <v>      -0.00365103       0.56243380      -0.75041128 </v>
   <v>       0.20028112       0.36020585       0.23691585 </v>
   <v>      -0.77498604       0.67366280      -0.38756225 </v>
   <v>      -0.03312135      -0.32056286      -0.63403018 </v>
   <v>       0.96821503       0.23280526       0.14170192 </v>
   <v>      -0.95148390       0.45729726       0.32859833 </v>
   <v>      -0.60624181       0.14931502      -1.06145544 </v>
   <v>       0.04033713       0.01323032      -0.46124627 </v>
   <v>       0.08696638      -0.35798038       0.19690211 </v>
   <v>      -0.37301797      -0.10472896      -0.05588075 </v>
   <v>       0.07126405       0.57921235       0.48535052 </v>
   <v>       0.36621950       0.14444571      -0.08869589 </v>
   <v>       0.42494284       0.30624680       0.16998277 </v>
   <v>      -0.45147892       0.18664878      -0.73116672 </v>
   <v>       0.51033626      -0.00671624       0.21179813 </v>
   <v>       0.30249146      -0.05190623       0.13585395 </v>
   <v>      -0.07997929      -0.69607675      -0.02277403 </v>
   <v>      -0.01087262      -0.81779051      -0.41536650 </v>
   <v>       0.23142610      -0.68863448       0.08311729 </v>
   <v>       0.43104255      -0.51106459      -1.01682428 </v>
   <v>      -0.06023435       0.07269247       0.29243354 </v>
   <v>      -0.82398612      -0.66394962      -0.41083928 </v>
   <v>       0.76735410      -0.39758514      -0.20137968 </v>
   <v>      -0.84001932      -0.34337534      -0.32471545 </v>
   <v>      -0.57439741      -0.09872816       0.65050536 </v>
   <v>      -0.06462678      -0.35966482      -0.14556063 </v>
   <v>      -0.51499357      -0.02012192       0.85942094 </v>
   <v>      -0.06221479       2.16223850       0.33873990 </v>
   <v>      -1.46803369      -1.91877202      -0.98035300 </v>
   <v>       1.19719078      -2.69394784      -1.67388551 </v>
   <v>       0.97234682       0.84953865       0.13848580 </v>
   <v>       0.95766575       0.80655648      -1.75772945 </v>
   <v>       0.63428611       0.48346684       0.61917705 </v>
   <v>      -0.49622586      -0.18094389       0.76630827 </v>
   <v>       0.74462845       1.45679131      -0.33294720 </v>
   <v>       0.28886893      -0.21990971       0.99162622 </v>
   <v>      -1.34611292      -1.08597668       0.47865610 </v>
   <v>       0.10979568      -2.40035068       0.06145564 </v>
   <v>      -0.06899272       0.54089865       0.22010751 </v>
   <v>      -0.18369762       1.50417426      -0.79074021 </v>
   <v>       0.84696906      -0.12429704      -0.19543474 </v>
   <v>      -0.70633391      -0.85650023      -0.32295636 </v>
   <v>      -2.13140659      -0.10977461      -2.25925029 </v>
  </varray>
  <varray name="stress" >
   <v>       8.63507467      -0.40673607       0.63485990 </v>
   <v>      -0.40673607       5.33302941       3.39466201 </v>
   <v>       0.63485990       3.39466202      -0.09144493 </v>
  </varray>
  <energy>
   <i name="e_fr_energy">   -592.75566130 </i>
   <i name="e_wo_entrp">   -592.75566130 </i>
   <i name="e_0_energy">     -0.00000000 </i>
  </energy>
  <time name="totalsc"> 1892.45 1892.94</time>
  <eigenvalues>
   <array>
    <dimension dim="1">band</dimension>
    <dimension dim="2">kpoint</dimension>
    <dimension dim="3">spin</dimension>
    <field>eigene</field>
    <field>occ</field>
    <set>
     <set comment="spin 1">
      <set comment="kpoint 1">
       <r>  -52.3441    1.0000 </r>
       <r>  -52.2591    1.0000 </r>
       <r>  -52.0562    1.0000 </r>
       <r>  -51.9394    1.0000 </r>
       <r>  -51.8863    1.0000 </r>
       <r>  -51.8676    1.0000 </r>
       <r>  -51.7727    1.0000 </r>
       <r>  -51.7673    1.0000 </r>
       <r>  -51.7057    1.0000 </r>
       <r>  -51.6820    1.0000 </r>
       <r>  -51.6606    1.0000 </r>
       <r>  -51.6308    1.0000 </r>
       <r>  -51.6115    1.0000 </r>
       <r>  -51.5956    1.0000 </r>
       <r>  -51.5259    1.0000 </r>
       <r>  -51.4060    1.0000 </r>
       <r>  -51.3718    1.0000 </r>
       <r>  -51.3543    1.0000 </r>
       <r>  -51.3303    1.0000 </r>
       <r>  -51.3295    1.0000 </r>
       <r>  -51.3231    1.0000 </r>
       <r>  -51.3187    1.0000 </r>
       <r>  -51.2994    1.0000 </r>
       <r>  -51.2971    1.0000 </r>
       <r>  -51.2775    1.0000 </r>
       <r>  -51.2580    1.0000 </r>
       <r>  -51.2148    1.0000 </r>
       <r>  -51.1067    1.0000 </r>
       <r>  -51.1034    1.0000 </r>
       <r>  -50.8508    1.0000 </r>
       <r>  -50.8282    1.0000 </r>
       <r>  -50.7660    1.0000 </r>
       <r>  -31.1636    1.0000 </r>
       <r>  -31.1172    1.0000 </r>
       <r>  -31.0772    1.0000 </r>
       <r>  -31.0538    1.0000 </r>
       <r>  -31.0424    1.0000 </r>
       <r>  -31.0081    1.0000 </r>
       <r>  -30.9119    1.0000 </r>
       <r>  -30.8770    1.0000 </r>
       <r>  -30.8670    1.0000 </r>
       <r>  -30.8364    1.0000 </r>
       <r>  -30.8359    1.0000 </r>
       <r>  -30.7668    1.0000 </r>
       <r>  -30.7598    1.0000 </r>
       <r>  -30.6942    1.0000 </r>
       <r>  -30.6872    1.0000 </r>
       <r>  -30.6685    1.0000 </r>
       <r>  -30.6455    1.0000 </r>
       <r>  -30.6334    1.0000 </r>
       <r>  -30.6019    1.0000 </r>
       <r>  -30.5768    1.0000 </r>
       <r>  -30.5574    1.0000 </r>
       <r>  -30.5430    1.0000 </r>
       <r>  -30.5316    1.0000 </r>
       <r>  -30.5202    1.0000 </r>
       <r>  -30.5078    1.0000 </r>
       <r>  -30.4900    1.0000 </r>
       <r>  -30.4817    1.0000 </r>
       <r>  -30.4798    1.0000 </r>
       <r>  -30.4661    1.0000 </r>
       <r>  -30.4578    1.0000 </r>
       <r>  -30.4507    1.0000 </r>
       <r>  -30.4405    1.0000 </r>
       <r>  -30.4336    1.0000 </r>
       <r>  -30.4239    1.0000 </r>
       <r>  -30.4167    1.0000 </r>
       <r>  -30.4050    1.0000 </r>
       <r>  -30.4001    1.0000 </r>
       <r>  -30.3845    1.0000 </r>
       <r>  -30.3811    1.0000 </r>
       <r>  -30.3686    1.0000 </r>
       <r>  -30.3470    1.0000 </r>
       <r>  -30.3363    1.0000 </r>
       <r>  -30.3219    1.0000 </r>
       <r>  -30.3156    1.0000 </r>
       <r>  -30.2985    1.0000 </r>
       <r>  -30.2916    1.0000 </r>
       <r>  -30.2812    1.0000 </r>
       <r>  -30.2732    1.0000 </r>
       <r>  -30.2562    1.0000 </r>
       <r>  -30.2435    1.0000 </r>
       <r>  -30.2143    1.0000 </r>
       <r>  -30.1795    1.0000 </r>
       <r>  -30.1644    1.0000 </r>
       <r>  -30.1534    1.0000 </r>
       <r>  -30.1347    1.0000 </r>
       <r>  -30.1198    1.0000 </r>
       <r>  -30.1139    1.0000 </r>
       <r>  -30.1040    1.0000 </r>
       <r>  -30.0914    1.0000 </r>
       <r>  -30.0878    1.0000 </r>
       <r>  -30.0740    1.0000 </r>
       <r>  -30.0714    1.0000 </r>
       <r>  -30.0654    1.0000 </r>
       <r>  -30.0617    1.0000 </r>
       <r>  -30.0421    1.0000 </r>
       <r>  -30.0361    1.0000 </r>
       <r>  -30.0149    1.0000 </r>
       <r>  -30.0106    1.0000 </r>
       <r>  -30.0031    1.0000 </r>
       <r>  -29.9973    1.0000 </r>
       <r>  -29.9876    1.0000 </r>
       <r>  -29.9778    1.0000 </r>
       <r>  -29.9753    1.0000 </r>
       <r>  -29.9552    1.0000 </r>
       <r>  -29.9406    1.0000 </r>
       <r>  -29.9336    1.0000 </r>
       <r>  -29.9232    1.0000 </r>
       <r>  -29.9151    1.0000 </r>
       <r>  -29.9058    1.0000 </r>
       <r>  -29.8880    1.0000 </r>
       <r>  -29.8866    1.0000 </r>
       <r>  -29.8768    1.0000 </r>
       <r>  -29.8439    1.0000 </r>
       <r>  -29.8403    1.0000 </r>
       <r>  -29.8291    1.0000 </r>
       <r>  -29.7910    1.0000 </r>
       <r>  -29.7547    1.0000 </r>
       <r>  -29.7071    1.0000 </r>
       <r>  -29.6356    1.0000 </r>
       <r>  -29.5929    1.0000 </r>
       <r>  -29.5668    1.0000 </r>
       <r>  -29.5486    1.0000 </r>
       <r>  -29.5384    1.0000 </r>
       <r>  -29.4996    1.0000 </r>
       <r>  -29.4853    1.0000 </r>
       <r>  -29.4583    1.0000 </r>
       <r>  -27.3052    1.0000 </r>
       <r>  -27.1447    1.0000 </r>
       <r>  -27.1402    1.0000 </r>
       <r>  -27.0059    1.0000 </r>
       <r>  -26.9935    1.0000 </r>
       <r>  -26.8356    1.0000 </r>
       <r>  -26.7870    1.0000 </r>
       <r>  -26.7453    1.0000 </r>
       <r>  -26.7351    1.0000 </r>
       <r>  -26.6755    1.0000 </r>
       <r>  -26.6597    1.0000 </r>
       <r>  -26.5912    1.0000 </r>
       <r>  -26.5872    1.0000 </r>
       <r>  -26.5779    1.0000 </r>
       <r>  -26.5505    1.0000 </r>
       <r>  -26.5304    1.0000 </r>
       <r>  -26.5036    1.0000 </r>
       <r>  -26.4818    1.0000 </r>
       <r>  -26.4567    1.0000 </r>
       <r>  -26.4454    1.0000 </r>
       <r>  -26.4128    1.0000 </r>
       <r>  -26.4097    1.0000 </r>
       <r>  -26.4091    1.0000 </r>
       <r>  -26.3927    1.0000 </r>
       <r>  -26.3882    1.0000 </r>
       <r>  -26.3815    1.0000 </r>
       <r>  -26.3573    1.0000 </r>
       <r>  -26.2809    1.0000 </r>
       <r>  -26.1717    1.0000 </r>
       <r>  -26.1028    1.0000 </r>
       <r>  -26.0977    1.0000 </r>
       <r>  -25.7465    1.0000 </r>
       <r>  -12.1587    1.0000 </r>
       <r>  -11.8198    1.0000 </r>
       <r>  -11.7779    1.0000 </r>
       <r>  -11.7308    1.0000 </r>
       <r>  -11.6581    1.0000 </r>
       <r>  -11.6327    1.0000 </r>
       <r>  -11.4906    1.0000 </r>
       <r>  -11.2892    1.0000 </r>
       <r>  -11.2020    1.0000 </r>
       <r>  -11.1810    1.0000 </r>
       <r>  -11.1138    1.0000 </r>
       <r>  -11.0392    1.0000 </r>
       <r>  -11.0089    1.0000 </r>
       <r>  -10.9270    1.0000 </r>
       <r>  -10.7582    1.0000 </r>
       <r>  -10.6842    1.0000 </r>
       <r>   -9.7055    1.0000 </r>
       <r>   -9.6444    1.0000 </r>
       <r>   -9.5660    1.0000 </r>
       <r>   -9.4663    1.0000 </r>
       <r>   -9.4286    1.0000 </r>
       <r>   -9.3316    1.0000 </r>
       <r>   -9.3112    1.0000 </r>
       <r>   -9.2416    1.0000 </r>
       <r>   -9.2091    1.0000 </r>
       <r>   -9.1899    1.0000 </r>
       <r>   -9.1703    1.0000 </r>
       <r>   -9.1273    1.0000 </r>
       <r>   -9.1128    1.0000 </r>
       <r>   -9.0958    1.0000 </r>
       <r>   -9.0688    1.0000 </r>
       <r>   -9.0339    1.0000 </r>
       <r>   -9.0038    1.0000 </r>
       <r>   -8.9800    1.0000 </r>
       <r>   -8.9661    1.0000 </r>
       <r>   -8.9439    1.0000 </r>
       <r>   -8.9277    1.0000 </r>
       <r>   -8.9187    1.0000 </r>
       <r>   -8.8946    1.0000 </r>
       <r>   -8.8784    1.0000 </r>
       <r>   -8.8718    1.0000 </r>
       <r>   -8.8698    1.0000 </r>
       <r>   -8.8290    1.0000 </r>
       <r>   -8.8170    1.0000 </r>
       <r>   -8.8127    1.0000 </r>
       <r>   -8.7997    1.0000 </r>
       <r>   -8.7803    1.0000 </r>
       <r>   -8.7515    1.0000 </r>
       <r>   -8.7321    1.0000 </r>
       <r>   -8.7114    1.0000 </r>
       <r>   -8.6928    1.0000 </r>
       <r>   -8.6788    1.0000 </r>
       <r>   -8.6690    1.0000 </r>
       <r>   -8.6444    1.0000 </r>
       <r>   -8.6293    1.0000 </r>
       <r>   -8.6055    1.0000 </r>
       <r>   -8.5980    1.0000 </r>
       <r>   -8.5706    1.0000 </r>
       <r>   -8.5564    1.0000 </r>
       <r>   -8.5397    1.0000 </r>
       <r>   -8.5323    1.0000 </r>
       <r>   -8.5167    1.0000 </r>
       <r>   -8.5122    1.0000 </r>
       <r>   -8.4804    1.0000 </r>
       <r>   -8.4686    1.0000 </r>
       <r>   -8.4605    1.0000 </r>
       <r>   -8.4394    1.0000 </r>
       <r>   -8.4308    1.0000 </r>
       <r>   -8.4151    1.0000 </r>
       <r>   -8.4051    1.0000 </r>
       <r>   -8.3851    1.0000 </r>
       <r>   -8.3812    1.0000 </r>
       <r>   -8.3756    1.0000 </r>
       <r>   -8.3608    1.0000 </r>
       <r>   -8.3440    1.0000 </r>
       <r>   -8.3361    1.0000 </r>
       <r>   -8.3348    1.0000 </r>
       <r>   -8.3325    1.0000 </r>
       <r>   -8.3225    1.0000 </r>
       <r>   -8.2951    1.0000 </r>
       <r>   -8.2778    1.0000 </r>
       <r>   -8.2679    1.0000 </r>
       <r>   -8.2634    1.0000 </r>
       <r>   -8.2484    1.0000 </r>
       <r>   -8.2279    1.0000 </r>
       <r>   -8.2145    1.0000 </r>
       <r>   -8.2029    1.0000 </r>
       <r>   -8.1842    1.0000 </r>
       <r>   -8.1824    1.0000 </r>
       <r>   -8.1459    1.0000 </r>
       <r>   -8.1301    1.0000 </r>
       <r>   -8.1285    1.0000 </r>
       <r>   -8.1238    1.0000 </r>
       <r>   -8.1128    1.0000 </r>
       <r>   -8.1016    1.0000 </r>
       <r>   -8.0825    1.0000 </r>
       <r>   -8.0697    1.0000 </r>
       <r>   -8.0487    1.0000 </r>
       <r>   -8.0356    1.0000 </r>
       <r>   -8.0255    1.0000 </r>
       <r>   -8.0068    1.0000 </r>
       <r>   -7.9923    1.0000 </r>
       <r>   -7.9842    1.0000 </r>
       <r>   -7.9643    1.0000 </r>
       <r>   -7.9455    1.0000 </r>
       <r>   -7.9203    1.0000 </r>
       <r>   -7.8381    1.0000 </r>
       <r>   -7.8345    1.0000 </r>
       <r>   -7.7832    1.0000 </r>
       <r>   -7.6852    1.0000 </r>
       <r>   -7.5760    1.0000 </r>
       <r>   -7.4890    1.0000 </r>
       <r>   -5.3160    1.0000 </r>
       <r>   -5.2301    1.0000 </r>
       <r>   -5.2185    1.0000 </r>
       <r>   -5.0558    1.0000 </r>
       <r>   -5.0262    1.0000 </r>
       <r>   -4.9277    1.0000 </r>
       <r>   -4.8895    1.0000 </r>
       <r>   -4.8435    1.0000 </r>
       <r>   -4.7727    1.0000 </r>
       <r>   -4.6872    1.0000 </r>
       <r>   -4.5898    1.0000 </r>
       <r>   -4.5731    1.0000 </r>
       <r>   -4.4716    1.0000 </r>
       <r>   -4.4559    1.0000 </r>
       <r>   -4.3984    1.0000 </r>
       <r>   -4.3855    1.0000 </r>
       <r>   -4.3618    1.0000 </r>
       <r>   -4.3320    1.0000 </r>
       <r>   -4.3173    1.0000 </r>
       <r>   -4.2791    1.0000 </r>
       <r>   -4.2455    1.0000 </r>
       <r>   -4.2293    1.0000 </r>
       <r>   -4.2103    1.0000 </r>
       <r>   -4.1657    1.0000 </r>
       <r>   -4.1513    1.0000 </r>
       <r>   -4.1079    1.0000 </r>
       <r>   -4.0678    1.0000 </r>
       <r>   -4.0578    1.0000 </r>
       <r>   -4.0440    1.0000 </r>
       <r>   -3.9988    1.0000 </r>
       <r>   -3.9398    1.0000 </r>
       <r>   -3.8960    1.0000 </r>
       <r>   -3.8687    1.0000 </r>
       <r>   -3.8190    1.0000 </r>
       <r>   -3.7348    1.0000 </r>
       <r>   -3.6188    1.0000 </r>
       <r>   -3.4981    1.0000 </r>
       <r>   -3.4754    1.0000 </r>
       <r>   -3.4324    1.0000 </r>
       <r>   -3.3618    1.0000 </r>
       <r>   -3.3261    1.0000 </r>
       <r>   -3.2298    1.0000 </r>
       <r>   -3.1828    1.0000 </r>
       <r>   -3.1224    1.0000 </r>
       <r>   -3.0692    1.0000 </r>
       <r>   -3.0081    1.0000 </r>
       <r>   -2.8498    1.0000 </r>
       <r>   -2.7257    1.0000 </r>
       <r>   -1.9928    0.0000 </r>
       <r>   -1.9656    0.0000 </r>
       <r>   -1.7827    0.0000 </r>
       <r>   -1.4519    0.0000 </r>
       <r>   -1.3823    0.0000 </r>
       <r>   -1.3264    0.0000 </r>
       <r>   -1.2661    0.0000 </r>
       <r>   -1.1603    0.0000 </r>
       <r>   -1.1140    0.0000 </r>
       <r>   -0.6822    0.0000 </r>
       <r>   -0.6321    0.0000 </r>
       <r>   -0.5673    0.0000 </r>
       <r>   -0.5023    0.0000 </r>
       <r>   -0.4695    0.0000 </r>
       <r>   -0.4183    0.0000 </r>
       <r>   -0.3442    0.0000 </r>
       <r>   -0.3034    0.0000 </r>
       <r>   -0.2717    0.0000 </r>
       <r>   -0.2573    0.0000 </r>
       <r>   -0.2387    0.0000 </r>
       <r>   -0.2081    0.0000 </r>
       <r>   -0.1472    0.0000 </r>
       <r>   -0.1188    0.0000 </r>
       <r>   -0.0169    0.0000 </r>
       <r>    0.0928    0.0000 </r>
       <r>    0.1045    0.0000 </r>
       <r>    0.1155    0.0000 </r>
       <r>    0.1956    0.0000 </r>
       <r>    0.2273    0.0000 </r>
       <r>    0.2389    0.0000 </r>
       <r>    0.2952    0.0000 </r>
       <r>    0.3399    0.0000 </r>
       <r>    0.3531    0.0000 </r>
       <r>    0.3962    0.0000 </r>
       <r>    0.4148    0.0000 </r>
       <r>    0.4411    0.0000 </r>
       <r>    0.4624    0.0000 </r>
       <r>    0.4727    0.0000 </r>
       <r>    0.5284    0.0000 </r>
       <r>    0.5551    0.0000 </r>
       <r>    0.5672    0.0000 </r>
       <r>    0.6121    0.0000 </r>
       <r>    0.6426    0.0000 </r>
       <r>    0.6508    0.0000 </r>
       <r>    0.6936    0.0000 </r>
       <r>    0.7024    0.0000 </r>
       <r>    0.7338    0.0000 </r>
       <r>    0.7944    0.0000 </r>
       <r>    0.8111    0.0000 </r>
       <r>    0.8497    0.0000 </r>
       <r>    0.8694    0.0000 </r>
       <r>    0.8915    0.0000 </r>
       <r>    0.8933    0.0000 </r>
       <r>    0.9032    0.0000 </r>
       <r>    0.9401    0.0000 </r>
       <r>    0.9477    0.0000 </r>
       <r>    0.9768    0.0000 </r>
       <r>    0.9930    0.0000 </r>
       <r>    1.0038    0.0000 </r>
       <r>    1.0443    0.0000 </r>
       <r>    1.0508    0.0000 </r>
       <r>    1.0635    0.0000 </r>
       <r>    1.1056    0.0000 </r>
       <r>    1.1345    0.0000 </r>
      </set>
      <set comment="kpoint 2">
       <r>  -52.3441    1.0000 </r>
       <r>  -52.2591    1.0000 </r>
       <r>  -52.0562    1.0000 </r>
       <r>  -51.9394    1.0000 </r>
       <r>  -51.8863    1.0000 </r>
       <r>  -51.8676    1.0000 </r>
       <r>  -51.7727    1.0000 </r>
       <r>  -51.7673    1.0000 </r>
       <r>  -51.7057    1.0000 </r>
       <r>  -51.6820    1.0000 </r>
       <r>  -51.6606    1.0000 </r>
       <r>  -51.6308    1.0000 </r>
       <r>  -51.6115    1.0000 </r>
       <r>  -51.5956    1.0000 </r>
       <r>  -51.5259    1.0000 </r>
       <r>  -51.4060    1.0000 </r>
       <r>  -51.3718    1.0000 </r>
       <r>  -51.3543    1.0000 </r>
       <r>  -51.3303    1.0000 </r>
       <r>  -51.3295    1.0000 </r>
       <r>  -51.3231    1.0000 </r>
       <r>  -51.3187    1.0000 </r>
       <r>  -51.2994    1.0000 </r>
       <r>  -51.2971    1.0000 </r>
       <r>  -51.2775    1.0000 </r>
       <r>  -51.2580    1.0000 </r>
       <r>  -51.2148    1.0000 </r>
       <r>  -51.1067    1.0000 </r>
       <r>  -51.1034    1.0000 </r>
       <r>  -50.8508    1.0000 </r>
       <r>  -50.8282    1.0000 </r>
       <r>  -50.7660    1.0000 </r>
       <r>  -31.1634    1.0000 </r>
       <r>  -31.1103    1.0000 </r>
       <r>  -31.0828    1.0000 </r>
       <r>  -31.0558    1.0000 </r>
       <r>  -31.0416    1.0000 </r>
       <r>  -31.0076    1.0000 </r>
       <r>  -30.9118    1.0000 </r>
       <r>  -30.8784    1.0000 </r>
       <r>  -30.8673    1.0000 </r>
       <r>  -30.8358    1.0000 </r>
       <r>  -30.8340    1.0000 </r>
       <r>  -30.7662    1.0000 </r>
       <r>  -30.7596    1.0000 </r>
       <r>  -30.6945    1.0000 </r>
       <r>  -30.6882    1.0000 </r>
       <r>  -30.6685    1.0000 </r>
       <r>  -30.6490    1.0000 </r>
       <r>  -30.6292    1.0000 </r>
       <r>  -30.6021    1.0000 </r>
       <r>  -30.5763    1.0000 </r>
       <r>  -30.5605    1.0000 </r>
       <r>  -30.5415    1.0000 </r>
       <r>  -30.5259    1.0000 </r>
       <r>  -30.5173    1.0000 </r>
       <r>  -30.5111    1.0000 </r>
       <r>  -30.4965    1.0000 </r>
       <r>  -30.4876    1.0000 </r>
       <r>  -30.4787    1.0000 </r>
       <r>  -30.4747    1.0000 </r>
       <r>  -30.4588    1.0000 </r>
       <r>  -30.4501    1.0000 </r>
       <r>  -30.4408    1.0000 </r>
       <r>  -30.4321    1.0000 </r>
       <r>  -30.4274    1.0000 </r>
       <r>  -30.4126    1.0000 </r>
       <r>  -30.4088    1.0000 </r>
       <r>  -30.3953    1.0000 </r>
       <r>  -30.3869    1.0000 </r>
       <r>  -30.3752    1.0000 </r>
       <r>  -30.3677    1.0000 </r>
       <r>  -30.3533    1.0000 </r>
       <r>  -30.3412    1.0000 </r>
       <r>  -30.3159    1.0000 </r>
       <r>  -30.3124    1.0000 </r>
       <r>  -30.2983    1.0000 </r>
       <r>  -30.2918    1.0000 </r>
       <r>  -30.2819    1.0000 </r>
       <r>  -30.2684    1.0000 </r>
       <r>  -30.2518    1.0000 </r>
       <r>  -30.2460    1.0000 </r>
       <r>  -30.2065    1.0000 </r>
       <r>  -30.1823    1.0000 </r>
       <r>  -30.1660    1.0000 </r>
       <r>  -30.1542    1.0000 </r>
       <r>  -30.1340    1.0000 </r>
       <r>  -30.1195    1.0000 </r>
       <r>  -30.1115    1.0000 </r>
       <r>  -30.1055    1.0000 </r>
       <r>  -30.0970    1.0000 </r>
       <r>  -30.0896    1.0000 </r>
       <r>  -30.0806    1.0000 </r>
       <r>  -30.0641    1.0000 </r>
       <r>  -30.0594    1.0000 </r>
       <r>  -30.0542    1.0000 </r>
       <r>  -30.0475    1.0000 </r>
       <r>  -30.0333    1.0000 </r>
       <r>  -30.0183    1.0000 </r>
       <r>  -30.0131    1.0000 </r>
       <r>  -30.0051    1.0000 </r>
       <r>  -29.9951    1.0000 </r>
       <r>  -29.9852    1.0000 </r>
       <r>  -29.9769    1.0000 </r>
       <r>  -29.9712    1.0000 </r>
       <r>  -29.9597    1.0000 </r>
       <r>  -29.9413    1.0000 </r>
       <r>  -29.9355    1.0000 </r>
       <r>  -29.9226    1.0000 </r>
       <r>  -29.9170    1.0000 </r>
       <r>  -29.9039    1.0000 </r>
       <r>  -29.8882    1.0000 </r>
       <r>  -29.8838    1.0000 </r>
       <r>  -29.8799    1.0000 </r>
       <r>  -29.8444    1.0000 </r>
       <r>  -29.8352    1.0000 </r>
       <r>  -29.8276    1.0000 </r>
       <r>  -29.7892    1.0000 </r>
       <r>  -29.7530    1.0000 </r>
       <r>  -29.7115    1.0000 </r>
       <r>  -29.6363    1.0000 </r>
       <r>  -29.5935    1.0000 </r>
       <r>  -29.5678    1.0000 </r>
       <r>  -29.5501    1.0000 </r>
       <r>  -29.5403    1.0000 </r>
       <r>  -29.4994    1.0000 </r>
       <r>  -29.4853    1.0000 </r>
       <r>  -29.4586    1.0000 </r>
       <r>  -27.3049    1.0000 </r>
       <r>  -27.1448    1.0000 </r>
       <r>  -27.1402    1.0000 </r>
       <r>  -27.0060    1.0000 </r>
       <r>  -26.9934    1.0000 </r>
       <r>  -26.8337    1.0000 </r>
       <r>  -26.7870    1.0000 </r>
       <r>  -26.7480    1.0000 </r>
       <r>  -26.7349    1.0000 </r>
       <r>  -26.6746    1.0000 </r>
       <r>  -26.6596    1.0000 </r>
       <r>  -26.5907    1.0000 </r>
       <r>  -26.5870    1.0000 </r>
       <r>  -26.5768    1.0000 </r>
       <r>  -26.5518    1.0000 </r>
       <r>  -26.5307    1.0000 </r>
       <r>  -26.5042    1.0000 </r>
       <r>  -26.4815    1.0000 </r>
       <r>  -26.4566    1.0000 </r>
       <r>  -26.4454    1.0000 </r>
       <r>  -26.4130    1.0000 </r>
       <r>  -26.4103    1.0000 </r>
       <r>  -26.4092    1.0000 </r>
       <r>  -26.3925    1.0000 </r>
       <r>  -26.3884    1.0000 </r>
       <r>  -26.3810    1.0000 </r>
       <r>  -26.3572    1.0000 </r>
       <r>  -26.2809    1.0000 </r>
       <r>  -26.1717    1.0000 </r>
[...]
       <r>   -32.6499     0.0000    64.0000 </r>
       <r>   -32.4537     0.0000    64.0000 </r>
       <r>   -32.2575     0.0000    64.0000 </r>
       <r>   -32.0612     0.0000    64.0000 </r>
       <r>   -31.8650     0.0000    64.0000 </r>
       <r>   -31.6688     0.0000    64.0000 </r>
       <r>   -31.4725     0.0000    64.0000 </r>
       <r>   -31.2763     0.0071    64.0014 </r>
       <r>   -31.0801    27.7006    69.4370 </r>
       <r>   -30.8839    50.8189    79.4092 </r>
       <r>   -30.6876    69.9050    93.1265 </r>
       <r>   -30.4914   119.5644   116.5885 </r>
       <r>   -30.2952   191.4553   154.1575 </r>
       <r>   -30.0989   135.4696   180.7405 </r>
       <r>   -29.9027   204.5200   220.8732 </r>
       <r>   -29.7065    92.1349   238.9527 </r>
       <r>   -29.5102    59.3390   250.5968 </r>
       <r>   -29.3140    27.5352   256.0000 </r>
       <r>   -29.1178     0.0002   256.0000 </r>
       <r>   -28.9216     0.0000   256.0000 </r>
       <r>   -28.7253     0.0000   256.0000 </r>
       <r>   -28.5291     0.0000   256.0000 </r>
       <r>   -28.3329     0.0000   256.0000 </r>
       <r>   -28.1366     0.0000   256.0000 </r>
       <r>   -27.9404     0.0000   256.0000 </r>
       <r>   -27.7442     0.0000   256.0000 </r>
       <r>   -27.5480     0.0000   256.0000 </r>
       <r>   -27.3517     0.9467   256.1858 </r>
       <r>   -27.1555    16.4979   259.4231 </r>
       <r>   -26.9593    30.8618   265.4791 </r>
       <r>   -26.7630    25.8591   270.5534 </r>
       <r>   -26.5668    64.5314   283.2163 </r>
       <r>   -26.3706   116.0168   305.9821 </r>
       <r>   -26.1744    35.8166   313.0104 </r>
       <r>   -25.9781    25.4218   317.9989 </r>
       <r>   -25.7819     1.6183   318.3164 </r>
       <r>   -25.5857     8.5797   320.0000 </r>
       <r>   -25.3894     0.0000   320.0000 </r>
       <r>   -25.1932     0.0000   320.0000 </r>
       <r>   -24.9970     0.0000   320.0000 </r>
       <r>   -24.8008     0.0000   320.0000 </r>
       <r>   -24.6045     0.0000   320.0000 </r>
       <r>   -24.4083     0.0000   320.0000 </r>
       <r>   -24.2121     0.0000   320.0000 </r>
       <r>   -24.0158     0.0000   320.0000 </r>
       <r>   -23.8196     0.0000   320.0000 </r>
       <r>   -23.6234     0.0000   320.0000 </r>
       <r>   -23.4272     0.0000   320.0000 </r>
       <r>   -23.2309     0.0000   320.0000 </r>
       <r>   -23.0347     0.0000   320.0000 </r>
       <r>   -22.8385     0.0000   320.0000 </r>
       <r>   -22.6422     0.0000   320.0000 </r>
       <r>   -22.4460     0.0000   320.0000 </r>
       <r>   -22.2498     0.0000   320.0000 </r>
       <r>   -22.0536     0.0000   320.0000 </r>
       <r>   -21.8573     0.0000   320.0000 </r>
       <r>   -21.6611     0.0000   320.0000 </r>
       <r>   -21.4649     0.0000   320.0000 </r>
       <r>   -21.2686     0.0000   320.0000 </r>
       <r>   -21.0724     0.0000   320.0000 </r>
       <r>   -20.8762     0.0000   320.0000 </r>
       <r>   -20.6800     0.0000   320.0000 </r>
       <r>   -20.4837     0.0000   320.0000 </r>
       <r>   -20.2875     0.0000   320.0000 </r>
       <r>   -20.0913     0.0000   320.0000 </r>
       <r>   -19.8950     0.0000   320.0000 </r>
       <r>   -19.6988     0.0000   320.0000 </r>
       <r>   -19.5026     0.0000   320.0000 </r>
       <r>   -19.3064     0.0000   320.0000 </r>
       <r>   -19.1101     0.0000   320.0000 </r>
       <r>   -18.9139     0.0000   320.0000 </r>
       <r>   -18.7177     0.0000   320.0000 </r>
       <r>   -18.5214     0.0000   320.0000 </r>
       <r>   -18.3252     0.0000   320.0000 </r>
       <r>   -18.1290     0.0000   320.0000 </r>
       <r>   -17.9328     0.0000   320.0000 </r>
       <r>   -17.7365     0.0000   320.0000 </r>
       <r>   -17.5403     0.0000   320.0000 </r>
       <r>   -17.3441     0.0000   320.0000 </r>
       <r>   -17.1478     0.0000   320.0000 </r>
       <r>   -16.9516     0.0000   320.0000 </r>
       <r>   -16.7554     0.0000   320.0000 </r>
       <r>   -16.5592     0.0000   320.0000 </r>
       <r>   -16.3629     0.0000   320.0000 </r>
       <r>   -16.1667     0.0000   320.0000 </r>
       <r>   -15.9705     0.0000   320.0000 </r>
       <r>   -15.7742     0.0000   320.0000 </r>
       <r>   -15.5780     0.0000   320.0000 </r>
       <r>   -15.3818     0.0000   320.0000 </r>
       <r>   -15.1856     0.0000   320.0000 </r>
       <r>   -14.9893     0.0000   320.0000 </r>
       <r>   -14.7931     0.0000   320.0000 </r>
       <r>   -14.5969     0.0000   320.0000 </r>
       <r>   -14.4006     0.0000   320.0000 </r>
       <r>   -14.2044     0.0000   320.0000 </r>
       <r>   -14.0082     0.0000   320.0000 </r>
       <r>   -13.8120     0.0000   320.0000 </r>
       <r>   -13.6157     0.0000   320.0000 </r>
       <r>   -13.4195     0.0000   320.0000 </r>
       <r>   -13.2233     0.0000   320.0000 </r>
       <r>   -13.0270     0.0000   320.0000 </r>
       <r>   -12.8308     0.0000   320.0000 </r>
       <r>   -12.6346     0.0000   320.0000 </r>
       <r>   -12.4384     0.0000   320.0000 </r>
       <r>   -12.2421     0.0117   320.0023 </r>
       <r>   -12.0459     9.7071   321.9071 </r>
       <r>   -11.8497    13.8849   324.6317 </r>
       <r>   -11.6534    15.9021   327.7522 </r>
       <r>   -11.4572    22.6331   332.1934 </r>
       <r>   -11.2610    26.8833   337.4687 </r>
       <r>   -11.0648    28.5191   343.0650 </r>
       <r>   -10.8685    24.5801   347.8883 </r>
       <r>   -10.6723    15.9430   351.0168 </r>
       <r>   -10.4761     5.0107   352.0000 </r>
       <r>   -10.2798     0.0000   352.0000 </r>
       <r>   -10.0836     0.0000   352.0000 </r>
       <r>    -9.8874     0.0000   352.0000 </r>
       <r>    -9.6912     6.8890   353.3518 </r>
       <r>    -9.4949    25.0685   358.2710 </r>
       <r>    -9.2987    32.6842   364.6846 </r>
       <r>    -9.1025    65.8904   377.6142 </r>
       <r>    -8.9062    96.4860   396.5475 </r>
       <r>    -8.7100   116.4470   419.3977 </r>
       <r>    -8.5138   124.3973   443.8080 </r>
       <r>    -8.3176   161.2718   475.4542 </r>
       <r>    -8.1213   150.5901   505.0043 </r>
       <r>    -7.9251   125.7866   529.6872 </r>
       <r>    -7.7289    42.4569   538.0185 </r>
       <r>    -7.5326    20.1542   541.9733 </r>
       <r>    -7.3364    10.3281   544.0000 </r>
       <r>    -7.1402     0.0001   544.0000 </r>
       <r>    -6.9440     0.0000   544.0000 </r>
       <r>    -6.7477     0.0000   544.0000 </r>
       <r>    -6.5515     0.0000   544.0000 </r>
       <r>    -6.3553     0.0000   544.0000 </r>
       <r>    -6.1590     0.0000   544.0000 </r>
       <r>    -5.9628     0.0000   544.0000 </r>
       <r>    -5.7666     0.0000   544.0000 </r>
       <r>    -5.5704     0.0000   544.0000 </r>
       <r>    -5.3741     0.0635   544.0125 </r>
       <r>    -5.1779    20.7970   548.0934 </r>
       <r>    -4.9817    35.1757   554.9959 </r>
       <r>    -4.7854    32.2692   561.3281 </r>
       <r>    -4.5892    30.5276   567.3184 </r>
       <r>    -4.3930    45.8425   576.3141 </r>
       <r>    -4.1967    47.1930   585.5747 </r>
       <r>    -4.0005    59.7444   597.2983 </r>
       <r>    -3.8043    55.6569   608.2197 </r>
       <r>    -3.6081    41.7296   616.4083 </r>
       <r>    -3.4118    40.2027   624.2972 </r>
       <r>    -3.2156    34.3861   631.0448 </r>
       <r>    -3.0194    24.1334   635.7804 </r>
       <r>    -2.8231    15.7293   638.8670 </r>
       <r>    -2.6269     5.7695   639.9991 </r>
       <r>    -2.4307     0.0046   640.0000 </r>
       <r>    -2.2345     0.0000   640.0000 </r>
       <r>    -2.0382     0.1358   640.0266 </r>
       <r>    -1.8420     6.7202   641.3454 </r>
       <r>    -1.6458    19.2745   645.1276 </r>
       <r>    -1.4495    14.0884   647.8921 </r>
       <r>    -1.2533    16.2875   651.0882 </r>
       <r>    -1.0571    22.1196   655.4287 </r>
       <r>    -0.8609    22.5081   659.8454 </r>
       <r>    -0.6646    25.8290   664.9138 </r>
       <r>    -0.4684    30.0014   670.8009 </r>
       <r>    -0.2722    30.3452   676.7555 </r>
       <r>    -0.0759    34.2516   683.4767 </r>
       <r>     0.1203    37.4643   690.8283 </r>
       <r>     0.3165    48.1453   700.2757 </r>
       <r>     0.5127    61.5838   712.3603 </r>
       <r>     0.7090    79.5138   727.9631 </r>
       <r>     0.9052    88.6131   745.3516 </r>
       <r>     1.1014    97.3839   764.4611 </r>
       <r>     1.2977    18.0342   767.9999 </r>
       <r>     1.4939     0.0005   768.0000 </r>
       <r>     1.6901     0.0000   768.0000 </r>
       <r>     1.8863     0.0000   768.0000 </r>
       <r>     2.0826     0.0000   768.0000 </r>
       <r>     2.2788     0.0000   768.0000 </r>
       <r>     2.4750     0.0000   768.0000 </r>
       <r>     2.6713     0.0000   768.0000 </r>
       <r>     2.8675     0.0000   768.0000 </r>
       <r>     3.0637     0.0000   768.0000 </r>
       <r>     3.2599     0.0000   768.0000 </r>
       <r>     3.4562     0.0000   768.0000 </r>
       <r>     3.6524     0.0000   768.0000 </r>
       <r>     3.8486     0.0000   768.0000 </r>
      </set>
     </set>
    </array>
   </total>
  </dos>
 </calculation>
 <structure name="finalpos" >
  <crystal>
   <varray name="basis" >
    <v>      13.12862340       0.00000000       0.00000000 </v>
    <v>      -6.56431170      11.36972138       0.00000000 </v>
    <v>       0.00000000       0.00000000      26.82809424 </v>
   </varray>
   <i name="volume">   4004.59716953 </i>
   <varray name="rec_basis" >
    <v>       0.07616945       0.04397645       0.00000000 </v>
    <v>       0.00000000       0.08795290       0.00000000 </v>
    <v>       0.00000000       0.00000000       0.03727436 </v>
   </varray>
  </crystal>
  <varray name="positions" >
   <v>       0.09142239       0.16485452       0.45091125 </v>
   <v>       0.09120015       0.42955713       0.45966766 </v>
   <v>       0.07766481       0.66930330       0.45221623 </v>
   <v>       0.07439371       0.91692641       0.44919451 </v>
   <v>       0.33117961       0.15799868       0.44527413 </v>
   <v>       0.32370627       0.42522193       0.45665077 </v>
   <v>       0.33223141       0.65705502       0.45531414 </v>
   <v>       0.33216018       0.91213289       0.45127236 </v>
   <v>       0.59626832       0.16504900       0.45550189 </v>
   <v>       0.57059851       0.40739945       0.44863005 </v>
   <v>       0.58262643       0.65375140       0.45477379 </v>
   <v>       0.57515307       0.91211931       0.44879935 </v>
   <v>       0.83459806       0.16158400       0.45250169 </v>
   <v>       0.84318015       0.41271104       0.45159291 </v>
   <v>       0.82419568       0.65836141       0.45441982 </v>
   <v>       0.83954485       0.91617068       0.45043694 </v>
   <v>       0.15919527       0.07257210       0.54163131 </v>
   <v>       0.15602496       0.30962114       0.54444652 </v>
   <v>       0.16847234       0.59383939       0.54990257 </v>
   <v>       0.17482989       0.85066348       0.54469461 </v>
   <v>       0.40842621       0.09147050       0.55395907 </v>
   <v>       0.41578004       0.33379920       0.54754225 </v>
   <v>       0.42209004       0.57698220       0.55083848 </v>
   <v>       0.40898827       0.82735961       0.54993789 </v>
   <v>       0.66164820       0.07634687       0.54795213 </v>
   <v>       0.67018516       0.33404833       0.54602836 </v>
   <v>       0.66732109       0.58633438       0.54594242 </v>
   <v>       0.66018272       0.83537717       0.54843734 </v>
   <v>       0.91591796       0.08885337       0.54770829 </v>
   <v>       0.92906679       0.32777675       0.54852326 </v>
   <v>       0.91918483       0.58885713       0.54662422 </v>
   <v>       0.91618818       0.84368724       0.54619598 </v>
   <v>       0.07934970       0.15375330       0.58558767 </v>
   <v>       0.07796289       0.42072618       0.59008895 </v>
   <v>       0.09186903       0.66437048       0.58539435 </v>
   <v>       0.07601973       0.91539563       0.59167084 </v>
   <v>       0.30703591       0.15438088       0.59027093 </v>
   <v>       0.31922805       0.38688146       0.59492323 </v>
   <v>       0.32915002       0.65719861       0.59050530 </v>
   <v>       0.33822232       0.90378270       0.59604322 </v>
   <v>       0.57778421       0.17847824       0.59566508 </v>
   <v>       0.55999910       0.41279667       0.59041641 </v>
   <v>       0.59064407       0.65391438       0.59174971 </v>
   <v>       0.60380646       0.91895222       0.60077050 </v>
   <v>       0.83832429       0.16796898       0.59338443 </v>
   <v>       0.83478056       0.42346131       0.58750025 </v>
   <v>       0.84884005       0.67543674       0.59111552 </v>
   <v>       0.83031948       0.91694617       0.58733980 </v>
   <v>       0.16324366       0.08158311       0.40632285 </v>
   <v>       0.15489785       0.33282985       0.41167573 </v>
   <v>       0.17536314       0.57980979       0.41475544 </v>
   <v>       0.16085928       0.83751403       0.40777614 </v>
   <v>       0.39961477       0.07487569       0.40529968 </v>
   <v>       0.42563933       0.36732793       0.40620578 </v>
   <v>       0.43032252       0.60715103       0.41160646 </v>
   <v>       0.43086416       0.87265675       0.40298341 </v>
   <v>       0.67408410       0.09211106       0.41430557 </v>
   <v>       0.67115691       0.32930673       0.40811626 </v>
   <v>       0.68187293       0.60062278       0.40899227 </v>
   <v>       0.66315968       0.84781353       0.40930566 </v>
   <v>       0.93100595       0.09124536       0.41209493 </v>
   <v>       0.93451703       0.33474291       0.40924028 </v>
   <v>       0.91876601       0.58283775       0.40999587 </v>
   <v>       0.92842051       0.84684212       0.39990479 </v>
   <v>       0.99287031       0.98870566       0.49557523 </v>
   <v>       0.01123461       0.25918393       0.50334211 </v>
   <v>       0.00689325       0.52015541       0.50351505 </v>
   <v>       0.99560510       0.75241561       0.49701535 </v>
   <v>       0.24828054       0.00207681       0.50298400 </v>
   <v>       0.24522735       0.24362751       0.49450092 </v>
   <v>       0.25589049       0.50275671       0.50120475 </v>
   <v>       0.24624055       0.74689935       0.50031274 </v>
   <v>       0.49662384       0.00222560       0.49961668 </v>
   <v>       0.50890290       0.25937301       0.49713814 </v>
   <v>       0.50303666       0.51208243       0.50094399 </v>
   <v>       0.49786837       0.74598479       0.50198415 </v>
   <v>       0.74715371       0.99210208       0.50205291 </v>
   <v>       0.75096033       0.24742452       0.50161825 </v>
   <v>       0.75660673       0.50189357       0.50002355 </v>
   <v>       0.76078332       0.74868391       0.50585148 </v>
  </varray>
  <varray name="velocities" >
   <v>       0.00000000       0.00000000       0.00000000 </v>
   <v>       0.00000000       0.00000000       0.00000000 </v>
   <v>       0.00000000       0.00000000       0.00000000 </v>
   <v>       0.00000000       0.00000000       0.00000000 </v>
   <v>       0.00000000       0.00000000       0.00000000 </v>
   <v>       0.00000000       0.00000000       0.00000000 </v>
   <v>       0.00000000       0.00000000       0.00000000 </v>
   <v>       0.00000000       0.00000000       0.00000000 </v>
   <v>       0.00000000       0.00000000       0.00000000 </v>
   <v>       0.00000000       0.00000000       0.00000000 </v>
   <v>       0.00000000       0.00000000       0.00000000 </v>
   <v>       0.00000000       0.00000000       0.00000000 </v>
   <v>       0.00000000       0.00000000       0.00000000 </v>
   <v>       0.00000000       0.00000000       0.00000000 </v>
   <v>       0.00000000       0.00000000       0.00000000 </v>
   <v>       0.00000000       0.00000000       0.00000000 </v>
   <v>       0.00000000       0.00000000       0.00000000 </v>
   <v>       0.00000000       0.00000000       0.00000000 </v>
   <v>       0.00000000       0.00000000       0.00000000 </v>
   <v>       0.00000000       0.00000000       0.00000000 </v>
   <v>       0.00000000       0.00000000       0.00000000 </v>
   <v>       0.00000000       0.00000000       0.00000000 </v>
   <v>       0.00000000       0.00000000       0.00000000 </v>
   <v>       0.00000000       0.00000000       0.00000000 </v>
   <v>       0.00000000       0.00000000       0.00000000 </v>
   <v>       0.00000000       0.00000000       0.00000000 </v>
   <v>       0.00000000       0.00000000       0.00000000 </v>
   <v>       0.00000000       0.00000000       0.00000000 </v>
   <v>       0.00000000       0.00000000       0.00000000 </v>
   <v>       0.00000000       0.00000000       0.00000000 </v>
   <v>       0.00000000       0.00000000       0.00000000 </v>
   <v>       0.00000000       0.00000000       0.00000000 </v>
   <v>       0.00000000       0.00000000       0.00000000 </v>
   <v>       0.00000000       0.00000000       0.00000000 </v>
   <v>       0.00000000       0.00000000       0.00000000 </v>
   <v>       0.00000000       0.00000000       0.00000000 </v>
   <v>       0.00000000       0.00000000       0.00000000 </v>
   <v>       0.00000000       0.00000000       0.00000000 </v>
   <v>       0.00000000       0.00000000       0.00000000 </v>
   <v>       0.00000000       0.00000000       0.00000000 </v>
   <v>       0.00000000       0.00000000       0.00000000 </v>
   <v>       0.00000000       0.00000000       0.00000000 </v>
   <v>       0.00000000       0.00000000       0.00000000 </v>
   <v>       0.00000000       0.00000000       0.00000000 </v>
   <v>       0.00000000       0.00000000       0.00000000 </v>
   <v>       0.00000000       0.00000000       0.00000000 </v>
   <v>       0.00000000       0.00000000       0.00000000 </v>
   <v>       0.00000000       0.00000000       0.00000000 </v>
   <v>       0.00000000       0.00000000       0.00000000 </v>
   <v>       0.00000000       0.00000000       0.00000000 </v>
   <v>       0.00000000       0.00000000       0.00000000 </v>
   <v>       0.00000000       0.00000000       0.00000000 </v>
   <v>       0.00000000       0.00000000       0.00000000 </v>
   <v>       0.00000000       0.00000000       0.00000000 </v>
   <v>       0.00000000       0.00000000       0.00000000 </v>
   <v>       0.00000000       0.00000000       0.00000000 </v>
   <v>       0.00000000       0.00000000       0.00000000 </v>
   <v>       0.00000000       0.00000000       0.00000000 </v>
   <v>       0.00000000       0.00000000       0.00000000 </v>
   <v>       0.00000000       0.00000000       0.00000000 </v>
   <v>       0.00000000       0.00000000       0.00000000 </v>
   <v>       0.00000000       0.00000000       0.00000000 </v>
   <v>       0.00000000       0.00000000       0.00000000 </v>
   <v>       0.00000000       0.00000000       0.00000000 </v>
   <v>       0.00000000       0.00000000       0.00000000 </v>
   <v>       0.00000000       0.00000000       0.00000000 </v>
   <v>       0.00000000       0.00000000       0.00000000 </v>
   <v>       0.00000000       0.00000000       0.00000000 </v>
   <v>       0.00000000       0.00000000       0.00000000 </v>
   <v>       0.00000000       0.00000000       0.00000000 </v>
   <v>       0.00000000       0.00000000       0.00000000 </v>
   <v>       0.00000000       0.00000000       0.00000000 </v>
   <v>       0.00000000       0.00000000       0.00000000 </v>
   <v>       0.00000000       0.00000000       0.00000000 </v>
   <v>       0.00000000       0.00000000       0.00000000 </v>
   <v>       0.00000000       0.00000000       0.00000000 </v>
   <v>       0.00000000       0.00000000       0.00000000 </v>
   <v>       0.00000000       0.00000000       0.00000000 </v>
   <v>       0.00000000       0.00000000       0.00000000 </v>
   <v>       0.00000000       0.00000000       0.00000000 </v>
  </varray>
 </structure>
</modeling>
