<?xml version="1.0" encoding="ISO-8859-1"?>
<modeling>
 <generator>
  <i name="program" type="string">vasp </i>
  <i name="version" type="string">5.4.4.18Apr17-6-g9f103f2a35  </i>
  <i name="subversion" type="string">(build Oct 31 2019 15:01:46) complex            parallel </i>
  <i name="platform" type="string">LinuxIFC </i>
  <i name="date" type="string">2024 04 29 </i>
  <i name="time" type="string">18:54:13 </i>
 </generator>
 <incar>
  <i type="int" name="ISTART">     0</i>
  <i type="string" name="PREC">a</i>
  <i type="logical" name="ADDGRID"> T  </i>
  <i type="int" name="IBRION">    -1</i>
  <i name="EDIFF">      0.00000100</i>
  <i name="EDIFFG">     -0.01000000</i>
  <i type="int" name="NSW">     1</i>
  <i type="int" name="ISIF">     2</i>
  <i type="int" name="ISYM">     0</i>
  <i name="ENCUT">    600.00000000</i>
  <i name="POTIM">      1.00000000</i>
  <i type="string" name="LREAL">  Auto</i>
  <i type="int" name="ISMEAR">     0</i>
  <i name="SIGMA">      0.05000000</i>
  <i name="KSPACING">      0.30000000</i>
  <i type="logical" name="KGAMMA"> T  </i>
  <i type="logical" name="LWAVE"> F  </i>
  <i type="logical" name="LCHARG"> F  </i>
  <i type="logical" name="LSCALAPACK"> F  </i>
  <v type="int" name="KPOINT_BSE">    -1     0     0     0</v>
 </incar>
 <structure name="primitive_cell" >
  <crystal>
   <varray name="basis" >
    <v>      12.93041299       0.00000000       0.00000000 </v>
    <v>       0.00000000      12.93041299       0.00000000 </v>
    <v>       0.00000000       0.00000000      12.93041299 </v>
   </varray>
   <i name="volume">   2161.90790069 </i>
   <varray name="rec_basis" >
    <v>       0.07733705       0.00000000       0.00000000 </v>
    <v>       0.00000000       0.07733705       0.00000000 </v>
    <v>       0.00000000       0.00000000       0.07733705 </v>
   </varray>
  </crystal>
  <varray name="positions" >
   <v>       0.11637523      -0.28080138       0.11920874 </v>
   <v>       0.00754429      -0.33762135       0.21153551 </v>
   <v>       0.17977959      -0.10673159       0.04245086 </v>
   <v>       0.11669830      -0.34208268      -0.07309526 </v>
   <v>       0.29563757      -0.32618601       0.02611639 </v>
   <v>       0.23149484      -0.29311067      -0.08273463 </v>
   <v>       0.14682211      -0.11462747       0.28611138 </v>
   <v>       0.32665209      -0.16653759       0.12974501 </v>
   <v>       0.20053261      -0.33609298       0.35132431 </v>
   <v>      -0.08684185      -0.17088933       0.25590302 </v>
   <v>      -0.11164228      -0.40399725       0.19268153 </v>
   <v>      -0.10193338      -0.13906143       0.03959913 </v>
   <v>       0.27027027      -0.18290485      -0.11145905 </v>
   <v>      -0.09840507      -0.47969932       0.08598474 </v>
   <v>      -0.09826811      -0.31253522      -0.08504000 </v>
   <v>       0.03624886       0.46929793      -0.03151281 </v>
   <v>       0.16440732      -0.00794318      -0.01328667 </v>
   <v>      -0.18797659      -0.28642478       0.21345805 </v>
   <v>       0.34054409       0.47821456       0.06445932 </v>
   <v>       0.08980035      -0.00612352       0.32379390 </v>
   <v>       0.43021114      -0.38833202       0.21834487 </v>
   <v>       0.11119472      -0.17115789      -0.21066247 </v>
   <v>       0.24234637      -0.28109234       0.44558146 </v>
   <v>      -0.22181526      -0.26169182       0.02130743 </v>
   <v>       0.46749874      -0.24263283       0.10401795 </v>
   <v>       0.34453373      -0.01552402       0.06771221 </v>
   <v>      -0.00427182       0.44175915       0.30508165 </v>
   <v>       0.30021079      -0.35447366      -0.17989366 </v>
   <v>       0.07424450       0.36155692       0.11071069 </v>
   <v>      -0.11310675      -0.03376692      -0.01660835 </v>
   <v>      -0.15155541      -0.46614830       0.30708884 </v>
   <v>       0.10193487       0.36911799       0.26147894 </v>
   <v>       0.33021515      -0.45863078       0.37590857 </v>
   <v>      -0.04884390       0.01730022       0.29081946 </v>
   <v>       0.22663206      -0.15771925       0.46368512 </v>
   <v>      -0.07261951      -0.19879395       0.44259794 </v>
   <v>       0.49453839      -0.28029314       0.21255533 </v>
   <v>      -0.27085884      -0.23904968       0.14838544 </v>
   <v>      -0.12457542      -0.49976201      -0.09713076 </v>
   <v>       0.29723302       0.37395944       0.17048010 </v>
   <v>       0.42855292      -0.20583241      -0.10779589 </v>
   <v>       0.23055383       0.42100825       0.35083750 </v>
   <v>       0.06899281      -0.05226658       0.43871272 </v>
   <v>       0.16746561       0.00797892      -0.14691301 </v>
   <v>       0.15283694       0.11062274       0.02257797 </v>
   <v>       0.16846666       0.07908737       0.30273891 </v>
   <v>       0.39441779      -0.03428897       0.28872928 </v>
   <v>       0.39985327       0.01320000       0.17685615 </v>
   <v>       0.38615002      -0.27223102       0.43334316 </v>
   <v>      -0.07050474       0.07935016       0.02966538 </v>
   <v>      -0.09122905      -0.03294187      -0.15404910 </v>
   <v>       0.00255951       0.13513174       0.15532614 </v>
   <v>       0.24796103       0.33429212      -0.04624258 </v>
   <v>      -0.25448240      -0.49025865      -0.02141332 </v>
   <v>       0.29081243       0.44025846      -0.19256720 </v>
   <v>      -0.47640963      -0.19699420       0.30382915 </v>
   <v>       0.32224956       0.35217319       0.29390337 </v>
   <v>      -0.10897210       0.38632743       0.33446767 </v>
   <v>       0.14967548      -0.07799219      -0.47084396 </v>
   <v>      -0.31465833      -0.13888849       0.20007648 </v>
   <v>      -0.23781869       0.00678809       0.00204882 </v>
   <v>      -0.07130324      -0.18234541      -0.30638685 </v>
   <v>      -0.35163328      -0.34139867       0.20079257 </v>
   <v>      -0.00161849       0.45525772      -0.26370337 </v>
   <v>      -0.04662676       0.11360262      -0.12261814 </v>
   <v>       0.45835107      -0.01256358      -0.10925066 </v>
   <v>       0.24777561      -0.39474793      -0.42018979 </v>
   <v>      -0.05051440       0.30874823      -0.09875890 </v>
   <v>      -0.19422193      -0.19563457       0.49638107 </v>
   <v>       0.39511338      -0.11403964       0.49499658 </v>
   <v>      -0.28619657      -0.18256146       0.39988834 </v>
   <v>       0.27748498       0.10839656      -0.15557994 </v>
   <v>       0.14764096       0.26182202       0.32769911 </v>
   <v>       0.43273900       0.36840304       0.29400856 </v>
   <v>      -0.09248959       0.38608654      -0.20399061 </v>
   <v>       0.11237077      -0.14661130      -0.37434162 </v>
   <v>       0.33666465      -0.36595912      -0.33688610 </v>
   <v>      -0.11461527      -0.07100508      -0.28917460 </v>
   <v>      -0.06474176       0.38937983       0.48581413 </v>
   <v>      -0.34076913      -0.42362608       0.33650972 </v>
   <v>      -0.18666643      -0.31317167      -0.44903187 </v>
   <v>       0.33044140       0.23244646       0.08346530 </v>
   <v>      -0.44927729      -0.26885771      -0.19896997 </v>
   <v>       0.22228065       0.17873974       0.37959650 </v>
   <v>      -0.44442103       0.47721055      -0.08056199 </v>
   <v>       0.47732055       0.32445092       0.04207252 </v>
   <v>      -0.13487773       0.03356059       0.48199036 </v>
   <v>      -0.19205354       0.30804722       0.29288023 </v>
   <v>       0.36843444      -0.22490684      -0.35936138 </v>
   <v>       0.24551476      -0.02922221      -0.41461435 </v>
   <v>      -0.49794764       0.11121279       0.13578845 </v>
   <v>      -0.26190802       0.11680287       0.16237686 </v>
   <v>      -0.39052353      -0.11995772       0.33246641 </v>
   <v>      -0.28297475       0.04569468       0.34310130 </v>
   <v>       0.12172603       0.40564759      -0.35177954 </v>
   <v>       0.47287278      -0.49003490      -0.49030171 </v>
   <v>      -0.11747911       0.47956777      -0.40642942 </v>
   <v>       0.40962925      -0.45476930      -0.35108547 </v>
   <v>      -0.47015399       0.35995356      -0.07687982 </v>
   <v>      -0.40580244       0.02417744      -0.01243274 </v>
   <v>      -0.49049735      -0.21672224      -0.30693999 </v>
   <v>       0.33936721       0.22209114       0.33397981 </v>
   <v>      -0.07501803       0.04060884      -0.33306962 </v>
   <v>       0.46908926       0.35582085      -0.17978591 </v>
   <v>       0.49935380       0.01128748      -0.23225678 </v>
   <v>      -0.42942803       0.34518468       0.22381580 </v>
   <v>      -0.45054597      -0.48227116      -0.24269806 </v>
   <v>       0.17353420       0.17579376      -0.49379996 </v>
   <v>      -0.42556390      -0.01316107       0.40897627 </v>
   <v>      -0.47343185      -0.09056038      -0.28921548 </v>
   <v>      -0.29040062       0.27485626       0.00098417 </v>
   <v>      -0.30565047      -0.41878615      -0.30508774 </v>
   <v>      -0.40447097       0.42821665       0.38089114 </v>
   <v>      -0.22914439      -0.07932361      -0.40830227 </v>
   <v>      -0.17234487       0.34088634      -0.28751716 </v>
   <v>      -0.37578291      -0.36819968       0.49683175 </v>
   <v>      -0.23583186       0.15049918      -0.16801142 </v>
   <v>       0.46871105       0.13274498      -0.19812940 </v>
   <v>      -0.41280423       0.49788394      -0.49894587 </v>
   <v>      -0.33067690      -0.32568969      -0.39646608 </v>
   <v>       0.13697571       0.22683896      -0.32256397 </v>
   <v>       0.20329939       0.15865685      -0.39260979 </v>
   <v>       0.43780451       0.13298805      -0.46117696 </v>
   <v>      -0.31312723       0.42962079      -0.43663978 </v>
   <v>      -0.38487197       0.11286099       0.36821457 </v>
   <v>      -0.30531073       0.28509875       0.43778756 </v>
   <v>      -0.37107692       0.18146704       0.27162938 </v>
   <v>      -0.37603847       0.31598127      -0.14798985 </v>
   <v>      -0.19106417       0.17069070      -0.30582947 </v>
   <v>      -0.37220548      -0.20484823      -0.39359210 </v>
   <v>      -0.24523158       0.14545656      -0.46376933 </v>
   <v>      -0.31332763       0.21907638      -0.11207553 </v>
   <v>      -0.47408258       0.08420353      -0.33159743 </v>
   <v>       0.32395806       0.21203956      -0.39562369 </v>
   <v>      -0.44002539       0.19095222       0.44884401 </v>
  </varray>
 </structure>
 <varray name="primitive_index" >
  <v type="int" >        1 </v>
  <v type="int" >       92 </v>
  <v type="int" >      135 </v>
  <v type="int" >       72 </v>
  <v type="int" >      129 </v>
  <v type="int" >       52 </v>
  <v type="int" >      107 </v>
  <v type="int" >       23 </v>
  <v type="int" >       86 </v>
  <v type="int" >       20 </v>
  <v type="int" >       42 </v>
  <v type="int" >      102 </v>
  <v type="int" >       95 </v>
  <v type="int" >      132 </v>
  <v type="int" >        8 </v>
  <v type="int" >        9 </v>
  <v type="int" >       44 </v>
  <v type="int" >      110 </v>
  <v type="int" >        3 </v>
  <v type="int" >       31 </v>
  <v type="int" >       90 </v>
  <v type="int" >        4 </v>
  <v type="int" >       54 </v>
  <v type="int" >      120 </v>
  <v type="int" >       57 </v>
  <v type="int" >      109 </v>
  <v type="int" >       81 </v>
  <v type="int" >       55 </v>
  <v type="int" >      122 </v>
  <v type="int" >       35 </v>
  <v type="int" >       99 </v>
  <v type="int" >       50 </v>
  <v type="int" >        6 </v>
  <v type="int" >      112 </v>
  <v type="int" >      105 </v>
  <v type="int" >       60 </v>
  <v type="int" >       39 </v>
  <v type="int" >       38 </v>
  <v type="int" >      113 </v>
  <v type="int" >       78 </v>
  <v type="int" >       13 </v>
  <v type="int" >      125 </v>
  <v type="int" >      119 </v>
  <v type="int" >       84 </v>
  <v type="int" >      121 </v>
  <v type="int" >       93 </v>
  <v type="int" >      134 </v>
  <v type="int" >       53 </v>
  <v type="int" >       66 </v>
  <v type="int" >      128 </v>
  <v type="int" >      115 </v>
  <v type="int" >       27 </v>
  <v type="int" >      106 </v>
  <v type="int" >       15 </v>
  <v type="int" >       16 </v>
  <v type="int" >      117 </v>
  <v type="int" >       51 </v>
  <v type="int" >       33 </v>
  <v type="int" >       32 </v>
  <v type="int" >       74 </v>
  <v type="int" >      131 </v>
  <v type="int" >       98 </v>
  <v type="int" >       83 </v>
  <v type="int" >       80 </v>
  <v type="int" >       22 </v>
  <v type="int" >       58 </v>
  <v type="int" >      101 </v>
  <v type="int" >      133 </v>
  <v type="int" >       45 </v>
  <v type="int" >       10 </v>
  <v type="int" >       96 </v>
  <v type="int" >       24 </v>
  <v type="int" >       76 </v>
  <v type="int" >       63 </v>
  <v type="int" >       34 </v>
  <v type="int" >       61 </v>
  <v type="int" >       36 </v>
  <v type="int" >       41 </v>
  <v type="int" >      126 </v>
  <v type="int" >       14 </v>
  <v type="int" >       94 </v>
  <v type="int" >       19 </v>
  <v type="int" >      103 </v>
  <v type="int" >       43 </v>
  <v type="int" >      124 </v>
  <v type="int" >      104 </v>
  <v type="int" >        7 </v>
  <v type="int" >       70 </v>
  <v type="int" >      111 </v>
  <v type="int" >       79 </v>
  <v type="int" >      118 </v>
  <v type="int" >       26 </v>
  <v type="int" >       29 </v>
  <v type="int" >       69 </v>
  <v type="int" >       11 </v>
  <v type="int" >       71 </v>
  <v type="int" >       17 </v>
  <v type="int" >       87 </v>
  <v type="int" >       46 </v>
  <v type="int" >       18 </v>
  <v type="int" >       40 </v>
  <v type="int" >      127 </v>
  <v type="int" >       75 </v>
  <v type="int" >       77 </v>
  <v type="int" >       28 </v>
  <v type="int" >        5 </v>
  <v type="int" >        2 </v>
  <v type="int" >       88 </v>
  <v type="int" >       91 </v>
  <v type="int" >      123 </v>
  <v type="int" >       56 </v>
  <v type="int" >       62 </v>
  <v type="int" >       97 </v>
  <v type="int" >       67 </v>
  <v type="int" >       65 </v>
  <v type="int" >      114 </v>
  <v type="int" >      116 </v>
  <v type="int" >       85 </v>
  <v type="int" >       30 </v>
  <v type="int" >       48 </v>
  <v type="int" >      108 </v>
  <v type="int" >       49 </v>
  <v type="int" >       21 </v>
  <v type="int" >       73 </v>
  <v type="int" >       47 </v>
  <v type="int" >       25 </v>
  <v type="int" >       89 </v>
  <v type="int" >       68 </v>
  <v type="int" >       12 </v>
  <v type="int" >       82 </v>
  <v type="int" >      100 </v>
  <v type="int" >       37 </v>
  <v type="int" >       59 </v>
  <v type="int" >       64 </v>
  <v type="int" >      130 </v>
 </varray>
 <kpoints>
  <generation param="Gamma">
   <v type="int" name="divisions">       2        2        2 </v>
   <v name="usershift">      0.00000000       0.00000000       0.00000000 </v>
   <v name="genvec1">      0.50000000       0.00000000       0.00000000 </v>
   <v name="genvec2">      0.00000000       0.50000000       0.00000000 </v>
   <v name="genvec3">      0.00000000       0.00000000       0.50000000 </v>
   <v name="shift">      0.00000000       0.00000000       0.00000000 </v>
  </generation>
  <varray name="kpointlist" >
   <v>       0.00000000       0.00000000       0.00000000 </v>
   <v>       0.50000000       0.00000000       0.00000000 </v>
   <v>       0.00000000       0.50000000       0.00000000 </v>
   <v>       0.50000000       0.50000000       0.00000000 </v>
   <v>       0.00000000       0.00000000       0.50000000 </v>
   <v>       0.50000000       0.00000000       0.50000000 </v>
   <v>       0.00000000       0.50000000       0.50000000 </v>
   <v>       0.50000000       0.50000000       0.50000000 </v>
  </varray>
  <varray name="weights" >
   <v>       0.12500000 </v>
   <v>       0.12500000 </v>
   <v>       0.12500000 </v>
   <v>       0.12500000 </v>
   <v>       0.12500000 </v>
   <v>       0.12500000 </v>
   <v>       0.12500000 </v>
   <v>       0.12500000 </v>
  </varray>
 </kpoints>
 <parameters>
  <separator name="general" >
   <i type="string" name="SYSTEM">unknown system</i>
   <i type="logical" name="LCOMPAT"> F  </i>
  </separator>
  <separator name="electronic" >
   <i type="string" name="PREC">a</i>
   <i name="ENMAX">    600.00000000</i>
   <i name="ENAUG">    605.39200000</i>
   <i name="EDIFF">      0.00000100</i>
   <i type="int" name="IALGO">    38</i>
   <i type="int" name="IWAVPR">    10</i>
   <i type="int" name="NBANDS">   520</i>
   <i name="NELECT">    864.00000000</i>
   <i type="int" name="TURBO">     0</i>
   <i type="int" name="IRESTART">     0</i>
   <i type="int" name="NREBOOT">     0</i>
   <i type="int" name="NMIN">     0</i>
   <i name="EREF">      0.00000000</i>
   <separator name="electronic smearing" >
    <i type="int" name="ISMEAR">     0</i>
    <i name="SIGMA">      0.05000000</i>
    <i name="KSPACING">      0.30000000</i>
    <i type="logical" name="KGAMMA"> T  </i>
   </separator>
   <separator name="electronic projectors" >
    <i type="logical" name="LREAL"> T  </i>
    <v name="ROPT">     -0.00025000     -0.00025000     -0.00025000</v>
    <i type="int" name="LMAXPAW">  -100</i>
    <i type="int" name="LMAXMIX">     2</i>
    <i type="logical" name="NLSPLINE"> F  </i>
   </separator>
   <separator name="electronic startup" >
    <i type="int" name="ISTART">     0</i>
    <i type="int" name="ICHARG">     2</i>
    <i type="int" name="INIWAV">     1</i>
   </separator>
   <separator name="electronic spin" >
    <i type="int" name="ISPIN">     1</i>
    <i type="logical" name="LNONCOLLINEAR"> F  </i>
    <v name="MAGMOM">      1.00000000      1.00000000      1.00000000      1.00000000      1.00000000      1.00000000      1.00000000      1.00000000      1.00000000      1.00000000      1.00000000      1.00000000      1.00000000      1.00000000      1.00000000      1.00000000      1.00000000      1.00000000      1.00000000      1.00000000
      1.00000000      1.00000000      1.00000000      1.00000000      1.00000000      1.00000000      1.00000000      1.00000000      1.00000000      1.00000000      1.00000000      1.00000000      1.00000000      1.00000000      1.00000000      1.00000000      1.00000000      1.00000000      1.00000000      1.00000000
      1.00000000      1.00000000      1.00000000      1.00000000      1.00000000      1.00000000      1.00000000      1.00000000      1.00000000      1.00000000      1.00000000      1.00000000      1.00000000      1.00000000      1.00000000      1.00000000      1.00000000      1.00000000      1.00000000      1.00000000
      1.00000000      1.00000000      1.00000000      1.00000000      1.00000000      1.00000000      1.00000000      1.00000000      1.00000000      1.00000000      1.00000000      1.00000000      1.00000000      1.00000000      1.00000000      1.00000000      1.00000000      1.00000000      1.00000000      1.00000000
      1.00000000      1.00000000      1.00000000      1.00000000      1.00000000      1.00000000      1.00000000      1.00000000      1.00000000      1.00000000      1.00000000      1.00000000      1.00000000      1.00000000      1.00000000      1.00000000      1.00000000      1.00000000      1.00000000      1.00000000
      1.00000000      1.00000000      1.00000000      1.00000000      1.00000000      1.00000000      1.00000000      1.00000000      1.00000000      1.00000000      1.00000000      1.00000000      1.00000000      1.00000000      1.00000000      1.00000000      1.00000000      1.00000000      1.00000000      1.00000000
      1.00000000      1.00000000      1.00000000      1.00000000      1.00000000      1.00000000      1.00000000      1.00000000      1.00000000      1.00000000      1.00000000      1.00000000      1.00000000      1.00000000      1.00000000</v>
    <i name="NUPDOWN">     -1.00000000</i>
    <i type="logical" name="LSORBIT"> F  </i>
    <v name="SAXIS">      0.00000000      0.00000000      1.00000000</v>
    <i type="logical" name="LSPIRAL"> F  </i>
    <v name="QSPIRAL">      0.00000000      0.00000000      0.00000000</v>
    <i type="logical" name="LZEROZ"> F  </i>
   </separator>
   <separator name="electronic exchange-correlation" >
    <i type="logical" name="LASPH"> F  </i>
    <i type="logical" name="LMETAGGA"> F  </i>
   </separator>
   <separator name="electronic convergence" >
    <i type="int" name="NELM">    60</i>
    <i type="int" name="NELMDL">    -5</i>
    <i type="int" name="NELMIN">     2</i>
    <i name="ENINI">    600.00000000</i>
    <separator name="electronic convergence detail" >
     <i type="logical" name="LDIAG"> T  </i>
     <i type="logical" name="LSUBROT"> F  </i>
     <i name="WEIMIN">      0.00000000</i>
     <i name="EBREAK">      0.00000000</i>
     <i name="DEPER">      0.30000000</i>
     <i type="int" name="NRMM">     4</i>
     <i name="TIME">      0.40000000</i>
    </separator>
   </separator>
   <separator name="electronic mixer" >
    <i name="AMIX">      0.40000000</i>
    <i name="BMIX">      1.00000000</i>
    <i name="AMIN">      0.10000000</i>
    <i name="AMIX_MAG">      1.60000000</i>
    <i name="BMIX_MAG">      1.00000000</i>
    <separator name="electronic mixer details" >
     <i type="int" name="IMIX">     4</i>
     <i type="logical" name="MIXFIRST"> F  </i>
     <i type="int" name="MAXMIX">   -45</i>
     <i name="WC">    100.00000000</i>
     <i type="int" name="INIMIX">     1</i>
     <i type="int" name="MIXPRE">     1</i>
     <i type="int" name="MREMOVE">     5</i>
    </separator>
   </separator>
   <separator name="electronic dipolcorrection" >
    <i type="logical" name="LDIPOL"> F  </i>
    <i type="logical" name="LMONO"> F  </i>
    <i type="int" name="IDIPOL">     0</i>
    <i name="EPSILON">      1.00000000</i>
    <v name="DIPOL">   -100.00000000   -100.00000000   -100.00000000</v>
    <i name="EFIELD">      0.00000000</i>
   </separator>
  </separator>
  <separator name="grids" >
   <i type="int" name="NGX">   108</i>
   <i type="int" name="NGY">   108</i>
   <i type="int" name="NGZ">   108</i>
   <i type="int" name="NGXF">   216</i>
   <i type="int" name="NGYF">   216</i>
   <i type="int" name="NGZF">   216</i>
   <i type="logical" name="ADDGRID"> T  </i>
  </separator>
  <separator name="ionic" >
   <i type="int" name="NSW">     1</i>
   <i type="int" name="IBRION">    -1</i>
   <i type="int" name="MDALGO">     0</i>
   <i type="int" name="ISIF">     2</i>
   <i name="PSTRESS">      0.00000000</i>
   <i name="EDIFFG">     -0.01000000</i>
   <i type="int" name="NFREE">     0</i>
   <i name="POTIM">      1.00000000</i>
   <i name="SMASS">     -3.00000000</i>
   <i name="SCALEE">      1.00000000</i>
  </separator>
  <separator name="ionic md" >
   <i name="TEBEG">      0.00010000</i>
   <i name="TEEND">      0.00010000</i>
   <i type="int" name="NBLOCK">     1</i>
   <i type="int" name="KBLOCK">     1</i>
   <i type="int" name="NPACO">   256</i>
   <i name="APACO">     16.00000000</i>
  </separator>
  <separator name="symmetry" >
   <i type="int" name="ISYM">     0</i>
   <i name="SYMPREC">      0.00001000</i>
  </separator>
  <separator name="dos" >
   <i type="int" name="LORBIT">     0</i>
   <v name="RWIGS">     -1.00000000     -1.00000000     -1.00000000</v>
   <i type="int" name="NEDOS">   301</i>
   <i name="EMIN">     10.00000000</i>
   <i name="EMAX">    -10.00000000</i>
   <i name="EFERMI">      0.00000000</i>
  </separator>
  <separator name="writing" >
   <i type="int" name="NWRITE">     2</i>
   <i type="logical" name="LWAVE"> F  </i>
   <i type="logical" name="LDOWNSAMPLE"> F  </i>
   <i type="logical" name="LCHARG"> F  </i>
   <i type="logical" name="LPARD"> F  </i>
   <i type="logical" name="LVTOT"> F  </i>
   <i type="logical" name="LVHAR"> F  </i>
   <i type="logical" name="LELF"> F  </i>
   <i type="logical" name="LOPTICS"> F  </i>
   <v name="STM">      0.00000000      0.00000000      0.00000000      0.00000000      0.00000000      0.00000000      0.00000000</v>
  </separator>
  <separator name="performance" >
   <i type="int" name="NPAR">     4</i>
   <i type="int" name="NSIM">     4</i>
   <i type="int" name="NBLK">    -1</i>
   <i type="logical" name="LPLANE"> T  </i>
   <i type="logical" name="LSCALAPACK"> F  </i>
   <i type="logical" name="LSCAAWARE"> F  </i>
   <i type="logical" name="LSCALU"> F  </i>
   <i type="logical" name="LASYNC"> F  </i>
   <i type="logical" name="LORBITALREAL"> F  </i>
  </separator>
  <separator name="miscellaneous" >
   <i type="int" name="IDIOT">     3</i>
   <i type="int" name="ISPECIAL">     0</i>
   <i type="logical" name="LMUSIC"> F  </i>
   <v name="POMASS">     40.07800000     28.08500000     16.00000000</v>
   <v name="DARWINR">      0.00000000      0.00000000      0.00000000</v>
   <v name="DARWINV">      1.00000000      1.00000000      1.00000000</v>
   <i type="logical" name="LCORR"> T  </i>
  </separator>
  <i type="logical" name="GGA_COMPAT"> T  </i>
  <i type="logical" name="LBERRY"> F  </i>
  <i type="int" name="ICORELEVEL">     0</i>
  <i type="logical" name="LDAU"> F  </i>
  <i type="int" name="I_CONSTRAINED_M">     0</i>
  <separator name="electronic exchange-correlation" >
   <i type="string" name="GGA">--</i>
   <i type="int" name="VOSKOWN">     0</i>
   <i type="logical" name="LHFCALC"> F  </i>
   <i type="string" name="PRECFOCK"></i>
   <i type="logical" name="LSYMGRAD"> F  </i>
   <i type="logical" name="LHFONE"> F  </i>
   <i type="logical" name="LRHFCALC"> F  </i>
   <i type="logical" name="LTHOMAS"> F  </i>
   <i type="logical" name="LMODELHF"> F  </i>
   <i name="ENCUT4O">     -1.00000000</i>
   <i type="int" name="EXXOEP">     0</i>
   <i type="int" name="FOURORBIT">     0</i>
   <i name="AEXX">      0.00000000</i>
   <i name="HFALPHA">      0.00000000</i>
   <i name="MCALPHA">      0.00000000</i>
   <i name="ALDAX">      1.00000000</i>
   <i name="AGGAX">      1.00000000</i>
   <i name="ALDAC">      1.00000000</i>
   <i name="AGGAC">      1.00000000</i>
   <i type="int" name="NKREDX">     1</i>
   <i type="int" name="NKREDY">     1</i>
   <i type="int" name="NKREDZ">     1</i>
   <i type="logical" name="SHIFTRED"> F  </i>
   <i type="logical" name="ODDONLY"> F  </i>
   <i type="logical" name="EVENONLY"> F  </i>
   <i type="int" name="LMAXFOCK">     0</i>
   <i type="int" name="NMAXFOCKAE">     0</i>
   <i type="logical" name="LFOCKAEDFT"> F  </i>
   <i name="HFSCREEN">      0.00000000</i>
   <i name="HFSCREENC">      0.00000000</i>
   <i type="int" name="NBANDSGWLOW">     0</i>
  </separator>
  <separator name="vdW DFT" >
   <i type="logical" name="LUSE_VDW"> F  </i>
   <i name="Zab_VDW">     -0.84910000</i>
   <i name="PARAM1">      0.12340000</i>
   <i name="PARAM2">      1.00000000</i>
   <i name="PARAM3">      0.00000000</i>
  </separator>
  <separator name="model GW" >
   <i type="int" name="MODEL_GW">     0</i>
   <i name="MODEL_EPS0">      9.60847956</i>
   <i name="MODEL_ALPHA">      1.00000000</i>
  </separator>
  <separator name="linear response parameters" >
   <i type="logical" name="LEPSILON"> F  </i>
   <i type="logical" name="LRPA"> F  </i>
   <i type="logical" name="LNABLA"> F  </i>
   <i type="logical" name="LVEL"> F  </i>
   <i type="int" name="KINTER">     0</i>
   <i name="CSHIFT">      0.10000000</i>
   <i name="OMEGAMAX">     -1.00000000</i>
   <i name="DEG_THRESHOLD">      0.00200000</i>
   <i name="RTIME">     -0.10000000</i>
   <i name="WPLASMAI">      0.00000000</i>
   <v name="DFIELD">      0.00000000      0.00000000      0.00000000</v>
   <v name="WPLASMA">      0.00000000      0.00000000      0.00000000      0.00000000      0.00000000      0.00000000      0.00000000      0.00000000      0.00000000</v>
  </separator>
  <separator name="orbital magnetization" >
   <i type="logical" name="NUCIND"> F  </i>
   <v name="MAGPOS">      0.00000000      0.00000000      0.00000000</v>
   <i type="logical" name="LNICSALL"> T  </i>
   <i type="logical" name="ORBITALMAG"> F  </i>
   <i type="logical" name="LMAGBLOCH"> F  </i>
   <i type="logical" name="LCHIMAG"> F  </i>
   <i type="logical" name="LGAUGE"> T  </i>
   <i type="int" name="MAGATOM">     0</i>
   <v name="MAGDIPOL">      0.00000000      0.00000000      0.00000000</v>
   <v name="AVECCONST">      0.00000000      0.00000000      0.00000000</v>
  </separator>
  <separator name="response functions" >
   <i type="logical" name="LADDER"> F  </i>
   <i type="logical" name="LRPAFORCE"> F  </i>
   <i type="logical" name="LFXC"> F  </i>
   <i type="logical" name="LHARTREE"> T  </i>
   <i type="int" name="IBSE">     0</i>
   <v type="int" name="KPOINT">    -1     0     0     0</v>
   <i type="logical" name="LTCTE"> F  </i>
   <i type="logical" name="LTETE"> F  </i>
   <i type="logical" name="LTRIPLET"> F  </i>
   <i type="logical" name="LFXCEPS"> F  </i>
   <i type="logical" name="LFXHEG"> F  </i>
   <i type="int" name="NATURALO">     2</i>
   <i type="logical" name="L2ORDER"> F  </i>
   <i type="logical" name="LMP2LT"> F  </i>
   <i type="logical" name="LUSEW"> F  </i>
   <i name="ENCUTGW">     -2.00000000</i>
   <i name="ENCUTGWSOFT">     -2.00000000</i>
   <i name="ENCUTLF">     -1.00000000</i>
   <i type="int" name="LMAXMP2">    -1</i>
   <i name="SCISSOR">      0.00000000</i>
   <i type="int" name="NOMEGA">     0</i>
   <i type="int" name="NOMEGAR">     0</i>
   <i type="int" name="NBANDSGW">    -1</i>
   <i type="int" name="NBANDSO">    -1</i>
   <i type="int" name="NBANDSV">    -1</i>
   <i type="int" name="NELM">     1</i>
   <i type="int" name="NELMHF">     1</i>
   <i type="int" name="DIM">     3</i>
   <i type="int" name="ANTIRES">     0</i>
   <i name="OMEGAMAX">    -30.00000000</i>
   <i name="OMEGAMIN">    -30.00000000</i>
   <i name="OMEGATL">   -200.00000000</i>
   <i type="int" name="OMEGAGRID">   140</i>
   <i name="CSHIFT">     -0.10000000</i>
   <i type="logical" name="SELFENERGY"> F  </i>
   <i type="logical" name="LSPECTRAL"> F  </i>
   <i type="logical" name="LSPECTRALGW"> F  </i>
   <i type="logical" name="LSINGLES"> F  </i>
   <i type="logical" name="LFERMIGW"> F  </i>
   <i type="logical" name="ODDONLYGW"> F  </i>
   <i type="logical" name="EVENONLYGW"> F  </i>
   <i type="int" name="NKREDLFX">     1</i>
   <i type="int" name="NKREDLFY">     1</i>
   <i type="int" name="NKREDLFZ">     1</i>
   <i type="int" name="MAXMEM">  2800</i>
   <i type="int" name="TELESCOPE">     0</i>
   <i type="int" name="TAUPAR">     1</i>
   <i type="int" name="OMEGAPAR">    -1</i>
   <i name="LAMBDA">      1.00000000</i>
  </separator>
  <separator name="External order field" >
   <i name="OFIELD_KAPPA">      0.00000000</i>
   <v name="OFIELD_K">      0.00000000      0.00000000      0.00000000</v>
   <i name="OFIELD_Q6_NEAR">      0.00000000</i>
   <i name="OFIELD_Q6_FAR">      0.00000000</i>
   <i name="OFIELD_A">      0.00000000</i>
  </separator>
 </parameters>
 <atominfo>
  <atoms>     135 </atoms>
  <types>       3 </types>
  <array name="atoms" >
   <dimension dim="1">ion</dimension>
   <field type="string">element</field>
   <field type="int">atomtype</field>
   <set>
    <rc><c>Ca</c><c>   1</c></rc>
    <rc><c>Ca</c><c>   1</c></rc>
    <rc><c>Ca</c><c>   1</c></rc>
    <rc><c>Ca</c><c>   1</c></rc>
    <rc><c>Ca</c><c>   1</c></rc>
    <rc><c>Ca</c><c>   1</c></rc>
    <rc><c>Ca</c><c>   1</c></rc>
    <rc><c>Ca</c><c>   1</c></rc>
    <rc><c>Ca</c><c>   1</c></rc>
    <rc><c>Ca</c><c>   1</c></rc>
    <rc><c>Ca</c><c>   1</c></rc>
    <rc><c>Ca</c><c>   1</c></rc>
    <rc><c>Ca</c><c>   1</c></rc>
    <rc><c>Ca</c><c>   1</c></rc>
    <rc><c>Ca</c><c>   1</c></rc>
    <rc><c>Ca</c><c>   1</c></rc>
    <rc><c>Ca</c><c>   1</c></rc>
    <rc><c>Ca</c><c>   1</c></rc>
    <rc><c>Ca</c><c>   1</c></rc>
    <rc><c>Ca</c><c>   1</c></rc>
    <rc><c>Ca</c><c>   1</c></rc>
    <rc><c>Ca</c><c>   1</c></rc>
    <rc><c>Ca</c><c>   1</c></rc>
    <rc><c>Ca</c><c>   1</c></rc>
    <rc><c>Ca</c><c>   1</c></rc>
    <rc><c>Ca</c><c>   1</c></rc>
    <rc><c>Ca</c><c>   1</c></rc>
    <rc><c>Si</c><c>   2</c></rc>
    <rc><c>Si</c><c>   2</c></rc>
    <rc><c>Si</c><c>   2</c></rc>
    <rc><c>Si</c><c>   2</c></rc>
    <rc><c>Si</c><c>   2</c></rc>
    <rc><c>Si</c><c>   2</c></rc>
    <rc><c>Si</c><c>   2</c></rc>
    <rc><c>Si</c><c>   2</c></rc>
    <rc><c>Si</c><c>   2</c></rc>
    <rc><c>Si</c><c>   2</c></rc>
    <rc><c>Si</c><c>   2</c></rc>
    <rc><c>Si</c><c>   2</c></rc>
    <rc><c>Si</c><c>   2</c></rc>
    <rc><c>Si</c><c>   2</c></rc>
    <rc><c>Si</c><c>   2</c></rc>
    <rc><c>Si</c><c>   2</c></rc>
    <rc><c>Si</c><c>   2</c></rc>
    <rc><c>Si</c><c>   2</c></rc>
    <rc><c>Si</c><c>   2</c></rc>
    <rc><c>Si</c><c>   2</c></rc>
    <rc><c>Si</c><c>   2</c></rc>
    <rc><c>Si</c><c>   2</c></rc>
    <rc><c>Si</c><c>   2</c></rc>
    <rc><c>Si</c><c>   2</c></rc>
    <rc><c>Si</c><c>   2</c></rc>
    <rc><c>Si</c><c>   2</c></rc>
    <rc><c>Si</c><c>   2</c></rc>
    <rc><c>O </c><c>   3</c></rc>
    <rc><c>O </c><c>   3</c></rc>
    <rc><c>O </c><c>   3</c></rc>
    <rc><c>O </c><c>   3</c></rc>
    <rc><c>O </c><c>   3</c></rc>
    <rc><c>O </c><c>   3</c></rc>
    <rc><c>O </c><c>   3</c></rc>
    <rc><c>O </c><c>   3</c></rc>
    <rc><c>O </c><c>   3</c></rc>
    <rc><c>O </c><c>   3</c></rc>
    <rc><c>O </c><c>   3</c></rc>
    <rc><c>O </c><c>   3</c></rc>
    <rc><c>O </c><c>   3</c></rc>
    <rc><c>O </c><c>   3</c></rc>
    <rc><c>O </c><c>   3</c></rc>
    <rc><c>O </c><c>   3</c></rc>
    <rc><c>O </c><c>   3</c></rc>
    <rc><c>O </c><c>   3</c></rc>
    <rc><c>O </c><c>   3</c></rc>
    <rc><c>O </c><c>   3</c></rc>
    <rc><c>O </c><c>   3</c></rc>
    <rc><c>O </c><c>   3</c></rc>
    <rc><c>O </c><c>   3</c></rc>
    <rc><c>O </c><c>   3</c></rc>
    <rc><c>O </c><c>   3</c></rc>
    <rc><c>O </c><c>   3</c></rc>
    <rc><c>O </c><c>   3</c></rc>
    <rc><c>O </c><c>   3</c></rc>
    <rc><c>O </c><c>   3</c></rc>
    <rc><c>O </c><c>   3</c></rc>
    <rc><c>O </c><c>   3</c></rc>
    <rc><c>O </c><c>   3</c></rc>
    <rc><c>O </c><c>   3</c></rc>
    <rc><c>O </c><c>   3</c></rc>
    <rc><c>O </c><c>   3</c></rc>
    <rc><c>O </c><c>   3</c></rc>
    <rc><c>O </c><c>   3</c></rc>
    <rc><c>O </c><c>   3</c></rc>
    <rc><c>O </c><c>   3</c></rc>
    <rc><c>O </c><c>   3</c></rc>
    <rc><c>O </c><c>   3</c></rc>
    <rc><c>O </c><c>   3</c></rc>
    <rc><c>O </c><c>   3</c></rc>
    <rc><c>O </c><c>   3</c></rc>
    <rc><c>O </c><c>   3</c></rc>
    <rc><c>O </c><c>   3</c></rc>
    <rc><c>O </c><c>   3</c></rc>
    <rc><c>O </c><c>   3</c></rc>
    <rc><c>O </c><c>   3</c></rc>
    <rc><c>O </c><c>   3</c></rc>
    <rc><c>O </c><c>   3</c></rc>
    <rc><c>O </c><c>   3</c></rc>
    <rc><c>O </c><c>   3</c></rc>
    <rc><c>O </c><c>   3</c></rc>
    <rc><c>O </c><c>   3</c></rc>
    <rc><c>O </c><c>   3</c></rc>
    <rc><c>O </c><c>   3</c></rc>
    <rc><c>O </c><c>   3</c></rc>
    <rc><c>O </c><c>   3</c></rc>
    <rc><c>O </c><c>   3</c></rc>
    <rc><c>O </c><c>   3</c></rc>
    <rc><c>O </c><c>   3</c></rc>
    <rc><c>O </c><c>   3</c></rc>
    <rc><c>O </c><c>   3</c></rc>
    <rc><c>O </c><c>   3</c></rc>
    <rc><c>O </c><c>   3</c></rc>
    <rc><c>O </c><c>   3</c></rc>
    <rc><c>O </c><c>   3</c></rc>
    <rc><c>O </c><c>   3</c></rc>
    <rc><c>O </c><c>   3</c></rc>
    <rc><c>O </c><c>   3</c></rc>
    <rc><c>O </c><c>   3</c></rc>
    <rc><c>O </c><c>   3</c></rc>
    <rc><c>O </c><c>   3</c></rc>
    <rc><c>O </c><c>   3</c></rc>
    <rc><c>O </c><c>   3</c></rc>
    <rc><c>O </c><c>   3</c></rc>
    <rc><c>O </c><c>   3</c></rc>
    <rc><c>O </c><c>   3</c></rc>
    <rc><c>O </c><c>   3</c></rc>
    <rc><c>O </c><c>   3</c></rc>
   </set>
  </array>
  <array name="atomtypes" >
   <dimension dim="1">type</dimension>
   <field type="int">atomspertype</field>
   <field type="string">element</field>
   <field>mass</field>
   <field>valence</field>
   <field type="string">pseudopotential</field>
   <set>
    <rc><c>  27</c><c>Ca</c><c>     40.07800000</c><c>     10.00000000</c><c>  PAW_PBE Ca_sv 06Sep2000               </c></rc>
    <rc><c>  27</c><c>Si</c><c>     28.08500000</c><c>      4.00000000</c><c>  PAW_PBE Si 05Jan2001                  </c></rc>
    <rc><c>  81</c><c>O </c><c>     16.00000000</c><c>      6.00000000</c><c>  PAW_PBE O 08Apr2002                   </c></rc>
   </set>
  </array>
 </atominfo>
 <structure name="initialpos" >
  <crystal>
   <varray name="basis" >
    <v>      12.93041299       0.00000000       0.00000000 </v>
    <v>       0.00000000      12.93041299       0.00000000 </v>
    <v>       0.00000000       0.00000000      12.93041299 </v>
   </varray>
   <i name="volume">   2161.90790069 </i>
   <varray name="rec_basis" >
    <v>       0.07733705       0.00000000       0.00000000 </v>
    <v>       0.00000000       0.07733705       0.00000000 </v>
    <v>       0.00000000       0.00000000       0.07733705 </v>
   </varray>
  </crystal>
  <varray name="positions" >
   <v>       0.11637523       0.71919862       0.11920874 </v>
   <v>       0.54945403       0.51772884       0.75730194 </v>
   <v>       0.34054409       0.47821456       0.06445932 </v>
   <v>       0.11119472       0.82884211       0.78933753 </v>
   <v>       0.57057197       0.34518468       0.22381580 </v>
   <v>       0.33021515       0.54136922       0.37590857 </v>
   <v>       0.86512227       0.03356059       0.48199036 </v>
   <v>       0.90173189       0.68746478       0.91496000 </v>
   <v>       0.03624886       0.46929793       0.96848719 </v>
   <v>       0.39511338       0.88596036       0.49499658 </v>
   <v>       0.12172603       0.40564759       0.64822046 </v>
   <v>       0.80893583       0.17069070       0.69417053 </v>
   <v>       0.42855292       0.79416759       0.89220411 </v>
   <v>       0.65923087       0.57637392       0.33650972 </v>
   <v>       0.74551760       0.50974135       0.97858668 </v>
   <v>       0.29081243       0.44025846       0.80743280 </v>
   <v>       0.88252089       0.47956777       0.59357058 </v>
   <v>       0.59419756       0.02417744       0.98756726 </v>
   <v>       0.33044140       0.23244646       0.08346530 </v>
   <v>       0.91315815       0.82911067       0.25590302 </v>
   <v>       0.43780451       0.13298805       0.53882304 </v>
   <v>       0.95337324       0.11360262       0.87738186 </v>
   <v>       0.32665209       0.83346241       0.12974501 </v>
   <v>       0.27748498       0.10839656       0.84442006 </v>
   <v>       0.69468927       0.28509875       0.43778756 </v>
   <v>       0.73809198       0.11680287       0.16237686 </v>
   <v>       0.00255951       0.13513174       0.15532614 </v>
   <v>       0.49935380       0.01128748       0.76774322 </v>
   <v>       0.60947647       0.88004228       0.33246641 </v>
   <v>       0.58719577       0.49788394       0.50105413 </v>
   <v>       0.08980035       0.99387648       0.32379390 </v>
   <v>       0.14967548       0.92200781       0.52915604 </v>
   <v>       0.89102790       0.38632743       0.33446767 </v>
   <v>       0.90751041       0.38608654       0.79600939 </v>
   <v>       0.88689325       0.96623308       0.98339165 </v>
   <v>       0.33666465       0.63404088       0.66311390 </v>
   <v>       0.68667237       0.21907638       0.88792447 </v>
   <v>       0.72914116       0.76095032       0.14838544 </v>
   <v>       0.49453839       0.71970686       0.21255533 </v>
   <v>       0.50950265       0.78327776       0.69306001 </v>
   <v>       0.88538473       0.92899492       0.71082540 </v>
   <v>       0.88835772       0.59600275       0.19268153 </v>
   <v>       0.22228065       0.17873974       0.37959650 </v>
   <v>       0.16440732       0.99205682       0.98671333 </v>
   <v>       0.80577807       0.80436543       0.49638107 </v>
   <v>       0.52984601       0.35995356       0.92312018 </v>
   <v>       0.61512803       0.11286099       0.36821457 </v>
   <v>       0.66932310       0.67431031       0.60353392 </v>
   <v>       0.20329939       0.15865685       0.60739021 </v>
   <v>       0.10193487       0.36911799       0.26147894 </v>
   <v>       0.32224956       0.35217319       0.29390337 </v>
   <v>       0.23149484       0.70688933       0.91726537 </v>
   <v>       0.39985327       0.01320000       0.17685615 </v>
   <v>       0.24234637       0.71890766       0.44558146 </v>
   <v>       0.30021079       0.64552634       0.82010634 </v>
   <v>       0.70959938       0.27485626       0.00098417 </v>
   <v>       0.46749874       0.75736717       0.10401795 </v>
   <v>       0.45835107       0.98743642       0.89074934 </v>
   <v>       0.52591742       0.08420353       0.66840257 </v>
   <v>       0.92738049       0.80120605       0.44259794 </v>
   <v>       0.11237077       0.85338870       0.62565838 </v>
   <v>       0.69434953       0.58121385       0.69491226 </v>
   <v>       0.43273900       0.36840304       0.29400856 </v>
   <v>       0.32395806       0.21203956       0.60437631 </v>
   <v>       0.82765513       0.34088634       0.71248284 </v>
   <v>       0.38615002       0.72776898       0.43334316 </v>
   <v>       0.77085561       0.92067639       0.59169773 </v>
   <v>       0.62396153       0.31598127       0.85201015 </v>
   <v>       0.71702525       0.04569468       0.34310130 </v>
   <v>       0.80794646       0.30804722       0.29288023 </v>
   <v>       0.47287278       0.50996510       0.50969829 </v>
   <v>       0.11669830       0.65791732       0.92690474 </v>
   <v>       0.68687277       0.42962079       0.56336022 </v>
   <v>       0.68534167       0.86111151       0.20007648 </v>
   <v>       0.92498197       0.04060884       0.66693038 </v>
   <v>       0.14764096       0.26182202       0.32769911 </v>
   <v>       0.46908926       0.35582085       0.82021409 </v>
   <v>       0.29723302       0.37395944       0.17048010 </v>
   <v>       0.24551476       0.97077779       0.58538565 </v>
   <v>       0.99838151       0.45525772       0.73629663 </v>
   <v>       0.99572818       0.44175915       0.30508165 </v>
   <v>       0.62779452       0.79515177       0.60640790 </v>
   <v>       0.64836672       0.65860133       0.20079257 </v>
   <v>       0.16746561       0.00797892       0.85308699 </v>
   <v>       0.46871105       0.13274498       0.80187060 </v>
   <v>       0.20053261       0.66390702       0.35132431 </v>
   <v>       0.40962925       0.54523070       0.64891453 </v>
   <v>       0.17353420       0.17579376       0.50620004 </v>
   <v>       0.62892308       0.18146704       0.27162938 </v>
   <v>       0.43021114       0.61166798       0.21834487 </v>
   <v>       0.57443610       0.98683893       0.40897627 </v>
   <v>       0.00754429       0.66237865       0.21153551 </v>
   <v>       0.16846666       0.07908737       0.30273891 </v>
   <v>       0.81333357       0.68682833       0.55096813 </v>
   <v>       0.27027027       0.81709515       0.88854095 </v>
   <v>       0.71380343       0.81743854       0.39988834 </v>
   <v>       0.59552903       0.42821665       0.38089114 </v>
   <v>       0.92869676       0.81765459       0.69361315 </v>
   <v>       0.84844459       0.53385170       0.30708884 </v>
   <v>       0.75476842       0.14545656       0.53623067 </v>
   <v>       0.24777561       0.60525207       0.57981021 </v>
   <v>       0.89806662       0.86093857       0.03959913 </v>
   <v>       0.55072271       0.73114229       0.80103003 </v>
   <v>       0.47732055       0.32445092       0.04207252 </v>
   <v>       0.22663206       0.84228075       0.46368512 </v>
   <v>       0.24796103       0.33429212       0.95375742 </v>
   <v>       0.14682211       0.88537253       0.28611138 </v>
   <v>       0.13697571       0.22683896       0.67743603 </v>
   <v>       0.34453373       0.98447598       0.06771221 </v>
   <v>       0.81202341       0.71357522       0.21345805 </v>
   <v>       0.36843444       0.77509316       0.64063862 </v>
   <v>       0.95115610       0.01730022       0.29081946 </v>
   <v>       0.87542458       0.50023799       0.90286924 </v>
   <v>       0.62421709       0.63180032       0.49683175 </v>
   <v>       0.90877095       0.96705813       0.84595090 </v>
   <v>       0.76416814       0.15049918       0.83198858 </v>
   <v>       0.52359037       0.80300580       0.30382915 </v>
   <v>       0.50205236       0.11121279       0.13578845 </v>
   <v>       0.06899281       0.94773342       0.43871272 </v>
   <v>       0.77818474       0.73830818       0.02130743 </v>
   <v>       0.15283694       0.11062274       0.02257797 </v>
   <v>       0.07424450       0.36155692       0.11071069 </v>
   <v>       0.52656815       0.90943962       0.71078452 </v>
   <v>       0.55557897       0.47721055       0.91943801 </v>
   <v>       0.23055383       0.42100825       0.35083750 </v>
   <v>       0.93525824       0.38937983       0.48581413 </v>
   <v>       0.33936721       0.22209114       0.33397981 </v>
   <v>       0.92949526       0.07935016       0.02966538 </v>
   <v>       0.29563757       0.67381399       0.02611639 </v>
   <v>       0.55997461       0.19095222       0.44884401 </v>
   <v>       0.76218131       0.00678809       0.00204882 </v>
   <v>       0.90159493       0.52030068       0.08598474 </v>
   <v>       0.94948560       0.30874823       0.90124110 </v>
   <v>       0.39441779       0.96571103       0.28872928 </v>
   <v>       0.17977959       0.89326841       0.04245086 </v>
  </varray>
  <varray name="velocities" >
   <v>       0.00000000       0.00000000       0.00000000 </v>
   <v>       0.00000000       0.00000000       0.00000000 </v>
   <v>       0.00000000       0.00000000       0.00000000 </v>
   <v>       0.00000000       0.00000000       0.00000000 </v>
   <v>       0.00000000       0.00000000       0.00000000 </v>
   <v>       0.00000000       0.00000000       0.00000000 </v>
   <v>       0.00000000       0.00000000       0.00000000 </v>
   <v>       0.00000000       0.00000000       0.00000000 </v>
   <v>       0.00000000       0.00000000       0.00000000 </v>
   <v>       0.00000000       0.00000000       0.00000000 </v>
   <v>       0.00000000       0.00000000       0.00000000 </v>
   <v>       0.00000000       0.00000000       0.00000000 </v>
   <v>       0.00000000       0.00000000       0.00000000 </v>
   <v>       0.00000000       0.00000000       0.00000000 </v>
   <v>       0.00000000       0.00000000       0.00000000 </v>
   <v>       0.00000000       0.00000000       0.00000000 </v>
   <v>       0.00000000       0.00000000       0.00000000 </v>
   <v>       0.00000000       0.00000000       0.00000000 </v>
   <v>       0.00000000       0.00000000       0.00000000 </v>
   <v>       0.00000000       0.00000000       0.00000000 </v>
   <v>       0.00000000       0.00000000       0.00000000 </v>
   <v>       0.00000000       0.00000000       0.00000000 </v>
   <v>       0.00000000       0.00000000       0.00000000 </v>
   <v>       0.00000000       0.00000000       0.00000000 </v>
   <v>       0.00000000       0.00000000       0.00000000 </v>
   <v>       0.00000000       0.00000000       0.00000000 </v>
   <v>       0.00000000       0.00000000       0.00000000 </v>
   <v>       0.00000000       0.00000000       0.00000000 </v>
   <v>       0.00000000       0.00000000       0.00000000 </v>
   <v>       0.00000000       0.00000000       0.00000000 </v>
   <v>       0.00000000       0.00000000       0.00000000 </v>
   <v>       0.00000000       0.00000000       0.00000000 </v>
   <v>       0.00000000       0.00000000       0.00000000 </v>
   <v>       0.00000000       0.00000000       0.00000000 </v>
   <v>       0.00000000       0.00000000       0.00000000 </v>
   <v>       0.00000000       0.00000000       0.00000000 </v>
   <v>       0.00000000       0.00000000       0.00000000 </v>
   <v>       0.00000000       0.00000000       0.00000000 </v>
   <v>       0.00000000       0.00000000       0.00000000 </v>
   <v>       0.00000000       0.00000000       0.00000000 </v>
   <v>       0.00000000       0.00000000       0.00000000 </v>
   <v>       0.00000000       0.00000000       0.00000000 </v>
   <v>       0.00000000       0.00000000       0.00000000 </v>
   <v>       0.00000000       0.00000000       0.00000000 </v>
   <v>       0.00000000       0.00000000       0.00000000 </v>
   <v>       0.00000000       0.00000000       0.00000000 </v>
   <v>       0.00000000       0.00000000       0.00000000 </v>
   <v>       0.00000000       0.00000000       0.00000000 </v>
   <v>       0.00000000       0.00000000       0.00000000 </v>
   <v>       0.00000000       0.00000000       0.00000000 </v>
   <v>       0.00000000       0.00000000       0.00000000 </v>
   <v>       0.00000000       0.00000000       0.00000000 </v>
   <v>       0.00000000       0.00000000       0.00000000 </v>
   <v>       0.00000000       0.00000000       0.00000000 </v>
   <v>       0.00000000       0.00000000       0.00000000 </v>
   <v>       0.00000000       0.00000000       0.00000000 </v>
   <v>       0.00000000       0.00000000       0.00000000 </v>
   <v>       0.00000000       0.00000000       0.00000000 </v>
   <v>       0.00000000       0.00000000       0.00000000 </v>
   <v>       0.00000000       0.00000000       0.00000000 </v>
   <v>       0.00000000       0.00000000       0.00000000 </v>
   <v>       0.00000000       0.00000000       0.00000000 </v>
   <v>       0.00000000       0.00000000       0.00000000 </v>
   <v>       0.00000000       0.00000000       0.00000000 </v>
   <v>       0.00000000       0.00000000       0.00000000 </v>
   <v>       0.00000000       0.00000000       0.00000000 </v>
   <v>       0.00000000       0.00000000       0.00000000 </v>
   <v>       0.00000000       0.00000000       0.00000000 </v>
   <v>       0.00000000       0.00000000       0.00000000 </v>
   <v>       0.00000000       0.00000000       0.00000000 </v>
   <v>       0.00000000       0.00000000       0.00000000 </v>
   <v>       0.00000000       0.00000000       0.00000000 </v>
   <v>       0.00000000       0.00000000       0.00000000 </v>
   <v>       0.00000000       0.00000000       0.00000000 </v>
   <v>       0.00000000       0.00000000       0.00000000 </v>
   <v>       0.00000000       0.00000000       0.00000000 </v>
   <v>       0.00000000       0.00000000       0.00000000 </v>
   <v>       0.00000000       0.00000000       0.00000000 </v>
   <v>       0.00000000       0.00000000       0.00000000 </v>
   <v>       0.00000000       0.00000000       0.00000000 </v>
   <v>       0.00000000       0.00000000       0.00000000 </v>
   <v>       0.00000000       0.00000000       0.00000000 </v>
   <v>       0.00000000       0.00000000       0.00000000 </v>
   <v>       0.00000000       0.00000000       0.00000000 </v>
   <v>       0.00000000       0.00000000       0.00000000 </v>
   <v>       0.00000000       0.00000000       0.00000000 </v>
   <v>       0.00000000       0.00000000       0.00000000 </v>
   <v>       0.00000000       0.00000000       0.00000000 </v>
   <v>       0.00000000       0.00000000       0.00000000 </v>
   <v>       0.00000000       0.00000000       0.00000000 </v>
   <v>       0.00000000       0.00000000       0.00000000 </v>
   <v>       0.00000000       0.00000000       0.00000000 </v>
   <v>       0.00000000       0.00000000       0.00000000 </v>
   <v>       0.00000000       0.00000000       0.00000000 </v>
   <v>       0.00000000       0.00000000       0.00000000 </v>
   <v>       0.00000000       0.00000000       0.00000000 </v>
   <v>       0.00000000       0.00000000       0.00000000 </v>
   <v>       0.00000000       0.00000000       0.00000000 </v>
   <v>       0.00000000       0.00000000       0.00000000 </v>
   <v>       0.00000000       0.00000000       0.00000000 </v>
   <v>       0.00000000       0.00000000       0.00000000 </v>
   <v>       0.00000000       0.00000000       0.00000000 </v>
   <v>       0.00000000       0.00000000       0.00000000 </v>
   <v>       0.00000000       0.00000000       0.00000000 </v>
   <v>       0.00000000       0.00000000       0.00000000 </v>
   <v>       0.00000000       0.00000000       0.00000000 </v>
   <v>       0.00000000       0.00000000       0.00000000 </v>
   <v>       0.00000000       0.00000000       0.00000000 </v>
   <v>       0.00000000       0.00000000       0.00000000 </v>
   <v>       0.00000000       0.00000000       0.00000000 </v>
   <v>       0.00000000       0.00000000       0.00000000 </v>
   <v>       0.00000000       0.00000000       0.00000000 </v>
   <v>       0.00000000       0.00000000       0.00000000 </v>
   <v>       0.00000000       0.00000000       0.00000000 </v>
   <v>       0.00000000       0.00000000       0.00000000 </v>
   <v>       0.00000000       0.00000000       0.00000000 </v>
   <v>       0.00000000       0.00000000       0.00000000 </v>
   <v>       0.00000000       0.00000000       0.00000000 </v>
   <v>       0.00000000       0.00000000       0.00000000 </v>
   <v>       0.00000000       0.00000000       0.00000000 </v>
   <v>       0.00000000       0.00000000       0.00000000 </v>
   <v>       0.00000000       0.00000000       0.00000000 </v>
   <v>       0.00000000       0.00000000       0.00000000 </v>
   <v>       0.00000000       0.00000000       0.00000000 </v>
   <v>       0.00000000       0.00000000       0.00000000 </v>
   <v>       0.00000000       0.00000000       0.00000000 </v>
   <v>       0.00000000       0.00000000       0.00000000 </v>
   <v>       0.00000000       0.00000000       0.00000000 </v>
   <v>       0.00000000       0.00000000       0.00000000 </v>
   <v>       0.00000000       0.00000000       0.00000000 </v>
   <v>       0.00000000       0.00000000       0.00000000 </v>
   <v>       0.00000000       0.00000000       0.00000000 </v>
   <v>       0.00000000       0.00000000       0.00000000 </v>
   <v>       0.00000000       0.00000000       0.00000000 </v>
   <v>       0.00000000       0.00000000       0.00000000 </v>
  </varray>
 </structure>
 <calculation>
  <scstep>
   <time name="dav">   47.72   47.72</time>
   <time name="total">   48.32   48.34</time>
   <energy>
    <i name="alphaZ">   2210.34415451 </i>
    <i name="ewald"> -39477.86835502 </i>
    <i name="hartreedc"> -21962.19748032 </i>
    <i name="XCdc">   3138.36146469 </i>
    <i name="pawpsdc">  50594.51003143 </i>
    <i name="pawaedc"> -49994.65612350 </i>
    <i name="eentropy">     -0.03845518 </i>
    <i name="bandstr">   -131.89675889 </i>
    <i name="atom">  64968.54023382 </i>
    <i name="e_fr_energy">   9345.09871154 </i>
    <i name="e_wo_entrp">   9345.13716672 </i>
    <i name="e_0_energy">   9345.11793913 </i>
   </energy>
  </scstep>
  <scstep>
   <time name="dav">   55.54   55.56</time>
   <time name="total">   55.54   55.56</time>
   <energy>
    <i name="e_fr_energy">     37.79276462 </i>
    <i name="e_wo_entrp">     37.79276462 </i>
    <i name="e_0_energy">     37.79276462 </i>
   </energy>
  </scstep>
  <scstep>
   <time name="dav">   55.99   56.00</time>
   <time name="total">   56.00   56.00</time>
   <energy>
    <i name="e_fr_energy">   -996.47534141 </i>
    <i name="e_wo_entrp">   -996.47534141 </i>
    <i name="e_0_energy">   -996.47534141 </i>
   </energy>
  </scstep>
  <scstep>
   <time name="dav">   60.47   60.48</time>
   <time name="total">   60.47   60.48</time>
   <energy>
    <i name="e_fr_energy">  -1048.55180379 </i>
    <i name="e_wo_entrp">  -1048.55180379 </i>
    <i name="e_0_energy">  -1048.55180379 </i>
   </energy>
  </scstep>
  <scstep>
   <time name="dav">   75.91   75.92</time>
   <time name="total">   78.08   78.09</time>
   <energy>
    <i name="e_fr_energy">  -1054.72948219 </i>
    <i name="e_wo_entrp">  -1054.72948219 </i>
    <i name="e_0_energy">  -1054.72948219 </i>
   </energy>
  </scstep>
  <scstep>
   <time name="dav">   55.69   55.69</time>
   <time name="total">   58.50   58.52</time>
   <energy>
    <i name="e_fr_energy">   -890.38277869 </i>
    <i name="e_wo_entrp">   -890.38218955 </i>
    <i name="e_0_energy">   -890.38248412 </i>
   </energy>
  </scstep>
  <scstep>
   <time name="dav">   56.87   56.87</time>
   <time name="total">   59.60   59.61</time>
   <energy>
    <i name="e_fr_energy">   -889.94962274 </i>
    <i name="e_wo_entrp">   -889.94962274 </i>
    <i name="e_0_energy">   -889.94962274 </i>
   </energy>
  </scstep>
  <scstep>
   <time name="dav">   66.88   66.88</time>
   <time name="total">   69.74   69.76</time>
   <energy>
    <i name="e_fr_energy">   -887.94673631 </i>
    <i name="e_wo_entrp">   -887.93489148 </i>
    <i name="e_0_energy">   -887.94081390 </i>
   </energy>
  </scstep>
  <scstep>
   <time name="dav">   59.89   59.89</time>
   <time name="total">   62.69   62.70</time>
   <energy>
    <i name="e_fr_energy">   -886.05221504 </i>
    <i name="e_wo_entrp">   -886.05221041 </i>
    <i name="e_0_energy">   -886.05221273 </i>
   </energy>
  </scstep>
  <scstep>
   <time name="dav">   58.21   58.22</time>
   <time name="total">   61.02   61.03</time>
   <energy>
    <i name="e_fr_energy">   -885.80157798 </i>
    <i name="e_wo_entrp">   -885.80066604 </i>
    <i name="e_0_energy">   -885.80112201 </i>
   </energy>
  </scstep>
  <scstep>
   <time name="dav">   60.02   60.02</time>
   <time name="total">   62.81   62.82</time>
   <energy>
    <i name="e_fr_energy">   -885.43901092 </i>
    <i name="e_wo_entrp">   -885.42592163 </i>
    <i name="e_0_energy">   -885.43246628 </i>
   </energy>
  </scstep>
  <scstep>
   <time name="dav">   57.25   57.25</time>
   <time name="total">   60.08   60.09</time>
   <energy>
    <i name="e_fr_energy">   -885.50438506 </i>
    <i name="e_wo_entrp">   -885.47643931 </i>
    <i name="e_0_energy">   -885.49041219 </i>
   </energy>
  </scstep>
  <scstep>
   <time name="dav">   59.84   59.84</time>
   <time name="total">   62.61   62.63</time>
   <energy>
    <i name="e_fr_energy">   -885.48981475 </i>
    <i name="e_wo_entrp">   -885.47521149 </i>
    <i name="e_0_energy">   -885.48251312 </i>
   </energy>
  </scstep>
  <scstep>
   <time name="dav">   55.20   55.20</time>
   <time name="total">   57.98   57.99</time>
   <energy>
    <i name="e_fr_energy">   -885.48211803 </i>
    <i name="e_wo_entrp">   -885.45220990 </i>
    <i name="e_0_energy">   -885.46716397 </i>
   </energy>
  </scstep>
  <scstep>
   <time name="dav">   54.82   54.82</time>
   <time name="total">   57.55   57.56</time>
   <energy>
    <i name="e_fr_energy">   -885.49090493 </i>
    <i name="e_wo_entrp">   -885.46743544 </i>
    <i name="e_0_energy">   -885.47917019 </i>
   </energy>
  </scstep>
  <scstep>
   <time name="dav">   59.16   59.17</time>
   <time name="total">   61.97   61.98</time>
   <energy>
    <i name="e_fr_energy">   -885.49011526 </i>
    <i name="e_wo_entrp">   -885.46127937 </i>
    <i name="e_0_energy">   -885.47569732 </i>
   </energy>
  </scstep>
  <scstep>
   <time name="dav">   56.55   56.55</time>
   <time name="total">   59.37   59.39</time>
   <energy>
    <i name="e_fr_energy">   -885.49132018 </i>
    <i name="e_wo_entrp">   -885.46704196 </i>
    <i name="e_0_energy">   -885.47918107 </i>
   </energy>
  </scstep>
  <scstep>
   <time name="dav">   56.83   56.83</time>
   <time name="total">   59.62   59.62</time>
   <energy>
    <i name="e_fr_energy">   -885.49125366 </i>
    <i name="e_wo_entrp">   -885.46574506 </i>
    <i name="e_0_energy">   -885.47849936 </i>
   </energy>
  </scstep>
  <scstep>
   <time name="dav">   61.73   61.73</time>
   <time name="total">   64.51   64.52</time>
   <energy>
    <i name="e_fr_energy">   -885.49086350 </i>
    <i name="e_wo_entrp">   -885.46388805 </i>
    <i name="e_0_energy">   -885.47737577 </i>
   </energy>
  </scstep>
  <scstep>
   <time name="dav">   53.31   53.32</time>
   <time name="total">   56.06   56.09</time>
   <energy>
    <i name="e_fr_energy">   -885.49101446 </i>
    <i name="e_wo_entrp">   -885.46410181 </i>
    <i name="e_0_energy">   -885.47755814 </i>
   </energy>
  </scstep>
  <scstep>
   <time name="dav">   54.08   54.09</time>
   <time name="total">   56.87   56.88</time>
   <energy>
    <i name="e_fr_energy">   -885.49104169 </i>
    <i name="e_wo_entrp">   -885.46417022 </i>
    <i name="e_0_energy">   -885.47760595 </i>
   </energy>
  </scstep>
  <scstep>
   <time name="dav">   55.41   55.41</time>
   <time name="total">   58.20   58.21</time>
   <energy>
    <i name="e_fr_energy">   -885.49104923 </i>
    <i name="e_wo_entrp">   -885.46408031 </i>
    <i name="e_0_energy">   -885.47756477 </i>
   </energy>
  </scstep>
  <scstep>
   <time name="dav">   48.75   48.75</time>
   <time name="total">   51.54   51.55</time>
   <energy>
    <i name="e_fr_energy">   -885.49105104 </i>
    <i name="e_wo_entrp">   -885.46413121 </i>
    <i name="e_0_energy">   -885.47759113 </i>
   </energy>
  </scstep>
  <scstep>
   <time name="dav">   40.23   40.23</time>
   <time name="total">   40.80   40.82</time>
   <energy>
    <i name="alphaZ">   2210.34415451 </i>
    <i name="ewald"> -39477.86835502 </i>
    <i name="hartreedc"> -23765.58279116 </i>
    <i name="XCdc">   3244.03108009 </i>
    <i name="pawpsdc">  90919.39092885 </i>
    <i name="pawaedc"> -90576.84068752 </i>
    <i name="eentropy">     -0.02690949 </i>
    <i name="bandstr">  -8407.47870545 </i>
    <i name="atom">  64968.54023382 </i>
    <i name="e_fr_energy">   -885.49105137 </i>
    <i name="e_wo_entrp">   -885.46414188 </i>
    <i name="e_0_energy">   -885.47759662 </i>
   </energy>
  </scstep>
  <structure>
   <crystal>
    <varray name="basis" >
     <v>      12.93041299       0.00000000       0.00000000 </v>
     <v>       0.00000000      12.93041299       0.00000000 </v>
     <v>       0.00000000       0.00000000      12.93041299 </v>
    </varray>
    <i name="volume">   2161.90790069 </i>
    <varray name="rec_basis" >
     <v>       0.07733705       0.00000000       0.00000000 </v>
     <v>       0.00000000       0.07733705       0.00000000 </v>
     <v>       0.00000000       0.00000000       0.07733705 </v>
    </varray>
   </crystal>
   <varray name="positions" >
    <v>       0.11637523       0.71919862       0.11920874 </v>
    <v>       0.54945403       0.51772884       0.75730194 </v>
    <v>       0.34054409       0.47821456       0.06445932 </v>
    <v>       0.11119472       0.82884211       0.78933753 </v>
    <v>       0.57057197       0.34518468       0.22381580 </v>
    <v>       0.33021515       0.54136922       0.37590857 </v>
    <v>       0.86512227       0.03356059       0.48199036 </v>
    <v>       0.90173189       0.68746478       0.91496000 </v>
    <v>       0.03624886       0.46929793       0.96848719 </v>
    <v>       0.39511338       0.88596036       0.49499658 </v>
    <v>       0.12172603       0.40564759       0.64822046 </v>
    <v>       0.80893583       0.17069070       0.69417053 </v>
    <v>       0.42855292       0.79416759       0.89220411 </v>
    <v>       0.65923087       0.57637392       0.33650972 </v>
    <v>       0.74551760       0.50974135       0.97858668 </v>
    <v>       0.29081243       0.44025846       0.80743280 </v>
    <v>       0.88252089       0.47956777       0.59357058 </v>
    <v>       0.59419756       0.02417744       0.98756726 </v>
    <v>       0.33044140       0.23244646       0.08346530 </v>
    <v>       0.91315815       0.82911067       0.25590302 </v>
    <v>       0.43780451       0.13298805       0.53882304 </v>
    <v>       0.95337324       0.11360262       0.87738186 </v>
    <v>       0.32665209       0.83346241       0.12974501 </v>
    <v>       0.27748498       0.10839656       0.84442006 </v>
    <v>       0.69468927       0.28509875       0.43778756 </v>
    <v>       0.73809198       0.11680287       0.16237686 </v>
    <v>       0.00255951       0.13513174       0.15532614 </v>
    <v>       0.49935380       0.01128748       0.76774322 </v>
    <v>       0.60947647       0.88004228       0.33246641 </v>
    <v>       0.58719577       0.49788394       0.50105413 </v>
    <v>       0.08980035       0.99387648       0.32379390 </v>
    <v>       0.14967548       0.92200781       0.52915604 </v>
    <v>       0.89102790       0.38632743       0.33446767 </v>
    <v>       0.90751041       0.38608654       0.79600939 </v>
    <v>       0.88689325       0.96623308       0.98339165 </v>
    <v>       0.33666465       0.63404088       0.66311390 </v>
    <v>       0.68667237       0.21907638       0.88792447 </v>
    <v>       0.72914116       0.76095032       0.14838544 </v>
    <v>       0.49453839       0.71970686       0.21255533 </v>
    <v>       0.50950265       0.78327776       0.69306001 </v>
    <v>       0.88538473       0.92899492       0.71082540 </v>
    <v>       0.88835772       0.59600275       0.19268153 </v>
    <v>       0.22228065       0.17873974       0.37959650 </v>
    <v>       0.16440732       0.99205682       0.98671333 </v>
    <v>       0.80577807       0.80436543       0.49638107 </v>
    <v>       0.52984601       0.35995356       0.92312018 </v>
    <v>       0.61512803       0.11286099       0.36821457 </v>
    <v>       0.66932310       0.67431031       0.60353392 </v>
    <v>       0.20329939       0.15865685       0.60739021 </v>
    <v>       0.10193487       0.36911799       0.26147894 </v>
    <v>       0.32224956       0.35217319       0.29390337 </v>
    <v>       0.23149484       0.70688933       0.91726537 </v>
    <v>       0.39985327       0.01320000       0.17685615 </v>
    <v>       0.24234637       0.71890766       0.44558146 </v>
    <v>       0.30021079       0.64552634       0.82010634 </v>
    <v>       0.70959938       0.27485626       0.00098417 </v>
    <v>       0.46749874       0.75736717       0.10401795 </v>
    <v>       0.45835107       0.98743642       0.89074934 </v>
    <v>       0.52591742       0.08420353       0.66840257 </v>
    <v>       0.92738049       0.80120605       0.44259794 </v>
    <v>       0.11237077       0.85338870       0.62565838 </v>
    <v>       0.69434953       0.58121385       0.69491226 </v>
    <v>       0.43273900       0.36840304       0.29400856 </v>
    <v>       0.32395806       0.21203956       0.60437631 </v>
    <v>       0.82765513       0.34088634       0.71248284 </v>
    <v>       0.38615002       0.72776898       0.43334316 </v>
    <v>       0.77085561       0.92067639       0.59169773 </v>
    <v>       0.62396153       0.31598127       0.85201015 </v>
    <v>       0.71702525       0.04569468       0.34310130 </v>
    <v>       0.80794646       0.30804722       0.29288023 </v>
    <v>       0.47287278       0.50996510       0.50969829 </v>
    <v>       0.11669830       0.65791732       0.92690474 </v>
    <v>       0.68687277       0.42962079       0.56336022 </v>
    <v>       0.68534167       0.86111151       0.20007648 </v>
    <v>       0.92498197       0.04060884       0.66693038 </v>
    <v>       0.14764096       0.26182202       0.32769911 </v>
    <v>       0.46908926       0.35582085       0.82021409 </v>
    <v>       0.29723302       0.37395944       0.17048010 </v>
    <v>       0.24551476       0.97077779       0.58538565 </v>
    <v>       0.99838151       0.45525772       0.73629663 </v>
    <v>       0.99572818       0.44175915       0.30508165 </v>
    <v>       0.62779452       0.79515177       0.60640790 </v>
    <v>       0.64836672       0.65860133       0.20079257 </v>
    <v>       0.16746561       0.00797892       0.85308699 </v>
    <v>       0.46871105       0.13274498       0.80187060 </v>
    <v>       0.20053261       0.66390702       0.35132431 </v>
    <v>       0.40962925       0.54523070       0.64891453 </v>
    <v>       0.17353420       0.17579376       0.50620004 </v>
    <v>       0.62892308       0.18146704       0.27162938 </v>
    <v>       0.43021114       0.61166798       0.21834487 </v>
    <v>       0.57443610       0.98683893       0.40897627 </v>
    <v>       0.00754429       0.66237865       0.21153551 </v>
    <v>       0.16846666       0.07908737       0.30273891 </v>
    <v>       0.81333357       0.68682833       0.55096813 </v>
    <v>       0.27027027       0.81709515       0.88854095 </v>
    <v>       0.71380343       0.81743854       0.39988834 </v>
    <v>       0.59552903       0.42821665       0.38089114 </v>
    <v>       0.92869676       0.81765459       0.69361315 </v>
    <v>       0.84844459       0.53385170       0.30708884 </v>
    <v>       0.75476842       0.14545656       0.53623067 </v>
    <v>       0.24777561       0.60525207       0.57981021 </v>
    <v>       0.89806662       0.86093857       0.03959913 </v>
    <v>       0.55072271       0.73114229       0.80103003 </v>
    <v>       0.47732055       0.32445092       0.04207252 </v>
    <v>       0.22663206       0.84228075       0.46368512 </v>
    <v>       0.24796103       0.33429212       0.95375742 </v>
    <v>       0.14682211       0.88537253       0.28611138 </v>
    <v>       0.13697571       0.22683896       0.67743603 </v>
    <v>       0.34453373       0.98447598       0.06771221 </v>
    <v>       0.81202341       0.71357522       0.21345805 </v>
    <v>       0.36843444       0.77509316       0.64063862 </v>
    <v>       0.95115610       0.01730022       0.29081946 </v>
    <v>       0.87542458       0.50023799       0.90286924 </v>
    <v>       0.62421709       0.63180032       0.49683175 </v>
    <v>       0.90877095       0.96705813       0.84595090 </v>
    <v>       0.76416814       0.15049918       0.83198858 </v>
    <v>       0.52359037       0.80300580       0.30382915 </v>
    <v>       0.50205236       0.11121279       0.13578845 </v>
    <v>       0.06899281       0.94773342       0.43871272 </v>
    <v>       0.77818474       0.73830818       0.02130743 </v>
    <v>       0.15283694       0.11062274       0.02257797 </v>
    <v>       0.07424450       0.36155692       0.11071069 </v>
    <v>       0.52656815       0.90943962       0.71078452 </v>
    <v>       0.55557897       0.47721055       0.91943801 </v>
    <v>       0.23055383       0.42100825       0.35083750 </v>
    <v>       0.93525824       0.38937983       0.48581413 </v>
    <v>       0.33936721       0.22209114       0.33397981 </v>
    <v>       0.92949526       0.07935016       0.02966538 </v>
    <v>       0.29563757       0.67381399       0.02611639 </v>
    <v>       0.55997461       0.19095222       0.44884401 </v>
    <v>       0.76218131       0.00678809       0.00204882 </v>
    <v>       0.90159493       0.52030068       0.08598474 </v>
    <v>       0.94948560       0.30874823       0.90124110 </v>
    <v>       0.39441779       0.96571103       0.28872928 </v>
    <v>       0.17977959       0.89326841       0.04245086 </v>
   </varray>
  </structure>
  <varray name="forces" >
   <v>       1.09698566       1.07869327       0.23073825 </v>
   <v>       0.13391343      -0.87887135      -0.42348766 </v>
   <v>       1.22320790       1.22298383      -1.25180168 </v>
   <v>      -0.46366717       1.42978642      -2.34458615 </v>
   <v>       0.71168932      -0.90987982      -0.61618537 </v>
   <v>       3.63589159       3.16746764       1.09264695 </v>
   <v>      -0.85483418      -0.08785644      -0.46532910 </v>
   <v>      -0.86211387       0.68418684       0.29499071 </v>
   <v>      -0.41461937      -1.96806839       1.03609987 </v>
   <v>      -0.00426537      -0.86759004      -0.92069685 </v>
   <v>      -0.12246368      -1.23711570      -1.88501488 </v>
   <v>       0.64918335       0.85467362      -7.00246086 </v>
   <v>       0.98395674       0.26808415       2.13557831 </v>
   <v>       1.99836515       1.02256818      -0.47619535 </v>
   <v>      -2.64804745      -0.61834997       1.62304791 </v>
   <v>       2.54812657      -1.69802994       1.53337622 </v>
   <v>      -3.49446001       2.06635558       1.06438172 </v>
   <v>      -0.74388141       0.08318093       0.68113383 </v>
   <v>       0.01212324       0.25713199      -1.51796335 </v>
   <v>       2.45321107       1.80524516       2.55564043 </v>
   <v>       1.88175701      -0.52587425      -0.58110816 </v>
   <v>       2.14946175       5.94014591      -2.71499093 </v>
   <v>      -2.62980537      -1.65122564       0.53399279 </v>
   <v>       3.50874621       3.79314031      -0.86706405 </v>
   <v>       1.36257116       1.37836753       2.25910593 </v>
   <v>      -0.00871238      -0.14789541       0.65716823 </v>
   <v>       1.89700945       0.97935064       1.01733875 </v>
   <v>      -1.35741317       5.31648441       1.75407248 </v>
   <v>       7.47889669       3.06704020       2.66172369 </v>
   <v>       5.15027004      -4.30138175       0.48750265 </v>
   <v>      -4.25629021      -7.57555181      -0.97905226 </v>
   <v>      -1.42691916      -4.43909084       1.46943439 </v>
   <v>      -1.09947078       3.62089418       4.61226841 </v>
   <v>       0.42625106      -0.65658978       4.70249720 </v>
   <v>      -5.42384748       0.18133090       0.51992410 </v>
   <v>      -2.82698559       4.94471080       0.29505078 </v>
   <v>       0.05156988       2.91502460       4.79468699 </v>
   <v>      -4.67418937      -3.03729848      -6.35337203 </v>
   <v>       2.78900934      -5.40983101       0.91496174 </v>
   <v>       2.53327561       1.19482204      -1.42089680 </v>
   <v>      -0.73505870       0.82325069      -2.57329525 </v>
   <v>       2.74784140       0.07608932       1.97720788 </v>
   <v>      -1.10880425      -1.00032372      -0.81418070 </v>
   <v>      -0.03748712       4.45294392      -3.19843653 </v>
   <v>       3.04004760       0.37691241       0.04280372 </v>
   <v>      -2.00889758      -1.33458381       3.06267016 </v>
   <v>       0.00636089      -3.93448986       2.68790475 </v>
   <v>       5.92567992      -1.98410790       1.35245050 </v>
   <v>       9.00173064      -1.47976151      11.57403176 </v>
   <v>       0.23153034       0.63264767      -2.15594482 </v>
   <v>      -5.59219662      -2.83537513      -1.68253618 </v>
   <v>       3.15008431      -4.42529220       1.23914500 </v>
   <v>       4.42611093       4.94574697      -1.31738230 </v>
   <v>       5.02237291       2.44255825       1.70048683 </v>
   <v>      -0.24306502      -1.69496785      -1.78347454 </v>
   <v>       0.68177366      -2.24964886       1.63754569 </v>
   <v>       0.73383270       3.19329427      -3.17039311 </v>
   <v>       0.74379300      -3.51215486      -0.63277100 </v>
   <v>       1.08416538      -0.71002459      -2.16038455 </v>
   <v>      -3.55564743       1.66935955      -0.44610126 </v>
   <v>      -0.82526060      -0.18965750       0.71326924 </v>
   <v>      -1.05579343       3.28577930      -1.38307430 </v>
   <v>       6.41525611       2.95686872       1.40112308 </v>
   <v>      -2.98071983      -0.39385605       1.99536540 </v>
   <v>       1.00296242       1.08485896       0.89025201 </v>
   <v>      -3.74471114      -0.75794464       0.57748535 </v>
   <v>       2.68431158      -2.08709223      -0.31250928 </v>
   <v>       2.24586891      -0.98834872      -2.83676537 </v>
   <v>       3.94898897      -1.04023921      -1.57204229 </v>
   <v>       0.79046467      -0.22880745      -0.31352479 </v>
   <v>      -4.02667269      -0.57011916      -1.66760745 </v>
   <v>      -2.14732528       0.76947925      -0.03963005 </v>
   <v>      -2.22585252       1.28977034      -1.83398257 </v>
   <v>      -1.40651263       3.28569681       1.27475119 </v>
   <v>       0.15621305      -0.14669554       0.62455908 </v>
   <v>      -3.79880550       2.48536497      -2.32032549 </v>
   <v>      -6.99862273       0.80859996      -3.36499967 </v>
   <v>      -2.12354254      -1.63235268       1.55878351 </v>
   <v>       3.05354090       6.21380146       0.98029178 </v>
   <v>       0.03624737      -0.01539636       0.24360723 </v>
   <v>       6.14126268      -2.36660919      -2.27963584 </v>
   <v>      -3.40643932      -1.99951013       2.01648738 </v>
   <v>      -3.22255124       2.52461936      -2.80668609 </v>
   <v>      -2.90643835      -3.37943024       2.48317822 </v>
   <v>      -0.95768232       1.31261769       1.64781195 </v>
   <v>      -1.28009229      -2.27897851      -1.78642093 </v>
   <v>       2.35355032      -2.28724916       4.18587602 </v>
   <v>      -4.27965449       0.88604873     -18.67151828 </v>
   <v>      -0.68953374       4.19357373      -3.43502058 </v>
   <v>      -0.01806270       0.09728334       1.80377771 </v>
   <v>      -3.51324694      -2.59679632      -0.85493757 </v>
   <v>      -3.76676399      -1.39954693      -0.45845046 </v>
   <v>       3.99101529       5.10336854       1.01794490 </v>
   <v>      -3.97248082       0.79386125       1.09717715 </v>
   <v>      -1.90905126       2.63718565      -1.27291003 </v>
   <v>      -1.45839920       0.75268548      -0.45997186 </v>
   <v>       1.67875696       1.46751629       0.08271583 </v>
   <v>       0.47157824      -1.08760663       2.53975987 </v>
   <v>      -1.35698511      -0.69680705      -1.76228530 </v>
   <v>       0.68397613       1.12085297      -0.28403645 </v>
   <v>      -2.17227233       1.52697313      -1.32599543 </v>
   <v>       3.44575090      -0.80321226       0.73539349 </v>
   <v>      -1.40677776      -0.75467042      -1.86937502 </v>
   <v>       0.89377768       0.87582755      -1.54299133 </v>
   <v>       0.19495098      -1.59002948      -0.33040669 </v>
   <v>       0.85684972       1.63717066      -1.10925368 </v>
   <v>      -1.38669041       0.65303344      -2.83881313 </v>
   <v>      -2.41067219       1.52877772       3.50733217 </v>
   <v>       0.58350066       1.16075228       1.28694163 </v>
   <v>       6.66267314      -4.93112714       2.85500441 </v>
   <v>       3.48007312      -2.33426422       2.67616190 </v>
   <v>       3.48727577       0.65381915      -0.66224246 </v>
   <v>       2.02257664      -0.32771104      -4.44917423 </v>
   <v>      -0.99807058      -2.47763505      -1.48025846 </v>
   <v>      -0.87820499      -2.62337929       1.58983414 </v>
   <v>      -0.05269538      -2.52322262       2.81364750 </v>
   <v>      -2.48008699      -1.76570226      -0.40289253 </v>
   <v>      -3.10919070      -3.37874413       0.48298543 </v>
   <v>      -0.90127472       3.11961994       2.52550634 </v>
   <v>      -3.04702277      -1.55074956       1.85046780 </v>
   <v>       0.18226863      -0.54339030       0.71802304 </v>
   <v>       0.97579451      -0.45208327       5.52835911 </v>
   <v>      -1.15790395      -3.68837132      -0.64801804 </v>
   <v>       2.36095425       4.81717166       2.93256503 </v>
   <v>      -1.94040113      -1.05908587      -1.03295910 </v>
   <v>      -0.56111644      -1.86449067      -4.79229199 </v>
   <v>      -3.23928350      -1.48356279       1.41790262 </v>
   <v>       0.56672116      -1.45234202       0.05528768 </v>
   <v>      -1.73502310      -0.02710005      -0.24929466 </v>
   <v>      -0.39919582      -0.83614167      -0.41535782 </v>
   <v>      -0.34361607      -0.60595577       0.01216651 </v>
   <v>      -1.26242595       2.62155157       2.49112078 </v>
   <v>      -0.30266202       1.38740651      -3.35805633 </v>
   <v>      -0.68470529      -0.05285317      -1.20565557 </v>
   <v>      -1.70432117      -4.49630960       2.36995172 </v>
  </varray>
  <varray name="stress" >
   <v>      36.06179743      22.30761544       0.54740725 </v>
   <v>      22.30761543      19.85850393      -4.23221626 </v>
   <v>       0.54740727      -4.23221629       3.90300140 </v>
  </varray>
  <energy>
   <i name="e_fr_energy">   -885.49105137 </i>
   <i name="e_wo_entrp">   -885.47759662 </i>
   <i name="e_0_energy">     -0.02690949 </i>
  </energy>
  <time name="totalsc"> 1478.75 1479.08</time>
  <eigenvalues>
   <array>
    <dimension dim="1">band</dimension>
    <dimension dim="2">kpoint</dimension>
[...]
       <r>     2.2068    28.6751   847.9049 </r>
       <r>     2.3791    35.0118   853.9352 </r>
       <r>     2.5513    24.3749   858.1334 </r>
       <r>     2.7235    14.9315   860.7052 </r>
       <r>     2.8958     9.5811   862.3554 </r>
       <r>     3.0680    16.5455   865.2051 </r>
       <r>     3.2402     8.7473   866.7117 </r>
       <r>     3.4125    17.1378   869.6634 </r>
       <r>     3.5847    12.4746   871.8120 </r>
       <r>     3.7569    12.8311   874.0220 </r>
       <r>     3.9292    20.6394   877.5768 </r>
       <r>     4.1014    13.8803   879.9675 </r>
       <r>     4.2737     5.4846   880.9121 </r>
       <r>     4.4459    19.5451   884.2785 </r>
       <r>     4.6181    21.2129   887.9321 </r>
       <r>     4.7904    31.1280   893.2935 </r>
       <r>     4.9626    28.6305   898.2247 </r>
       <r>     5.1348    30.3979   903.4603 </r>
       <r>     5.3071    24.5575   907.6899 </r>
       <r>     5.4793    30.6437   912.9679 </r>
       <r>     5.6515    36.5666   919.2660 </r>
       <r>     5.8238    51.5958   928.1526 </r>
       <r>     5.9960    64.8467   939.3215 </r>
       <r>     6.1682    58.5137   949.3996 </r>
       <r>     6.3405    57.0351   959.2231 </r>
       <r>     6.5127    61.5600   969.8260 </r>
       <r>     6.6850    69.9875   981.8803 </r>
       <r>     6.8572    75.2929   994.8484 </r>
       <r>     7.0294    79.2452  1008.4973 </r>
       <r>     7.2017    82.4171  1022.6924 </r>
       <r>     7.3739    79.7098  1036.4213 </r>
       <r>     7.5461    20.7751  1039.9995 </r>
       <r>     7.7184     0.0031  1040.0000 </r>
       <r>     7.8906     0.0000  1040.0000 </r>
       <r>     8.0628     0.0000  1040.0000 </r>
       <r>     8.2351     0.0000  1040.0000 </r>
       <r>     8.4073     0.0000  1040.0000 </r>
       <r>     8.5795     0.0000  1040.0000 </r>
       <r>     8.7518     0.0000  1040.0000 </r>
       <r>     8.9240     0.0000  1040.0000 </r>
       <r>     9.0963     0.0000  1040.0000 </r>
       <r>     9.2685     0.0000  1040.0000 </r>
       <r>     9.4407     0.0000  1040.0000 </r>
       <r>     9.6130     0.0000  1040.0000 </r>
       <r>     9.7852     0.0000  1040.0000 </r>
      </set>
     </set>
    </array>
   </total>
  </dos>
 </calculation>
 <structure name="finalpos" >
  <crystal>
   <varray name="basis" >
    <v>      12.93041299       0.00000000       0.00000000 </v>
    <v>       0.00000000      12.93041299       0.00000000 </v>
    <v>       0.00000000       0.00000000      12.93041299 </v>
   </varray>
   <i name="volume">   2161.90790069 </i>
   <varray name="rec_basis" >
    <v>       0.07733705       0.00000000       0.00000000 </v>
    <v>       0.00000000       0.07733705       0.00000000 </v>
    <v>       0.00000000       0.00000000       0.07733705 </v>
   </varray>
  </crystal>
  <varray name="positions" >
   <v>       0.11637523       0.71919862       0.11920874 </v>
   <v>       0.54945403       0.51772884       0.75730194 </v>
   <v>       0.34054409       0.47821456       0.06445932 </v>
   <v>       0.11119472       0.82884211       0.78933753 </v>
   <v>       0.57057197       0.34518468       0.22381580 </v>
   <v>       0.33021515       0.54136922       0.37590857 </v>
   <v>       0.86512227       0.03356059       0.48199036 </v>
   <v>       0.90173189       0.68746478       0.91496000 </v>
   <v>       0.03624886       0.46929793       0.96848719 </v>
   <v>       0.39511338       0.88596036       0.49499658 </v>
   <v>       0.12172603       0.40564759       0.64822046 </v>
   <v>       0.80893583       0.17069070       0.69417053 </v>
   <v>       0.42855292       0.79416759       0.89220411 </v>
   <v>       0.65923087       0.57637392       0.33650972 </v>
   <v>       0.74551760       0.50974135       0.97858668 </v>
   <v>       0.29081243       0.44025846       0.80743280 </v>
   <v>       0.88252089       0.47956777       0.59357058 </v>
   <v>       0.59419756       0.02417744       0.98756726 </v>
   <v>       0.33044140       0.23244646       0.08346530 </v>
   <v>       0.91315815       0.82911067       0.25590302 </v>
   <v>       0.43780451       0.13298805       0.53882304 </v>
   <v>       0.95337324       0.11360262       0.87738186 </v>
   <v>       0.32665209       0.83346241       0.12974501 </v>
   <v>       0.27748498       0.10839656       0.84442006 </v>
   <v>       0.69468927       0.28509875       0.43778756 </v>
   <v>       0.73809198       0.11680287       0.16237686 </v>
   <v>       0.00255951       0.13513174       0.15532614 </v>
   <v>       0.49935380       0.01128748       0.76774322 </v>
   <v>       0.60947647       0.88004228       0.33246641 </v>
   <v>       0.58719577       0.49788394       0.50105413 </v>
   <v>       0.08980035       0.99387648       0.32379390 </v>
   <v>       0.14967548       0.92200781       0.52915604 </v>
   <v>       0.89102790       0.38632743       0.33446767 </v>
   <v>       0.90751041       0.38608654       0.79600939 </v>
   <v>       0.88689325       0.96623308       0.98339165 </v>
   <v>       0.33666465       0.63404088       0.66311390 </v>
   <v>       0.68667237       0.21907638       0.88792447 </v>
   <v>       0.72914116       0.76095032       0.14838544 </v>
   <v>       0.49453839       0.71970686       0.21255533 </v>
   <v>       0.50950265       0.78327776       0.69306001 </v>
   <v>       0.88538473       0.92899492       0.71082540 </v>
   <v>       0.88835772       0.59600275       0.19268153 </v>
   <v>       0.22228065       0.17873974       0.37959650 </v>
   <v>       0.16440732       0.99205682       0.98671333 </v>
   <v>       0.80577807       0.80436543       0.49638107 </v>
   <v>       0.52984601       0.35995356       0.92312018 </v>
   <v>       0.61512803       0.11286099       0.36821457 </v>
   <v>       0.66932310       0.67431031       0.60353392 </v>
   <v>       0.20329939       0.15865685       0.60739021 </v>
   <v>       0.10193487       0.36911799       0.26147894 </v>
   <v>       0.32224956       0.35217319       0.29390337 </v>
   <v>       0.23149484       0.70688933       0.91726537 </v>
   <v>       0.39985327       0.01320000       0.17685615 </v>
   <v>       0.24234637       0.71890766       0.44558146 </v>
   <v>       0.30021079       0.64552634       0.82010634 </v>
   <v>       0.70959938       0.27485626       0.00098417 </v>
   <v>       0.46749874       0.75736717       0.10401795 </v>
   <v>       0.45835107       0.98743642       0.89074934 </v>
   <v>       0.52591742       0.08420353       0.66840257 </v>
   <v>       0.92738049       0.80120605       0.44259794 </v>
   <v>       0.11237077       0.85338870       0.62565838 </v>
   <v>       0.69434953       0.58121385       0.69491226 </v>
   <v>       0.43273900       0.36840304       0.29400856 </v>
   <v>       0.32395806       0.21203956       0.60437631 </v>
   <v>       0.82765513       0.34088634       0.71248284 </v>
   <v>       0.38615002       0.72776898       0.43334316 </v>
   <v>       0.77085561       0.92067639       0.59169773 </v>
   <v>       0.62396153       0.31598127       0.85201015 </v>
   <v>       0.71702525       0.04569468       0.34310130 </v>
   <v>       0.80794646       0.30804722       0.29288023 </v>
   <v>       0.47287278       0.50996510       0.50969829 </v>
   <v>       0.11669830       0.65791732       0.92690474 </v>
   <v>       0.68687277       0.42962079       0.56336022 </v>
   <v>       0.68534167       0.86111151       0.20007648 </v>
   <v>       0.92498197       0.04060884       0.66693038 </v>
   <v>       0.14764096       0.26182202       0.32769911 </v>
   <v>       0.46908926       0.35582085       0.82021409 </v>
   <v>       0.29723302       0.37395944       0.17048010 </v>
   <v>       0.24551476       0.97077779       0.58538565 </v>
   <v>       0.99838151       0.45525772       0.73629663 </v>
   <v>       0.99572818       0.44175915       0.30508165 </v>
   <v>       0.62779452       0.79515177       0.60640790 </v>
   <v>       0.64836672       0.65860133       0.20079257 </v>
   <v>       0.16746561       0.00797892       0.85308699 </v>
   <v>       0.46871105       0.13274498       0.80187060 </v>
   <v>       0.20053261       0.66390702       0.35132431 </v>
   <v>       0.40962925       0.54523070       0.64891453 </v>
   <v>       0.17353420       0.17579376       0.50620004 </v>
   <v>       0.62892308       0.18146704       0.27162938 </v>
   <v>       0.43021114       0.61166798       0.21834487 </v>
   <v>       0.57443610       0.98683893       0.40897627 </v>
   <v>       0.00754429       0.66237865       0.21153551 </v>
   <v>       0.16846666       0.07908737       0.30273891 </v>
   <v>       0.81333357       0.68682833       0.55096813 </v>
   <v>       0.27027027       0.81709515       0.88854095 </v>
   <v>       0.71380343       0.81743854       0.39988834 </v>
   <v>       0.59552903       0.42821665       0.38089114 </v>
   <v>       0.92869676       0.81765459       0.69361315 </v>
   <v>       0.84844459       0.53385170       0.30708884 </v>
   <v>       0.75476842       0.14545656       0.53623067 </v>
   <v>       0.24777561       0.60525207       0.57981021 </v>
   <v>       0.89806662       0.86093857       0.03959913 </v>
   <v>       0.55072271       0.73114229       0.80103003 </v>
   <v>       0.47732055       0.32445092       0.04207252 </v>
   <v>       0.22663206       0.84228075       0.46368512 </v>
   <v>       0.24796103       0.33429212       0.95375742 </v>
   <v>       0.14682211       0.88537253       0.28611138 </v>
   <v>       0.13697571       0.22683896       0.67743603 </v>
   <v>       0.34453373       0.98447598       0.06771221 </v>
   <v>       0.81202341       0.71357522       0.21345805 </v>
   <v>       0.36843444       0.77509316       0.64063862 </v>
   <v>       0.95115610       0.01730022       0.29081946 </v>
   <v>       0.87542458       0.50023799       0.90286924 </v>
   <v>       0.62421709       0.63180032       0.49683175 </v>
   <v>       0.90877095       0.96705813       0.84595090 </v>
   <v>       0.76416814       0.15049918       0.83198858 </v>
   <v>       0.52359037       0.80300580       0.30382915 </v>
   <v>       0.50205236       0.11121279       0.13578845 </v>
   <v>       0.06899281       0.94773342       0.43871272 </v>
   <v>       0.77818474       0.73830818       0.02130743 </v>
   <v>       0.15283694       0.11062274       0.02257797 </v>
   <v>       0.07424450       0.36155692       0.11071069 </v>
   <v>       0.52656815       0.90943962       0.71078452 </v>
   <v>       0.55557897       0.47721055       0.91943801 </v>
   <v>       0.23055383       0.42100825       0.35083750 </v>
   <v>       0.93525824       0.38937983       0.48581413 </v>
   <v>       0.33936721       0.22209114       0.33397981 </v>
   <v>       0.92949526       0.07935016       0.02966538 </v>
   <v>       0.29563757       0.67381399       0.02611639 </v>
   <v>       0.55997461       0.19095222       0.44884401 </v>
   <v>       0.76218131       0.00678809       0.00204882 </v>
   <v>       0.90159493       0.52030068       0.08598474 </v>
   <v>       0.94948560       0.30874823       0.90124110 </v>
   <v>       0.39441779       0.96571103       0.28872928 </v>
   <v>       0.17977959       0.89326841       0.04245086 </v>
  </varray>
  <varray name="velocities" >
   <v>       0.00000000       0.00000000       0.00000000 </v>
   <v>       0.00000000       0.00000000       0.00000000 </v>
   <v>       0.00000000       0.00000000       0.00000000 </v>
   <v>       0.00000000       0.00000000       0.00000000 </v>
   <v>       0.00000000       0.00000000       0.00000000 </v>
   <v>       0.00000000       0.00000000       0.00000000 </v>
   <v>       0.00000000       0.00000000       0.00000000 </v>
   <v>       0.00000000       0.00000000       0.00000000 </v>
   <v>       0.00000000       0.00000000       0.00000000 </v>
   <v>       0.00000000       0.00000000       0.00000000 </v>
   <v>       0.00000000       0.00000000       0.00000000 </v>
   <v>       0.00000000       0.00000000       0.00000000 </v>
   <v>       0.00000000       0.00000000       0.00000000 </v>
   <v>       0.00000000       0.00000000       0.00000000 </v>
   <v>       0.00000000       0.00000000       0.00000000 </v>
   <v>       0.00000000       0.00000000       0.00000000 </v>
   <v>       0.00000000       0.00000000       0.00000000 </v>
   <v>       0.00000000       0.00000000       0.00000000 </v>
   <v>       0.00000000       0.00000000       0.00000000 </v>
   <v>       0.00000000       0.00000000       0.00000000 </v>
   <v>       0.00000000       0.00000000       0.00000000 </v>
   <v>       0.00000000       0.00000000       0.00000000 </v>
   <v>       0.00000000       0.00000000       0.00000000 </v>
   <v>       0.00000000       0.00000000       0.00000000 </v>
   <v>       0.00000000       0.00000000       0.00000000 </v>
   <v>       0.00000000       0.00000000       0.00000000 </v>
   <v>       0.00000000       0.00000000       0.00000000 </v>
   <v>       0.00000000       0.00000000       0.00000000 </v>
   <v>       0.00000000       0.00000000       0.00000000 </v>
   <v>       0.00000000       0.00000000       0.00000000 </v>
   <v>       0.00000000       0.00000000       0.00000000 </v>
   <v>       0.00000000       0.00000000       0.00000000 </v>
   <v>       0.00000000       0.00000000       0.00000000 </v>
   <v>       0.00000000       0.00000000       0.00000000 </v>
   <v>       0.00000000       0.00000000       0.00000000 </v>
   <v>       0.00000000       0.00000000       0.00000000 </v>
   <v>       0.00000000       0.00000000       0.00000000 </v>
   <v>       0.00000000       0.00000000       0.00000000 </v>
   <v>       0.00000000       0.00000000       0.00000000 </v>
   <v>       0.00000000       0.00000000       0.00000000 </v>
   <v>       0.00000000       0.00000000       0.00000000 </v>
   <v>       0.00000000       0.00000000       0.00000000 </v>
   <v>       0.00000000       0.00000000       0.00000000 </v>
   <v>       0.00000000       0.00000000       0.00000000 </v>
   <v>       0.00000000       0.00000000       0.00000000 </v>
   <v>       0.00000000       0.00000000       0.00000000 </v>
   <v>       0.00000000       0.00000000       0.00000000 </v>
   <v>       0.00000000       0.00000000       0.00000000 </v>
   <v>       0.00000000       0.00000000       0.00000000 </v>
   <v>       0.00000000       0.00000000       0.00000000 </v>
   <v>       0.00000000       0.00000000       0.00000000 </v>
   <v>       0.00000000       0.00000000       0.00000000 </v>
   <v>       0.00000000       0.00000000       0.00000000 </v>
   <v>       0.00000000       0.00000000       0.00000000 </v>
   <v>       0.00000000       0.00000000       0.00000000 </v>
   <v>       0.00000000       0.00000000       0.00000000 </v>
   <v>       0.00000000       0.00000000       0.00000000 </v>
   <v>       0.00000000       0.00000000       0.00000000 </v>
   <v>       0.00000000       0.00000000       0.00000000 </v>
   <v>       0.00000000       0.00000000       0.00000000 </v>
   <v>       0.00000000       0.00000000       0.00000000 </v>
   <v>       0.00000000       0.00000000       0.00000000 </v>
   <v>       0.00000000       0.00000000       0.00000000 </v>
   <v>       0.00000000       0.00000000       0.00000000 </v>
   <v>       0.00000000       0.00000000       0.00000000 </v>
   <v>       0.00000000       0.00000000       0.00000000 </v>
   <v>       0.00000000       0.00000000       0.00000000 </v>
   <v>       0.00000000       0.00000000       0.00000000 </v>
   <v>       0.00000000       0.00000000       0.00000000 </v>
   <v>       0.00000000       0.00000000       0.00000000 </v>
   <v>       0.00000000       0.00000000       0.00000000 </v>
   <v>       0.00000000       0.00000000       0.00000000 </v>
   <v>       0.00000000       0.00000000       0.00000000 </v>
   <v>       0.00000000       0.00000000       0.00000000 </v>
   <v>       0.00000000       0.00000000       0.00000000 </v>
   <v>       0.00000000       0.00000000       0.00000000 </v>
   <v>       0.00000000       0.00000000       0.00000000 </v>
   <v>       0.00000000       0.00000000       0.00000000 </v>
   <v>       0.00000000       0.00000000       0.00000000 </v>
   <v>       0.00000000       0.00000000       0.00000000 </v>
   <v>       0.00000000       0.00000000       0.00000000 </v>
   <v>       0.00000000       0.00000000       0.00000000 </v>
   <v>       0.00000000       0.00000000       0.00000000 </v>
   <v>       0.00000000       0.00000000       0.00000000 </v>
   <v>       0.00000000       0.00000000       0.00000000 </v>
   <v>       0.00000000       0.00000000       0.00000000 </v>
   <v>       0.00000000       0.00000000       0.00000000 </v>
   <v>       0.00000000       0.00000000       0.00000000 </v>
   <v>       0.00000000       0.00000000       0.00000000 </v>
   <v>       0.00000000       0.00000000       0.00000000 </v>
   <v>       0.00000000       0.00000000       0.00000000 </v>
   <v>       0.00000000       0.00000000       0.00000000 </v>
   <v>       0.00000000       0.00000000       0.00000000 </v>
   <v>       0.00000000       0.00000000       0.00000000 </v>
   <v>       0.00000000       0.00000000       0.00000000 </v>
   <v>       0.00000000       0.00000000       0.00000000 </v>
   <v>       0.00000000       0.00000000       0.00000000 </v>
   <v>       0.00000000       0.00000000       0.00000000 </v>
   <v>       0.00000000       0.00000000       0.00000000 </v>
   <v>       0.00000000       0.00000000       0.00000000 </v>
   <v>       0.00000000       0.00000000       0.00000000 </v>
   <v>       0.00000000       0.00000000       0.00000000 </v>
   <v>       0.00000000       0.00000000       0.00000000 </v>
   <v>       0.00000000       0.00000000       0.00000000 </v>
   <v>       0.00000000       0.00000000       0.00000000 </v>
   <v>       0.00000000       0.00000000       0.00000000 </v>
   <v>       0.00000000       0.00000000       0.00000000 </v>
   <v>       0.00000000       0.00000000       0.00000000 </v>
   <v>       0.00000000       0.00000000       0.00000000 </v>
   <v>       0.00000000       0.00000000       0.00000000 </v>
   <v>       0.00000000       0.00000000       0.00000000 </v>
   <v>       0.00000000       0.00000000       0.00000000 </v>
   <v>       0.00000000       0.00000000       0.00000000 </v>
   <v>       0.00000000       0.00000000       0.00000000 </v>
   <v>       0.00000000       0.00000000       0.00000000 </v>
   <v>       0.00000000       0.00000000       0.00000000 </v>
   <v>       0.00000000       0.00000000       0.00000000 </v>
   <v>       0.00000000       0.00000000       0.00000000 </v>
   <v>       0.00000000       0.00000000       0.00000000 </v>
   <v>       0.00000000       0.00000000       0.00000000 </v>
   <v>       0.00000000       0.00000000       0.00000000 </v>
   <v>       0.00000000       0.00000000       0.00000000 </v>
   <v>       0.00000000       0.00000000       0.00000000 </v>
   <v>       0.00000000       0.00000000       0.00000000 </v>
   <v>       0.00000000       0.00000000       0.00000000 </v>
   <v>       0.00000000       0.00000000       0.00000000 </v>
   <v>       0.00000000       0.00000000       0.00000000 </v>
   <v>       0.00000000       0.00000000       0.00000000 </v>
   <v>       0.00000000       0.00000000       0.00000000 </v>
   <v>       0.00000000       0.00000000       0.00000000 </v>
   <v>       0.00000000       0.00000000       0.00000000 </v>
   <v>       0.00000000       0.00000000       0.00000000 </v>
   <v>       0.00000000       0.00000000       0.00000000 </v>
   <v>       0.00000000       0.00000000       0.00000000 </v>
   <v>       0.00000000       0.00000000       0.00000000 </v>
  </varray>
 </structure>
</modeling>
