 vasp.5.4.4.18Apr17-6-g9f103f2a35 (build Oct 31 2019 15:01:46) complex          
  
 executed on             LinuxIFC date 2024.04.30  06:09:11
 running on   52 total cores
 distrk:  each k-point on   52 cores,    1 groups
 distr:  one band on NCORES_PER_BAND=  13 cores,    4 groups


--------------------------------------------------------------------------------------------------------


 INCAR:
 POTCAR:    PAW_PBE Sc_sv 07Sep2000               
 POTCAR:    PAW_PBE Cl 06Sep2000                  
 POTCAR:    PAW_PBE C 08Apr2002                   
 POTCAR:    PAW_PBE Sc_sv 07Sep2000               
   VRHFIN =Sc: 3p4s3d                                                           
   LEXCH  = PE                                                                  
   EATOM  =  1273.2868 eV,   93.5839 Ry                                         
                                                                                
   TITEL  = PAW_PBE Sc_sv 07Sep2000                                             
   LULTRA =        F    use ultrasoft PP ?                                      
   IUNSCR =        1    unscreen: 0-lin 1-nonlin 2-no                           
   RPACOR =    2.200    partial core radius                                     
   POMASS =   44.956; ZVAL   =   11.000    mass and valenz                      
   RCORE  =    2.500    outmost cutoff radius                                   
   RWIGS  =    2.700; RWIGS  =    1.429    wigner-seitz radius (au A)           
   ENMAX  =  222.660; ENMIN  =  166.995 eV                                      
   RCLOC  =    1.805    cutoff for local pot                                    
   LCOR   =        T    correct aug charges                                     
   LPAW   =        T    paw PP                                                  
   EAUG   =  443.063                                                            
   RMAX   =    2.551    core radius for proj-oper                               
   RAUG   =    1.300    factor for augmentation sphere                          
   RDEP   =    2.650    radius for radial grids                                 
   RDEPT  =    2.038    core radius for aug-charge                              
                                                                                
   Atomic configuration                                                         
    8 entries                                                                   
     n  l   j            E        occ.                                          
     1  0  0.50     -4394.2533   2.0000                                         
     2  0  0.50      -471.0040   2.0000                                         
     2  1  1.50      -384.9788   6.0000                                         
     3  0  0.50       -52.1410   2.0000                                         
     4  0  0.50        -3.5584   1.0000                                         
     3  1  1.50       -30.8841   6.0000                                         
     3  2  2.50        -1.3655   2.0000                                         
     4  3  2.50        -1.3606   0.0000                                         
   Description                                                                  
     l       E           TYP  RCUT    TYP  RCUT                                 
     0    -52.1409870     23  1.800                                             
     0     -3.5583698     23  2.500                                             
     1    -30.8840697     23  2.300                                             
     1      4.0817478     23  2.300                                             
     2     -1.3655397     23  2.500                                             
     2      0.3564476     23  2.500                                             
  local pseudopotential read in
  partial core-charges read in
  partial kinetic energy density read in
  atomic valenz-charges read in
  non local Contribution for L=           0  read in
    real space projection operators read in
  non local Contribution for L=           0  read in
    real space projection operators read in
  non local Contribution for L=           1  read in
    real space projection operators read in
  non local Contribution for L=           1  read in
    real space projection operators read in
  non local Contribution for L=           2  read in
    real space projection operators read in
  non local Contribution for L=           2  read in
    real space projection operators read in
    PAW grid and wavefunctions read in
 
   number of l-projection  operators is LMAX  =           6
   number of lm-projection operators is LMMAX =          18
 
 POTCAR:    PAW_PBE Cl 06Sep2000                  
   VRHFIN =Cl: s2p5                                                             
   LEXCH  = PE                                                                  
   EATOM  =   409.7259 eV,   30.1140 Ry                                         
                                                                                
   TITEL  = PAW_PBE Cl 06Sep2000                                                
   LULTRA =        F    use ultrasoft PP ?                                      
   IUNSCR =        1    unscreen: 0-lin 1-nonlin 2-no                           
   RPACOR =    1.500    partial core radius                                     
   POMASS =   35.453; ZVAL   =    7.000    mass and valenz                      
   RCORE  =    1.900    outmost cutoff radius                                   
   RWIGS  =    2.100; RWIGS  =    1.111    wigner-seitz radius (au A)           
   ENMAX  =  262.472; ENMIN  =  196.854 eV                                      
   ICORE  =        2    local potential                                         
   LCOR   =        T    correct aug charges                                     
   LPAW   =        T    paw PP                                                  
   EAUG   =  356.192                                                            
   DEXC   =    0.000                                                            
   RMAX   =    1.945    core radius for proj-oper                               
   RAUG   =    1.300    factor for augmentation sphere                          
   RDEP   =    2.020    radius for radial grids                                 
   RDEPT  =    1.678    core radius for aug-charge                              
                                                                                
   Atomic configuration                                                         
    6 entries                                                                   
     n  l   j            E        occ.                                          
     1  0  0.50     -2751.1850   2.0000                                         
     2  0  0.50      -252.6861   2.0000                                         
     2  1  1.50      -191.6157   6.0000                                         
     3  0  0.50       -20.6916   2.0000                                         
     3  1  0.50        -8.5949   5.0000                                         
     3  2  1.50        -8.1635   0.0000                                         
   Description                                                                  
     l       E           TYP  RCUT    TYP  RCUT                                 
     0    -20.6915656     23  1.900                                             
     0    -22.0521482     23  1.900                                             
     1     -8.5948577     23  1.900                                             
     1     -5.3847331     23  1.900                                             
     2     -8.1634956     23  1.900                                             
  local pseudopotential read in
  partial core-charges read in
  partial kinetic energy density read in
  atomic valenz-charges read in
  non local Contribution for L=           0  read in
    real space projection operators read in
  non local Contribution for L=           0  read in
    real space projection operators read in
  non local Contribution for L=           1  read in
    real space projection operators read in
  non local Contribution for L=           1  read in
    real space projection operators read in
    PAW grid and wavefunctions read in
 
   number of l-projection  operators is LMAX  =           4
   number of lm-projection operators is LMMAX =           8
 
 POTCAR:    PAW_PBE C 08Apr2002                   
   VRHFIN =C: s2p2                                                              
   LEXCH  = PE                                                                  
   EATOM  =   147.1560 eV,   10.8157 Ry                                         
                                                                                
   TITEL  = PAW_PBE C 08Apr2002                                                 
   LULTRA =        F    use ultrasoft PP ?                                      
   IUNSCR =        1    unscreen: 0-lin 1-nonlin 2-no                           
   RPACOR =    1.200    partial core radius                                     
   POMASS =   12.011; ZVAL   =    4.000    mass and valenz                      
   RCORE  =    1.500    outmost cutoff radius                                   
   RWIGS  =    1.630; RWIGS  =    0.863    wigner-seitz radius (au A)           
   ENMAX  =  400.000; ENMIN  =  300.000 eV                                      
   ICORE  =        2    local potential                                         
   LCOR   =        T    correct aug charges                                     
   LPAW   =        T    paw PP                                                  
   EAUG   =  644.873                                                            
   DEXC   =    0.000                                                            
   RMAX   =    1.529    core radius for proj-oper                               
   RAUG   =    1.300    factor for augmentation sphere                          
   RDEP   =    1.501    radius for radial grids                                 
   RDEPT  =    1.300    core radius for aug-charge                              
                                                                                
   Atomic configuration                                                         
    4 entries                                                                   
     n  l   j            E        occ.                                          
     1  0  0.50      -273.3789   2.0000                                         
     2  0  0.50       -13.7508   2.0000                                         
     2  1  0.50        -5.2854   2.0000                                         
     3  2  1.50        -5.4423   0.0000                                         
   Description                                                                  
     l       E           TYP  RCUT    TYP  RCUT                                 
     0    -13.7508458     23  1.200                                             
     0     -8.2022199     23  1.200                                             
     1     -5.2854383     23  1.500                                             
     1     34.0145650     23  1.500                                             
     2     -5.4423304      7  1.500                                             
  local pseudopotential read in
  partial core-charges read in
  partial kinetic energy density read in
  atomic valenz-charges read in
  non local Contribution for L=           0  read in
    real space projection operators read in
  non local Contribution for L=           0  read in
    real space projection operators read in
  non local Contribution for L=           1  read in
    real space projection operators read in
  non local Contribution for L=           1  read in
    real space projection operators read in
    PAW grid and wavefunctions read in
 
   number of l-projection  operators is LMAX  =           4
   number of lm-projection operators is LMMAX =           8
 
 Optimization of the real space projectors (new method)

 maximal supplied QI-value         = 15.12
 optimisation between [QCUT,QGAM] = [ 12.55, 25.10] = [ 44.09,176.36] Ry 
 Optimized for a Real-space Cutoff    1.56 Angstroem

   l    n(q)    QCUT    max X(q) W(low)/X(q) W(high)/X(q)  e(spline) 
   0     12    12.548     2.962    0.12E-05    0.11E-06    0.46E-07
   0     12    12.548    26.414    0.30E-04    0.15E-05    0.76E-07
   1     11    12.548     3.969    0.45E-05    0.12E-05    0.60E-07
   1     11    12.548     5.137    0.15E-04    0.18E-04    0.36E-06
   2     11    12.548   143.970    0.20E-03    0.19E-03    0.76E-06
   2     11    12.548   121.201    0.20E-03    0.19E-03    0.76E-06
 Optimization of the real space projectors (new method)

 maximal supplied QI-value         = 19.84
 optimisation between [QCUT,QGAM] = [ 12.50, 25.00] = [ 43.76,175.03] Ry 
 Optimized for a Real-space Cutoff    1.20 Angstroem

   l    n(q)    QCUT    max X(q) W(low)/X(q) W(high)/X(q)  e(spline) 
   0      9    12.501   168.010    0.44E-04    0.61E-04    0.77E-07
   0      9    12.501   164.674    0.43E-04    0.60E-04    0.75E-07
   1      8    12.501    69.222    0.11E-03    0.13E-03    0.91E-07
   1      8    12.501    56.786    0.11E-03    0.13E-03    0.90E-07
 Optimization of the real space projectors (new method)

 maximal supplied QI-value         = 25.13
 optimisation between [QCUT,QGAM] = [ 12.32, 24.88] = [ 42.47,173.37] Ry 
 Optimized for a Real-space Cutoff    1.16 Angstroem

   l    n(q)    QCUT    max X(q) W(low)/X(q) W(high)/X(q)  e(spline) 
   0      9    12.315   115.676    0.19E-03    0.80E-05    0.34E-06
   0      9    12.315    87.132    0.19E-03    0.82E-05    0.34E-06
   1      8    12.315     4.429    0.18E-03    0.13E-03    0.22E-06
   1      8    12.315     2.733    0.14E-03    0.10E-03    0.18E-06
  PAW_PBE Sc_sv 07Sep2000               :
 energy of atom  1       EATOM=-1273.2868
 kinetic energy error for atom=    0.0014 (will be added to EATOM!!)
  PAW_PBE Cl 06Sep2000                  :
 energy of atom  2       EATOM= -409.7259
 kinetic energy error for atom=    0.0013 (will be added to EATOM!!)
  PAW_PBE C 08Apr2002                   :
 energy of atom  3       EATOM= -147.1560
 kinetic energy error for atom=    0.0057 (will be added to EATOM!!)
 
 
 POSCAR: Sc Cl  C                                
  positions in cartesian coordinates
  No initial velocities read in
 exchange correlation table for  LEXCH =        8
   RHO(1)=    0.500       N(1)  =     2000
   RHO(2)=  100.500       N(2)  =     4000
 


--------------------------------------------------------------------------------------------------------


 ion  position               nearest neighbor table
   1  0.098  0.172  0.550-  70 2.20  65 2.40  66 2.48  50 2.49  49 2.55  61 2.94  17 3.07   5 3.26
                            18 3.26   6 3.31  16 3.41
   2  0.085  0.423  0.543-  71 2.31  67 2.32  66 2.35  50 2.55  51 2.56  62 2.72  19 3.14  18 3.18
                            30 3.25   7 3.34  14 3.43
   3  0.072  0.667  0.546-  68 2.22  67 2.43  52 2.54  63 2.56  72 2.59  51 2.77  31 3.06  20 3.20
                             4 3.30  15 3.33  19 3.36  14 3.41
   4  0.083  0.911  0.546-  68 2.30  69 2.34  65 2.38  64 2.46  49 2.71  52 2.72  17 3.17  32 3.26
                            20 3.28   3 3.30  16 3.33
   5  0.332  0.169  0.544-  70 2.24  74 2.38  69 2.45  49 2.55  53 2.60  54 2.70  17 2.97  21 3.11
                            22 3.16   1 3.26   6 3.28   8 3.42
   6  0.340  0.411  0.546-  70 2.19  75 2.41  71 2.54  50 2.57  54 2.64  55 2.79  22 3.23  18 3.25
                            10 3.25   5 3.28  23 3.31   1 3.31
   7  0.326  0.666  0.540-  72 2.17  76 2.32  71 2.40  51 2.57  56 2.64  55 2.64  24 3.04  19 3.06
                            23 3.24   2 3.34
   8  0.341  0.926  0.545-  69 2.26  73 2.29  52 2.55  53 2.57  72 2.57  56 2.69  21 3.12  20 3.20
                            24 3.26  12 3.33   9 3.35   5 3.42
   9  0.586  0.167  0.545-  78 2.15  73 2.18  74 2.29  57 2.50  53 2.67  58 2.81  25 3.06  21 3.16
                            26 3.20  12 3.29   8 3.35  14 3.40
  10  0.582  0.424  0.549-  75 2.28  74 2.35  79 2.36  59 2.53  54 2.55  58 2.56  27 3.16  22 3.17
                             6 3.25  26 3.28  15 3.38
  11  0.590  0.680  0.541-  76 2.23  80 2.25  60 2.45  75 2.48  59 2.57  55 2.68  28 3.11  27 3.18
                            23 3.41  15 3.42
  12  0.583  0.928  0.541-  73 2.15  77 2.38  76 2.53  57 2.57  60 2.68  56 2.84  24 3.02  25 3.16
                            28 3.22   9 3.29  13 3.33   8 3.33
  13  0.834  0.158  0.547-  77 2.24  66 2.47  78 2.53  62 2.55  61 2.55  57 2.86  29 3.11  30 3.27
                            16 3.31  25 3.31  12 3.33
  14  0.832  0.414  0.546-  67 2.24  78 2.31  79 2.43  63 2.47  62 2.64  58 2.67  31 3.16  26 3.26
                            30 3.29   9 3.40   3 3.41   2 3.43
  15  0.830  0.664  0.546-  79 2.28  80 2.35  68 2.41  63 2.58  59 2.60  64 2.61  27 3.05  32 3.12
                            31 3.26   3 3.33  10 3.38  11 3.42
  16  0.850  0.928  0.541-  65 2.12  77 2.28  80 2.43  61 2.55  60 2.63  64 2.64  32 3.02  29 3.05
                            13 3.31   4 3.33  28 3.34   1 3.41
  17  0.172  0.089  0.462-  70 2.31  65 2.31  69 2.35  36 2.54  33 2.68  37 2.69   5 2.97   1 3.07
                             4 3.17  21 3.39  18 3.43
  18  0.168  0.336  0.456-  71 2.19  66 2.26  70 2.41  38 2.56  34 2.65  33 2.71   2 3.18  23 3.24
                             6 3.25   1 3.26  19 3.40  17 3.43
  19  0.168  0.582  0.453-  72 2.27  71 2.31  35 2.53  67 2.54  39 2.67  34 2.68   7 3.06   2 3.14
                            23 3.32   3 3.36  31 3.36  20 3.36  18 3.40
  20  0.175  0.829  0.455-  72 2.27  69 2.31  68 2.43  40 2.56  36 2.65  35 2.68   8 3.20   3 3.20
                             4 3.28  19 3.36  24 3.43
  21  0.417  0.088  0.457-  69 2.36  73 2.39  74 2.41  37 2.55  40 2.57  41 2.72   5 3.11   8 3.12
                             9 3.16  22 3.30  25 3.31  26 3.38  17 3.39
  22  0.432  0.335  0.455-  74 2.30  75 2.30  37 2.53  70 2.58  42 2.61  38 2.62  26 3.13   5 3.16
                            10 3.17   6 3.23  21 3.30  27 3.39
  23  0.402  0.571  0.450-  71 2.30  76 2.44  38 2.52  75 2.52  43 2.62  39 2.65  18 3.24   7 3.24
                             6 3.31  19 3.32  11 3.41
  24  0.424  0.831  0.456-  76 2.25  72 2.31  73 2.53  44 2.55  40 2.91  39 2.96  12 3.02   7 3.04
                             8 3.26  28 3.27  20 3.43
  25  0.662  0.098  0.454-  78 2.26  73 2.33  45 2.57  41 2.59  77 2.65  44 2.89   9 3.06  12 3.16
                            26 3.30  30 3.31  13 3.31  21 3.31
  26  0.659  0.336  0.455-  74 2.25  79 2.38  78 2.39  42 2.70  46 2.72  41 2.75  22 3.13   9 3.20
                            14 3.26  10 3.28  27 3.29  25 3.30  21 3.38
  27  0.676  0.582  0.458-  79 2.16  75 2.29  80 2.31  42 2.50  47 2.51  43 2.80  15 3.05  10 3.16
                            11 3.18  32 3.26  26 3.29  22 3.39
  28  0.664  0.835  0.452-  76 2.41  80 2.44  77 2.44  44 2.50  43 2.70  48 2.78  11 3.11  12 3.22
                            24 3.27  16 3.34  32 3.40
  29  0.912  0.086  0.455-  77 2.23  66 2.38  65 2.46  45 2.57  33 2.60  48 2.67  16 3.05  13 3.11
                            30 3.29
  30  0.913  0.325  0.453-  66 2.37  67 2.40  45 2.48  78 2.53  46 2.62  34 2.68   2 3.25  13 3.27
                            29 3.29  14 3.29  25 3.31
  31  0.922  0.578  0.457-  67 2.19  35 2.38  68 2.39  79 2.46  46 2.54  47 2.62   3 3.06  14 3.16
                            15 3.26  19 3.36
  32  0.905  0.825  0.457-  80 2.19  68 2.40  65 2.49  48 2.58  47 2.59  36 2.64  16 3.02  15 3.12
                             4 3.26  27 3.26  28 3.40
  33  0.079  0.158  0.395-  29 2.60  17 2.68  18 2.71
  34  0.083  0.412  0.390-  18 2.65  30 2.68  19 2.68
  35  0.067  0.649  0.398-  31 2.38  19 2.53  20 2.68
  36  0.086  0.926  0.403-  17 2.54  32 2.64  20 2.65
  37  0.339  0.172  0.397-  22 2.53  21 2.55  17 2.69
  38  0.331  0.402  0.396-  23 2.52  18 2.56  22 2.62
  39  0.322  0.650  0.384-  23 2.65  19 2.67  24 2.96
  40  0.332  0.933  0.393-  20 2.56  21 2.57  24 2.91
  41  0.578  0.167  0.388-  25 2.59  21 2.72  26 2.75
  42  0.592  0.440  0.393-  27 2.50  22 2.61  26 2.70
  43  0.576  0.658  0.392-  23 2.62  28 2.70  27 2.80
  44  0.576  0.904  0.392-  28 2.50  24 2.55  25 2.89
  45  0.828  0.166  0.396-  30 2.48  29 2.57  25 2.57
  46  0.838  0.422  0.395-  31 2.54  30 2.62  26 2.72
  47  0.831  0.658  0.398-  27 2.51  32 2.59  31 2.62
  48  0.850  0.920  0.392-  32 2.58  29 2.67  28 2.78
  49  0.179  0.087  0.607-   1 2.55   5 2.55   4 2.71
  50  0.169  0.342  0.602-   1 2.49   2 2.55   6 2.57
  51  0.175  0.583  0.605-   2 2.56   7 2.57   3 2.77
  52  0.180  0.826  0.605-   3 2.54   8 2.55   4 2.72
  53  0.413  0.088  0.606-   8 2.57   5 2.60   9 2.67
  54  0.424  0.333  0.611-  10 2.55   6 2.64   5 2.70
  55  0.420  0.600  0.605-   7 2.64  11 2.68   6 2.79
  56  0.405  0.820  0.608-   7 2.64   8 2.69  12 2.84
  57  0.642  0.074  0.608-   9 2.50  12 2.57  13 2.86
  58  0.666  0.347  0.610-  10 2.56  14 2.67   9 2.81
  59  0.661  0.593  0.604-  10 2.53  11 2.57  15 2.60
  60  0.674  0.838  0.598-  11 2.45  16 2.63  12 2.68
  61  0.895  0.067  0.610-  16 2.55  13 2.55   1 2.94
  62  0.910  0.321  0.606-  13 2.55  14 2.64   2 2.72
  63  0.906  0.571  0.603-  14 2.47   3 2.56  15 2.58
  64  0.926  0.836  0.604-   4 2.46  15 2.61  16 2.64
  65  0.003  0.004  0.503-  16 2.12  17 2.31   4 2.38   1 2.40  29 2.46  32 2.49
  66  0.009  0.255  0.500-  18 2.26   2 2.35  30 2.37  29 2.38  13 2.47   1 2.48
  67  0.987  0.491  0.501-  31 2.19  14 2.24   2 2.32  30 2.40   3 2.43  19 2.54
  68  0.003  0.750  0.501-   3 2.22   4 2.30  31 2.39  32 2.40  15 2.41  20 2.43
  69  0.247  0.990  0.501-   8 2.26  20 2.31   4 2.34  17 2.35  21 2.36   5 2.45
  70  0.251  0.254  0.506-   6 2.19   1 2.20   5 2.24  17 2.31  18 2.41  22 2.58
  71  0.244  0.493  0.496-  18 2.19  23 2.30   2 2.31  19 2.31   7 2.40   6 2.54
  72  0.254  0.744  0.495-   7 2.17  19 2.27  20 2.27  24 2.31   8 2.57   3 2.59
  73  0.507  0.010  0.504-  12 2.15   9 2.18   8 2.29  25 2.33  21 2.39  24 2.53
  74  0.509  0.257  0.504-  26 2.25   9 2.29  22 2.30  10 2.35   5 2.38  21 2.41
  75  0.507  0.499  0.498-  10 2.28  27 2.29  22 2.30   6 2.41  11 2.48  23 2.52
  76  0.494  0.740  0.498-  11 2.23  24 2.25   7 2.32  28 2.41  23 2.44  12 2.53
  77  0.760  0.003  0.502-  29 2.23  13 2.24  16 2.28  12 2.38  28 2.44  25 2.65
  78  0.738  0.248  0.503-   9 2.15  25 2.26  14 2.31  26 2.39  13 2.53  30 2.53
  79  0.746  0.503  0.502-  27 2.16  15 2.28  10 2.36  26 2.38  14 2.43  31 2.46
  80  0.750  0.750  0.499-  32 2.19  11 2.25  27 2.31  15 2.35  16 2.43  28 2.44
 
  LATTYP: Found a hexagonal cell.
 ALAT       =    13.7939866762
 C/A-ratio  =     2.0161119278
  
  Lattice vectors:
  
 A1 = (  13.7939866800,   0.0000000000,   0.0000000000)
 A2 = (  -6.8969933400,  11.9459428800,   0.0000000000)
 A3 = (   0.0000000000,   0.0000000000,  27.8102210700)


Analysis of symmetry for initial positions (statically):
=====================================================================
 Subroutine PRICEL returns:
 Original cell was already a primitive cell.
 

 Routine SETGRP: Setting up the symmetry group for a 
 hexagonal supercell.


 Subroutine GETGRP returns: Found  1 space group operations
 (whereof  1 operations were pure point group operations)
 out of a pool of 24 trial point group operations.


The static configuration has the point symmetry C_1 .


Analysis of symmetry for dynamics (positions and initial velocities):
=====================================================================
 Subroutine PRICEL returns:
 Original cell was already a primitive cell.
 

 Routine SETGRP: Setting up the symmetry group for a 
 hexagonal supercell.


 Subroutine GETGRP returns: Found  1 space group operations
 (whereof  1 operations were pure point group operations)
 out of a pool of 24 trial point group operations.


The dynamic configuration has the point symmetry C_1 .


 Subroutine INISYM returns: Found  1 space group operations
 (whereof  1 operations are pure point group operations),
 and found     1 'primitive' translations

 
 

Automatic generation of k-mesh.
 generate k-points for:    3    3    1
Space group operators:
 irot       det(A)        alpha          n_x          n_y          n_z        tau_x        tau_y        tau_z
    1     1.000000     0.000000     1.000000     0.000000     0.000000     0.000000     0.000000     0.000000
 
 Subroutine IBZKPT returns following result:
 ===========================================
 
 Found      5 irreducible k-points:
 
 Following reciprocal coordinates:
            Coordinates               Weight
  0.000000  0.000000  0.000000      1.000000
  0.333333 -0.000000  0.000000      2.000000
  0.000000  0.333333  0.000000      2.000000
  0.333333  0.333333  0.000000      2.000000
 -0.333333  0.333333  0.000000      2.000000
 
 Following cartesian coordinates:
            Coordinates               Weight
  0.000000  0.000000  0.000000      1.000000
  0.024165  0.013952  0.000000      2.000000
  0.000000  0.027903  0.000000      2.000000
  0.024165  0.041855  0.000000      2.000000
 -0.024165  0.013952  0.000000      2.000000
 


--------------------------------------------------------------------------------------------------------




 Dimension of arrays:
   k-points           NKPTS =      5   k-points in BZ     NKDIM =      5   number of bands    NBANDS=    384
   number of dos      NEDOS =    301   number of ions     NIONS =     80
   non local maximal  LDIM  =      6   non local SUM 2l+1 LMDIM =     18
   total plane-waves  NPLWV = ******
   max r-space proj   IRMAX =   9806   max aug-charges    IRDMAX= 216835
   dimension x,y,z NGX =   112 NGY =  112 NGZ =  224
   dimension x,y,z NGXF=   224 NGYF=  224 NGZF=  448
   support grid    NGXF=   448 NGYF=  448 NGZF=  896
   ions per type =              32  32  16
   NGX,Y,Z   is equivalent  to a cutoff of  13.50, 13.50, 13.39 a.u.
   NGXF,Y,Z  is equivalent  to a cutoff of  27.00, 27.00, 26.78 a.u.

 SYSTEM =  unknown system                          
 POSCAR =  Sc Cl  C                                

 Startparameter for this run:
   NWRITE =      2    write-flag & timer
   PREC   = anorma    normal or accurate (medium, high low for compatibility)
   ISTART =      0    job   : 0-new  1-cont  2-samecut
   ICHARG =      2    charge: 1-file 2-atom 10-const
   ISPIN  =      1    spin polarized calculation?
   LNONCOLLINEAR =      F non collinear calculations
   LSORBIT =      F    spin-orbit coupling
   INIWAV =      1    electr: 0-lowe 1-rand  2-diag
   LASPH  =      F    aspherical Exc in radial PAW
   METAGGA=      F    non-selfconsistent MetaGGA calc.

 Electronic Relaxation 1
   ENCUT  =  600.0 eV  44.10 Ry    6.64 a.u.  27.55 27.55 55.54*2*pi/ulx,y,z
   ENINI  =  600.0     initial cutoff
   ENAUG  =  644.9 eV  augmentation charge cutoff
   NELM   =     60;   NELMIN=  2; NELMDL= -5     # of ELM steps 
   EDIFF  = 0.1E-05   stopping-criterion for ELM
   LREAL  =      T    real-space projection
   NLSPLINE    = F    spline interpolate recip. space projectors
   LCOMPAT=      F    compatible to vasp.4.4
   GGA_COMPAT  = T    GGA compatible to vasp.4.4-vasp.4.6
   LMAXPAW     = -100 max onsite density
   LMAXMIX     =    2 max onsite mixed and CHGCAR
   VOSKOWN=      0    Vosko Wilk Nusair interpolation
   ROPT   =   -0.00025  -0.00025  -0.00025
 Ionic relaxation
   EDIFFG = -.1E-01   stopping-criterion for IOM
   NSW    =      1    number of steps for IOM
   NBLOCK =      1;   KBLOCK =      1    inner block; outer block 
   IBRION =     -1    ionic relax: 0-MD 1-quasi-New 2-CG
   NFREE  =      0    steps in history (QN), initial steepest desc. (CG)
   ISIF   =      2    stress and relaxation
   IWAVPR =     10    prediction:  0-non 1-charg 2-wave 3-comb
   ISYM   =      2    0-nonsym 1-usesym 2-fastsym
   LCORR  =      T    Harris-Foulkes like correction to forces

   POTIM  = 1.0000    time-step for ionic-motion
   TEIN   =    0.0    initial temperature
   TEBEG  =    0.0;   TEEND  =   0.0 temperature during run
   SMASS  =  -3.00    Nose mass-parameter (am)
   estimated Nose-frequenzy (Omega)   =  0.10E-29 period in steps =****** mass=  -0.435E-26a.u.
   SCALEE = 1.0000    scale energy and forces
   NPACO  =    256;   APACO  = 16.0  distance and # of slots for P.C.
   PSTRESS=    0.0 pullay stress

  Mass of Ions in am
   POMASS =  44.96 35.45 12.01
  Ionic Valenz
   ZVAL   =  11.00  7.00  4.00
  Atomic Wigner-Seitz radii
   RWIGS  =  -1.00 -1.00 -1.00
  virtual crystal weights 
   VCA    =   1.00  1.00  1.00
   NELECT =     640.0000    total number of electrons
   NUPDOWN=      -1.0000    fix difference up-down

 DOS related values:
   EMIN   =  10.00;   EMAX   =-10.00  energy-range for DOS
   EFERMI =   0.00
   ISMEAR =     0;   SIGMA  =   0.05  broadening in eV -4-tet -1-fermi 0-gaus

 Electronic relaxation 2 (details)
   IALGO  =     38    algorithm
   LDIAG  =      T    sub-space diagonalisation (order eigenvalues)
   LSUBROT=      F    optimize rotation matrix (better conditioning)
   TURBO    =      0    0=normal 1=particle mesh
   IRESTART =      0    0=no restart 2=restart with 2 vectors
   NREBOOT  =      0    no. of reboots
   NMIN     =      0    reboot dimension
   EREF     =   0.00    reference energy to select bands
   IMIX   =      4    mixing-type and parameters
     AMIX     =   0.40;   BMIX     =  1.00
     AMIX_MAG =   1.60;   BMIX_MAG =  1.00
     AMIN     =   0.10
     WC   =   100.;   INIMIX=   1;  MIXPRE=   1;  MAXMIX= -45

 Intra band minimization:
   WEIMIN = 0.0000     energy-eigenvalue tresh-hold
   EBREAK =  0.65E-09  absolut break condition
   DEPER  =   0.30     relativ break condition  

   TIME   =   0.40     timestep for ELM

  volume/ion in A,a.u.               =      57.28       386.56
  Fermi-wavevector in a.u.,A,eV,Ry     =   0.849369  1.605075  9.815628  0.721428
  Thomas-Fermi vector in A             =   1.965179
 
 Write flags
   LWAVE        =      F    write WAVECAR
   LDOWNSAMPLE  =      F    k-point downsampling of WAVECAR
   LCHARG       =      F    write CHGCAR
   LVTOT        =      F    write LOCPOT, total local potential
   LVHAR        =      F    write LOCPOT, Hartree potential only
   LELF         =      F    write electronic localiz. function (ELF)
   LORBIT       =      0    0 simple, 1 ext, 2 COOP (PROOUT), +10 PAW based schemes


 Dipole corrections
   LMONO  =      F    monopole corrections only (constant potential shift)
   LDIPOL =      F    correct potential (dipole corrections)
   IDIPOL =      0    1-x, 2-y, 3-z, 4-all directions 
   EPSILON=  1.0000000 bulk dielectric constant

 Exchange correlation treatment:
   GGA     =    --    GGA type
   LEXCH   =     8    internal setting for exchange type
   VOSKOWN=      0    Vosko Wilk Nusair interpolation
   LHFCALC =     F    Hartree Fock is set to
   LHFONE  =     F    Hartree Fock one center treatment
   AEXX    =    0.0000 exact exchange contribution

 Linear response parameters
   LEPSILON=     F    determine dielectric tensor
   LRPA    =     F    only Hartree local field effects (RPA)
   LNABLA  =     F    use nabla operator in PAW spheres
   LVEL    =     F    velocity operator in full k-point grid
   LINTERFAST=   F  fast interpolation
   KINTER  =     0    interpolate to denser k-point grid
   CSHIFT  =0.1000    complex shift for real part using Kramers Kronig
   OMEGAMAX=  -1.0    maximum frequency
   DEG_THRESHOLD= 0.2000000E-02 threshold for treating states as degnerate
   RTIME   =   -0.100 relaxation time in fs
  (WPLASMAI=    0.000 imaginary part of plasma frequency in eV, 0.658/RTIME)
   DFIELD  = 0.0000000 0.0000000 0.0000000 field for delta impulse in time
 
 Orbital magnetization related:
   ORBITALMAG=     F  switch on orbital magnetization
   LCHIMAG   =     F  perturbation theory with respect to B field
   DQ        =  0.001000  dq finite difference perturbation B field
   LLRAUG    =     F  two centre corrections for induced B field



--------------------------------------------------------------------------------------------------------


 Static calculation
 charge density and potential will be updated during run
 non-spin polarized calculation
 Variant of blocked Davidson
 Davidson routine will perform the subspace rotation
 perform sub-space diagonalisation
    after iterative eigenvector-optimisation
 modified Broyden-mixing scheme, WC =      100.0
 initial mixing is a Kerker type mixing with AMIX =  0.4000 and BMIX =      1.0000
 Hartree-type preconditioning will be used
 using additional bands           64
 real space projection scheme for non local part
 use partial core corrections
 calculate Harris-corrections to forces 
   (improved forces if not selfconsistent)
 use gradient corrections 
 use of overlap-Matrix (Vanderbilt PP)
 Gauss-broadening in eV      SIGMA  =   0.05


--------------------------------------------------------------------------------------------------------


  energy-cutoff  :      600.00
  volume of cell :     4582.63
      direct lattice vectors                 reciprocal lattice vectors
    13.793986680  0.000000000  0.000000000     0.072495358  0.041855214  0.000000000
    -6.896993340 11.945942880  0.000000000     0.000000000  0.083710429  0.000000000
     0.000000000  0.000000000 27.810221070     0.000000000  0.000000000  0.035958003

  length of vectors
    13.793986680 13.793986676 27.810221070     0.083710429  0.083710429  0.035958003


 
 k-points in units of 2pi/SCALE and weight: read from INCAR                         
   0.00000000  0.00000000  0.00000000       0.111
   0.02416512  0.01395174  0.00000000       0.222
   0.00000000  0.02790348  0.00000000       0.222
   0.02416512  0.04185521  0.00000000       0.222
  -0.02416512  0.01395174  0.00000000       0.222
 
 k-points in reciprocal lattice and weights: read from INCAR                         
   0.00000000  0.00000000  0.00000000       0.111
   0.33333333 -0.00000000  0.00000000       0.222
   0.00000000  0.33333333  0.00000000       0.222
   0.33333333  0.33333333  0.00000000       0.222
  -0.33333333  0.33333333  0.00000000       0.222
 
 position of ions in fractional coordinates (direct lattice) 
   0.09807236  0.17247024  0.54958201
   0.08495045  0.42344915  0.54345148
   0.07248529  0.66653249  0.54582010
   0.08255410  0.91055263  0.54627824
   0.33245862  0.16947578  0.54364824
   0.33968119  0.41061338  0.54614537
   0.32604239  0.66649274  0.53970271
   0.34063297  0.92565546  0.54507708
   0.58564570  0.16694860  0.54469121
   0.58158314  0.42381023  0.54921537
   0.58999612  0.67971119  0.54149127
   0.58306117  0.92750812  0.54068212
   0.83355488  0.15846095  0.54656811
   0.83178593  0.41370410  0.54600461
   0.83008562  0.66437850  0.54561403
   0.85020657  0.92760293  0.54137362
   0.17173401  0.08934217  0.46206461
   0.16822127  0.33585510  0.45565789
   0.16765694  0.58184998  0.45320005
   0.17527968  0.82935570  0.45485348
   0.41693660  0.08788959  0.45740071
   0.43199866  0.33461674  0.45527456
   0.40225894  0.57091395  0.44964003
   0.42444059  0.83074321  0.45642463
   0.66188955  0.09799346  0.45394724
   0.65938364  0.33593461  0.45536689
   0.67560327  0.58210423  0.45846419
   0.66381008  0.83510668  0.45200074
   0.91207347  0.08569797  0.45548152
   0.91316558  0.32457888  0.45308404
   0.92228310  0.57786145  0.45694315
   0.90494888  0.82490269  0.45738163
   0.07862768  0.15798496  0.39540639
   0.08335675  0.41169121  0.39014844
   0.06748160  0.64921776  0.39808736
   0.08616313  0.92646273  0.40331540
   0.33924059  0.17161637  0.39724547
   0.33056058  0.40221144  0.39576199
   0.32153257  0.65044205  0.38370116
   0.33211154  0.93310286  0.39342762
   0.57807213  0.16718630  0.38825366
   0.59244859  0.43973814  0.39263941
   0.57573898  0.65781657  0.39201891
   0.57633256  0.90387570  0.39223749
   0.82823704  0.16606697  0.39560686
   0.83817127  0.42169367  0.39493527
   0.83140510  0.65797365  0.39790698
   0.84963440  0.91998932  0.39173549
   0.17869806  0.08710408  0.60712685
   0.16861872  0.34165252  0.60159230
   0.17463328  0.58256783  0.60501718
   0.17998742  0.82606261  0.60487598
   0.41342899  0.08750563  0.60556077
   0.42362095  0.33297004  0.61062896
   0.42024090  0.59952134  0.60450436
   0.40530001  0.82045389  0.60781746
   0.64150063  0.07445337  0.60752155
   0.66587555  0.34668487  0.60984381
   0.66086781  0.59301867  0.60411064
   0.67360487  0.83761645  0.59789104
   0.89546421  0.06663469  0.60978238
   0.91022556  0.32113153  0.60593214
   0.90578805  0.57117766  0.60343555
   0.92612430  0.83642806  0.60351628
   0.00346668  0.00357132  0.50329516
   0.00929641  0.25537444  0.49975841
   0.98690983  0.49149985  0.50101774
   0.00264271  0.74989055  0.50089684
   0.24728402  0.99023632  0.50072692
   0.25091397  0.25387061  0.50579107
   0.24390636  0.49290227  0.49640963
   0.25424029  0.74390005  0.49546126
   0.50701774  0.01017491  0.50434693
   0.50910875  0.25710950  0.50436199
   0.50741030  0.49875094  0.49822370
   0.49431893  0.74012612  0.49848731
   0.75960008  0.00332582  0.50161458
   0.73755404  0.24846213  0.50338815
   0.74552153  0.50301532  0.50216032
   0.75019137  0.74959395  0.49942300
 
 position of ions in cartesian coordinates  (Angst):
   0.16328271  2.06031959 15.28399709
  -1.74872059  5.05849930 15.11350593
  -3.59720907  7.96235907 15.17937771
  -5.14132523 10.87740972 15.19211872
   3.41705649  2.02454796 15.11897786
   1.85356015  4.90516394 15.18842356
  -0.09937162  7.96188420 15.00925179
  -1.68555289 11.05782728 15.15871400
   6.92694565  1.99435845 15.14798303
   5.09933370  5.06281279 15.27380095
   3.45043508  8.11979102 15.05899196
   1.64572072 11.07995903 15.03648937
  10.40514083  1.89296543 15.20017990
   8.62032960  4.94208550 15.18450903
   6.86797586  7.93662766 15.17364683
   5.33006694 11.08109159 15.05572009
   1.75270424  1.06727649 12.85011905
   0.00405160  4.01210585 12.67194658
  -1.70035785  6.95074657 12.60359361
  -3.30225516  9.90743581 12.64957596
   5.14504403  1.04992405 12.72041486
   3.65113433  3.99731246 12.66128627
   1.61116477  6.82010549 12.50458871
   0.12509752  9.92401091 12.69326978
   8.45423538  1.17062423 12.62437304
   6.77859044  4.01305567 12.66385377
   5.30449355  6.95378383 12.74999047
   3.39686217  9.97613672 12.57024037
  11.99007096  1.02374311 12.66704174
  10.35757547  3.87740082 12.60036723
   8.73645425  6.90309988 12.70769014
   6.79350443  9.85424036 12.71988432
  -0.00503196  1.88727927 10.99633924
  -1.68960972  4.91803972 10.85011423
  -3.54681035  7.75551833 11.07089750
  -5.20127420 11.06747080 11.21629039
   3.49584323  2.05011940 11.04748432
   1.78569860  4.80479492 11.00622835
  -0.05087850  7.77014360 10.67081401
  -1.85446213 11.14679349 10.94130904
   6.82083642  1.99719804 10.79742006
   5.13935698  5.25308672 10.91938869
   3.40477939  7.85823913 10.90213266
   1.71589898 10.79764753 10.90821140
  10.27932795  1.98382650 11.00191418
   8.65330490  5.03752855 10.98323723
   6.93035098  7.86011568 11.06588113
   5.37468537 10.99013981 10.89425047
   1.86420243  1.04054039 16.88433180
  -0.03045079  4.08136149 16.73041475
  -1.60907725  6.95932199 16.82566156
  -3.21460434  9.86809680 16.82173461
   5.09930827  1.04533724 16.84077890
   3.54692962  3.97764107 16.98172645
   1.66190263  7.16184773 16.81139992
  -0.06796205  9.80109532 16.90353790
   8.33534673  0.88941569 16.89530848
   6.79399522  4.14147767 16.95989131
   5.02595601  7.08416710 16.80045051
   3.51466154 10.00611829 16.62748200
  11.89244237  0.79601423 16.95818279
  10.34079724  3.83621896 16.85110685
   8.55501984  6.82325567 16.78167605
   7.00610753  9.99192180 16.78392120
   0.02318795  0.04266276 13.99674957
  -1.63308126  3.05068848 13.89839177
  10.22354992  5.87142910 13.93341406
  -5.13553662  8.95814967 13.93005180
  -3.41862086 11.82930648 13.92532634
   1.71016007  3.03272383 14.06616142
  -0.03510263  5.88818233 13.80526152
  -1.62368651  8.88658750 13.77888721
   6.92361969  0.12154889 14.02599959
   5.24935673  3.07141545 14.02641855
   3.55932897  5.95805020 13.85571128
   1.71398383  8.84150432 13.86304239
  10.45497525  0.03973000 13.95001231
   8.46016904  2.96811437 13.99933567
   6.81442075  6.00899232 13.96518956
   5.17818529  8.95460654 13.88906410
 


--------------------------------------------------------------------------------------------------------


 k-point  1 :   0.0000 0.0000 0.0000  plane waves:  153003
 k-point  2 :   0.3333-0.0000 0.0000  plane waves:  152954
 k-point  3 :   0.0000 0.3333 0.0000  plane waves:  152954
 k-point  4 :   0.3333 0.3333 0.0000  plane waves:  152898
 k-point  5 :  -0.3333 0.3333 0.0000  plane waves:  152954

 maximum and minimum number of plane-waves per node :     11814    11730

 maximum number of plane-waves:    153003
 maximum index in each direction: 
   IXMAX=   27   IYMAX=   27   IZMAX=   55
   IXMIN=  -27   IYMIN=  -27   IZMIN=  -55


 real space projection operators:
  total allocation   :      55049.66 KBytes
  max/ min on nodes  :       4449.75       3914.31


 parallel 3D FFT for wavefunctions:
    minimum data exchange during FFTs selected (reduces bandwidth)
 parallel 3D FFT for charge:
    minimum data exchange during FFTs selected (reduces bandwidth)


 total amount of memory used by VASP MPI-rank0   253946. kBytes
=======================================================================

   base      :      30000. kBytes
   nonlr-proj:      18762. kBytes
   fftplans  :      72602. kBytes
   grid      :      41267. kBytes
   one-center:        108. kBytes
   wavefun   :      91207. kBytes
 
     INWAV:  cpu time    0.0000: real time    0.0000
 Broyden mixing: mesh for mixing (old mesh)
   NGX = 55   NGY = 55   NGZ =111
  (NGX  =224   NGY  =224   NGZ  =448)
  gives a total of 335775 points

 initial charge density was supplied:
 charge density of overlapping atoms calculated
 number of electron     640.0000000 magnetization 
 keeping initial charge density in first step


--------------------------------------------------------------------------------------------------------


 Maximum index for non-local projection operator          944
 Maximum index for augmentation-charges         4897 (set IRDMAX)


--------------------------------------------------------------------------------------------------------


 First call to EWALD:  gamma=   0.107
 Maximum number of real-space cells 4x 4x 2
 Maximum number of reciprocal cells 2x 2x 4

    FEWALD:  cpu time    0.0029: real time    0.0029


--------------------------------------- Iteration      1(   1)  ---------------------------------------


    POTLOK:  cpu time    0.4112: real time    0.4164
    SETDIJ:  cpu time    0.4228: real time    0.4229
     EDDAV:  cpu time   50.2541: real time   50.2567
       DOS:  cpu time    0.0011: real time    0.0011
    --------------------------------------------
      LOOP:  cpu time   51.0892: real time   51.0971

 eigenvalue-minimisations  :  4424
 total energy-change (2. order) : 0.1218257E+05  (-0.2679828E+05)
 number of electron     640.0000000 magnetization 
 augmentation part      640.0000000 magnetization 

 Free energy of the ion-electron system (eV)
  ---------------------------------------------------
  alpha Z        PSCENC =       784.57699423
  Ewald energy   TEWEN  =    251701.72080362
  -Hartree energ DENC   =   -299363.67391482
  -exchange      EXHF   =         0.00000000
  -V(xc)+E(xc)   XCENC  =      2502.41831252
  PAW double counting   =     43679.68029659   -43417.33247688
  entropy T*S    EENTRO =        -0.06489024
  eigenvalues    EBANDS =        84.51700133
  atomic energy  EATOM  =     56210.72393729
  Solvation  Ediel_sol  =         0.00000000
  ---------------------------------------------------
  free energy    TOTEN  =     12182.56606364 eV

  energy without entropy =    12182.63095388  energy(sigma->0) =    12182.59850876


--------------------------------------------------------------------------------------------------------




--------------------------------------- Iteration      1(   2)  ---------------------------------------


     EDDAV:  cpu time   56.7729: real time   56.7870
       DOS:  cpu time    0.0014: real time    0.0014
    --------------------------------------------
      LOOP:  cpu time   56.7742: real time   56.7884

 eigenvalue-minimisations  :  5192
 total energy-change (2. order) :-0.1043371E+05  (-0.1016280E+05)
 number of electron     640.0000000 magnetization 
 augmentation part      640.0000000 magnetization 

 Free energy of the ion-electron system (eV)
  ---------------------------------------------------
  alpha Z        PSCENC =       784.57699423
  Ewald energy   TEWEN  =    251701.72080362
  -Hartree energ DENC   =   -299363.67391482
  -exchange      EXHF   =         0.00000000
  -V(xc)+E(xc)   XCENC  =      2502.41831252
  PAW double counting   =     43679.68029659   -43417.33247688
  entropy T*S    EENTRO =        -0.03979622
  eigenvalues    EBANDS =    -10349.21494578
  atomic energy  EATOM  =     56210.72393729
  Solvation  Ediel_sol  =         0.00000000
  ---------------------------------------------------
  free energy    TOTEN  =      1748.85921055 eV

  energy without entropy =     1748.89900677  energy(sigma->0) =     1748.87910866


--------------------------------------------------------------------------------------------------------




--------------------------------------- Iteration      1(   3)  ---------------------------------------


     EDDAV:  cpu time   70.9921: real time   71.0004
       DOS:  cpu time    0.0006: real time    0.0006
    --------------------------------------------
      LOOP:  cpu time   70.9927: real time   71.0010

 eigenvalue-minimisations  :  6800
 total energy-change (2. order) :-0.2150661E+04  (-0.2062928E+04)
 number of electron     640.0000000 magnetization 
 augmentation part      640.0000000 magnetization 

 Free energy of the ion-electron system (eV)
  ---------------------------------------------------
  alpha Z        PSCENC =       784.57699423
  Ewald energy   TEWEN  =    251701.72080362
  -Hartree energ DENC   =   -299363.67391482
  -exchange      EXHF   =         0.00000000
  -V(xc)+E(xc)   XCENC  =      2502.41831252
  PAW double counting   =     43679.68029659   -43417.33247688
  entropy T*S    EENTRO =        -0.00000000
  eigenvalues    EBANDS =    -12499.91591740
  atomic energy  EATOM  =     56210.72393729
  Solvation  Ediel_sol  =         0.00000000
  ---------------------------------------------------
  free energy    TOTEN  =      -401.80196485 eV

  energy without entropy =     -401.80196485  energy(sigma->0) =     -401.80196485


--------------------------------------------------------------------------------------------------------




--------------------------------------- Iteration      1(   4)  ---------------------------------------


     EDDAV:  cpu time   64.7970: real time   64.8066
       DOS:  cpu time    0.0007: real time    0.0007
    --------------------------------------------
      LOOP:  cpu time   64.7977: real time   64.8072

 eigenvalue-minimisations  :  6096
 total energy-change (2. order) :-0.2407813E+03  (-0.2360279E+03)
 number of electron     640.0000000 magnetization 
 augmentation part      640.0000000 magnetization 

 Free energy of the ion-electron system (eV)
  ---------------------------------------------------
  alpha Z        PSCENC =       784.57699423
  Ewald energy   TEWEN  =    251701.72080362
  -Hartree energ DENC   =   -299363.67391482
  -exchange      EXHF   =         0.00000000
  -V(xc)+E(xc)   XCENC  =      2502.41831252
  PAW double counting   =     43679.68029659   -43417.33247688
  entropy T*S    EENTRO =        -0.00000000
  eigenvalues    EBANDS =    -12740.69716825
  atomic energy  EATOM  =     56210.72393729
  Solvation  Ediel_sol  =         0.00000000
  ---------------------------------------------------
  free energy    TOTEN  =      -642.58321570 eV

  energy without entropy =     -642.58321570  energy(sigma->0) =     -642.58321570


--------------------------------------------------------------------------------------------------------




--------------------------------------- Iteration      1(   5)  ---------------------------------------


     EDDAV:  cpu time   64.6603: real time   64.6690
       DOS:  cpu time    0.0006: real time    0.0006
    CHARGE:  cpu time    3.8928: real time    3.8930
    MIXING:  cpu time    0.0129: real time    0.0129
    --------------------------------------------
      LOOP:  cpu time   68.5666: real time   68.5755

 eigenvalue-minimisations  :  6080
 total energy-change (2. order) :-0.1066638E+02  (-0.1061085E+02)
 number of electron     640.0000003 magnetization 
 augmentation part       59.1877943 magnetization 

 Broyden mixing:
  rms(total) = 0.69583E+01    rms(broyden)= 0.69581E+01
  rms(prec ) = 0.73215E+01
  weight for this iteration     100.00

 Free energy of the ion-electron system (eV)
  ---------------------------------------------------
  alpha Z        PSCENC =       784.57699423
  Ewald energy   TEWEN  =    251701.72080362
  -Hartree energ DENC   =   -299363.67391482
  -exchange      EXHF   =         0.00000000
  -V(xc)+E(xc)   XCENC  =      2502.41831252
  PAW double counting   =     43679.68029659   -43417.33247688
  entropy T*S    EENTRO =        -0.00000000
  eigenvalues    EBANDS =    -12751.36354960
  atomic energy  EATOM  =     56210.72393729
  Solvation  Ediel_sol  =         0.00000000
  ---------------------------------------------------
  free energy    TOTEN  =      -653.24959705 eV

  energy without entropy =     -653.24959705  energy(sigma->0) =     -653.24959705


--------------------------------------------------------------------------------------------------------




--------------------------------------- Iteration      1(   6)  ---------------------------------------


    POTLOK:  cpu time    0.3846: real time    0.3943
    SETDIJ:  cpu time    0.4207: real time    0.4208
     EDDAV:  cpu time   62.7083: real time   62.7198
       DOS:  cpu time    0.0007: real time    0.0007
    CHARGE:  cpu time    3.9065: real time    3.9065
    MIXING:  cpu time    0.0176: real time    0.0176
    --------------------------------------------
      LOOP:  cpu time   67.4384: real time   67.4597

 eigenvalue-minimisations  :  5840
 total energy-change (2. order) : 0.1306543E+03  (-0.7022702E+02)
 number of electron     640.0000004 magnetization 
 augmentation part       70.0475305 magnetization 

 Broyden mixing:
  rms(total) = 0.30176E+01    rms(broyden)= 0.30175E+01
  rms(prec ) = 0.30513E+01
  weight for this iteration     100.00

 eigenvalues of (default mixing * dielectric matrix)
  average eigenvalue GAMMA=   0.9517
  0.9517

 Free energy of the ion-electron system (eV)
  ---------------------------------------------------
  alpha Z        PSCENC =       784.57699423
  Ewald energy   TEWEN  =    251701.72080362
  -Hartree energ DENC   =   -299164.76824468
  -exchange      EXHF   =         0.00000000
  -V(xc)+E(xc)   XCENC  =      2492.08188314
  PAW double counting   =     49204.29075400   -48996.52338810
  entropy T*S    EENTRO =        -0.00000000
  eigenvalues    EBANDS =    -12754.69800679
  atomic energy  EATOM  =     56210.72393729
  Solvation  Ediel_sol  =         0.00000000
  ---------------------------------------------------
  free energy    TOTEN  =      -522.59526730 eV

  energy without entropy =     -522.59526730  energy(sigma->0) =     -522.59526730


--------------------------------------------------------------------------------------------------------




--------------------------------------- Iteration      1(   7)  ---------------------------------------


    POTLOK:  cpu time    0.3842: real time    0.3931
    SETDIJ:  cpu time    0.4218: real time    0.4218
     EDDAV:  cpu time   63.2578: real time   63.2613
       DOS:  cpu time    0.0007: real time    0.0007
    CHARGE:  cpu time    3.8959: real time    3.8960
    MIXING:  cpu time    0.0185: real time    0.0185
    --------------------------------------------
      LOOP:  cpu time   67.9790: real time   67.9914

 eigenvalue-minimisations  :  5904
 total energy-change (2. order) :-0.4600314E+01  (-0.8611995E+01)
 number of electron     640.0000004 magnetization 
 augmentation part       69.4818382 magnetization 

 Broyden mixing:
  rms(total) = 0.15225E+01    rms(broyden)= 0.15225E+01
  rms(prec ) = 0.15576E+01
  weight for this iteration     100.00

 eigenvalues of (default mixing * dielectric matrix)
  average eigenvalue GAMMA=   1.0026
  1.0026  1.0026

 Free energy of the ion-electron system (eV)
  ---------------------------------------------------
  alpha Z        PSCENC =       784.57699423
  Ewald energy   TEWEN  =    251701.72080362
  -Hartree energ DENC   =   -299260.82260653
  -exchange      EXHF   =         0.00000000
  -V(xc)+E(xc)   XCENC  =      2488.03711039
  PAW double counting   =     54161.24368797   -53967.84133156
  entropy T*S    EENTRO =        -0.00000000
  eigenvalues    EBANDS =    -12644.83417716
  atomic energy  EATOM  =     56210.72393729
  Solvation  Ediel_sol  =         0.00000000
  ---------------------------------------------------
  free energy    TOTEN  =      -527.19558176 eV

  energy without entropy =     -527.19558176  energy(sigma->0) =     -527.19558176


--------------------------------------------------------------------------------------------------------




--------------------------------------- Iteration      1(   8)  ---------------------------------------


    POTLOK:  cpu time    0.3853: real time    0.3939
    SETDIJ:  cpu time    0.4213: real time    0.4213
     EDDAV:  cpu time   61.5540: real time   61.5565
       DOS:  cpu time    0.0005: real time    0.0005
    CHARGE:  cpu time    3.9010: real time    3.9010
    MIXING:  cpu time    0.0176: real time    0.0176
    --------------------------------------------
      LOOP:  cpu time   66.2797: real time   66.2908

 eigenvalue-minimisations  :  5712
 total energy-change (2. order) : 0.2181465E+01  (-0.9409289E+00)
 number of electron     640.0000004 magnetization 
 augmentation part       69.2868644 magnetization 

 Broyden mixing:
  rms(total) = 0.92393E+00    rms(broyden)= 0.92393E+00
  rms(prec ) = 0.93925E+00
  weight for this iteration     100.00

 eigenvalues of (default mixing * dielectric matrix)
  average eigenvalue GAMMA=   1.4043
  2.4779  0.8675  0.8675

 Free energy of the ion-electron system (eV)
  ---------------------------------------------------
  alpha Z        PSCENC =       784.57699423
  Ewald energy   TEWEN  =    251701.72080362
  -Hartree energ DENC   =   -299327.37057605
  -exchange      EXHF   =         0.00000000
  -V(xc)+E(xc)   XCENC  =      2488.02891263
  PAW double counting   =     56145.55387589   -55962.96973829
  entropy T*S    EENTRO =        -0.00000000
  eigenvalues    EBANDS =    -12565.27832592
  atomic energy  EATOM  =     56210.72393729
  Solvation  Ediel_sol  =         0.00000000
  ---------------------------------------------------
  free energy    TOTEN  =      -525.01411660 eV

  energy without entropy =     -525.01411660  energy(sigma->0) =     -525.01411660


--------------------------------------------------------------------------------------------------------




--------------------------------------- Iteration      1(   9)  ---------------------------------------


    POTLOK:  cpu time    0.3858: real time    0.3957
    SETDIJ:  cpu time    0.4211: real time    0.4212
     EDDAV:  cpu time   58.8089: real time   58.8120
       DOS:  cpu time    0.0006: real time    0.0006
    CHARGE:  cpu time    3.8841: real time    3.8841
    MIXING:  cpu time    0.0188: real time    0.0187
    --------------------------------------------
      LOOP:  cpu time   63.5192: real time   63.5324

 eigenvalue-minimisations  :  5400
 total energy-change (2. order) : 0.4780783E+00  (-0.3619906E+00)
 number of electron     640.0000004 magnetization 
 augmentation part       69.9180932 magnetization 

 Broyden mixing:
  rms(total) = 0.28877E+00    rms(broyden)= 0.28875E+00
  rms(prec ) = 0.30317E+00
  weight for this iteration     100.00

 eigenvalues of (default mixing * dielectric matrix)
  average eigenvalue GAMMA=   1.2164
  2.2174  0.8561  0.8561  0.9359

 Free energy of the ion-electron system (eV)
  ---------------------------------------------------
  alpha Z        PSCENC =       784.57699423
  Ewald energy   TEWEN  =    251701.72080362
  -Hartree energ DENC   =   -299448.28654822
  -exchange      EXHF   =         0.00000000
  -V(xc)+E(xc)   XCENC  =      2487.61055576
  PAW double counting   =     59757.48378369   -59591.15653399
  entropy T*S    EENTRO =        -0.00000000
  eigenvalues    EBANDS =    -12427.20903064
  atomic energy  EATOM  =     56210.72393729
  Solvation  Ediel_sol  =         0.00000000
  ---------------------------------------------------
  free energy    TOTEN  =      -524.53603827 eV

  energy without entropy =     -524.53603827  energy(sigma->0) =     -524.53603827


--------------------------------------------------------------------------------------------------------




--------------------------------------- Iteration      1(  10)  ---------------------------------------


    POTLOK:  cpu time    0.3850: real time    0.3934
    SETDIJ:  cpu time    0.4205: real time    0.4205
     EDDAV:  cpu time   62.0755: real time   62.0768
       DOS:  cpu time    0.0007: real time    0.0007
    CHARGE:  cpu time    3.8953: real time    3.8954
    MIXING:  cpu time    0.0189: real time    0.0189
    --------------------------------------------
      LOOP:  cpu time   66.7960: real time   66.8057

 eigenvalue-minimisations  :  5768
 total energy-change (2. order) : 0.1354774E+00  (-0.5539499E-01)
 number of electron     640.0000004 magnetization 
 augmentation part       69.7986971 magnetization 

 Broyden mixing:
  rms(total) = 0.16956E+00    rms(broyden)= 0.16956E+00
  rms(prec ) = 0.17692E+00
  weight for this iteration     100.00

 eigenvalues of (default mixing * dielectric matrix)
  average eigenvalue GAMMA=   1.2209
  2.2285  1.3512  0.9220  0.9220  0.6808

 Free energy of the ion-electron system (eV)
  ---------------------------------------------------
  alpha Z        PSCENC =       784.57699423
  Ewald energy   TEWEN  =    251701.72080362
  -Hartree energ DENC   =   -299476.96900236
  -exchange      EXHF   =         0.00000000
  -V(xc)+E(xc)   XCENC  =      2488.11329518
  PAW double counting   =     59401.19587403   -59233.31341286
  entropy T*S    EENTRO =        -0.00000000
  eigenvalues    EBANDS =    -12400.44905000
  atomic energy  EATOM  =     56210.72393729
  Solvation  Ediel_sol  =         0.00000000
  ---------------------------------------------------
  free energy    TOTEN  =      -524.40056087 eV

  energy without entropy =     -524.40056087  energy(sigma->0) =     -524.40056087


--------------------------------------------------------------------------------------------------------




--------------------------------------- Iteration      1(  11)  ---------------------------------------


    POTLOK:  cpu time    0.3855: real time    0.3941
    SETDIJ:  cpu time    0.4223: real time    0.4223
     EDDAV:  cpu time   61.9880: real time   61.9896
       DOS:  cpu time    0.0006: real time    0.0006
    CHARGE:  cpu time    3.8830: real time    3.8834
    MIXING:  cpu time    0.0193: real time    0.0193
    --------------------------------------------
      LOOP:  cpu time   66.6986: real time   66.7093

 eigenvalue-minimisations  :  5760
 total energy-change (2. order) : 0.2201947E-01  (-0.2558725E-01)
 number of electron     640.0000004 magnetization 
 augmentation part       69.7340831 magnetization 

 Broyden mixing:
  rms(total) = 0.72995E-01    rms(broyden)= 0.72993E-01
  rms(prec ) = 0.79305E-01
  weight for this iteration     100.00

 eigenvalues of (default mixing * dielectric matrix)
  average eigenvalue GAMMA=   1.2745
  2.5302  1.7236  0.9017  0.9017  0.8724  0.7173

 Free energy of the ion-electron system (eV)
  ---------------------------------------------------
  alpha Z        PSCENC =       784.57699423
  Ewald energy   TEWEN  =    251701.72080362
  -Hartree energ DENC   =   -299524.92814631
  -exchange      EXHF   =         0.00000000
  -V(xc)+E(xc)   XCENC  =      2488.69370408
  PAW double counting   =     59498.99279401   -59331.18644077
  entropy T*S    EENTRO =        -0.00000000
  eigenvalues    EBANDS =    -12352.97218755
  atomic energy  EATOM  =     56210.72393729
  Solvation  Ediel_sol  =         0.00000000
  ---------------------------------------------------
  free energy    TOTEN  =      -524.37854140 eV

  energy without entropy =     -524.37854140  energy(sigma->0) =     -524.37854140


--------------------------------------------------------------------------------------------------------




--------------------------------------- Iteration      1(  12)  ---------------------------------------


    POTLOK:  cpu time    0.3848: real time    0.3930
    SETDIJ:  cpu time    0.4212: real time    0.4247
     EDDAV:  cpu time   65.2737: real time   65.2759
       DOS:  cpu time    0.0007: real time    0.0007
    CHARGE:  cpu time    3.8874: real time    3.8875
    MIXING:  cpu time    0.0188: real time    0.0188
    --------------------------------------------
      LOOP:  cpu time   69.9867: real time   70.0006

 eigenvalue-minimisations  :  6128
 total energy-change (2. order) : 0.1325585E-01  (-0.3911638E-02)
 number of electron     640.0000004 magnetization 
 augmentation part       69.7231070 magnetization 

 Broyden mixing:
  rms(total) = 0.31254E-01    rms(broyden)= 0.31254E-01
  rms(prec ) = 0.37737E-01
  weight for this iteration     100.00

 eigenvalues of (default mixing * dielectric matrix)
  average eigenvalue GAMMA=   1.2530
  2.2127  2.2127  0.9339  0.9339  0.9037  0.9037  0.6705

 Free energy of the ion-electron system (eV)
  ---------------------------------------------------
  alpha Z        PSCENC =       784.57699423
  Ewald energy   TEWEN  =    251701.72080362
  -Hartree energ DENC   =   -299560.54277344
  -exchange      EXHF   =         0.00000000
  -V(xc)+E(xc)   XCENC  =      2489.12433457
  PAW double counting   =     59582.99263938   -59415.38026028
  entropy T*S    EENTRO =        -0.00000000
  eigenvalues    EBANDS =    -12317.58096092
  atomic energy  EATOM  =     56210.72393729
  Solvation  Ediel_sol  =         0.00000000
  ---------------------------------------------------
  free energy    TOTEN  =      -524.36528555 eV

  energy without entropy =     -524.36528555  energy(sigma->0) =     -524.36528555


--------------------------------------------------------------------------------------------------------




--------------------------------------- Iteration      1(  13)  ---------------------------------------


    POTLOK:  cpu time    0.3831: real time    0.3915
    SETDIJ:  cpu time    0.4217: real time    0.4218
     EDDAV:  cpu time   60.0184: real time   60.0205
       DOS:  cpu time    0.0006: real time    0.0006
    CHARGE:  cpu time    3.8924: real time    3.8925
    MIXING:  cpu time    0.0181: real time    0.0181
    --------------------------------------------
      LOOP:  cpu time   64.7344: real time   64.7449

 eigenvalue-minimisations  :  5536
 total energy-change (2. order) : 0.1910215E-02  (-0.1109113E-02)
 number of electron     640.0000004 magnetization 
 augmentation part       69.7234080 magnetization 

 Broyden mixing:
  rms(total) = 0.20563E-01    rms(broyden)= 0.20563E-01
  rms(prec ) = 0.26830E-01
  weight for this iteration     100.00

 eigenvalues of (default mixing * dielectric matrix)
  average eigenvalue GAMMA=   1.2631
  2.5485  2.0304  1.1947  0.9305  0.9305  0.9143  0.9143  0.6415

 Free energy of the ion-electron system (eV)
  ---------------------------------------------------
  alpha Z        PSCENC =       784.57699423
  Ewald energy   TEWEN  =    251701.72080362
  -Hartree energ DENC   =   -299578.01667626
  -exchange      EXHF   =         0.00000000
  -V(xc)+E(xc)   XCENC  =      2489.28154089
  PAW double counting   =     59526.56405116   -59358.73486579
  entropy T*S    EENTRO =        -0.00000000
  eigenvalues    EBANDS =    -12300.47916047
  atomic energy  EATOM  =     56210.72393729
  Solvation  Ediel_sol  =         0.00000000
  ---------------------------------------------------
  free energy    TOTEN  =      -524.36337533 eV

  energy without entropy =     -524.36337533  energy(sigma->0) =     -524.36337533


--------------------------------------------------------------------------------------------------------




--------------------------------------- Iteration      1(  14)  ---------------------------------------


    POTLOK:  cpu time    0.3832: real time    0.3930
    SETDIJ:  cpu time    0.4213: real time    0.4213
     EDDAV:  cpu time   60.1720: real time   60.1741
       DOS:  cpu time    0.0005: real time    0.0005
    CHARGE:  cpu time    3.8845: real time    3.8846
    MIXING:  cpu time    0.0205: real time    0.0205
    --------------------------------------------
      LOOP:  cpu time   64.8821: real time   64.8940

 eigenvalue-minimisations  :  5552
 total energy-change (2. order) : 0.1776950E-02  (-0.5627150E-03)
 number of electron     640.0000004 magnetization 
 augmentation part       69.7329161 magnetization 

 Broyden mixing:
  rms(total) = 0.16064E-01    rms(broyden)= 0.16064E-01
  rms(prec ) = 0.20458E-01
  weight for this iteration     100.00

 eigenvalues of (default mixing * dielectric matrix)
  average eigenvalue GAMMA=   1.3217
  2.5144  2.5144  1.7564  0.9536  0.9536  0.8963  0.8289  0.8289  0.6491

 Free energy of the ion-electron system (eV)
  ---------------------------------------------------
  alpha Z        PSCENC =       784.57699423
  Ewald energy   TEWEN  =    251701.72080362
  -Hartree energ DENC   =   -299598.79047502
  -exchange      EXHF   =         0.00000000
  -V(xc)+E(xc)   XCENC  =      2489.41669937
  PAW double counting   =     59530.75895358   -59362.99247182
  entropy T*S    EENTRO =        -0.00000000
  eigenvalues    EBANDS =    -12279.77603963
  atomic energy  EATOM  =     56210.72393729
  Solvation  Ediel_sol  =         0.00000000
  ---------------------------------------------------
  free energy    TOTEN  =      -524.36159838 eV

  energy without entropy =     -524.36159838  energy(sigma->0) =     -524.36159838


--------------------------------------------------------------------------------------------------------




--------------------------------------- Iteration      1(  15)  ---------------------------------------


    POTLOK:  cpu time    0.3839: real time    0.3921
    SETDIJ:  cpu time    0.4222: real time    0.4222
     EDDAV:  cpu time   59.4669: real time   59.4673
       DOS:  cpu time    0.0005: real time    0.0005
    CHARGE:  cpu time    3.8795: real time    3.8796
    MIXING:  cpu time    0.0197: real time    0.0197
    --------------------------------------------
      LOOP:  cpu time   64.1729: real time   64.1815

 eigenvalue-minimisations  :  5472
 total energy-change (2. order) :-0.1181589E-02  (-0.3268288E-03)
 number of electron     640.0000004 magnetization 
 augmentation part       69.7395472 magnetization 

 Broyden mixing:
  rms(total) = 0.11101E-01    rms(broyden)= 0.11101E-01
  rms(prec ) = 0.14233E-01
  weight for this iteration     100.00

 eigenvalues of (default mixing * dielectric matrix)
  average eigenvalue GAMMA=   1.3432
  2.8034  2.8034  1.3939  1.3939  0.8956  0.8956  0.9081  0.9081  0.8103  0.6202

 Free energy of the ion-electron system (eV)
  ---------------------------------------------------
  alpha Z        PSCENC =       784.57699423
  Ewald energy   TEWEN  =    251701.72080362
  -Hartree energ DENC   =   -299619.24551120
  -exchange      EXHF   =         0.00000000
  -V(xc)+E(xc)   XCENC  =      2489.51783206
  PAW double counting   =     59496.15660203   -59328.30665372
  entropy T*S    EENTRO =        -0.00000000
  eigenvalues    EBANDS =    -12259.50678428
  atomic energy  EATOM  =     56210.72393729
  Solvation  Ediel_sol  =         0.00000000
  ---------------------------------------------------
  free energy    TOTEN  =      -524.36277997 eV

  energy without entropy =     -524.36277997  energy(sigma->0) =     -524.36277997


--------------------------------------------------------------------------------------------------------




--------------------------------------- Iteration      1(  16)  ---------------------------------------


    POTLOK:  cpu time    0.3849: real time    0.3938
    SETDIJ:  cpu time    0.4231: real time    0.4231
     EDDAV:  cpu time   63.8891: real time   63.8904
       DOS:  cpu time    0.0007: real time    0.0007
    CHARGE:  cpu time    3.8876: real time    3.8877
    MIXING:  cpu time    0.0200: real time    0.0200
    --------------------------------------------
      LOOP:  cpu time   68.6054: real time   68.6156

 eigenvalue-minimisations  :  5968
 total energy-change (2. order) :-0.1534104E-02  (-0.1359919E-03)
 number of electron     640.0000004 magnetization 
 augmentation part       69.7364276 magnetization 

 Broyden mixing:
  rms(total) = 0.58437E-02    rms(broyden)= 0.58437E-02
  rms(prec ) = 0.83771E-02
  weight for this iteration     100.00

 eigenvalues of (default mixing * dielectric matrix)
  average eigenvalue GAMMA=   1.3507
  3.1494  2.4957  1.9093  0.8951  0.8951  1.0774  1.0774  1.0129  1.0129  0.7133
  0.6191

 Free energy of the ion-electron system (eV)
  ---------------------------------------------------
  alpha Z        PSCENC =       784.57699423
  Ewald energy   TEWEN  =    251701.72080362
  -Hartree energ DENC   =   -299632.29759071
  -exchange      EXHF   =         0.00000000
  -V(xc)+E(xc)   XCENC  =      2489.58545520
  PAW double counting   =     59481.71132236   -59313.83289425
  entropy T*S    EENTRO =        -0.00000000
  eigenvalues    EBANDS =    -12246.55234181
  atomic energy  EATOM  =     56210.72393729
  Solvation  Ediel_sol  =         0.00000000
  ---------------------------------------------------
  free energy    TOTEN  =      -524.36431408 eV

  energy without entropy =     -524.36431408  energy(sigma->0) =     -524.36431408


--------------------------------------------------------------------------------------------------------




--------------------------------------- Iteration      1(  17)  ---------------------------------------


    POTLOK:  cpu time    0.3863: real time    0.3955
    SETDIJ:  cpu time    0.4227: real time    0.4227
     EDDAV:  cpu time   59.9354: real time   59.9369
       DOS:  cpu time    0.0007: real time    0.0007
    CHARGE:  cpu time    3.8942: real time    3.8943
    MIXING:  cpu time    0.0194: real time    0.0194
    --------------------------------------------
      LOOP:  cpu time   64.6586: real time   64.6694

 eigenvalue-minimisations  :  5520
 total energy-change (2. order) :-0.2468347E-02  (-0.9096365E-04)
 number of electron     640.0000004 magnetization 
 augmentation part       69.7364048 magnetization 

 Broyden mixing:
  rms(total) = 0.42945E-02    rms(broyden)= 0.42942E-02
  rms(prec ) = 0.60380E-02
  weight for this iteration     100.00

 eigenvalues of (default mixing * dielectric matrix)
  average eigenvalue GAMMA=   1.4205
  3.7399  2.8206  2.2461  1.3813  0.8818  0.8818  0.9351  0.9351  1.0234  0.8609
  0.7195  0.6206

 Free energy of the ion-electron system (eV)
  ---------------------------------------------------
  alpha Z        PSCENC =       784.57699423
  Ewald energy   TEWEN  =    251701.72080362
  -Hartree energ DENC   =   -299642.43029201
  -exchange      EXHF   =         0.00000000
  -V(xc)+E(xc)   XCENC  =      2489.62138729
  PAW double counting   =     59487.12924285   -59319.30363474
  entropy T*S    EENTRO =        -0.00000000
  eigenvalues    EBANDS =    -12236.40522094
  atomic energy  EATOM  =     56210.72393729
  Solvation  Ediel_sol  =         0.00000000
  ---------------------------------------------------
  free energy    TOTEN  =      -524.36678242 eV

  energy without entropy =     -524.36678242  energy(sigma->0) =     -524.36678242


--------------------------------------------------------------------------------------------------------




--------------------------------------- Iteration      1(  18)  ---------------------------------------


    POTLOK:  cpu time    0.3887: real time    0.3981
    SETDIJ:  cpu time    0.4226: real time    0.4227
     EDDAV:  cpu time   54.4373: real time   54.4402
       DOS:  cpu time    0.0007: real time    0.0007
    CHARGE:  cpu time    3.8968: real time    3.8969
    MIXING:  cpu time    0.0200: real time    0.0200
    --------------------------------------------
      LOOP:  cpu time   59.1662: real time   59.1786

 eigenvalue-minimisations  :  4896
 total energy-change (2. order) :-0.2906259E-02  (-0.2936342E-04)
 number of electron     640.0000004 magnetization 
 augmentation part       69.7362943 magnetization 

 Broyden mixing:
  rms(total) = 0.30207E-02    rms(broyden)= 0.30207E-02
  rms(prec ) = 0.39023E-02
  weight for this iteration     100.00

 eigenvalues of (default mixing * dielectric matrix)
  average eigenvalue GAMMA=   1.4233
  4.1692  2.5997  2.2917  1.5288  1.0065  1.0065  0.9517  0.9517  0.9305  0.8928
  0.8928  0.6664  0.6142

 Free energy of the ion-electron system (eV)
  ---------------------------------------------------
  alpha Z        PSCENC =       784.57699423
  Ewald energy   TEWEN  =    251701.72080362
  -Hartree energ DENC   =   -299652.60057970
  -exchange      EXHF   =         0.00000000
  -V(xc)+E(xc)   XCENC  =      2489.65071656
  PAW double counting   =     59480.17438605   -59312.35157225
  entropy T*S    EENTRO =        -0.00000000
  eigenvalues    EBANDS =    -12226.26437448
  atomic energy  EATOM  =     56210.72393729
  Solvation  Ediel_sol  =         0.00000000
  ---------------------------------------------------
  free energy    TOTEN  =      -524.36968868 eV

  energy without entropy =     -524.36968868  energy(sigma->0) =     -524.36968868


--------------------------------------------------------------------------------------------------------




--------------------------------------- Iteration      1(  19)  ---------------------------------------


    POTLOK:  cpu time    0.3922: real time    0.4008
    SETDIJ:  cpu time    0.4223: real time    0.4223
     EDDAV:  cpu time   54.7479: real time   54.7492
       DOS:  cpu time    0.0007: real time    0.0007
    CHARGE:  cpu time    3.8983: real time    3.8984
    MIXING:  cpu time    0.0192: real time    0.0192
    --------------------------------------------
      LOOP:  cpu time   59.4806: real time   59.4906

 eigenvalue-minimisations  :  4928
 total energy-change (2. order) :-0.1043526E-02  (-0.1686333E-04)
 number of electron     640.0000004 magnetization 
 augmentation part       69.7364929 magnetization 

 Broyden mixing:
  rms(total) = 0.17034E-02    rms(broyden)= 0.17033E-02
  rms(prec ) = 0.24584E-02
  weight for this iteration     100.00

 eigenvalues of (default mixing * dielectric matrix)
  average eigenvalue GAMMA=   1.4854
  4.8211  2.4390  2.4390  1.8811  1.2221  1.2221  0.9678  0.9678  0.9213  0.9213
  0.8484  0.8484  0.6810  0.6150

 Free energy of the ion-electron system (eV)
  ---------------------------------------------------
  alpha Z        PSCENC =       784.57699423
  Ewald energy   TEWEN  =    251701.72080362
  -Hartree energ DENC   =   -299656.40424806
  -exchange      EXHF   =         0.00000000
  -V(xc)+E(xc)   XCENC  =      2489.66320500
  PAW double counting   =     59480.68990429   -59312.87153730
  entropy T*S    EENTRO =        -0.00000000
  eigenvalues    EBANDS =    -12222.46979128
  atomic energy  EATOM  =     56210.72393729
  Solvation  Ediel_sol  =         0.00000000
  ---------------------------------------------------
  free energy    TOTEN  =      -524.37073221 eV

  energy without entropy =     -524.37073221  energy(sigma->0) =     -524.37073221


--------------------------------------------------------------------------------------------------------




--------------------------------------- Iteration      1(  20)  ---------------------------------------


    POTLOK:  cpu time    0.3919: real time    0.3996
    SETDIJ:  cpu time    0.4228: real time    0.4228
     EDDAV:  cpu time   48.8300: real time   48.8303
       DOS:  cpu time    0.0006: real time    0.0006
    CHARGE:  cpu time    3.8922: real time    3.8923
    MIXING:  cpu time    0.0205: real time    0.0205
    --------------------------------------------
      LOOP:  cpu time   53.5580: real time   53.5661

 eigenvalue-minimisations  :  4256
 total energy-change (2. order) :-0.1336631E-02  (-0.7992598E-05)
 number of electron     640.0000004 magnetization 
 augmentation part       69.7363307 magnetization 

 Broyden mixing:
  rms(total) = 0.10201E-02    rms(broyden)= 0.10200E-02
  rms(prec ) = 0.14600E-02
  weight for this iteration     100.00

 eigenvalues of (default mixing * dielectric matrix)
  average eigenvalue GAMMA=   1.5604
  5.8242  2.9028  2.3024  2.3024  1.2425  1.2425  0.9771  0.9771  0.9118  0.9118
  0.8836  0.8836  0.7748  0.6573  0.6116

 Free energy of the ion-electron system (eV)
  ---------------------------------------------------
  alpha Z        PSCENC =       784.57699423
  Ewald energy   TEWEN  =    251701.72080362
  -Hartree energ DENC   =   -299660.76598273
  -exchange      EXHF   =         0.00000000
  -V(xc)+E(xc)   XCENC  =      2489.67133816
  PAW double counting   =     59480.23667664   -59312.41825080
  entropy T*S    EENTRO =        -0.00000000
  eigenvalues    EBANDS =    -12218.11758525
  atomic energy  EATOM  =     56210.72393729
  Solvation  Ediel_sol  =         0.00000000
  ---------------------------------------------------
  free energy    TOTEN  =      -524.37206884 eV

  energy without entropy =     -524.37206884  energy(sigma->0) =     -524.37206884


--------------------------------------------------------------------------------------------------------




--------------------------------------- Iteration      1(  21)  ---------------------------------------


    POTLOK:  cpu time    0.3922: real time    0.3989
    SETDIJ:  cpu time    0.4201: real time    0.4201
     EDDAV:  cpu time   50.1134: real time   50.1173
       DOS:  cpu time    0.0006: real time    0.0006
    CHARGE:  cpu time    3.9068: real time    3.9069
    MIXING:  cpu time    0.0200: real time    0.0200
    --------------------------------------------
      LOOP:  cpu time   54.8532: real time   54.8639

 eigenvalue-minimisations  :  4392
 total energy-change (2. order) :-0.6065881E-03  (-0.2587455E-05)
 number of electron     640.0000004 magnetization 
 augmentation part       69.7364403 magnetization 

 Broyden mixing:
  rms(total) = 0.91854E-03    rms(broyden)= 0.91841E-03
  rms(prec ) = 0.11592E-02
  weight for this iteration     100.00

 eigenvalues of (default mixing * dielectric matrix)
  average eigenvalue GAMMA=   1.5444
  6.2189  2.9401  2.4483  1.9461  1.3446  1.1199  1.1199  0.9688  0.9688  0.9189
  0.9189  0.8620  0.8278  0.8278  0.6135  0.6660

 Free energy of the ion-electron system (eV)
  ---------------------------------------------------
  alpha Z        PSCENC =       784.57699423
  Ewald energy   TEWEN  =    251701.72080362
  -Hartree energ DENC   =   -299662.80469208
  -exchange      EXHF   =         0.00000000
  -V(xc)+E(xc)   XCENC  =      2489.67339402
[...]
    -6.896993340 11.945942880  0.000000000     0.000000000  0.083710429  0.000000000
     0.000000000  0.000000000 27.810221070     0.000000000  0.000000000  0.035958003

  length of vectors
    13.793986680 13.793986676 27.810221070     0.083710429  0.083710429  0.035958003


 FORCES acting on ions
    electron-ion (+dipol)            ewald-force                    non-local-force                 convergence-correction
 -----------------------------------------------------------------------------------------------
   0.904E+02 0.254E+02 -.119E+04   -.908E+02 -.254E+02 0.118E+04   -.974E+00 -.439E+00 0.455E+01   -.775E-04 -.150E-04 0.356E-04
   0.214E+02 0.166E+02 -.106E+04   -.214E+02 -.175E+02 0.105E+04   -.191E-01 0.995E-01 0.459E+01   -.105E-04 -.457E-04 0.443E-04
   -.545E+02 0.225E+01 -.110E+04   0.541E+02 -.220E+01 0.110E+04   0.140E+01 -.373E+00 0.404E+01   0.386E-04 0.363E-05 0.623E-04
   -.161E+02 -.747E+01 -.110E+04   0.159E+02 0.731E+01 0.109E+04   0.459E+00 0.495E+00 0.452E+01   -.162E-04 0.182E-04 0.605E-04
   -.163E+02 0.138E+02 -.104E+04   0.173E+02 -.134E+02 0.104E+04   0.102E+00 -.371E+00 0.342E+01   0.199E-04 0.960E-05 0.888E-04
   0.228E+02 -.881E+02 -.111E+04   -.227E+02 0.887E+02 0.110E+04   -.452E+00 0.925E+00 0.428E+01   0.446E-04 0.635E-04 0.564E-04
   -.331E+02 0.922E+01 -.970E+03   0.344E+02 -.905E+01 0.967E+03   0.533E-01 -.486E+00 0.392E+01   0.380E-05 0.131E-04 0.560E-04
   -.672E+01 0.524E+02 -.106E+04   0.641E+01 -.522E+02 0.106E+04   0.304E+00 -.984E+00 0.337E+01   -.335E-04 -.579E-04 0.110E-03
   -.607E+01 -.317E+02 -.111E+04   0.581E+01 0.327E+02 0.110E+04   -.503E+00 0.450E-01 0.446E+01   0.112E-04 0.926E-04 0.126E-03
   0.851E+00 -.148E+01 -.117E+04   0.667E-01 0.150E+01 0.117E+04   -.158E+00 -.121E+00 0.391E+01   -.429E-04 0.148E-04 0.437E-04
   0.521E+02 0.159E+02 -.984E+03   -.527E+02 -.163E+02 0.980E+03   0.289E-02 -.769E+00 0.377E+01   -.232E-04 -.445E-04 0.228E-04
   -.418E+02 0.574E+02 -.987E+03   0.428E+02 -.572E+02 0.985E+03   0.136E+00 -.119E+01 0.343E+01   0.893E-04 -.602E-04 0.106E-03
   0.566E+00 -.301E+02 -.110E+04   0.119E+00 0.302E+02 0.110E+04   -.925E+00 0.515E+00 0.378E+01   0.490E-04 0.142E-04 0.457E-04
   -.223E+02 0.394E+02 -.109E+04   0.216E+02 -.399E+02 0.109E+04   0.185E+00 -.387E-01 0.420E+01   -.817E-05 -.190E-04 0.619E-04
   -.860E+01 -.298E+02 -.111E+04   0.827E+01 0.294E+02 0.111E+04   0.321E+00 0.563E+00 0.457E+01   -.236E-04 -.136E-04 0.550E-04
   0.243E+02 0.157E+02 -.100E+04   -.251E+02 -.156E+02 0.999E+03   -.453E+00 -.103E+01 0.405E+01   -.529E-05 0.457E-04 0.391E-04
   0.226E+02 0.134E+02 0.967E+03   -.242E+02 -.153E+02 -.964E+03   0.874E+00 0.107E+01 -.422E+01   -.427E-04 -.979E-05 -.529E-04
   0.836E+00 0.437E+02 0.107E+04   -.214E+01 -.438E+02 -.106E+04   0.942E+00 -.711E+00 -.447E+01   -.488E-04 -.356E-04 -.319E-04
   0.102E+02 -.656E+01 0.111E+04   -.918E+01 0.665E+01 -.110E+04   -.896E+00 -.408E+00 -.367E+01   -.190E-05 0.130E-04 -.266E-04
   0.130E+02 0.507E+01 0.111E+04   -.135E+02 -.416E+01 -.111E+04   -.613E+00 -.496E+00 -.440E+01   0.333E-04 -.146E-04 -.323E-04
   -.130E+02 0.350E+02 0.104E+04   0.125E+02 -.358E+02 -.104E+04   0.450E+00 0.483E+00 -.386E+01   -.265E-04 0.175E-04 -.984E-04
   0.467E+02 0.225E+01 0.108E+04   -.471E+02 -.432E+00 -.108E+04   -.650E+00 -.870E+00 -.420E+01   -.281E-05 0.961E-04 -.356E-04
   -.308E+02 -.390E+02 0.115E+04   0.317E+02 0.395E+02 -.114E+04   0.261E+00 0.191E+00 -.341E+01   0.649E-04 0.749E-05 -.172E-04
   0.287E+02 -.188E+02 0.109E+04   -.288E+02 0.169E+02 -.109E+04   -.877E+00 0.151E+01 -.481E+01   0.105E-04 -.621E-04 -.396E-04
   -.425E+02 0.562E+02 0.113E+04   0.425E+02 -.554E+02 -.113E+04   0.732E+00 -.138E+01 -.483E+01   0.400E-04 0.401E-04 -.831E-04
   -.458E+02 0.276E+01 0.110E+04   0.465E+02 -.203E+01 -.110E+04   0.282E+00 -.227E+00 -.529E+01   0.102E-04 0.164E-04 -.506E-04
   0.527E+02 -.442E+02 0.102E+04   -.538E+02 0.440E+02 -.102E+04   -.343E+00 0.531E+00 -.439E+01   -.987E-04 -.491E-04 -.291E-04
   -.131E+02 -.171E+02 0.115E+04   0.135E+02 0.159E+02 -.114E+04   0.354E+00 0.608E+00 -.386E+01   -.945E-05 -.143E-04 -.196E-04
   -.136E+02 0.534E+01 0.108E+04   0.149E+02 -.507E+01 -.107E+04   0.187E-01 -.128E+00 -.442E+01   0.228E-04 0.243E-04 0.190E-04
   -.860E+00 0.209E+01 0.108E+04   0.154E+01 -.530E+00 -.108E+04   -.461E+00 -.328E+00 -.384E+01   0.389E-04 -.108E-04 -.169E-04
   0.206E+02 -.171E+02 0.102E+04   -.215E+02 0.167E+02 -.102E+04   -.751E+00 0.270E+00 -.388E+01   0.652E-05 -.396E-04 -.536E-04
   -.349E+02 -.365E+02 0.106E+04   0.356E+02 0.365E+02 -.106E+04   0.568E+00 0.625E+00 -.394E+01   -.310E-04 0.460E-04 -.322E-04
   -.104E+02 0.659E+01 0.143E+04   0.105E+02 -.687E+01 -.144E+04   0.153E+00 0.729E+00 0.262E+01   0.112E-04 0.338E-05 -.475E-04
   0.488E+01 0.133E+02 0.147E+04   -.475E+01 -.133E+02 -.147E+04   -.359E+00 -.265E+00 0.287E+01   0.433E-07 -.525E-05 -.516E-04
   -.682E+01 -.488E+02 0.145E+04   0.659E+01 0.485E+02 -.145E+04   0.101E+01 0.139E+01 0.108E+01   -.550E-05 -.177E-04 -.641E-04
   -.273E+01 0.152E+02 0.138E+04   0.253E+01 -.149E+02 -.138E+04   0.484E+00 -.838E+00 0.183E+01   -.699E-05 0.167E-04 -.515E-04
   0.286E+02 0.190E+02 0.145E+04   -.287E+02 -.191E+02 -.145E+04   -.606E-01 0.302E-01 0.223E+01   0.254E-05 -.775E-05 -.775E-04
   -.363E+01 0.243E+02 0.145E+04   0.361E+01 -.244E+02 -.145E+04   -.242E-01 0.247E+00 0.191E+01   0.155E-04 -.354E-05 -.669E-04
   0.875E+01 -.413E+02 0.150E+04   -.871E+01 0.412E+02 -.150E+04   -.468E-01 0.491E+00 0.331E+01   0.928E-05 -.382E-05 -.523E-04
   -.138E+02 0.276E+02 0.145E+04   0.136E+02 -.273E+02 -.146E+04   0.751E+00 -.937E+00 0.243E+01   -.741E-05 0.192E-04 -.663E-04
   -.266E+01 0.362E+01 0.149E+04   0.259E+01 -.374E+01 -.150E+04   0.225E+00 0.313E+00 0.307E+01   0.162E-05 0.284E-05 -.609E-04
   -.257E+01 0.117E+02 0.149E+04   0.243E+01 -.112E+02 -.149E+04   0.439E+00 -.185E+01 0.218E+01   -.125E-04 0.222E-04 -.554E-04
   -.114E+02 -.211E+02 0.144E+04   0.116E+02 0.209E+02 -.144E+04   -.153E+00 0.817E+00 0.271E+01   0.135E-04 -.211E-04 -.496E-04
   0.457E+01 -.265E+02 0.146E+04   -.457E+01 0.262E+02 -.146E+04   -.157E+00 0.926E+00 0.219E+01   0.707E-05 -.853E-05 -.653E-04
   -.245E+01 0.282E+02 0.145E+04   0.251E+01 -.282E+02 -.146E+04   -.130E+00 -.377E+00 0.168E+01   -.108E-04 0.687E-05 -.725E-04
   0.865E+01 0.204E+02 0.145E+04   -.863E+01 -.201E+02 -.145E+04   -.287E+00 -.951E+00 0.234E+01   -.576E-05 0.141E-05 -.665E-04
   -.153E+02 -.326E+02 0.145E+04   0.152E+02 0.325E+02 -.145E+04   0.296E+00 0.785E+00 0.184E+01   -.154E-04 -.268E-04 -.601E-04
   0.909E+01 0.108E+01 0.146E+04   -.856E+01 -.961E+00 -.146E+04   -.142E+01 -.362E+00 0.269E+01   0.553E-05 -.289E-05 -.477E-04
   0.173E+02 0.247E+02 -.148E+04   -.170E+02 -.246E+02 0.148E+04   -.654E+00 -.311E+00 -.204E+01   -.221E-05 0.487E-06 0.652E-04
   0.183E+02 -.122E+02 -.144E+04   -.185E+02 0.124E+02 0.144E+04   0.336E+00 -.345E+00 -.134E+01   -.732E-05 0.102E-04 0.598E-04
   0.121E+02 0.501E+01 -.145E+04   -.117E+02 -.490E+01 0.145E+04   -.115E+01 -.277E+00 -.237E+01   0.182E-04 0.523E-05 0.572E-04
   0.991E+01 0.463E+01 -.145E+04   -.945E+01 -.475E+01 0.145E+04   -.134E+01 0.260E+00 -.214E+01   0.158E-04 -.128E-05 0.464E-04
   -.380E+01 0.495E+01 -.146E+04   0.380E+01 -.490E+01 0.146E+04   0.752E-01 -.213E+00 -.232E+01   0.551E-05 0.105E-04 0.331E-04
   0.218E+02 -.453E+01 -.150E+04   -.216E+02 0.446E+01 0.150E+04   -.875E+00 0.138E+00 -.257E+01   0.468E-05 0.192E-04 0.362E-04
   -.396E+01 0.673E+01 -.142E+04   0.376E+01 -.630E+01 0.142E+04   0.580E+00 -.120E+01 -.276E+01   0.126E-04 0.748E-05 0.404E-04
   -.258E+02 -.182E+00 -.145E+04   0.258E+02 -.180E+00 0.145E+04   0.264E+00 0.109E+01 -.315E+01   0.724E-05 -.199E-04 0.415E-04
   -.322E+02 0.279E+01 -.148E+04   0.319E+02 -.295E+01 0.148E+04   0.127E+01 0.238E+00 -.218E+01   -.676E-05 0.602E-05 0.204E-04
   -.232E+02 0.175E+02 -.148E+04   0.231E+02 -.174E+02 0.148E+04   0.517E+00 -.584E+00 -.253E+01   -.397E-05 -.650E-05 0.154E-04
   0.121E+02 -.251E+02 -.146E+04   -.124E+02 0.251E+02 0.146E+04   0.688E+00 -.515E-02 -.178E+01   -.261E-04 -.349E-05 0.535E-04
   0.151E+02 -.124E+02 -.139E+04   -.150E+02 0.123E+02 0.140E+04   -.444E+00 0.247E+00 -.165E+01   -.923E-05 -.651E-05 0.376E-04
   -.150E+02 -.167E+02 -.148E+04   0.147E+02 0.164E+02 0.148E+04   0.885E+00 0.108E+01 -.228E+01   0.359E-05 -.400E-05 0.255E-04
   -.148E+02 -.392E+01 -.145E+04   0.148E+02 0.380E+01 0.145E+04   -.290E-01 0.475E+00 -.233E+01   0.428E-05 -.235E-05 0.308E-04
   -.146E+02 -.142E+02 -.146E+04   0.145E+02 0.140E+02 0.146E+04   0.371E+00 0.104E+01 -.144E+01   -.772E-05 -.950E-05 0.663E-04
   0.150E+02 0.439E+01 -.146E+04   -.150E+02 -.425E+01 0.146E+04   -.270E+00 -.396E+00 -.155E+01   -.171E-04 0.466E-05 0.735E-04
   -.887E+01 -.111E+02 -.319E+01   0.894E+01 0.112E+02 0.323E+01   0.692E+00 0.139E+00 -.220E+00   -.857E-05 0.395E-05 0.906E-05
   0.668E+01 0.144E+02 -.152E+02   -.629E+01 -.140E+02 0.151E+02   -.155E+01 -.101E+01 0.144E+00   0.102E-06 -.123E-05 0.108E-04
   -.283E+02 0.637E+01 -.112E+02   0.279E+02 -.676E+01 0.113E+02   0.137E+01 0.717E+00 -.131E+00   -.297E-05 -.589E-05 0.684E-05
   0.325E+01 -.148E+02 0.184E+02   -.317E+01 0.149E+02 -.184E+02   -.475E-01 -.499E+00 0.517E+00   0.289E-05 -.239E-06 0.980E-05
   0.911E+01 0.823E+01 0.314E+01   -.920E+01 -.874E+01 -.328E+01   0.553E+00 0.180E+01 0.347E+00   -.336E-06 -.337E-05 0.642E-05
   0.501E+01 -.149E+02 -.126E+02   -.532E+01 0.150E+02 0.128E+02   0.106E+01 -.737E+00 -.762E+00   -.792E-05 0.568E-05 0.420E-05
   -.165E+02 -.816E+01 0.285E+01   0.165E+02 0.799E+01 -.294E+01   0.613E-01 0.103E+01 0.153E+00   0.115E-05 0.497E-06 0.985E-05
   0.193E+02 -.170E+02 0.322E+02   -.190E+02 0.168E+02 -.326E+02   -.826E+00 0.730E+00 0.213E+00   0.128E-05 -.416E-05 0.118E-04
   0.886E+01 0.259E+02 -.384E+01   -.882E+01 -.257E+02 0.437E+01   -.408E+00 -.108E+01 -.230E+01   0.394E-05 0.907E-05 0.258E-04
   0.145E+01 0.670E+01 -.497E+02   -.108E+01 -.647E+01 0.502E+02   -.140E+01 -.896E+00 -.188E+01   0.127E-04 0.835E-05 0.238E-04
   0.398E+02 -.290E+02 0.174E+02   -.394E+02 0.290E+02 -.176E+02   -.145E+01 -.515E+00 0.696E+00   0.728E-05 0.125E-04 0.441E-05
   -.856E+01 0.452E+01 0.104E+02   0.864E+01 -.513E+01 -.101E+02   -.393E+00 0.206E+01 -.136E+01   0.884E-05 -.421E-05 0.116E-04
   0.270E+02 0.156E+02 0.458E+01   -.265E+02 -.157E+02 -.400E+01   -.166E+01 0.206E-01 -.142E+01   0.906E-05 -.565E-05 0.200E-04
   -.404E+02 -.161E+02 -.258E+02   0.399E+02 0.161E+02 0.262E+02   0.166E+01 -.111E+00 -.191E+01   -.992E-05 0.125E-05 0.173E-04
   -.286E+02 0.176E+02 -.233E+02   0.284E+02 -.175E+02 0.234E+02   0.112E+01 -.638E+00 -.516E-02   -.977E-05 -.306E-05 0.631E-05
   0.228E+02 -.170E+02 0.500E+01   -.228E+02 0.168E+02 -.495E+01   0.216E+00 0.573E+00 -.284E+00   -.148E-04 -.765E-05 0.117E-04
 -----------------------------------------------------------------------------------------------
   0.690E+00 -.542E+00 0.830E+01   -.746E-13 -.924E-13 0.107E-11   -.689E+00 0.544E+00 -.830E+01   -.327E-04 0.359E-04 0.349E-03
 
 
 POSITION                                       TOTAL-FORCE (eV/Angst)
 -----------------------------------------------------------------------------------
      0.16328      2.06032     15.28400        -1.407234     -0.460146     -0.590643
     -1.74872      5.05850     15.11351        -0.090702     -0.872654     -0.117403
     -3.59721      7.96236     15.17938         0.996363     -0.316879     -0.173101
     -5.14133     10.87741     15.19212         0.295143      0.331766     -0.579823
      3.41706      2.02455     15.11898         1.025574      0.010458      1.109565
      1.85356      4.90516     15.18842        -0.326331      1.530584     -0.139566
     -0.09937      7.96188     15.00925         1.301424     -0.307580      1.274958
     -1.68555     11.05783     15.15871        -0.008842     -0.740297      0.491881
      6.92695      1.99436     15.14798        -0.763441      1.002138      1.343115
      5.09933      5.06281     15.27380         0.759581     -0.104974     -0.623516
      3.45044      8.11979     15.05899        -0.535269     -1.211650      0.302588
      1.64572     11.07996     15.03649         1.108817     -0.995434      1.556146
     10.40514      1.89297     15.20018        -0.239422      0.588150     -0.062629
      8.62033      4.94209     15.18451        -0.463163     -0.567501     -0.237377
      6.86798      7.93663     15.17365        -0.008970      0.099224     -0.085304
      5.33007     11.08109     15.05572        -1.319396     -1.005237      1.078058
      1.75270      1.06728     12.85012        -0.702439     -0.823031     -1.387745
      0.00405      4.01211     12.67195        -0.361863     -0.810585     -0.078313
     -1.70036      6.95075     12.60359         0.105959     -0.320569     -0.260508
     -3.30226      9.90744     12.64958        -1.069588      0.415412      0.018320
      5.14504      1.04992     12.72041        -0.043132     -0.280064     -0.243440
      3.65113      3.99731     12.66129        -0.993138      0.948000      0.444888
      1.61116      6.82011     12.50459         1.122491      0.752826      0.617055
      0.12510      9.92401     12.69327        -1.049905     -0.331738     -0.842049
      8.45424      1.17062     12.62437         0.669338     -0.546891      0.269882
      6.77859      4.01306     12.66385         1.003215      0.497193      0.506393
      5.30449      6.95378     12.74999        -1.395331      0.336719     -0.469730
      3.39686      9.97614     12.57024         0.813872     -0.534519      0.156025
     11.99007      1.02374     12.66704         1.340993      0.137156      0.094246
     10.35758      3.87740     12.60037         0.221624      1.230432      0.985573
      8.73645      6.90310     12.70769        -1.626856     -0.054755      0.480392
      6.79350      9.85424     12.71988         1.238840      0.710426     -0.756116
     -0.00503      1.88728     10.99634         0.230474      0.445519      0.445839
     -1.68961      4.91804     10.85011        -0.224988     -0.193384      0.623516
     -3.54681      7.75552     11.07090         0.778838      1.079783     -0.880938
     -5.20127     11.06747     11.21629         0.281964     -0.542707     -0.328093
      3.49584      2.05012     11.04748        -0.160625     -0.083421      0.140245
      1.78570      4.80479     11.00623        -0.044020      0.094447     -0.170025
     -0.05088      7.77014     10.67081        -0.013030      0.377402      1.058806
     -1.85446     11.14679     10.94131         0.554342     -0.658099      0.306080
      6.82084      1.99720     10.79742         0.154019      0.190676      0.899018
      5.13936      5.25309     10.91939         0.302718     -1.352748      0.163713
      3.40478      7.85824     10.90213         0.011425      0.542640      0.495440
      1.71590     10.79765     10.90821        -0.160801      0.612579      0.159538
     10.27933      1.98383     11.00191        -0.065540     -0.295174     -0.344791
      8.65330      5.03753     10.98324        -0.267065     -0.686887      0.145277
      6.93035      7.86012     11.06588         0.194273      0.648367     -0.221544
      5.37469     10.99014     10.89425        -0.886745     -0.246793      0.535455
      1.86420      1.04054     16.88433        -0.405647     -0.256405      0.069862
     -0.03045      4.08136     16.73041         0.203219     -0.132167      0.734675
     -1.60908      6.95932     16.82566        -0.717899     -0.169161     -0.311214
     -3.21460      9.86810     16.82173        -0.889068      0.135223     -0.034946
      5.09931      1.04534     16.84078         0.081184     -0.171210     -0.192632
      3.54693      3.97764     16.98173        -0.645176      0.071031     -0.464660
      1.66190      7.16185     16.81140         0.378150     -0.771878     -0.560781
     -0.06796      9.80110     16.90354         0.275734      0.730359     -0.955439
      8.33535      0.88942     16.89531         0.944611      0.076933     -0.115740
      6.79400      4.14148     16.95989         0.405504     -0.509402     -0.339710
      5.02596      7.08417     16.80045         0.444572      0.062574      0.317551
      3.51466     10.00612     16.62748        -0.401166      0.168193      0.407407
     11.89244      0.79601     16.95818         0.566154      0.745295     -0.242344
     10.34080      3.83622     16.85111         0.000396      0.347361     -0.154115
      8.55502      6.82326     16.78168         0.261473      0.799517      0.607879
      7.00611      9.99192     16.78392        -0.324108     -0.265636      0.489516
      0.02319      0.04266     13.99675         0.758096      0.289433     -0.176225
     -1.63308      3.05069     13.89839        -1.155391     -0.622836      0.000346
     10.22355      5.87143     13.93341         0.962684      0.329987      0.011576
     -5.13554      8.95815     13.93005         0.029818     -0.373267      0.437881
     -3.41862     11.82931     13.92533         0.468514      1.294896      0.200256
      1.71016      3.03272     14.06616         0.741864     -0.629395     -0.569764
     -0.03510      5.88818     13.80526        -0.011467      0.853148      0.068281
     -1.62369      8.88659     13.77889        -0.534809      0.546548     -0.175508
      6.92362      0.12155     14.02600        -0.361678     -0.820991     -1.777932
      5.24936      3.07142     14.02642        -1.034240     -0.657919     -1.326769
      3.55933      5.95805     13.85571        -1.034845     -0.525643      0.478239
      1.71398      8.84150     13.86304        -0.314804      1.447049     -1.076737
     10.45498      0.03973     13.95001        -1.190298     -0.009263     -0.835459
      8.46017      2.96811     13.99934         1.164120     -0.057898     -1.483371
      6.81442      6.00899     13.96519         0.882856     -0.530456      0.088915
      5.17819      8.95461     13.88906         0.168195      0.367799     -0.228395
 -----------------------------------------------------------------------------------
    total drift:                                0.001589      0.001920      0.000520


--------------------------------------------------------------------------------------------------------



  FREE ENERGIE OF THE ION-ELECTRON SYSTEM (eV)
  ---------------------------------------------------
  free  energy   TOTEN  =      -524.37406762 eV

  energy  without entropy=     -524.37406762  energy(sigma->0) =     -524.37406762
 


--------------------------------------------------------------------------------------------------------


    POTLOK:  cpu time    0.8101: real time    0.8101


--------------------------------------------------------------------------------------------------------


     LOOP+:  cpu time 1916.1875: real time 1916.5560
    4ORBIT:  cpu time    0.0000: real time    0.0000

 total amount of memory used by VASP MPI-rank0   253946. kBytes
=======================================================================

   base      :      30000. kBytes
   nonlr-proj:      18762. kBytes
   fftplans  :      72602. kBytes
   grid      :      41267. kBytes
   one-center:        108. kBytes
   wavefun   :      91207. kBytes
 
  
  
 General timing and accounting informations for this job:
 ========================================================
  
                  Total CPU time used (sec):     1947.055
                            User time (sec):     1941.803
                          System time (sec):        5.252
                         Elapsed time (sec):     1947.539
  
                   Maximum memory used (kb):      463068.
                   Average memory used (kb):           0.
  
                          Minor page faults:       182328
                          Major page faults:            0
                 Voluntary context switches:         2095
