<?xml version="1.0" encoding="ISO-8859-1"?>
<modeling>
 <generator>
  <i name="program" type="string">vasp </i>
  <i name="version" type="string">5.4.4.18Apr17-6-g9f103f2a35  </i>
  <i name="subversion" type="string">(build Oct 31 2019 15:01:46) complex            parallel </i>
  <i name="platform" type="string">LinuxIFC </i>
  <i name="date" type="string">2024 04 29 </i>
  <i name="time" type="string">06:37:09 </i>
 </generator>
 <incar>
  <i type="int" name="ISTART">     0</i>
  <i type="string" name="PREC">a</i>
  <i type="logical" name="ADDGRID"> T  </i>
  <i type="int" name="IBRION">    -1</i>
  <i name="EDIFF">      0.00000100</i>
  <i name="EDIFFG">     -0.01000000</i>
  <i type="int" name="NSW">     1</i>
  <i type="int" name="ISIF">     2</i>
  <i type="int" name="ISYM">     0</i>
  <i name="ENCUT">    600.00000000</i>
  <i name="POTIM">      1.00000000</i>
  <i type="string" name="LREAL">  Auto</i>
  <i type="int" name="ISMEAR">     0</i>
  <i name="SIGMA">      0.05000000</i>
  <i name="KSPACING">      0.30000000</i>
  <i type="logical" name="KGAMMA"> T  </i>
  <i type="logical" name="LWAVE"> F  </i>
  <i type="logical" name="LCHARG"> F  </i>
  <i type="logical" name="LSCALAPACK"> F  </i>
  <v type="int" name="KPOINT_BSE">    -1     0     0     0</v>
 </incar>
 <structure name="primitive_cell" >
  <crystal>
   <varray name="basis" >
    <v>      13.67086365       0.00000000       0.00000000 </v>
    <v>       0.00000000      13.67086365       0.00000000 </v>
    <v>       0.00000000       0.00000000      13.67086365 </v>
   </varray>
   <i name="volume">   2554.98206157 </i>
   <varray name="rec_basis" >
    <v>       0.07314827       0.00000000       0.00000000 </v>
    <v>       0.00000000       0.07314827       0.00000000 </v>
    <v>       0.00000000       0.00000000       0.07314827 </v>
   </varray>
  </crystal>
  <varray name="positions" >
   <v>      -0.21460570      -0.40991618      -0.35500587 </v>
   <v>      -0.36149073      -0.41982161      -0.29474155 </v>
   <v>      -0.30585688      -0.25984934      -0.35892171 </v>
   <v>      -0.04163573      -0.32596797      -0.40790215 </v>
   <v>      -0.16915986      -0.42084250       0.44899179 </v>
   <v>      -0.14625514       0.38526571      -0.32541812 </v>
   <v>      -0.05745126      -0.34099170       0.46873179 </v>
   <v>      -0.42516422      -0.29090365      -0.30853156 </v>
   <v>      -0.36168879      -0.33864261       0.44057149 </v>
   <v>      -0.18618012      -0.24296302      -0.14827263 </v>
   <v>      -0.22943680       0.33627742      -0.43856690 </v>
   <v>      -0.34613176       0.36113138      -0.46260178 </v>
   <v>      -0.15450125       0.38308811       0.45802050 </v>
   <v>      -0.13812683       0.48579567      -0.09065030 </v>
   <v>      -0.48700863      -0.30487734      -0.41452933 </v>
   <v>      -0.45409946      -0.44630039       0.46854418 </v>
   <v>      -0.32290390       0.41454447      -0.13510761 </v>
   <v>      -0.03897789       0.35801082      -0.43537331 </v>
   <v>       0.04417478       0.42900103      -0.38242412 </v>
   <v>      -0.08592732      -0.23336010       0.42109427 </v>
   <v>       0.09317403      -0.30153517      -0.36642971 </v>
   <v>       0.05571130      -0.37366035       0.45300279 </v>
   <v>      -0.29831988      -0.38414796      -0.02836343 </v>
   <v>       0.46365842      -0.41553447      -0.47189289 </v>
   <v>      -0.31845105       0.30895471      -0.18240441 </v>
   <v>      -0.47208051      -0.25297340      -0.18549403 </v>
   <v>      -0.11242655       0.47732167       0.33250809 </v>
   <v>      -0.41853030      -0.47079939      -0.07524050 </v>
   <v>      -0.26483998      -0.26348935      -0.03650969 </v>
   <v>      -0.15004955       0.24488779      -0.42900586 </v>
   <v>      -0.24823817       0.24021115      -0.26685975 </v>
   <v>      -0.04009122       0.29813297      -0.22837661 </v>
   <v>      -0.34096279      -0.05763857      -0.29435399 </v>
   <v>      -0.05237173      -0.11975898       0.45279867 </v>
   <v>      -0.00402999       0.45885285      -0.05785252 </v>
   <v>      -0.03232818      -0.08490593      -0.24644618 </v>
   <v>       0.42847509       0.46020247      -0.44212556 </v>
   <v>      -0.47320261       0.40628430       0.40983040 </v>
   <v>      -0.14930139      -0.31242263       0.26432226 </v>
   <v>      -0.37439605      -0.27811740       0.29991455 </v>
   <v>      -0.20045917       0.29380013      -0.07794266 </v>
   <v>      -0.20213408      -0.02632225      -0.21811721 </v>
   <v>      -0.15847308      -0.05299254       0.45542875 </v>
   <v>      -0.13117171       0.21161028      -0.21377432 </v>
   <v>      -0.24030180       0.25365008       0.40747680 </v>
   <v>       0.42883730      -0.44243484      -0.14274767 </v>
   <v>       0.41531813      -0.33547632      -0.15977672 </v>
   <v>      -0.37799294      -0.06921043       0.43656825 </v>
   <v>      -0.43109570       0.26356143      -0.16104569 </v>
   <v>      -0.46138414      -0.05043635      -0.40314724 </v>
   <v>      -0.32247053      -0.17788839       0.00527190 </v>
   <v>       0.35528069      -0.33721454      -0.26546336 </v>
   <v>       0.02602482       0.25052043       0.48101969 </v>
   <v>      -0.14844324      -0.27700339       0.07119533 </v>
   <v>      -0.00330013      -0.01705867      -0.43043109 </v>
   <v>      -0.47399789      -0.12359358      -0.11720241 </v>
   <v>       0.16298763      -0.22937941       0.46856561 </v>
   <v>      -0.30830587      -0.34135251       0.20510132 </v>
   <v>       0.13530771       0.30719390      -0.42789793 </v>
   <v>       0.18793651      -0.25051015      -0.20810834 </v>
   <v>      -0.02100066       0.00398430      -0.31056690 </v>
   <v>       0.10324609       0.47525936       0.32294544 </v>
   <v>      -0.37455163       0.28291330       0.32941594 </v>
   <v>       0.49981032      -0.16459518       0.36503675 </v>
   <v>       0.32806303      -0.38437652       0.48486544 </v>
   <v>       0.08701451       0.42072886      -0.01350350 </v>
   <v>      -0.28733776       0.01361878       0.41276045 </v>
   <v>       0.19978122      -0.41338997       0.38528653 </v>
   <v>       0.03570434      -0.05884269       0.40330330 </v>
   <v>       0.37957140      -0.17914188       0.46017677 </v>
   <v>       0.14699976       0.37619067       0.36669862 </v>
   <v>       0.40326239       0.27708610      -0.25223245 </v>
   <v>      -0.08424082      -0.32993977       0.16163895 </v>
   <v>       0.32281083       0.39559240      -0.43231850 </v>
   <v>      -0.36436437       0.41091088       0.18768742 </v>
   <v>      -0.07373105       0.09848428      -0.30589926 </v>
   <v>       0.40992200      -0.27446108      -0.02935337 </v>
   <v>      -0.04055158      -0.43522058       0.13488256 </v>
   <v>      -0.09089167       0.09475271      -0.47314091 </v>
   <v>       0.23510940       0.41608630       0.43625960 </v>
   <v>      -0.24797183       0.09370541       0.47137486 </v>
   <v>       0.16150055      -0.48645663       0.01086093 </v>
   <v>       0.49516248       0.41799263       0.05494054 </v>
   <v>      -0.14455355       0.24476676       0.04245868 </v>
   <v>      -0.16512771       0.10592708      -0.13407942 </v>
   <v>       0.35855563       0.28368414      -0.45754108 </v>
   <v>      -0.20135366       0.30930441       0.18760928 </v>
   <v>       0.28049587       0.38523522      -0.32054784 </v>
   <v>       0.07352983      -0.13082937       0.00354467 </v>
   <v>      -0.45216543      -0.42090148       0.13105583 </v>
   <v>      -0.00073599      -0.23699329       0.17877267 </v>
   <v>       0.28720515      -0.21985605      -0.24759444 </v>
   <v>      -0.43871675       0.47311236       0.12735971 </v>
   <v>      -0.35576654       0.28721720       0.21155361 </v>
   <v>       0.13338983       0.26687158       0.36148802 </v>
   <v>       0.29855949      -0.26209061       0.42350465 </v>
   <v>       0.44940578       0.39511088       0.24804344 </v>
   <v>      -0.26617225       0.02188039       0.29385166 </v>
   <v>       0.33349104      -0.08784227      -0.27621144 </v>
   <v>      -0.27301952       0.02578224      -0.00677557 </v>
   <v>       0.16031139      -0.00473028      -0.21181364 </v>
   <v>      -0.16031814       0.05288350      -0.02238959 </v>
   <v>       0.08140326       0.32411256       0.06018252 </v>
   <v>       0.15968267      -0.06408180      -0.07150493 </v>
   <v>       0.44536853       0.06105077      -0.43782613 </v>
   <v>      -0.48973488      -0.10271593       0.22140852 </v>
   <v>      -0.08968399      -0.05926747       0.18375949 </v>
   <v>       0.27667642      -0.27656430       0.31039724 </v>
   <v>       0.47856166       0.25409323       0.05207687 </v>
   <v>       0.10668661      -0.19593988       0.12523041 </v>
   <v>       0.41631875      -0.22484752       0.10464123 </v>
   <v>       0.04433569       0.13613170       0.31512520 </v>
   <v>       0.30674668      -0.44385658       0.04287137 </v>
   <v>       0.45715052      -0.09698215       0.07299055 </v>
   <v>       0.22185079      -0.12879886       0.28887023 </v>
   <v>       0.20841679       0.35208152       0.24071268 </v>
   <v>       0.33059405       0.42028688       0.23269410 </v>
   <v>      -0.39387414      -0.02440284       0.11975664 </v>
   <v>      -0.05554978       0.05857148       0.04979631 </v>
   <v>       0.27384656      -0.48107446       0.22787773 </v>
   <v>       0.20083207      -0.27001196       0.12239597 </v>
   <v>      -0.38891993       0.19752126       0.13292887 </v>
   <v>       0.32929745       0.11201786      -0.44610259 </v>
   <v>       0.11756590      -0.07117820       0.17412489 </v>
   <v>       0.27970530       0.03767720      -0.21979470 </v>
   <v>       0.26870278       0.08204612      -0.33962938 </v>
   <v>       0.18312346       0.30231093       0.13294685 </v>
   <v>       0.27324221       0.06872705       0.46837710 </v>
   <v>       0.32373882       0.07054960      -0.11062409 </v>
   <v>       0.13686110       0.16442644       0.18029567 </v>
   <v>       0.42243732      -0.02706899       0.15188305 </v>
   <v>       0.30026245       0.33124792       0.11923151 </v>
   <v>       0.31642496      -0.05903069       0.18514243 </v>
   <v>       0.45887015       0.08183271       0.15804521 </v>
   <v>       0.29841331       0.09812992       0.23932038 </v>
  </varray>
 </structure>
 <varray name="primitive_index" >
  <v type="int" >        1 </v>
  <v type="int" >       69 </v>
  <v type="int" >       65 </v>
  <v type="int" >       87 </v>
  <v type="int" >      107 </v>
  <v type="int" >      133 </v>
  <v type="int" >       33 </v>
  <v type="int" >       41 </v>
  <v type="int" >       17 </v>
  <v type="int" >       77 </v>
  <v type="int" >       37 </v>
  <v type="int" >       58 </v>
  <v type="int" >       74 </v>
  <v type="int" >       20 </v>
  <v type="int" >       85 </v>
  <v type="int" >      132 </v>
  <v type="int" >       70 </v>
  <v type="int" >       34 </v>
  <v type="int" >      128 </v>
  <v type="int" >      119 </v>
  <v type="int" >       22 </v>
  <v type="int" >      100 </v>
  <v type="int" >      127 </v>
  <v type="int" >       30 </v>
  <v type="int" >       31 </v>
  <v type="int" >      112 </v>
  <v type="int" >       11 </v>
  <v type="int" >       19 </v>
  <v type="int" >       29 </v>
  <v type="int" >       62 </v>
  <v type="int" >       97 </v>
  <v type="int" >       84 </v>
  <v type="int" >       60 </v>
  <v type="int" >       42 </v>
  <v type="int" >      108 </v>
  <v type="int" >      109 </v>
  <v type="int" >      125 </v>
  <v type="int" >       21 </v>
  <v type="int" >       94 </v>
  <v type="int" >       66 </v>
  <v type="int" >       61 </v>
  <v type="int" >       23 </v>
  <v type="int" >       68 </v>
  <v type="int" >       51 </v>
  <v type="int" >        6 </v>
  <v type="int" >       76 </v>
  <v type="int" >       53 </v>
  <v type="int" >       90 </v>
  <v type="int" >      120 </v>
  <v type="int" >        2 </v>
  <v type="int" >       73 </v>
  <v type="int" >       63 </v>
  <v type="int" >      130 </v>
  <v type="int" >       64 </v>
  <v type="int" >      104 </v>
  <v type="int" >       18 </v>
  <v type="int" >      113 </v>
  <v type="int" >        4 </v>
  <v type="int" >       25 </v>
  <v type="int" >      117 </v>
  <v type="int" >       28 </v>
  <v type="int" >      103 </v>
  <v type="int" >       81 </v>
  <v type="int" >       15 </v>
  <v type="int" >       83 </v>
  <v type="int" >       54 </v>
  <v type="int" >       36 </v>
  <v type="int" >       16 </v>
  <v type="int" >      134 </v>
  <v type="int" >      131 </v>
  <v type="int" >       43 </v>
  <v type="int" >       26 </v>
  <v type="int" >       49 </v>
  <v type="int" >       38 </v>
  <v type="int" >       98 </v>
  <v type="int" >      102 </v>
  <v type="int" >      105 </v>
  <v type="int" >       95 </v>
  <v type="int" >       12 </v>
  <v type="int" >      126 </v>
  <v type="int" >       91 </v>
  <v type="int" >       56 </v>
  <v type="int" >      129 </v>
  <v type="int" >       24 </v>
  <v type="int" >      114 </v>
  <v type="int" >      124 </v>
  <v type="int" >       78 </v>
  <v type="int" >      106 </v>
  <v type="int" >       57 </v>
  <v type="int" >       92 </v>
  <v type="int" >       80 </v>
  <v type="int" >       40 </v>
  <v type="int" >       45 </v>
  <v type="int" >       32 </v>
  <v type="int" >       86 </v>
  <v type="int" >       50 </v>
  <v type="int" >      115 </v>
  <v type="int" >       55 </v>
  <v type="int" >       88 </v>
  <v type="int" >       93 </v>
  <v type="int" >       99 </v>
  <v type="int" >       46 </v>
  <v type="int" >      118 </v>
  <v type="int" >       27 </v>
  <v type="int" >      111 </v>
  <v type="int" >       79 </v>
  <v type="int" >        8 </v>
  <v type="int" >      122 </v>
  <v type="int" >       14 </v>
  <v type="int" >       52 </v>
  <v type="int" >       10 </v>
  <v type="int" >       13 </v>
  <v type="int" >        7 </v>
  <v type="int" >      110 </v>
  <v type="int" >        5 </v>
  <v type="int" >       72 </v>
  <v type="int" >       44 </v>
  <v type="int" >        9 </v>
  <v type="int" >       67 </v>
  <v type="int" >       71 </v>
  <v type="int" >       75 </v>
  <v type="int" >      123 </v>
  <v type="int" >       39 </v>
  <v type="int" >      116 </v>
  <v type="int" >       47 </v>
  <v type="int" >      135 </v>
  <v type="int" >       35 </v>
  <v type="int" >       82 </v>
  <v type="int" >      121 </v>
  <v type="int" >       59 </v>
  <v type="int" >       48 </v>
  <v type="int" >       89 </v>
  <v type="int" >       96 </v>
  <v type="int" >      101 </v>
  <v type="int" >        3 </v>
 </varray>
 <kpoints>
  <generation param="Gamma">
   <v type="int" name="divisions">       2        2        2 </v>
   <v name="usershift">      0.00000000       0.00000000       0.00000000 </v>
   <v name="genvec1">      0.50000000       0.00000000       0.00000000 </v>
   <v name="genvec2">      0.00000000       0.50000000       0.00000000 </v>
   <v name="genvec3">      0.00000000       0.00000000       0.50000000 </v>
   <v name="shift">      0.00000000       0.00000000       0.00000000 </v>
  </generation>
  <varray name="kpointlist" >
   <v>       0.00000000       0.00000000       0.00000000 </v>
   <v>       0.50000000       0.00000000       0.00000000 </v>
   <v>       0.00000000       0.50000000       0.00000000 </v>
   <v>       0.50000000       0.50000000       0.00000000 </v>
   <v>       0.00000000       0.00000000       0.50000000 </v>
   <v>       0.50000000       0.00000000       0.50000000 </v>
   <v>       0.00000000       0.50000000       0.50000000 </v>
   <v>       0.50000000       0.50000000       0.50000000 </v>
  </varray>
  <varray name="weights" >
   <v>       0.12500000 </v>
   <v>       0.12500000 </v>
   <v>       0.12500000 </v>
   <v>       0.12500000 </v>
   <v>       0.12500000 </v>
   <v>       0.12500000 </v>
   <v>       0.12500000 </v>
   <v>       0.12500000 </v>
  </varray>
 </kpoints>
 <parameters>
  <separator name="general" >
   <i type="string" name="SYSTEM">unknown system</i>
   <i type="logical" name="LCOMPAT"> F  </i>
  </separator>
  <separator name="electronic" >
   <i type="string" name="PREC">a</i>
   <i name="ENMAX">    600.00000000</i>
   <i name="ENAUG">    605.39200000</i>
   <i name="EDIFF">      0.00000100</i>
   <i type="int" name="IALGO">    38</i>
   <i type="int" name="IWAVPR">    10</i>
   <i type="int" name="NBANDS">   520</i>
   <i name="NELECT">    864.00000000</i>
   <i type="int" name="TURBO">     0</i>
   <i type="int" name="IRESTART">     0</i>
   <i type="int" name="NREBOOT">     0</i>
   <i type="int" name="NMIN">     0</i>
   <i name="EREF">      0.00000000</i>
   <separator name="electronic smearing" >
    <i type="int" name="ISMEAR">     0</i>
    <i name="SIGMA">      0.05000000</i>
    <i name="KSPACING">      0.30000000</i>
    <i type="logical" name="KGAMMA"> T  </i>
   </separator>
   <separator name="electronic projectors" >
    <i type="logical" name="LREAL"> T  </i>
    <v name="ROPT">     -0.00025000     -0.00025000     -0.00025000</v>
    <i type="int" name="LMAXPAW">  -100</i>
    <i type="int" name="LMAXMIX">     2</i>
    <i type="logical" name="NLSPLINE"> F  </i>
   </separator>
   <separator name="electronic startup" >
    <i type="int" name="ISTART">     0</i>
    <i type="int" name="ICHARG">     2</i>
    <i type="int" name="INIWAV">     1</i>
   </separator>
   <separator name="electronic spin" >
    <i type="int" name="ISPIN">     1</i>
    <i type="logical" name="LNONCOLLINEAR"> F  </i>
    <v name="MAGMOM">      1.00000000      1.00000000      1.00000000      1.00000000      1.00000000      1.00000000      1.00000000      1.00000000      1.00000000      1.00000000      1.00000000      1.00000000      1.00000000      1.00000000      1.00000000      1.00000000      1.00000000      1.00000000      1.00000000      1.00000000
      1.00000000      1.00000000      1.00000000      1.00000000      1.00000000      1.00000000      1.00000000      1.00000000      1.00000000      1.00000000      1.00000000      1.00000000      1.00000000      1.00000000      1.00000000      1.00000000      1.00000000      1.00000000      1.00000000      1.00000000
      1.00000000      1.00000000      1.00000000      1.00000000      1.00000000      1.00000000      1.00000000      1.00000000      1.00000000      1.00000000      1.00000000      1.00000000      1.00000000      1.00000000      1.00000000      1.00000000      1.00000000      1.00000000      1.00000000      1.00000000
      1.00000000      1.00000000      1.00000000      1.00000000      1.00000000      1.00000000      1.00000000      1.00000000      1.00000000      1.00000000      1.00000000      1.00000000      1.00000000      1.00000000      1.00000000      1.00000000      1.00000000      1.00000000      1.00000000      1.00000000
      1.00000000      1.00000000      1.00000000      1.00000000      1.00000000      1.00000000      1.00000000      1.00000000      1.00000000      1.00000000      1.00000000      1.00000000      1.00000000      1.00000000      1.00000000      1.00000000      1.00000000      1.00000000      1.00000000      1.00000000
      1.00000000      1.00000000      1.00000000      1.00000000      1.00000000      1.00000000      1.00000000      1.00000000      1.00000000      1.00000000      1.00000000      1.00000000      1.00000000      1.00000000      1.00000000      1.00000000      1.00000000      1.00000000      1.00000000      1.00000000
      1.00000000      1.00000000      1.00000000      1.00000000      1.00000000      1.00000000      1.00000000      1.00000000      1.00000000      1.00000000      1.00000000      1.00000000      1.00000000      1.00000000      1.00000000</v>
    <i name="NUPDOWN">     -1.00000000</i>
    <i type="logical" name="LSORBIT"> F  </i>
    <v name="SAXIS">      0.00000000      0.00000000      1.00000000</v>
    <i type="logical" name="LSPIRAL"> F  </i>
    <v name="QSPIRAL">      0.00000000      0.00000000      0.00000000</v>
    <i type="logical" name="LZEROZ"> F  </i>
   </separator>
   <separator name="electronic exchange-correlation" >
    <i type="logical" name="LASPH"> F  </i>
    <i type="logical" name="LMETAGGA"> F  </i>
   </separator>
   <separator name="electronic convergence" >
    <i type="int" name="NELM">    60</i>
    <i type="int" name="NELMDL">    -5</i>
    <i type="int" name="NELMIN">     2</i>
    <i name="ENINI">    600.00000000</i>
    <separator name="electronic convergence detail" >
     <i type="logical" name="LDIAG"> T  </i>
     <i type="logical" name="LSUBROT"> F  </i>
     <i name="WEIMIN">      0.00000000</i>
     <i name="EBREAK">      0.00000000</i>
     <i name="DEPER">      0.30000000</i>
     <i type="int" name="NRMM">     4</i>
     <i name="TIME">      0.40000000</i>
    </separator>
   </separator>
   <separator name="electronic mixer" >
    <i name="AMIX">      0.40000000</i>
    <i name="BMIX">      1.00000000</i>
    <i name="AMIN">      0.10000000</i>
    <i name="AMIX_MAG">      1.60000000</i>
    <i name="BMIX_MAG">      1.00000000</i>
    <separator name="electronic mixer details" >
     <i type="int" name="IMIX">     4</i>
     <i type="logical" name="MIXFIRST"> F  </i>
     <i type="int" name="MAXMIX">   -45</i>
     <i name="WC">    100.00000000</i>
     <i type="int" name="INIMIX">     1</i>
     <i type="int" name="MIXPRE">     1</i>
     <i type="int" name="MREMOVE">     5</i>
    </separator>
   </separator>
   <separator name="electronic dipolcorrection" >
    <i type="logical" name="LDIPOL"> F  </i>
    <i type="logical" name="LMONO"> F  </i>
    <i type="int" name="IDIPOL">     0</i>
    <i name="EPSILON">      1.00000000</i>
    <v name="DIPOL">   -100.00000000   -100.00000000   -100.00000000</v>
    <i name="EFIELD">      0.00000000</i>
   </separator>
  </separator>
  <separator name="grids" >
   <i type="int" name="NGX">   112</i>
   <i type="int" name="NGY">   112</i>
   <i type="int" name="NGZ">   112</i>
   <i type="int" name="NGXF">   224</i>
   <i type="int" name="NGYF">   224</i>
   <i type="int" name="NGZF">   224</i>
   <i type="logical" name="ADDGRID"> T  </i>
  </separator>
  <separator name="ionic" >
   <i type="int" name="NSW">     1</i>
   <i type="int" name="IBRION">    -1</i>
   <i type="int" name="MDALGO">     0</i>
   <i type="int" name="ISIF">     2</i>
   <i name="PSTRESS">      0.00000000</i>
   <i name="EDIFFG">     -0.01000000</i>
   <i type="int" name="NFREE">     0</i>
   <i name="POTIM">      1.00000000</i>
   <i name="SMASS">     -3.00000000</i>
   <i name="SCALEE">      1.00000000</i>
  </separator>
  <separator name="ionic md" >
   <i name="TEBEG">      0.00010000</i>
   <i name="TEEND">      0.00010000</i>
   <i type="int" name="NBLOCK">     1</i>
   <i type="int" name="KBLOCK">     1</i>
   <i type="int" name="NPACO">   256</i>
   <i name="APACO">     16.00000000</i>
  </separator>
  <separator name="symmetry" >
   <i type="int" name="ISYM">     0</i>
   <i name="SYMPREC">      0.00001000</i>
  </separator>
  <separator name="dos" >
   <i type="int" name="LORBIT">     0</i>
   <v name="RWIGS">     -1.00000000     -1.00000000     -1.00000000</v>
   <i type="int" name="NEDOS">   301</i>
   <i name="EMIN">     10.00000000</i>
   <i name="EMAX">    -10.00000000</i>
   <i name="EFERMI">      0.00000000</i>
  </separator>
  <separator name="writing" >
   <i type="int" name="NWRITE">     2</i>
   <i type="logical" name="LWAVE"> F  </i>
   <i type="logical" name="LDOWNSAMPLE"> F  </i>
   <i type="logical" name="LCHARG"> F  </i>
   <i type="logical" name="LPARD"> F  </i>
   <i type="logical" name="LVTOT"> F  </i>
   <i type="logical" name="LVHAR"> F  </i>
   <i type="logical" name="LELF"> F  </i>
   <i type="logical" name="LOPTICS"> F  </i>
   <v name="STM">      0.00000000      0.00000000      0.00000000      0.00000000      0.00000000      0.00000000      0.00000000</v>
  </separator>
  <separator name="performance" >
   <i type="int" name="NPAR">     4</i>
   <i type="int" name="NSIM">     4</i>
   <i type="int" name="NBLK">    -1</i>
   <i type="logical" name="LPLANE"> T  </i>
   <i type="logical" name="LSCALAPACK"> F  </i>
   <i type="logical" name="LSCAAWARE"> F  </i>
   <i type="logical" name="LSCALU"> F  </i>
   <i type="logical" name="LASYNC"> F  </i>
   <i type="logical" name="LORBITALREAL"> F  </i>
  </separator>
  <separator name="miscellaneous" >
   <i type="int" name="IDIOT">     3</i>
   <i type="int" name="ISPECIAL">     0</i>
   <i type="logical" name="LMUSIC"> F  </i>
   <v name="POMASS">     40.07800000     28.08500000     16.00000000</v>
   <v name="DARWINR">      0.00000000      0.00000000      0.00000000</v>
   <v name="DARWINV">      1.00000000      1.00000000      1.00000000</v>
   <i type="logical" name="LCORR"> T  </i>
  </separator>
  <i type="logical" name="GGA_COMPAT"> T  </i>
  <i type="logical" name="LBERRY"> F  </i>
  <i type="int" name="ICORELEVEL">     0</i>
  <i type="logical" name="LDAU"> F  </i>
  <i type="int" name="I_CONSTRAINED_M">     0</i>
  <separator name="electronic exchange-correlation" >
   <i type="string" name="GGA">--</i>
   <i type="int" name="VOSKOWN">     0</i>
   <i type="logical" name="LHFCALC"> F  </i>
   <i type="string" name="PRECFOCK"></i>
   <i type="logical" name="LSYMGRAD"> F  </i>
   <i type="logical" name="LHFONE"> F  </i>
   <i type="logical" name="LRHFCALC"> F  </i>
   <i type="logical" name="LTHOMAS"> F  </i>
   <i type="logical" name="LMODELHF"> F  </i>
   <i name="ENCUT4O">     -1.00000000</i>
   <i type="int" name="EXXOEP">     0</i>
   <i type="int" name="FOURORBIT">     0</i>
   <i name="AEXX">      0.00000000</i>
   <i name="HFALPHA">      0.00000000</i>
   <i name="MCALPHA">      0.00000000</i>
   <i name="ALDAX">      1.00000000</i>
   <i name="AGGAX">      1.00000000</i>
   <i name="ALDAC">      1.00000000</i>
   <i name="AGGAC">      1.00000000</i>
   <i type="int" name="NKREDX">     1</i>
   <i type="int" name="NKREDY">     1</i>
   <i type="int" name="NKREDZ">     1</i>
   <i type="logical" name="SHIFTRED"> F  </i>
   <i type="logical" name="ODDONLY"> F  </i>
   <i type="logical" name="EVENONLY"> F  </i>
   <i type="int" name="LMAXFOCK">     0</i>
   <i type="int" name="NMAXFOCKAE">     0</i>
   <i type="logical" name="LFOCKAEDFT"> F  </i>
   <i name="HFSCREEN">      0.00000000</i>
   <i name="HFSCREENC">      0.00000000</i>
   <i type="int" name="NBANDSGWLOW">     0</i>
  </separator>
  <separator name="vdW DFT" >
   <i type="logical" name="LUSE_VDW"> F  </i>
   <i name="Zab_VDW">     -0.84910000</i>
   <i name="PARAM1">      0.12340000</i>
   <i name="PARAM2">      1.00000000</i>
   <i name="PARAM3">      0.00000000</i>
  </separator>
  <separator name="model GW" >
   <i type="int" name="MODEL_GW">     0</i>
   <i name="MODEL_EPS0">     11.35547583</i>
   <i name="MODEL_ALPHA">      1.00000000</i>
  </separator>
  <separator name="linear response parameters" >
   <i type="logical" name="LEPSILON"> F  </i>
   <i type="logical" name="LRPA"> F  </i>
   <i type="logical" name="LNABLA"> F  </i>
   <i type="logical" name="LVEL"> F  </i>
   <i type="int" name="KINTER">     0</i>
   <i name="CSHIFT">      0.10000000</i>
   <i name="OMEGAMAX">     -1.00000000</i>
   <i name="DEG_THRESHOLD">      0.00200000</i>
   <i name="RTIME">     -0.10000000</i>
   <i name="WPLASMAI">      0.00000000</i>
   <v name="DFIELD">      0.00000000      0.00000000      0.00000000</v>
   <v name="WPLASMA">      0.00000000      0.00000000      0.00000000      0.00000000      0.00000000      0.00000000      0.00000000      0.00000000      0.00000000</v>
  </separator>
  <separator name="orbital magnetization" >
   <i type="logical" name="NUCIND"> F  </i>
   <v name="MAGPOS">      0.00000000      0.00000000      0.00000000</v>
   <i type="logical" name="LNICSALL"> T  </i>
   <i type="logical" name="ORBITALMAG"> F  </i>
   <i type="logical" name="LMAGBLOCH"> F  </i>
   <i type="logical" name="LCHIMAG"> F  </i>
   <i type="logical" name="LGAUGE"> T  </i>
   <i type="int" name="MAGATOM">     0</i>
   <v name="MAGDIPOL">      0.00000000      0.00000000      0.00000000</v>
   <v name="AVECCONST">      0.00000000      0.00000000      0.00000000</v>
  </separator>
  <separator name="response functions" >
   <i type="logical" name="LADDER"> F  </i>
   <i type="logical" name="LRPAFORCE"> F  </i>
   <i type="logical" name="LFXC"> F  </i>
   <i type="logical" name="LHARTREE"> T  </i>
   <i type="int" name="IBSE">     0</i>
   <v type="int" name="KPOINT">    -1     0     0     0</v>
   <i type="logical" name="LTCTE"> F  </i>
   <i type="logical" name="LTETE"> F  </i>
   <i type="logical" name="LTRIPLET"> F  </i>
   <i type="logical" name="LFXCEPS"> F  </i>
   <i type="logical" name="LFXHEG"> F  </i>
   <i type="int" name="NATURALO">     2</i>
   <i type="logical" name="L2ORDER"> F  </i>
   <i type="logical" name="LMP2LT"> F  </i>
   <i type="logical" name="LUSEW"> F  </i>
   <i name="ENCUTGW">     -2.00000000</i>
   <i name="ENCUTGWSOFT">     -2.00000000</i>
   <i name="ENCUTLF">     -1.00000000</i>
   <i type="int" name="LMAXMP2">    -1</i>
   <i name="SCISSOR">      0.00000000</i>
   <i type="int" name="NOMEGA">     0</i>
   <i type="int" name="NOMEGAR">     0</i>
   <i type="int" name="NBANDSGW">    -1</i>
   <i type="int" name="NBANDSO">    -1</i>
   <i type="int" name="NBANDSV">    -1</i>
   <i type="int" name="NELM">     1</i>
   <i type="int" name="NELMHF">     1</i>
   <i type="int" name="DIM">     3</i>
   <i type="int" name="ANTIRES">     0</i>
   <i name="OMEGAMAX">    -30.00000000</i>
   <i name="OMEGAMIN">    -30.00000000</i>
   <i name="OMEGATL">   -200.00000000</i>
   <i type="int" name="OMEGAGRID">   140</i>
   <i name="CSHIFT">     -0.10000000</i>
   <i type="logical" name="SELFENERGY"> F  </i>
   <i type="logical" name="LSPECTRAL"> F  </i>
   <i type="logical" name="LSPECTRALGW"> F  </i>
   <i type="logical" name="LSINGLES"> F  </i>
   <i type="logical" name="LFERMIGW"> F  </i>
   <i type="logical" name="ODDONLYGW"> F  </i>
   <i type="logical" name="EVENONLYGW"> F  </i>
   <i type="int" name="NKREDLFX">     1</i>
   <i type="int" name="NKREDLFY">     1</i>
   <i type="int" name="NKREDLFZ">     1</i>
   <i type="int" name="MAXMEM">  2800</i>
   <i type="int" name="TELESCOPE">     0</i>
   <i type="int" name="TAUPAR">     1</i>
   <i type="int" name="OMEGAPAR">    -1</i>
   <i name="LAMBDA">      1.00000000</i>
  </separator>
  <separator name="External order field" >
   <i name="OFIELD_KAPPA">      0.00000000</i>
   <v name="OFIELD_K">      0.00000000      0.00000000      0.00000000</v>
   <i name="OFIELD_Q6_NEAR">      0.00000000</i>
   <i name="OFIELD_Q6_FAR">      0.00000000</i>
   <i name="OFIELD_A">      0.00000000</i>
  </separator>
 </parameters>
 <atominfo>
  <atoms>     135 </atoms>
  <types>       3 </types>
  <array name="atoms" >
   <dimension dim="1">ion</dimension>
   <field type="string">element</field>
   <field type="int">atomtype</field>
   <set>
    <rc><c>Ca</c><c>   1</c></rc>
    <rc><c>Ca</c><c>   1</c></rc>
    <rc><c>Ca</c><c>   1</c></rc>
    <rc><c>Ca</c><c>   1</c></rc>
    <rc><c>Ca</c><c>   1</c></rc>
    <rc><c>Ca</c><c>   1</c></rc>
    <rc><c>Ca</c><c>   1</c></rc>
    <rc><c>Ca</c><c>   1</c></rc>
    <rc><c>Ca</c><c>   1</c></rc>
    <rc><c>Ca</c><c>   1</c></rc>
    <rc><c>Ca</c><c>   1</c></rc>
    <rc><c>Ca</c><c>   1</c></rc>
    <rc><c>Ca</c><c>   1</c></rc>
    <rc><c>Ca</c><c>   1</c></rc>
    <rc><c>Ca</c><c>   1</c></rc>
    <rc><c>Ca</c><c>   1</c></rc>
    <rc><c>Ca</c><c>   1</c></rc>
    <rc><c>Ca</c><c>   1</c></rc>
    <rc><c>Ca</c><c>   1</c></rc>
    <rc><c>Ca</c><c>   1</c></rc>
    <rc><c>Ca</c><c>   1</c></rc>
    <rc><c>Ca</c><c>   1</c></rc>
    <rc><c>Ca</c><c>   1</c></rc>
    <rc><c>Ca</c><c>   1</c></rc>
    <rc><c>Ca</c><c>   1</c></rc>
    <rc><c>Ca</c><c>   1</c></rc>
    <rc><c>Ca</c><c>   1</c></rc>
    <rc><c>Si</c><c>   2</c></rc>
    <rc><c>Si</c><c>   2</c></rc>
    <rc><c>Si</c><c>   2</c></rc>
    <rc><c>Si</c><c>   2</c></rc>
    <rc><c>Si</c><c>   2</c></rc>
    <rc><c>Si</c><c>   2</c></rc>
    <rc><c>Si</c><c>   2</c></rc>
    <rc><c>Si</c><c>   2</c></rc>
    <rc><c>Si</c><c>   2</c></rc>
    <rc><c>Si</c><c>   2</c></rc>
    <rc><c>Si</c><c>   2</c></rc>
    <rc><c>Si</c><c>   2</c></rc>
    <rc><c>Si</c><c>   2</c></rc>
    <rc><c>Si</c><c>   2</c></rc>
    <rc><c>Si</c><c>   2</c></rc>
    <rc><c>Si</c><c>   2</c></rc>
    <rc><c>Si</c><c>   2</c></rc>
    <rc><c>Si</c><c>   2</c></rc>
    <rc><c>Si</c><c>   2</c></rc>
    <rc><c>Si</c><c>   2</c></rc>
    <rc><c>Si</c><c>   2</c></rc>
    <rc><c>Si</c><c>   2</c></rc>
    <rc><c>Si</c><c>   2</c></rc>
    <rc><c>Si</c><c>   2</c></rc>
    <rc><c>Si</c><c>   2</c></rc>
    <rc><c>Si</c><c>   2</c></rc>
    <rc><c>Si</c><c>   2</c></rc>
    <rc><c>O </c><c>   3</c></rc>
    <rc><c>O </c><c>   3</c></rc>
    <rc><c>O </c><c>   3</c></rc>
    <rc><c>O </c><c>   3</c></rc>
    <rc><c>O </c><c>   3</c></rc>
    <rc><c>O </c><c>   3</c></rc>
    <rc><c>O </c><c>   3</c></rc>
    <rc><c>O </c><c>   3</c></rc>
    <rc><c>O </c><c>   3</c></rc>
    <rc><c>O </c><c>   3</c></rc>
    <rc><c>O </c><c>   3</c></rc>
    <rc><c>O </c><c>   3</c></rc>
    <rc><c>O </c><c>   3</c></rc>
    <rc><c>O </c><c>   3</c></rc>
    <rc><c>O </c><c>   3</c></rc>
    <rc><c>O </c><c>   3</c></rc>
    <rc><c>O </c><c>   3</c></rc>
    <rc><c>O </c><c>   3</c></rc>
    <rc><c>O </c><c>   3</c></rc>
    <rc><c>O </c><c>   3</c></rc>
    <rc><c>O </c><c>   3</c></rc>
    <rc><c>O </c><c>   3</c></rc>
    <rc><c>O </c><c>   3</c></rc>
    <rc><c>O </c><c>   3</c></rc>
    <rc><c>O </c><c>   3</c></rc>
    <rc><c>O </c><c>   3</c></rc>
    <rc><c>O </c><c>   3</c></rc>
    <rc><c>O </c><c>   3</c></rc>
    <rc><c>O </c><c>   3</c></rc>
    <rc><c>O </c><c>   3</c></rc>
    <rc><c>O </c><c>   3</c></rc>
    <rc><c>O </c><c>   3</c></rc>
    <rc><c>O </c><c>   3</c></rc>
    <rc><c>O </c><c>   3</c></rc>
    <rc><c>O </c><c>   3</c></rc>
    <rc><c>O </c><c>   3</c></rc>
    <rc><c>O </c><c>   3</c></rc>
    <rc><c>O </c><c>   3</c></rc>
    <rc><c>O </c><c>   3</c></rc>
    <rc><c>O </c><c>   3</c></rc>
    <rc><c>O </c><c>   3</c></rc>
    <rc><c>O </c><c>   3</c></rc>
    <rc><c>O </c><c>   3</c></rc>
    <rc><c>O </c><c>   3</c></rc>
    <rc><c>O </c><c>   3</c></rc>
    <rc><c>O </c><c>   3</c></rc>
    <rc><c>O </c><c>   3</c></rc>
    <rc><c>O </c><c>   3</c></rc>
    <rc><c>O </c><c>   3</c></rc>
    <rc><c>O </c><c>   3</c></rc>
    <rc><c>O </c><c>   3</c></rc>
    <rc><c>O </c><c>   3</c></rc>
    <rc><c>O </c><c>   3</c></rc>
    <rc><c>O </c><c>   3</c></rc>
    <rc><c>O </c><c>   3</c></rc>
    <rc><c>O </c><c>   3</c></rc>
    <rc><c>O </c><c>   3</c></rc>
    <rc><c>O </c><c>   3</c></rc>
    <rc><c>O </c><c>   3</c></rc>
    <rc><c>O </c><c>   3</c></rc>
    <rc><c>O </c><c>   3</c></rc>
    <rc><c>O </c><c>   3</c></rc>
    <rc><c>O </c><c>   3</c></rc>
    <rc><c>O </c><c>   3</c></rc>
    <rc><c>O </c><c>   3</c></rc>
    <rc><c>O </c><c>   3</c></rc>
    <rc><c>O </c><c>   3</c></rc>
    <rc><c>O </c><c>   3</c></rc>
    <rc><c>O </c><c>   3</c></rc>
    <rc><c>O </c><c>   3</c></rc>
    <rc><c>O </c><c>   3</c></rc>
    <rc><c>O </c><c>   3</c></rc>
    <rc><c>O </c><c>   3</c></rc>
    <rc><c>O </c><c>   3</c></rc>
    <rc><c>O </c><c>   3</c></rc>
    <rc><c>O </c><c>   3</c></rc>
    <rc><c>O </c><c>   3</c></rc>
    <rc><c>O </c><c>   3</c></rc>
    <rc><c>O </c><c>   3</c></rc>
    <rc><c>O </c><c>   3</c></rc>
    <rc><c>O </c><c>   3</c></rc>
   </set>
  </array>
  <array name="atomtypes" >
   <dimension dim="1">type</dimension>
   <field type="int">atomspertype</field>
   <field type="string">element</field>
   <field>mass</field>
   <field>valence</field>
   <field type="string">pseudopotential</field>
   <set>
    <rc><c>  27</c><c>Ca</c><c>     40.07800000</c><c>     10.00000000</c><c>  PAW_PBE Ca_sv 06Sep2000               </c></rc>
    <rc><c>  27</c><c>Si</c><c>     28.08500000</c><c>      4.00000000</c><c>  PAW_PBE Si 05Jan2001                  </c></rc>
    <rc><c>  81</c><c>O </c><c>     16.00000000</c><c>      6.00000000</c><c>  PAW_PBE O 08Apr2002                   </c></rc>
   </set>
  </array>
 </atominfo>
 <structure name="initialpos" >
  <crystal>
   <varray name="basis" >
    <v>      13.67086365       0.00000000       0.00000000 </v>
    <v>       0.00000000      13.67086365       0.00000000 </v>
    <v>       0.00000000       0.00000000      13.67086365 </v>
   </varray>
   <i name="volume">   2554.98206157 </i>
   <varray name="rec_basis" >
    <v>       0.07314827       0.00000000       0.00000000 </v>
    <v>       0.00000000       0.07314827       0.00000000 </v>
    <v>       0.00000000       0.00000000       0.07314827 </v>
   </varray>
  </crystal>
  <varray name="positions" >
   <v>       0.78539430       0.59008382       0.64499413 </v>
   <v>       0.53861586       0.94956365       0.59685276 </v>
   <v>       0.29841331       0.09812992       0.23932038 </v>
   <v>       0.69169413       0.65864749       0.20510132 </v>
   <v>       0.22185079       0.87120114       0.28887023 </v>
   <v>       0.75969820       0.25365008       0.40747680 </v>
   <v>       0.30674668       0.55614342       0.04287137 </v>
   <v>       0.91031601       0.94073253       0.18375949 </v>
   <v>       0.60612586       0.97559716       0.11975664 </v>
   <v>       0.41631875       0.77515248       0.10464123 </v>
   <v>       0.88757345       0.47732167       0.33250809 </v>
   <v>       0.90910833       0.09475271       0.52685909 </v>
   <v>       0.04433569       0.13613170       0.31512520 </v>
   <v>       0.47856166       0.25409323       0.05207687 </v>
   <v>       0.49981032       0.83540482       0.36503675 </v>
   <v>       0.19978122       0.58661003       0.38528653 </v>
   <v>       0.63831121       0.66135739       0.44057149 </v>
   <v>       0.52600211       0.87640642       0.88279759 </v>
   <v>       0.58146970       0.52920061       0.92475950 </v>
   <v>       0.86187317       0.48579567       0.90934970 </v>
   <v>       0.52679739       0.40628430       0.40983040 </v>
   <v>       0.09317403       0.69846483       0.63357029 </v>
   <v>       0.79786592       0.97367775       0.78188279 </v>
   <v>       0.85544645       0.24476676       0.04245868 </v>
   <v>       0.13530771       0.30719390       0.57210207 </v>
   <v>       0.40326239       0.27708610       0.74776755 </v>
   <v>       0.15968267       0.93591820       0.92849507 </v>
   <v>       0.97899934       0.00398430       0.68943310 </v>
   <v>       0.73516002       0.73651065       0.96349031 </v>
   <v>       0.46365842       0.58446553       0.52810711 </v>
   <v>       0.68154895       0.30895471       0.81759559 </v>
   <v>       0.64423346       0.28721720       0.21155361 </v>
   <v>       0.94254874       0.65900830       0.46873179 </v>
   <v>       0.96102211       0.35801082       0.56462669 </v>
   <v>       0.18312346       0.30231093       0.13294685 </v>
   <v>       0.71266224       0.01361878       0.41276045 </v>
   <v>       0.77056320       0.33627742       0.56143310 </v>
   <v>       0.32281083       0.39559240       0.56768150 </v>
   <v>       0.32929745       0.11201786       0.55389741 </v>
   <v>       0.28720515       0.78014395       0.75240556 </v>
   <v>       0.57483578       0.70909635       0.69146844 </v>
   <v>       0.94762827       0.88024102       0.45279867 </v>
   <v>       0.14699976       0.37619067       0.36669862 </v>
   <v>       0.33059405       0.42028688       0.23269410 </v>
   <v>       0.56128325       0.47311236       0.12735971 </v>
   <v>       0.83968186       0.05288350       0.97761041 </v>
   <v>       0.27970530       0.03767720       0.78020530 </v>
   <v>       0.42243732       0.97293101       0.15188305 </v>
   <v>       0.91575918       0.67006023       0.16163895 </v>
   <v>       0.29855949       0.73790939       0.42350465 </v>
   <v>       0.86882829       0.21161028       0.78622568 </v>
   <v>       0.10668661       0.80406012       0.12523041 </v>
   <v>       0.41531813       0.66452368       0.84022328 </v>
   <v>       0.08701451       0.42072886       0.98649650 </v>
   <v>       0.73382775       0.02188039       0.29385166 </v>
   <v>       0.16150055       0.51354337       0.01086093 </v>
   <v>       0.07352983       0.86917063       0.00354467 </v>
   <v>       0.65386824       0.36113138       0.53739822 </v>
   <v>       0.13686110       0.16442644       0.18029567 </v>
   <v>       0.65903721       0.94236143       0.70564601 </v>
   <v>       0.79954083       0.29380013       0.92205734 </v>
   <v>       0.84995045       0.24488779       0.57099414 </v>
   <v>       0.35528069       0.66278546       0.73453664 </v>
   <v>       0.85155676       0.72299661       0.07119533 </v>
   <v>       0.69414312       0.74015066       0.64107829 </v>
   <v>       0.62560395       0.72188260       0.29991455 </v>
   <v>       0.94445022       0.05857148       0.04979631 </v>
   <v>       0.84152692       0.94700746       0.45542875 </v>
   <v>       0.63850927       0.58017839       0.70525845 </v>
   <v>       0.67709610       0.41454447       0.86489239 </v>
   <v>       0.27384656       0.51892554       0.22787773 </v>
   <v>       0.20841679       0.35208152       0.24071268 </v>
   <v>       0.67752947       0.82211161       0.00527190 </v>
   <v>       0.84549875       0.38308811       0.45802050 </v>
   <v>       0.20083207       0.72998804       0.12239597 </v>
   <v>       0.42883730       0.55756516       0.85725233 </v>
   <v>       0.81381988       0.75703698       0.85172737 </v>
   <v>       0.79864634       0.30930441       0.18760928 </v>
   <v>       0.51026512       0.89728407       0.22140852 </v>
   <v>       0.99926401       0.76300671       0.17877267 </v>
   <v>       0.62544837       0.28291330       0.32941594 </v>
   <v>       0.27324221       0.06872705       0.46837710 </v>
   <v>       0.32806303       0.61562348       0.48486544 </v>
   <v>       0.95990878       0.29813297       0.77162339 </v>
   <v>       0.51299137       0.69512266       0.58547067 </v>
   <v>       0.13338983       0.26687158       0.36148802 </v>
   <v>       0.95836427       0.67403203       0.59209785 </v>
   <v>       0.33349104       0.91215773       0.72378856 </v>
   <v>       0.30026245       0.33124792       0.11923151 </v>
   <v>       0.62200706       0.93078957       0.43656825 </v>
   <v>       0.75202817       0.09370541       0.47137486 </v>
   <v>       0.54783457       0.57909852       0.13105583 </v>
   <v>       0.72698048       0.02578224       0.99322443 </v>
   <v>       0.85069861       0.68757737       0.26432226 </v>
   <v>       0.95944842       0.56477942       0.13488256 </v>
   <v>       0.31642496       0.94096931       0.18514243 </v>
   <v>       0.75176183       0.24021115       0.73314025 </v>
   <v>       0.63563563       0.41091088       0.18768742 </v>
   <v>       0.16031139       0.99526972       0.78818636 </v>
   <v>       0.05571130       0.62633965       0.45300279 </v>
   <v>       0.45887015       0.08183271       0.15804521 </v>
   <v>       0.92626895       0.09848428       0.69410074 </v>
   <v>       0.10324609       0.47525936       0.32294544 </v>
   <v>       0.99669987       0.98294133       0.56956891 </v>
   <v>       0.40992200       0.72553892       0.97064663 </v>
   <v>       0.28049587       0.38523522       0.67945216 </v>
   <v>       0.83084014       0.57915750       0.44899179 </v>
   <v>       0.99597001       0.45885285       0.94214748 </v>
   <v>       0.96767182       0.91509407       0.75355382 </v>
   <v>       0.45715052       0.90301785       0.07299055 </v>
   <v>       0.44536853       0.06105077       0.56217387 </v>
   <v>       0.52791949       0.74702660       0.81450597 </v>
   <v>       0.16298763       0.77062059       0.46856561 </v>
   <v>       0.83487229       0.10592708       0.86592058 </v>
   <v>       0.44940578       0.39511088       0.24804344 </v>
   <v>       0.11756590       0.92882180       0.17412489 </v>
   <v>       0.18793651       0.74948985       0.79189166 </v>
   <v>       0.08140326       0.32411256       0.06018252 </v>
   <v>       0.91407268       0.76663990       0.42109427 </v>
   <v>       0.56890430       0.26356143       0.83895431 </v>
   <v>       0.32373882       0.07054960       0.88937591 </v>
   <v>       0.27667642       0.72343570       0.31039724 </v>
   <v>       0.61108007       0.19752126       0.13292887 </v>
   <v>       0.35855563       0.28368414       0.54245892 </v>
   <v>       0.42847509       0.46020247       0.55787444 </v>
   <v>       0.23510940       0.41608630       0.43625960 </v>
   <v>       0.70168012       0.61585204       0.97163657 </v>
   <v>       0.04417478       0.42900103       0.61757588 </v>
   <v>       0.49516248       0.41799263       0.05494054 </v>
   <v>       0.02602482       0.25052043       0.48101969 </v>
   <v>       0.37957140       0.82085812       0.46017677 </v>
   <v>       0.54590054       0.55369961       0.46854418 </v>
   <v>       0.85374486       0.38526571       0.67458188 </v>
   <v>       0.03570434       0.94115731       0.40330330 </v>
   <v>       0.26870278       0.08204612       0.66037062 </v>
  </varray>
  <varray name="velocities" >
   <v>       0.00000000       0.00000000       0.00000000 </v>
   <v>       0.00000000       0.00000000       0.00000000 </v>
   <v>       0.00000000       0.00000000       0.00000000 </v>
   <v>       0.00000000       0.00000000       0.00000000 </v>
   <v>       0.00000000       0.00000000       0.00000000 </v>
   <v>       0.00000000       0.00000000       0.00000000 </v>
   <v>       0.00000000       0.00000000       0.00000000 </v>
   <v>       0.00000000       0.00000000       0.00000000 </v>
   <v>       0.00000000       0.00000000       0.00000000 </v>
   <v>       0.00000000       0.00000000       0.00000000 </v>
   <v>       0.00000000       0.00000000       0.00000000 </v>
   <v>       0.00000000       0.00000000       0.00000000 </v>
   <v>       0.00000000       0.00000000       0.00000000 </v>
   <v>       0.00000000       0.00000000       0.00000000 </v>
   <v>       0.00000000       0.00000000       0.00000000 </v>
   <v>       0.00000000       0.00000000       0.00000000 </v>
   <v>       0.00000000       0.00000000       0.00000000 </v>
   <v>       0.00000000       0.00000000       0.00000000 </v>
   <v>       0.00000000       0.00000000       0.00000000 </v>
   <v>       0.00000000       0.00000000       0.00000000 </v>
   <v>       0.00000000       0.00000000       0.00000000 </v>
   <v>       0.00000000       0.00000000       0.00000000 </v>
   <v>       0.00000000       0.00000000       0.00000000 </v>
   <v>       0.00000000       0.00000000       0.00000000 </v>
   <v>       0.00000000       0.00000000       0.00000000 </v>
   <v>       0.00000000       0.00000000       0.00000000 </v>
   <v>       0.00000000       0.00000000       0.00000000 </v>
   <v>       0.00000000       0.00000000       0.00000000 </v>
   <v>       0.00000000       0.00000000       0.00000000 </v>
   <v>       0.00000000       0.00000000       0.00000000 </v>
   <v>       0.00000000       0.00000000       0.00000000 </v>
   <v>       0.00000000       0.00000000       0.00000000 </v>
   <v>       0.00000000       0.00000000       0.00000000 </v>
   <v>       0.00000000       0.00000000       0.00000000 </v>
   <v>       0.00000000       0.00000000       0.00000000 </v>
   <v>       0.00000000       0.00000000       0.00000000 </v>
   <v>       0.00000000       0.00000000       0.00000000 </v>
   <v>       0.00000000       0.00000000       0.00000000 </v>
   <v>       0.00000000       0.00000000       0.00000000 </v>
   <v>       0.00000000       0.00000000       0.00000000 </v>
   <v>       0.00000000       0.00000000       0.00000000 </v>
   <v>       0.00000000       0.00000000       0.00000000 </v>
   <v>       0.00000000       0.00000000       0.00000000 </v>
   <v>       0.00000000       0.00000000       0.00000000 </v>
   <v>       0.00000000       0.00000000       0.00000000 </v>
   <v>       0.00000000       0.00000000       0.00000000 </v>
   <v>       0.00000000       0.00000000       0.00000000 </v>
   <v>       0.00000000       0.00000000       0.00000000 </v>
   <v>       0.00000000       0.00000000       0.00000000 </v>
   <v>       0.00000000       0.00000000       0.00000000 </v>
   <v>       0.00000000       0.00000000       0.00000000 </v>
   <v>       0.00000000       0.00000000       0.00000000 </v>
   <v>       0.00000000       0.00000000       0.00000000 </v>
   <v>       0.00000000       0.00000000       0.00000000 </v>
   <v>       0.00000000       0.00000000       0.00000000 </v>
   <v>       0.00000000       0.00000000       0.00000000 </v>
   <v>       0.00000000       0.00000000       0.00000000 </v>
   <v>       0.00000000       0.00000000       0.00000000 </v>
   <v>       0.00000000       0.00000000       0.00000000 </v>
   <v>       0.00000000       0.00000000       0.00000000 </v>
   <v>       0.00000000       0.00000000       0.00000000 </v>
   <v>       0.00000000       0.00000000       0.00000000 </v>
   <v>       0.00000000       0.00000000       0.00000000 </v>
   <v>       0.00000000       0.00000000       0.00000000 </v>
   <v>       0.00000000       0.00000000       0.00000000 </v>
   <v>       0.00000000       0.00000000       0.00000000 </v>
   <v>       0.00000000       0.00000000       0.00000000 </v>
   <v>       0.00000000       0.00000000       0.00000000 </v>
   <v>       0.00000000       0.00000000       0.00000000 </v>
   <v>       0.00000000       0.00000000       0.00000000 </v>
   <v>       0.00000000       0.00000000       0.00000000 </v>
   <v>       0.00000000       0.00000000       0.00000000 </v>
   <v>       0.00000000       0.00000000       0.00000000 </v>
   <v>       0.00000000       0.00000000       0.00000000 </v>
   <v>       0.00000000       0.00000000       0.00000000 </v>
   <v>       0.00000000       0.00000000       0.00000000 </v>
   <v>       0.00000000       0.00000000       0.00000000 </v>
   <v>       0.00000000       0.00000000       0.00000000 </v>
   <v>       0.00000000       0.00000000       0.00000000 </v>
   <v>       0.00000000       0.00000000       0.00000000 </v>
   <v>       0.00000000       0.00000000       0.00000000 </v>
   <v>       0.00000000       0.00000000       0.00000000 </v>
   <v>       0.00000000       0.00000000       0.00000000 </v>
   <v>       0.00000000       0.00000000       0.00000000 </v>
   <v>       0.00000000       0.00000000       0.00000000 </v>
   <v>       0.00000000       0.00000000       0.00000000 </v>
   <v>       0.00000000       0.00000000       0.00000000 </v>
   <v>       0.00000000       0.00000000       0.00000000 </v>
   <v>       0.00000000       0.00000000       0.00000000 </v>
   <v>       0.00000000       0.00000000       0.00000000 </v>
   <v>       0.00000000       0.00000000       0.00000000 </v>
   <v>       0.00000000       0.00000000       0.00000000 </v>
   <v>       0.00000000       0.00000000       0.00000000 </v>
   <v>       0.00000000       0.00000000       0.00000000 </v>
   <v>       0.00000000       0.00000000       0.00000000 </v>
   <v>       0.00000000       0.00000000       0.00000000 </v>
   <v>       0.00000000       0.00000000       0.00000000 </v>
   <v>       0.00000000       0.00000000       0.00000000 </v>
   <v>       0.00000000       0.00000000       0.00000000 </v>
   <v>       0.00000000       0.00000000       0.00000000 </v>
   <v>       0.00000000       0.00000000       0.00000000 </v>
   <v>       0.00000000       0.00000000       0.00000000 </v>
   <v>       0.00000000       0.00000000       0.00000000 </v>
   <v>       0.00000000       0.00000000       0.00000000 </v>
   <v>       0.00000000       0.00000000       0.00000000 </v>
   <v>       0.00000000       0.00000000       0.00000000 </v>
   <v>       0.00000000       0.00000000       0.00000000 </v>
   <v>       0.00000000       0.00000000       0.00000000 </v>
   <v>       0.00000000       0.00000000       0.00000000 </v>
   <v>       0.00000000       0.00000000       0.00000000 </v>
   <v>       0.00000000       0.00000000       0.00000000 </v>
   <v>       0.00000000       0.00000000       0.00000000 </v>
   <v>       0.00000000       0.00000000       0.00000000 </v>
   <v>       0.00000000       0.00000000       0.00000000 </v>
   <v>       0.00000000       0.00000000       0.00000000 </v>
   <v>       0.00000000       0.00000000       0.00000000 </v>
   <v>       0.00000000       0.00000000       0.00000000 </v>
   <v>       0.00000000       0.00000000       0.00000000 </v>
   <v>       0.00000000       0.00000000       0.00000000 </v>
   <v>       0.00000000       0.00000000       0.00000000 </v>
   <v>       0.00000000       0.00000000       0.00000000 </v>
   <v>       0.00000000       0.00000000       0.00000000 </v>
   <v>       0.00000000       0.00000000       0.00000000 </v>
   <v>       0.00000000       0.00000000       0.00000000 </v>
   <v>       0.00000000       0.00000000       0.00000000 </v>
   <v>       0.00000000       0.00000000       0.00000000 </v>
   <v>       0.00000000       0.00000000       0.00000000 </v>
   <v>       0.00000000       0.00000000       0.00000000 </v>
   <v>       0.00000000       0.00000000       0.00000000 </v>
   <v>       0.00000000       0.00000000       0.00000000 </v>
   <v>       0.00000000       0.00000000       0.00000000 </v>
   <v>       0.00000000       0.00000000       0.00000000 </v>
   <v>       0.00000000       0.00000000       0.00000000 </v>
   <v>       0.00000000       0.00000000       0.00000000 </v>
   <v>       0.00000000       0.00000000       0.00000000 </v>
  </varray>
 </structure>
 <calculation>
  <scstep>
   <time name="dav">   54.12   54.12</time>
   <time name="total">   54.72   54.74</time>
   <energy>
    <i name="alphaZ">   1870.29120978 </i>
    <i name="ewald"> -33836.48583878 </i>
    <i name="hartreedc"> -26290.49904556 </i>
    <i name="XCdc">   3114.04863510 </i>
    <i name="pawpsdc">  50594.51003143 </i>
    <i name="pawaedc"> -49994.65612350 </i>
    <i name="eentropy">     -0.03811212 </i>
    <i name="bandstr">  -1251.28546460 </i>
    <i name="atom">  64968.54023382 </i>
    <i name="e_fr_energy">   9174.42552557 </i>
    <i name="e_wo_entrp">   9174.46363769 </i>
    <i name="e_0_energy">   9174.44458163 </i>
   </energy>
  </scstep>
  <scstep>
   <time name="dav">   64.00   64.03</time>
   <time name="total">   64.00   64.03</time>
   <energy>
    <i name="e_fr_energy">     46.91147025 </i>
    <i name="e_wo_entrp">     46.91147025 </i>
    <i name="e_0_energy">     46.91147025 </i>
   </energy>
  </scstep>
  <scstep>
   <time name="dav">   64.47   64.49</time>
   <time name="total">   64.47   64.49</time>
   <energy>
    <i name="e_fr_energy">   -997.10521388 </i>
    <i name="e_wo_entrp">   -997.10521388 </i>
    <i name="e_0_energy">   -997.10521388 </i>
   </energy>
  </scstep>
  <scstep>
   <time name="dav">   67.05   67.06</time>
   <time name="total">   67.05   67.06</time>
   <energy>
    <i name="e_fr_energy">  -1044.60876274 </i>
    <i name="e_wo_entrp">  -1044.60876274 </i>
    <i name="e_0_energy">  -1044.60876274 </i>
   </energy>
  </scstep>
  <scstep>
   <time name="dav">   87.92   87.94</time>
   <time name="total">   90.72   90.74</time>
   <energy>
    <i name="e_fr_energy">  -1051.23369663 </i>
    <i name="e_wo_entrp">  -1051.23369663 </i>
    <i name="e_0_energy">  -1051.23369663 </i>
   </energy>
  </scstep>
  <scstep>
   <time name="dav">   62.92   62.92</time>
   <time name="total">   66.37   66.39</time>
   <energy>
    <i name="e_fr_energy">   -881.07037986 </i>
    <i name="e_wo_entrp">   -881.06806186 </i>
    <i name="e_0_energy">   -881.06922086 </i>
   </energy>
  </scstep>
  <scstep>
   <time name="dav">   62.46   62.46</time>
   <time name="total">   65.89   65.91</time>
   <energy>
    <i name="e_fr_energy">   -881.97653498 </i>
    <i name="e_wo_entrp">   -881.97653498 </i>
    <i name="e_0_energy">   -881.97653498 </i>
   </energy>
  </scstep>
  <scstep>
   <time name="dav">   73.78   73.78</time>
   <time name="total">   77.26   77.28</time>
   <energy>
    <i name="e_fr_energy">   -876.83886405 </i>
    <i name="e_wo_entrp">   -876.79738808 </i>
    <i name="e_0_energy">   -876.81812607 </i>
   </energy>
  </scstep>
  <scstep>
   <time name="dav">   65.40   65.40</time>
   <time name="total">   68.87   68.88</time>
   <energy>
    <i name="e_fr_energy">   -877.63619025 </i>
    <i name="e_wo_entrp">   -877.62600072 </i>
    <i name="e_0_energy">   -877.63109549 </i>
   </energy>
  </scstep>
  <scstep>
   <time name="dav">   71.31   71.31</time>
   <time name="total">   74.78   74.80</time>
   <energy>
    <i name="e_fr_energy">   -875.95490050 </i>
    <i name="e_wo_entrp">   -875.93835602 </i>
    <i name="e_0_energy">   -875.94662826 </i>
   </energy>
  </scstep>
  <scstep>
   <time name="dav">   68.70   68.70</time>
   <time name="total">   72.18   72.21</time>
   <energy>
    <i name="e_fr_energy">   -875.87952569 </i>
    <i name="e_wo_entrp">   -875.87213601 </i>
    <i name="e_0_energy">   -875.87583085 </i>
   </energy>
  </scstep>
  <scstep>
   <time name="dav">   63.63   63.64</time>
   <time name="total">   67.05   67.07</time>
   <energy>
    <i name="e_fr_energy">   -875.65679888 </i>
    <i name="e_wo_entrp">   -875.60955286 </i>
    <i name="e_0_energy">   -875.63317587 </i>
   </energy>
  </scstep>
  <scstep>
   <time name="dav">   63.18   63.18</time>
   <time name="total">   66.62   66.64</time>
   <energy>
    <i name="e_fr_energy">   -875.66605296 </i>
    <i name="e_wo_entrp">   -875.64230716 </i>
    <i name="e_0_energy">   -875.65418006 </i>
   </energy>
  </scstep>
  <scstep>
   <time name="dav">   68.32   68.33</time>
   <time name="total">   71.78   71.79</time>
   <energy>
    <i name="e_fr_energy">   -875.73763838 </i>
    <i name="e_wo_entrp">   -875.69528478 </i>
    <i name="e_0_energy">   -875.71646158 </i>
   </energy>
  </scstep>
  <scstep>
   <time name="dav">   69.45   69.46</time>
   <time name="total">   72.88   72.90</time>
   <energy>
    <i name="e_fr_energy">   -875.68954027 </i>
    <i name="e_wo_entrp">   -875.66192103 </i>
    <i name="e_0_energy">   -875.67573065 </i>
   </energy>
  </scstep>
  <scstep>
   <time name="dav">   64.56   64.56</time>
   <time name="total">   68.03   68.05</time>
   <energy>
    <i name="e_fr_energy">   -875.69052583 </i>
    <i name="e_wo_entrp">   -875.64036582 </i>
    <i name="e_0_energy">   -875.66544582 </i>
   </energy>
  </scstep>
  <scstep>
   <time name="dav">   64.83   64.83</time>
   <time name="total">   68.30   68.32</time>
   <energy>
    <i name="e_fr_energy">   -875.67075258 </i>
    <i name="e_wo_entrp">   -875.63205476 </i>
    <i name="e_0_energy">   -875.65140367 </i>
   </energy>
  </scstep>
  <scstep>
   <time name="dav">   67.50   67.50</time>
   <time name="total">   70.96   70.98</time>
   <energy>
    <i name="e_fr_energy">   -875.66750261 </i>
    <i name="e_wo_entrp">   -875.63301532 </i>
    <i name="e_0_energy">   -875.65025897 </i>
   </energy>
  </scstep>
  <scstep>
   <time name="dav">   63.72   63.72</time>
   <time name="total">   67.15   67.17</time>
   <energy>
    <i name="e_fr_energy">   -875.68978921 </i>
    <i name="e_wo_entrp">   -875.64298212 </i>
    <i name="e_0_energy">   -875.66638566 </i>
   </energy>
  </scstep>
  <scstep>
   <time name="dav">   62.79   62.79</time>
   <time name="total">   66.21   66.24</time>
   <energy>
    <i name="e_fr_energy">   -875.66879916 </i>
    <i name="e_wo_entrp">   -875.62697063 </i>
    <i name="e_0_energy">   -875.64788489 </i>
   </energy>
  </scstep>
  <scstep>
   <time name="dav">   61.46   61.46</time>
   <time name="total">   64.82   64.84</time>
   <energy>
    <i name="e_fr_energy">   -875.67331376 </i>
    <i name="e_wo_entrp">   -875.61920698 </i>
    <i name="e_0_energy">   -875.64626037 </i>
   </energy>
  </scstep>
  <scstep>
   <time name="dav">   63.62   63.63</time>
   <time name="total">   67.06   67.08</time>
   <energy>
    <i name="e_fr_energy">   -875.67014854 </i>
    <i name="e_wo_entrp">   -875.62211216 </i>
    <i name="e_0_energy">   -875.64613035 </i>
   </energy>
  </scstep>
  <scstep>
   <time name="dav">   62.70   62.70</time>
   <time name="total">   66.09   66.11</time>
   <energy>
    <i name="e_fr_energy">   -875.66951553 </i>
    <i name="e_wo_entrp">   -875.62072706 </i>
    <i name="e_0_energy">   -875.64512130 </i>
   </energy>
  </scstep>
  <scstep>
   <time name="dav">   62.95   62.95</time>
   <time name="total">   66.36   66.37</time>
   <energy>
    <i name="e_fr_energy">   -875.66974043 </i>
    <i name="e_wo_entrp">   -875.62219410 </i>
    <i name="e_0_energy">   -875.64596727 </i>
   </energy>
  </scstep>
  <scstep>
   <time name="dav">   63.13   63.13</time>
   <time name="total">   66.57   66.59</time>
   <energy>
    <i name="e_fr_energy">   -875.66985442 </i>
    <i name="e_wo_entrp">   -875.62266070 </i>
    <i name="e_0_energy">   -875.64625756 </i>
   </energy>
  </scstep>
  <scstep>
   <time name="dav">   62.82   62.82</time>
   <time name="total">   66.17   66.19</time>
   <energy>
    <i name="e_fr_energy">   -875.66983045 </i>
    <i name="e_wo_entrp">   -875.62266561 </i>
    <i name="e_0_energy">   -875.64624803 </i>
   </energy>
  </scstep>
  <scstep>
   <time name="dav">   61.63   61.63</time>
   <time name="total">   64.97   64.99</time>
   <energy>
    <i name="e_fr_energy">   -875.66984250 </i>
    <i name="e_wo_entrp">   -875.62308843 </i>
    <i name="e_0_energy">   -875.64646546 </i>
   </energy>
  </scstep>
  <scstep>
   <time name="dav">   57.15   57.15</time>
   <time name="total">   60.48   60.51</time>
   <energy>
    <i name="e_fr_energy">   -875.66984257 </i>
    <i name="e_wo_entrp">   -875.62302773 </i>
    <i name="e_0_energy">   -875.64643515 </i>
   </energy>
  </scstep>
  <scstep>
   <time name="dav">   47.30   47.30</time>
   <time name="total">   47.89   47.91</time>
   <energy>
    <i name="alphaZ">   1870.29120978 </i>
    <i name="ewald"> -33836.48583878 </i>
    <i name="hartreedc"> -28203.57840986 </i>
    <i name="XCdc">   3221.03435954 </i>
    <i name="pawpsdc">  83999.27469999 </i>
    <i name="pawaedc"> -83659.66905108 </i>
    <i name="eentropy">     -0.04687700 </i>
    <i name="bandstr">  -9235.03016924 </i>
    <i name="atom">  64968.54023382 </i>
    <i name="e_fr_energy">   -875.66984282 </i>
    <i name="e_wo_entrp">   -875.62296582 </i>
    <i name="e_0_energy">   -875.64640432 </i>
   </energy>
  </scstep>
  <structure>
   <crystal>
    <varray name="basis" >
     <v>      13.67086365       0.00000000       0.00000000 </v>
     <v>       0.00000000      13.67086365       0.00000000 </v>
     <v>       0.00000000       0.00000000      13.67086365 </v>
    </varray>
    <i name="volume">   2554.98206157 </i>
    <varray name="rec_basis" >
     <v>       0.07314827       0.00000000       0.00000000 </v>
     <v>       0.00000000       0.07314827       0.00000000 </v>
     <v>       0.00000000       0.00000000       0.07314827 </v>
    </varray>
   </crystal>
   <varray name="positions" >
    <v>       0.78539430       0.59008382       0.64499413 </v>
    <v>       0.53861586       0.94956365       0.59685276 </v>
    <v>       0.29841331       0.09812992       0.23932038 </v>
    <v>       0.69169413       0.65864749       0.20510132 </v>
    <v>       0.22185079       0.87120114       0.28887023 </v>
    <v>       0.75969820       0.25365008       0.40747680 </v>
    <v>       0.30674668       0.55614342       0.04287137 </v>
    <v>       0.91031601       0.94073253       0.18375949 </v>
    <v>       0.60612586       0.97559716       0.11975664 </v>
    <v>       0.41631875       0.77515248       0.10464123 </v>
    <v>       0.88757345       0.47732167       0.33250809 </v>
    <v>       0.90910833       0.09475271       0.52685909 </v>
    <v>       0.04433569       0.13613170       0.31512520 </v>
    <v>       0.47856166       0.25409323       0.05207687 </v>
    <v>       0.49981032       0.83540482       0.36503675 </v>
    <v>       0.19978122       0.58661003       0.38528653 </v>
    <v>       0.63831121       0.66135739       0.44057149 </v>
    <v>       0.52600211       0.87640642       0.88279759 </v>
    <v>       0.58146970       0.52920061       0.92475950 </v>
    <v>       0.86187317       0.48579567       0.90934970 </v>
    <v>       0.52679739       0.40628430       0.40983040 </v>
    <v>       0.09317403       0.69846483       0.63357029 </v>
    <v>       0.79786592       0.97367775       0.78188279 </v>
    <v>       0.85544645       0.24476676       0.04245868 </v>
    <v>       0.13530771       0.30719390       0.57210207 </v>
    <v>       0.40326239       0.27708610       0.74776755 </v>
    <v>       0.15968267       0.93591820       0.92849507 </v>
    <v>       0.97899934       0.00398430       0.68943310 </v>
    <v>       0.73516002       0.73651065       0.96349031 </v>
    <v>       0.46365842       0.58446553       0.52810711 </v>
    <v>       0.68154895       0.30895471       0.81759559 </v>
    <v>       0.64423346       0.28721720       0.21155361 </v>
    <v>       0.94254874       0.65900830       0.46873179 </v>
    <v>       0.96102211       0.35801082       0.56462669 </v>
    <v>       0.18312346       0.30231093       0.13294685 </v>
    <v>       0.71266224       0.01361878       0.41276045 </v>
    <v>       0.77056320       0.33627742       0.56143310 </v>
    <v>       0.32281083       0.39559240       0.56768150 </v>
    <v>       0.32929745       0.11201786       0.55389741 </v>
    <v>       0.28720515       0.78014395       0.75240556 </v>
    <v>       0.57483578       0.70909635       0.69146844 </v>
    <v>       0.94762827       0.88024102       0.45279867 </v>
    <v>       0.14699976       0.37619067       0.36669862 </v>
    <v>       0.33059405       0.42028688       0.23269410 </v>
    <v>       0.56128325       0.47311236       0.12735971 </v>
    <v>       0.83968186       0.05288350       0.97761041 </v>
    <v>       0.27970530       0.03767720       0.78020530 </v>
    <v>       0.42243732       0.97293101       0.15188305 </v>
    <v>       0.91575918       0.67006023       0.16163895 </v>
    <v>       0.29855949       0.73790939       0.42350465 </v>
    <v>       0.86882829       0.21161028       0.78622568 </v>
    <v>       0.10668661       0.80406012       0.12523041 </v>
    <v>       0.41531813       0.66452368       0.84022328 </v>
    <v>       0.08701451       0.42072886       0.98649650 </v>
    <v>       0.73382775       0.02188039       0.29385166 </v>
    <v>       0.16150055       0.51354337       0.01086093 </v>
    <v>       0.07352983       0.86917063       0.00354467 </v>
    <v>       0.65386824       0.36113138       0.53739822 </v>
    <v>       0.13686110       0.16442644       0.18029567 </v>
    <v>       0.65903721       0.94236143       0.70564601 </v>
    <v>       0.79954083       0.29380013       0.92205734 </v>
    <v>       0.84995045       0.24488779       0.57099414 </v>
    <v>       0.35528069       0.66278546       0.73453664 </v>
    <v>       0.85155676       0.72299661       0.07119533 </v>
    <v>       0.69414312       0.74015066       0.64107829 </v>
    <v>       0.62560395       0.72188260       0.29991455 </v>
    <v>       0.94445022       0.05857148       0.04979631 </v>
    <v>       0.84152692       0.94700746       0.45542875 </v>
    <v>       0.63850927       0.58017839       0.70525845 </v>
    <v>       0.67709610       0.41454447       0.86489239 </v>
    <v>       0.27384656       0.51892554       0.22787773 </v>
    <v>       0.20841679       0.35208152       0.24071268 </v>
    <v>       0.67752947       0.82211161       0.00527190 </v>
    <v>       0.84549875       0.38308811       0.45802050 </v>
    <v>       0.20083207       0.72998804       0.12239597 </v>
    <v>       0.42883730       0.55756516       0.85725233 </v>
    <v>       0.81381988       0.75703698       0.85172737 </v>
    <v>       0.79864634       0.30930441       0.18760928 </v>
    <v>       0.51026512       0.89728407       0.22140852 </v>
    <v>       0.99926401       0.76300671       0.17877267 </v>
    <v>       0.62544837       0.28291330       0.32941594 </v>
    <v>       0.27324221       0.06872705       0.46837710 </v>
    <v>       0.32806303       0.61562348       0.48486544 </v>
    <v>       0.95990878       0.29813297       0.77162339 </v>
    <v>       0.51299137       0.69512266       0.58547067 </v>
    <v>       0.13338983       0.26687158       0.36148802 </v>
    <v>       0.95836427       0.67403203       0.59209785 </v>
    <v>       0.33349104       0.91215773       0.72378856 </v>
    <v>       0.30026245       0.33124792       0.11923151 </v>
    <v>       0.62200706       0.93078957       0.43656825 </v>
    <v>       0.75202817       0.09370541       0.47137486 </v>
    <v>       0.54783457       0.57909852       0.13105583 </v>
    <v>       0.72698048       0.02578224       0.99322443 </v>
    <v>       0.85069861       0.68757737       0.26432226 </v>
    <v>       0.95944842       0.56477942       0.13488256 </v>
    <v>       0.31642496       0.94096931       0.18514243 </v>
    <v>       0.75176183       0.24021115       0.73314025 </v>
    <v>       0.63563563       0.41091088       0.18768742 </v>
    <v>       0.16031139       0.99526972       0.78818636 </v>
    <v>       0.05571130       0.62633965       0.45300279 </v>
    <v>       0.45887015       0.08183271       0.15804521 </v>
    <v>       0.92626895       0.09848428       0.69410074 </v>
    <v>       0.10324609       0.47525936       0.32294544 </v>
    <v>       0.99669987       0.98294133       0.56956891 </v>
    <v>       0.40992200       0.72553892       0.97064663 </v>
    <v>       0.28049587       0.38523522       0.67945216 </v>
    <v>       0.83084014       0.57915750       0.44899179 </v>
    <v>       0.99597001       0.45885285       0.94214748 </v>
    <v>       0.96767182       0.91509407       0.75355382 </v>
    <v>       0.45715052       0.90301785       0.07299055 </v>
    <v>       0.44536853       0.06105077       0.56217387 </v>
    <v>       0.52791949       0.74702660       0.81450597 </v>
    <v>       0.16298763       0.77062059       0.46856561 </v>
    <v>       0.83487229       0.10592708       0.86592058 </v>
    <v>       0.44940578       0.39511088       0.24804344 </v>
    <v>       0.11756590       0.92882180       0.17412489 </v>
    <v>       0.18793651       0.74948985       0.79189166 </v>
    <v>       0.08140326       0.32411256       0.06018252 </v>
    <v>       0.91407268       0.76663990       0.42109427 </v>
    <v>       0.56890430       0.26356143       0.83895431 </v>
    <v>       0.32373882       0.07054960       0.88937591 </v>
    <v>       0.27667642       0.72343570       0.31039724 </v>
    <v>       0.61108007       0.19752126       0.13292887 </v>
    <v>       0.35855563       0.28368414       0.54245892 </v>
    <v>       0.42847509       0.46020247       0.55787444 </v>
    <v>       0.23510940       0.41608630       0.43625960 </v>
    <v>       0.70168012       0.61585204       0.97163657 </v>
    <v>       0.04417478       0.42900103       0.61757588 </v>
    <v>       0.49516248       0.41799263       0.05494054 </v>
    <v>       0.02602482       0.25052043       0.48101969 </v>
    <v>       0.37957140       0.82085812       0.46017677 </v>
    <v>       0.54590054       0.55369961       0.46854418 </v>
    <v>       0.85374486       0.38526571       0.67458188 </v>
    <v>       0.03570434       0.94115731       0.40330330 </v>
    <v>       0.26870278       0.08204612       0.66037062 </v>
   </varray>
  </structure>
  <varray name="forces" >
   <v>       0.44206807       0.81756602      -0.08912499 </v>
   <v>       1.52723370      -0.66502234      -0.17318743 </v>
   <v>      -1.35596588       1.12815495       0.36574995 </v>
   <v>       3.52652195      -1.53765281      -4.70810627 </v>
   <v>      -2.34369577      -0.07848348       0.99998273 </v>
   <v>      -0.39110865      -2.63445811      -2.67687968 </v>
   <v>      -0.63264604       0.83955051       0.39358681 </v>
   <v>       1.15326693      -1.68832736      -0.17716867 </v>
   <v>       2.87229646       0.24243106       0.65498238 </v>
   <v>      -1.51022951      -3.50019517       3.85636505 </v>
   <v>       0.96365424       1.39587973      -0.88539047 </v>
   <v>      -1.60270721       1.51028452      -1.41517302 </v>
   <v>       1.56980166       0.58807366       0.18448010 </v>
   <v>       0.25023332      -0.47016434       0.02101196 </v>
   <v>       2.59020628       0.93169254      -1.06003432 </v>
   <v>      -2.42862312      -0.76165167      -1.17813883 </v>
   <v>       4.68746370       3.19637468       0.48419140 </v>
   <v>       0.58736554       1.77090391       1.31431892 </v>
   <v>       0.10457147      -0.20852991      -1.54369546 </v>
   <v>      -4.05892884       0.44517485      -0.69769222 </v>
   <v>       0.56471002      -2.10495022       0.12149695 </v>
   <v>       1.54504835       0.58134297      -0.57413850 </v>
   <v>      -1.66266681      -3.09626667      -1.28979077 </v>
   <v>       0.80791942       0.52656796       3.18840458 </v>
   <v>       2.86630702      -1.40118913       1.04542541 </v>
   <v>       0.73538941       0.06031452      -0.52242133 </v>
   <v>       2.89410600       1.64337243      -1.07701577 </v>
   <v>       5.63477594      -5.55181748      -3.42978457 </v>
   <v>       6.94298329      -4.32453181      -2.98288558 </v>
   <v>      -9.58461052       2.62669196       5.85340751 </v>
   <v>       0.48618908      -2.02145847       2.50415100 </v>
   <v>       4.40408861      -0.92689185      -1.09621171 </v>
   <v>      -0.58536502      -1.22207836       1.88959220 </v>
   <v>      -4.81339495      -0.61478325       1.49522677 </v>
   <v>      -1.22146611      -3.23980486       3.03316964 </v>
   <v>      -1.48168371      -9.29696773      -5.38635150 </v>
   <v>       2.14757737       3.95429796       5.10652481 </v>
   <v>       1.40394935      -1.02884242      -0.16430504 </v>
   <v>       4.40918515      -2.69593792       2.40687028 </v>
   <v>       3.33567906       2.52556148      -1.38053319 </v>
   <v>       7.60606259      -3.72383568      -0.40194549 </v>
   <v>      -2.24991201       2.36775680      -1.04148140 </v>
   <v>       0.82228133       2.95777304      -3.98696288 </v>
   <v>      -1.07178609      -2.88305867      -1.81678068 </v>
   <v>      -1.21331021      -4.35971604       1.64079936 </v>
   <v>       1.43604796      -0.25421471       0.42981348 </v>
   <v>      -3.43158423      -3.13499409      -1.18724457 </v>
   <v>       1.20234618      -2.08902188       4.42076057 </v>
   <v>      -0.41137221       1.38236909      -0.11141032 </v>
   <v>      -1.22966761       2.66906843       5.46684062 </v>
   <v>       0.93557314       3.28393040      -0.23089031 </v>
   <v>      -2.06472891       2.87129058      -2.87779978 </v>
   <v>       0.89420433       5.36773409       2.00739983 </v>
   <v>       4.16117147       3.05305878       3.21307325 </v>
   <v>       0.16504048      -0.01938132      -0.33980926 </v>
   <v>      -0.13101757      -3.23723700      -0.80614752 </v>
   <v>      -2.77330920      -4.87508803       5.30236959 </v>
   <v>       2.61137133      -1.28695446      -0.29057108 </v>
   <v>       2.18479395       2.76333294      -0.83539483 </v>
   <v>      -0.91266769       0.35983450       1.25904971 </v>
   <v>      -1.06658674      -0.09156202      -3.70579155 </v>
   <v>      -0.96194446      -0.28482322      -1.53323424 </v>
   <v>      -0.96892911       3.43122656      -0.05409914 </v>
   <v>      -2.13618156       0.33039480      -0.85064460 </v>
   <v>      -3.39722047       0.24868778       0.53439449 </v>
   <v>      -3.94804763       2.08936683       4.64944936 </v>
   <v>      -4.44973199       0.14524393      -1.66715911 </v>
   <v>       1.59753858      -1.34909805      -0.19162112 </v>
   <v>      -3.02801450       2.17898146       0.60124441 </v>
   <v>       0.48096008       1.63947419      -0.95288234 </v>
   <v>       1.86119274       1.47525346      -0.80647462 </v>
   <v>       0.32511461       1.12475763       2.51489885 </v>
   <v>      -3.32909976       2.73497770       1.12066538 </v>
   <v>       0.37014253      -0.45952980       1.79300401 </v>
   <v>      -0.38197290       1.41842345      -0.03707503 </v>
   <v>       1.05190529      -4.70672608       2.09783381 </v>
   <v>      -2.94488041      -0.37507016       3.47089195 </v>
   <v>      -2.35763807      -1.18132900       1.10386951 </v>
   <v>      -1.40627590       1.64297150       1.20651243 </v>
   <v>       1.99001251       1.02431930      -0.69388767 </v>
   <v>      -0.66368322       0.32312583      -1.01055530 </v>
   <v>      -1.84805765       0.54094752      -3.44209301 </v>
   <v>       3.50132203       1.32604491       0.09373937 </v>
   <v>      -1.87390852      -4.30662762       1.40109749 </v>
   <v>      -2.05980424      -1.76556299      -0.55552394 </v>
   <v>      -0.82814354      -4.43245479       0.51345767 </v>
   <v>      -3.83769344      -0.32889455      -0.50044417 </v>
   <v>      -0.24180037      -2.29052976       1.92566241 </v>
   <v>       2.39998242      -0.48572691      -3.56136277 </v>
   <v>       0.78229457       1.86859203       0.65629715 </v>
   <v>       1.00480278       7.45047070       4.00541828 </v>
   <v>      -0.18906643       6.12343531       0.45050607 </v>
   <v>       1.25072542      -0.12435834       0.89955410 </v>
   <v>      -0.24999877      -1.82422095      -1.41904458 </v>
   <v>      -0.64983181      -0.54188625       0.62703161 </v>
   <v>      -0.51034158       1.66115496       0.65756876 </v>
   <v>      -0.15608731       0.03958620       2.58311477 </v>
   <v>       0.96931273      -0.89732264       0.69131770 </v>
   <v>       2.08757793       2.17366541      -1.22755273 </v>
   <v>      -1.10451565      -1.08759344      -1.08773312 </v>
   <v>      -1.37151479       1.73790617      -0.37985014 </v>
   <v>      -3.99288029       6.59775426       1.89042902 </v>
   <v>      -2.44530068      -1.33532042       0.90545463 </v>
   <v>       0.87838252      -1.55945064       2.86560390 </v>
   <v>      -0.53477708      -2.41294826      -5.66062416 </v>
   <v>      -0.02135328       0.31859917      -1.09341965 </v>
   <v>       2.07326212       2.04853797       0.86784702 </v>
   <v>      -1.41432303      -0.35624676      -1.75407675 </v>
   <v>      -1.30346231      -1.48147335       2.21968737 </v>
   <v>       2.06969509       2.45433694      -9.20541462 </v>
   <v>      -3.20124793       3.39535798       0.22344219 </v>
   <v>      -1.00456198      -3.87586821      -3.90539856 </v>
   <v>       4.76142011      -1.10799493      -0.32723635 </v>
   <v>       1.66240274       1.14622417       0.67119121 </v>
   <v>      -2.59643116       0.52472596       0.81751248 </v>
   <v>      -0.57782824      -2.51298975       0.85468463 </v>
   <v>      -2.16653698      -0.14653061      -0.00820126 </v>
   <v>       2.08101837       0.10914815       0.32217923 </v>
   <v>       0.95787138       1.77825526       1.19653686 </v>
   <v>      -0.04575507      -0.03419735      -1.10092389 </v>
   <v>       0.08782714       0.04322516      -2.78776354 </v>
[...]
       <r>     0.6458    71.9966   833.5128 </r>
       <r>     0.8207    35.2469   839.6746 </r>
       <r>     0.9955     6.7770   840.8594 </r>
       <r>     1.1703    42.3004   848.2542 </r>
       <r>     1.3451    33.1616   854.0515 </r>
       <r>     1.5199    19.3742   857.4384 </r>
       <r>     1.6947    45.7210   865.4313 </r>
       <r>     1.8696    13.6065   867.8099 </r>
       <r>     2.0444     6.5314   868.9517 </r>
       <r>     2.2192    11.4513   870.9536 </r>
       <r>     2.3940     5.9731   871.9978 </r>
       <r>     2.5688     9.8321   873.7167 </r>
       <r>     2.7437    19.0545   877.0477 </r>
       <r>     2.9185    19.6175   880.4772 </r>
       <r>     3.0933    32.2905   886.1222 </r>
       <r>     3.2681    22.2414   890.0104 </r>
       <r>     3.4429    19.9948   893.5058 </r>
       <r>     3.6177    22.8565   897.5016 </r>
       <r>     3.7926    37.7236   904.0963 </r>
       <r>     3.9674    37.0315   910.5701 </r>
       <r>     4.1422    41.6208   917.8462 </r>
       <r>     4.3170    45.2726   925.7606 </r>
       <r>     4.4918    63.5798   936.8755 </r>
       <r>     4.6667    52.5649   946.0648 </r>
       <r>     4.8415    64.4656   957.3346 </r>
       <r>     5.0163    76.4770   970.7041 </r>
       <r>     5.1911    70.0581   982.9515 </r>
       <r>     5.3659    77.3238   996.4691 </r>
       <r>     5.5407    79.9959  1010.4538 </r>
       <r>     5.7156    75.7505  1023.6964 </r>
       <r>     5.8904    73.2149  1036.4956 </r>
       <r>     6.0652    20.0421  1039.9994 </r>
       <r>     6.2400     0.0036  1040.0000 </r>
       <r>     6.4148     0.0000  1040.0000 </r>
       <r>     6.5896     0.0000  1040.0000 </r>
       <r>     6.7645     0.0000  1040.0000 </r>
       <r>     6.9393     0.0000  1040.0000 </r>
       <r>     7.1141     0.0000  1040.0000 </r>
       <r>     7.2889     0.0000  1040.0000 </r>
       <r>     7.4637     0.0000  1040.0000 </r>
       <r>     7.6386     0.0000  1040.0000 </r>
       <r>     7.8134     0.0000  1040.0000 </r>
       <r>     7.9882     0.0000  1040.0000 </r>
       <r>     8.1630     0.0000  1040.0000 </r>
       <r>     8.3378     0.0000  1040.0000 </r>
      </set>
     </set>
    </array>
   </total>
  </dos>
 </calculation>
 <structure name="finalpos" >
  <crystal>
   <varray name="basis" >
    <v>      13.67086365       0.00000000       0.00000000 </v>
    <v>       0.00000000      13.67086365       0.00000000 </v>
    <v>       0.00000000       0.00000000      13.67086365 </v>
   </varray>
   <i name="volume">   2554.98206157 </i>
   <varray name="rec_basis" >
    <v>       0.07314827       0.00000000       0.00000000 </v>
    <v>       0.00000000       0.07314827       0.00000000 </v>
    <v>       0.00000000       0.00000000       0.07314827 </v>
   </varray>
  </crystal>
  <varray name="positions" >
   <v>       0.78539430       0.59008382       0.64499413 </v>
   <v>       0.53861586       0.94956365       0.59685276 </v>
   <v>       0.29841331       0.09812992       0.23932038 </v>
   <v>       0.69169413       0.65864749       0.20510132 </v>
   <v>       0.22185079       0.87120114       0.28887023 </v>
   <v>       0.75969820       0.25365008       0.40747680 </v>
   <v>       0.30674668       0.55614342       0.04287137 </v>
   <v>       0.91031601       0.94073253       0.18375949 </v>
   <v>       0.60612586       0.97559716       0.11975664 </v>
   <v>       0.41631875       0.77515248       0.10464123 </v>
   <v>       0.88757345       0.47732167       0.33250809 </v>
   <v>       0.90910833       0.09475271       0.52685909 </v>
   <v>       0.04433569       0.13613170       0.31512520 </v>
   <v>       0.47856166       0.25409323       0.05207687 </v>
   <v>       0.49981032       0.83540482       0.36503675 </v>
   <v>       0.19978122       0.58661003       0.38528653 </v>
   <v>       0.63831121       0.66135739       0.44057149 </v>
   <v>       0.52600211       0.87640642       0.88279759 </v>
   <v>       0.58146970       0.52920061       0.92475950 </v>
   <v>       0.86187317       0.48579567       0.90934970 </v>
   <v>       0.52679739       0.40628430       0.40983040 </v>
   <v>       0.09317403       0.69846483       0.63357029 </v>
   <v>       0.79786592       0.97367775       0.78188279 </v>
   <v>       0.85544645       0.24476676       0.04245868 </v>
   <v>       0.13530771       0.30719390       0.57210207 </v>
   <v>       0.40326239       0.27708610       0.74776755 </v>
   <v>       0.15968267       0.93591820       0.92849507 </v>
   <v>       0.97899934       0.00398430       0.68943310 </v>
   <v>       0.73516002       0.73651065       0.96349031 </v>
   <v>       0.46365842       0.58446553       0.52810711 </v>
   <v>       0.68154895       0.30895471       0.81759559 </v>
   <v>       0.64423346       0.28721720       0.21155361 </v>
   <v>       0.94254874       0.65900830       0.46873179 </v>
   <v>       0.96102211       0.35801082       0.56462669 </v>
   <v>       0.18312346       0.30231093       0.13294685 </v>
   <v>       0.71266224       0.01361878       0.41276045 </v>
   <v>       0.77056320       0.33627742       0.56143310 </v>
   <v>       0.32281083       0.39559240       0.56768150 </v>
   <v>       0.32929745       0.11201786       0.55389741 </v>
   <v>       0.28720515       0.78014395       0.75240556 </v>
   <v>       0.57483578       0.70909635       0.69146844 </v>
   <v>       0.94762827       0.88024102       0.45279867 </v>
   <v>       0.14699976       0.37619067       0.36669862 </v>
   <v>       0.33059405       0.42028688       0.23269410 </v>
   <v>       0.56128325       0.47311236       0.12735971 </v>
   <v>       0.83968186       0.05288350       0.97761041 </v>
   <v>       0.27970530       0.03767720       0.78020530 </v>
   <v>       0.42243732       0.97293101       0.15188305 </v>
   <v>       0.91575918       0.67006023       0.16163895 </v>
   <v>       0.29855949       0.73790939       0.42350465 </v>
   <v>       0.86882829       0.21161028       0.78622568 </v>
   <v>       0.10668661       0.80406012       0.12523041 </v>
   <v>       0.41531813       0.66452368       0.84022328 </v>
   <v>       0.08701451       0.42072886       0.98649650 </v>
   <v>       0.73382775       0.02188039       0.29385166 </v>
   <v>       0.16150055       0.51354337       0.01086093 </v>
   <v>       0.07352983       0.86917063       0.00354467 </v>
   <v>       0.65386824       0.36113138       0.53739822 </v>
   <v>       0.13686110       0.16442644       0.18029567 </v>
   <v>       0.65903721       0.94236143       0.70564601 </v>
   <v>       0.79954083       0.29380013       0.92205734 </v>
   <v>       0.84995045       0.24488779       0.57099414 </v>
   <v>       0.35528069       0.66278546       0.73453664 </v>
   <v>       0.85155676       0.72299661       0.07119533 </v>
   <v>       0.69414312       0.74015066       0.64107829 </v>
   <v>       0.62560395       0.72188260       0.29991455 </v>
   <v>       0.94445022       0.05857148       0.04979631 </v>
   <v>       0.84152692       0.94700746       0.45542875 </v>
   <v>       0.63850927       0.58017839       0.70525845 </v>
   <v>       0.67709610       0.41454447       0.86489239 </v>
   <v>       0.27384656       0.51892554       0.22787773 </v>
   <v>       0.20841679       0.35208152       0.24071268 </v>
   <v>       0.67752947       0.82211161       0.00527190 </v>
   <v>       0.84549875       0.38308811       0.45802050 </v>
   <v>       0.20083207       0.72998804       0.12239597 </v>
   <v>       0.42883730       0.55756516       0.85725233 </v>
   <v>       0.81381988       0.75703698       0.85172737 </v>
   <v>       0.79864634       0.30930441       0.18760928 </v>
   <v>       0.51026512       0.89728407       0.22140852 </v>
   <v>       0.99926401       0.76300671       0.17877267 </v>
   <v>       0.62544837       0.28291330       0.32941594 </v>
   <v>       0.27324221       0.06872705       0.46837710 </v>
   <v>       0.32806303       0.61562348       0.48486544 </v>
   <v>       0.95990878       0.29813297       0.77162339 </v>
   <v>       0.51299137       0.69512266       0.58547067 </v>
   <v>       0.13338983       0.26687158       0.36148802 </v>
   <v>       0.95836427       0.67403203       0.59209785 </v>
   <v>       0.33349104       0.91215773       0.72378856 </v>
   <v>       0.30026245       0.33124792       0.11923151 </v>
   <v>       0.62200706       0.93078957       0.43656825 </v>
   <v>       0.75202817       0.09370541       0.47137486 </v>
   <v>       0.54783457       0.57909852       0.13105583 </v>
   <v>       0.72698048       0.02578224       0.99322443 </v>
   <v>       0.85069861       0.68757737       0.26432226 </v>
   <v>       0.95944842       0.56477942       0.13488256 </v>
   <v>       0.31642496       0.94096931       0.18514243 </v>
   <v>       0.75176183       0.24021115       0.73314025 </v>
   <v>       0.63563563       0.41091088       0.18768742 </v>
   <v>       0.16031139       0.99526972       0.78818636 </v>
   <v>       0.05571130       0.62633965       0.45300279 </v>
   <v>       0.45887015       0.08183271       0.15804521 </v>
   <v>       0.92626895       0.09848428       0.69410074 </v>
   <v>       0.10324609       0.47525936       0.32294544 </v>
   <v>       0.99669987       0.98294133       0.56956891 </v>
   <v>       0.40992200       0.72553892       0.97064663 </v>
   <v>       0.28049587       0.38523522       0.67945216 </v>
   <v>       0.83084014       0.57915750       0.44899179 </v>
   <v>       0.99597001       0.45885285       0.94214748 </v>
   <v>       0.96767182       0.91509407       0.75355382 </v>
   <v>       0.45715052       0.90301785       0.07299055 </v>
   <v>       0.44536853       0.06105077       0.56217387 </v>
   <v>       0.52791949       0.74702660       0.81450597 </v>
   <v>       0.16298763       0.77062059       0.46856561 </v>
   <v>       0.83487229       0.10592708       0.86592058 </v>
   <v>       0.44940578       0.39511088       0.24804344 </v>
   <v>       0.11756590       0.92882180       0.17412489 </v>
   <v>       0.18793651       0.74948985       0.79189166 </v>
   <v>       0.08140326       0.32411256       0.06018252 </v>
   <v>       0.91407268       0.76663990       0.42109427 </v>
   <v>       0.56890430       0.26356143       0.83895431 </v>
   <v>       0.32373882       0.07054960       0.88937591 </v>
   <v>       0.27667642       0.72343570       0.31039724 </v>
   <v>       0.61108007       0.19752126       0.13292887 </v>
   <v>       0.35855563       0.28368414       0.54245892 </v>
   <v>       0.42847509       0.46020247       0.55787444 </v>
   <v>       0.23510940       0.41608630       0.43625960 </v>
   <v>       0.70168012       0.61585204       0.97163657 </v>
   <v>       0.04417478       0.42900103       0.61757588 </v>
   <v>       0.49516248       0.41799263       0.05494054 </v>
   <v>       0.02602482       0.25052043       0.48101969 </v>
   <v>       0.37957140       0.82085812       0.46017677 </v>
   <v>       0.54590054       0.55369961       0.46854418 </v>
   <v>       0.85374486       0.38526571       0.67458188 </v>
   <v>       0.03570434       0.94115731       0.40330330 </v>
   <v>       0.26870278       0.08204612       0.66037062 </v>
  </varray>
  <varray name="velocities" >
   <v>       0.00000000       0.00000000       0.00000000 </v>
   <v>       0.00000000       0.00000000       0.00000000 </v>
   <v>       0.00000000       0.00000000       0.00000000 </v>
   <v>       0.00000000       0.00000000       0.00000000 </v>
   <v>       0.00000000       0.00000000       0.00000000 </v>
   <v>       0.00000000       0.00000000       0.00000000 </v>
   <v>       0.00000000       0.00000000       0.00000000 </v>
   <v>       0.00000000       0.00000000       0.00000000 </v>
   <v>       0.00000000       0.00000000       0.00000000 </v>
   <v>       0.00000000       0.00000000       0.00000000 </v>
   <v>       0.00000000       0.00000000       0.00000000 </v>
   <v>       0.00000000       0.00000000       0.00000000 </v>
   <v>       0.00000000       0.00000000       0.00000000 </v>
   <v>       0.00000000       0.00000000       0.00000000 </v>
   <v>       0.00000000       0.00000000       0.00000000 </v>
   <v>       0.00000000       0.00000000       0.00000000 </v>
   <v>       0.00000000       0.00000000       0.00000000 </v>
   <v>       0.00000000       0.00000000       0.00000000 </v>
   <v>       0.00000000       0.00000000       0.00000000 </v>
   <v>       0.00000000       0.00000000       0.00000000 </v>
   <v>       0.00000000       0.00000000       0.00000000 </v>
   <v>       0.00000000       0.00000000       0.00000000 </v>
   <v>       0.00000000       0.00000000       0.00000000 </v>
   <v>       0.00000000       0.00000000       0.00000000 </v>
   <v>       0.00000000       0.00000000       0.00000000 </v>
   <v>       0.00000000       0.00000000       0.00000000 </v>
   <v>       0.00000000       0.00000000       0.00000000 </v>
   <v>       0.00000000       0.00000000       0.00000000 </v>
   <v>       0.00000000       0.00000000       0.00000000 </v>
   <v>       0.00000000       0.00000000       0.00000000 </v>
   <v>       0.00000000       0.00000000       0.00000000 </v>
   <v>       0.00000000       0.00000000       0.00000000 </v>
   <v>       0.00000000       0.00000000       0.00000000 </v>
   <v>       0.00000000       0.00000000       0.00000000 </v>
   <v>       0.00000000       0.00000000       0.00000000 </v>
   <v>       0.00000000       0.00000000       0.00000000 </v>
   <v>       0.00000000       0.00000000       0.00000000 </v>
   <v>       0.00000000       0.00000000       0.00000000 </v>
   <v>       0.00000000       0.00000000       0.00000000 </v>
   <v>       0.00000000       0.00000000       0.00000000 </v>
   <v>       0.00000000       0.00000000       0.00000000 </v>
   <v>       0.00000000       0.00000000       0.00000000 </v>
   <v>       0.00000000       0.00000000       0.00000000 </v>
   <v>       0.00000000       0.00000000       0.00000000 </v>
   <v>       0.00000000       0.00000000       0.00000000 </v>
   <v>       0.00000000       0.00000000       0.00000000 </v>
   <v>       0.00000000       0.00000000       0.00000000 </v>
   <v>       0.00000000       0.00000000       0.00000000 </v>
   <v>       0.00000000       0.00000000       0.00000000 </v>
   <v>       0.00000000       0.00000000       0.00000000 </v>
   <v>       0.00000000       0.00000000       0.00000000 </v>
   <v>       0.00000000       0.00000000       0.00000000 </v>
   <v>       0.00000000       0.00000000       0.00000000 </v>
   <v>       0.00000000       0.00000000       0.00000000 </v>
   <v>       0.00000000       0.00000000       0.00000000 </v>
   <v>       0.00000000       0.00000000       0.00000000 </v>
   <v>       0.00000000       0.00000000       0.00000000 </v>
   <v>       0.00000000       0.00000000       0.00000000 </v>
   <v>       0.00000000       0.00000000       0.00000000 </v>
   <v>       0.00000000       0.00000000       0.00000000 </v>
   <v>       0.00000000       0.00000000       0.00000000 </v>
   <v>       0.00000000       0.00000000       0.00000000 </v>
   <v>       0.00000000       0.00000000       0.00000000 </v>
   <v>       0.00000000       0.00000000       0.00000000 </v>
   <v>       0.00000000       0.00000000       0.00000000 </v>
   <v>       0.00000000       0.00000000       0.00000000 </v>
   <v>       0.00000000       0.00000000       0.00000000 </v>
   <v>       0.00000000       0.00000000       0.00000000 </v>
   <v>       0.00000000       0.00000000       0.00000000 </v>
   <v>       0.00000000       0.00000000       0.00000000 </v>
   <v>       0.00000000       0.00000000       0.00000000 </v>
   <v>       0.00000000       0.00000000       0.00000000 </v>
   <v>       0.00000000       0.00000000       0.00000000 </v>
   <v>       0.00000000       0.00000000       0.00000000 </v>
   <v>       0.00000000       0.00000000       0.00000000 </v>
   <v>       0.00000000       0.00000000       0.00000000 </v>
   <v>       0.00000000       0.00000000       0.00000000 </v>
   <v>       0.00000000       0.00000000       0.00000000 </v>
   <v>       0.00000000       0.00000000       0.00000000 </v>
   <v>       0.00000000       0.00000000       0.00000000 </v>
   <v>       0.00000000       0.00000000       0.00000000 </v>
   <v>       0.00000000       0.00000000       0.00000000 </v>
   <v>       0.00000000       0.00000000       0.00000000 </v>
   <v>       0.00000000       0.00000000       0.00000000 </v>
   <v>       0.00000000       0.00000000       0.00000000 </v>
   <v>       0.00000000       0.00000000       0.00000000 </v>
   <v>       0.00000000       0.00000000       0.00000000 </v>
   <v>       0.00000000       0.00000000       0.00000000 </v>
   <v>       0.00000000       0.00000000       0.00000000 </v>
   <v>       0.00000000       0.00000000       0.00000000 </v>
   <v>       0.00000000       0.00000000       0.00000000 </v>
   <v>       0.00000000       0.00000000       0.00000000 </v>
   <v>       0.00000000       0.00000000       0.00000000 </v>
   <v>       0.00000000       0.00000000       0.00000000 </v>
   <v>       0.00000000       0.00000000       0.00000000 </v>
   <v>       0.00000000       0.00000000       0.00000000 </v>
   <v>       0.00000000       0.00000000       0.00000000 </v>
   <v>       0.00000000       0.00000000       0.00000000 </v>
   <v>       0.00000000       0.00000000       0.00000000 </v>
   <v>       0.00000000       0.00000000       0.00000000 </v>
   <v>       0.00000000       0.00000000       0.00000000 </v>
   <v>       0.00000000       0.00000000       0.00000000 </v>
   <v>       0.00000000       0.00000000       0.00000000 </v>
   <v>       0.00000000       0.00000000       0.00000000 </v>
   <v>       0.00000000       0.00000000       0.00000000 </v>
   <v>       0.00000000       0.00000000       0.00000000 </v>
   <v>       0.00000000       0.00000000       0.00000000 </v>
   <v>       0.00000000       0.00000000       0.00000000 </v>
   <v>       0.00000000       0.00000000       0.00000000 </v>
   <v>       0.00000000       0.00000000       0.00000000 </v>
   <v>       0.00000000       0.00000000       0.00000000 </v>
   <v>       0.00000000       0.00000000       0.00000000 </v>
   <v>       0.00000000       0.00000000       0.00000000 </v>
   <v>       0.00000000       0.00000000       0.00000000 </v>
   <v>       0.00000000       0.00000000       0.00000000 </v>
   <v>       0.00000000       0.00000000       0.00000000 </v>
   <v>       0.00000000       0.00000000       0.00000000 </v>
   <v>       0.00000000       0.00000000       0.00000000 </v>
   <v>       0.00000000       0.00000000       0.00000000 </v>
   <v>       0.00000000       0.00000000       0.00000000 </v>
   <v>       0.00000000       0.00000000       0.00000000 </v>
   <v>       0.00000000       0.00000000       0.00000000 </v>
   <v>       0.00000000       0.00000000       0.00000000 </v>
   <v>       0.00000000       0.00000000       0.00000000 </v>
   <v>       0.00000000       0.00000000       0.00000000 </v>
   <v>       0.00000000       0.00000000       0.00000000 </v>
   <v>       0.00000000       0.00000000       0.00000000 </v>
   <v>       0.00000000       0.00000000       0.00000000 </v>
   <v>       0.00000000       0.00000000       0.00000000 </v>
   <v>       0.00000000       0.00000000       0.00000000 </v>
   <v>       0.00000000       0.00000000       0.00000000 </v>
   <v>       0.00000000       0.00000000       0.00000000 </v>
   <v>       0.00000000       0.00000000       0.00000000 </v>
   <v>       0.00000000       0.00000000       0.00000000 </v>
   <v>       0.00000000       0.00000000       0.00000000 </v>
  </varray>
 </structure>
</modeling>
