 running on   52 total cores
 distrk:  each k-point on   52 cores,    1 groups
 distr:  one band on   13 cores,    4 groups
 using from now: INCAR     
 vasp.5.4.4.18Apr17-6-g9f103f2a35 (build Oct 31 2019 15:01:46) complex          
  
 POSCAR found type information on POSCAR  Sc Cl C 
 POSCAR found :  3 types and      80 ions
 scaLAPACK is switched off
 LDA part: xc-table for Pade appr. of Perdew
 generate k-points for:    3    3    1
 POSCAR, INCAR and KPOINTS ok, starting setup
 FFT: planning ...
 WAVECAR not read
 entering main loop
       N       E                     dE             d eps       ncg     rms          rms(c)
DAV:   1     0.122111631147E+05    0.12211E+05   -0.26779E+05  4424   0.152E+03
DAV:   2     0.173110923472E+04   -0.10480E+05   -0.10219E+05  5192   0.523E+02
DAV:   3    -0.407475623294E+03   -0.21386E+04   -0.20533E+04  6800   0.285E+02
DAV:   4    -0.642541694408E+03   -0.23507E+03   -0.23076E+03  6088   0.991E+01
DAV:   5    -0.652903924272E+03   -0.10362E+02   -0.10309E+02  6080   0.280E+01    0.695E+01
DAV:   6    -0.521637300862E+03    0.13127E+03   -0.69205E+02  5864   0.498E+01    0.310E+01
DAV:   7    -0.527168237426E+03   -0.55309E+01   -0.94465E+01  5856   0.232E+01    0.156E+01
DAV:   8    -0.524740094918E+03    0.24281E+01   -0.10436E+01  6088   0.744E+00    0.966E+00
DAV:   9    -0.524201090112E+03    0.53900E+00   -0.43425E+00  5368   0.402E+00    0.329E+00
DAV:  10    -0.524045992579E+03    0.15510E+00   -0.65862E-01  5592   0.205E+00    0.178E+00
DAV:  11    -0.524025697116E+03    0.20295E-01   -0.23110E-01  5776   0.848E-01    0.799E-01
DAV:  12    -0.524010637092E+03    0.15060E-01   -0.38269E-02  6024   0.508E-01    0.294E-01
DAV:  13    -0.524007365856E+03    0.32712E-02   -0.83238E-03  5336   0.243E-01    0.185E-01
DAV:  14    -0.524006033834E+03    0.13320E-02   -0.68442E-03  5480   0.139E-01    0.178E-01
DAV:  15    -0.524007613231E+03   -0.15794E-02   -0.16514E-03  5880   0.856E-02    0.928E-02
DAV:  16    -0.524009588397E+03   -0.19752E-02   -0.11122E-03  5832   0.529E-02    0.614E-02
DAV:  17    -0.524013216979E+03   -0.36286E-02   -0.64014E-04  5144   0.483E-02    0.289E-02
DAV:  18    -0.524015163068E+03   -0.19461E-02   -0.21244E-04  4768   0.244E-02    0.208E-02
DAV:  19    -0.524016582070E+03   -0.14190E-02   -0.12218E-04  4424   0.172E-02    0.147E-02
DAV:  20    -0.524017512580E+03   -0.93051E-03   -0.45912E-05  4528   0.132E-02    0.105E-02
DAV:  21    -0.524017913110E+03   -0.40053E-03   -0.13930E-05  4312   0.694E-03    0.754E-03
DAV:  22    -0.524018357398E+03   -0.44429E-03   -0.53571E-06  3808   0.464E-03    0.489E-03
DAV:  23    -0.524018933373E+03   -0.57597E-03   -0.17035E-05  3536   0.506E-03    0.424E-03
DAV:  24    -0.524019037556E+03   -0.10418E-03   -0.25849E-06  3576   0.315E-03    0.386E-03
DAV:  25    -0.524019102944E+03   -0.65388E-04   -0.13152E-06  3048   0.236E-03    0.204E-03
DAV:  26    -0.524019205300E+03   -0.10236E-03   -0.41918E-06  3520   0.257E-03    0.294E-03
DAV:  27    -0.524019215236E+03   -0.99364E-05   -0.26314E-07  2672   0.193E-03    0.204E-03
DAV:  28    -0.524019223478E+03   -0.82421E-05   -0.19176E-07  2584   0.115E-03    0.118E-03
DAV:  29    -0.524019236768E+03   -0.13290E-04   -0.34067E-07  2776   0.129E-03    0.439E-04
DAV:  30    -0.524019246709E+03   -0.99404E-05   -0.30670E-07  2656   0.159E-03    0.562E-04
DAV:  31    -0.524019251832E+03   -0.51231E-05   -0.26675E-07  2608   0.113E-03    0.380E-04
DAV:  32    -0.524019253357E+03   -0.15258E-05   -0.14530E-07  2400   0.107E-03    0.310E-04
DAV:  33    -0.524019254242E+03   -0.88437E-06   -0.10246E-07  2488   0.676E-04
   1 F= -.52401925E+03 E0= -.52401925E+03  d E =-.240018E-23
