 vasp.5.4.4.18Apr17-6-g9f103f2a35 (build Mar 16 2023 09:39:13) complex          
  
 executed on             LinuxIFC date 2024.04.30  02:08:10
 running on   48 total cores
 distrk:  each k-point on   48 cores,    1 groups
 distr:  one band on NCORES_PER_BAND=  12 cores,    4 groups


--------------------------------------------------------------------------------------------------------


 INCAR:
 POTCAR:    PAW_PBE Ca_sv 06Sep2000               
 POTCAR:    PAW_PBE Si 05Jan2001                  
 POTCAR:    PAW_PBE O 08Apr2002                   
 POTCAR:    PAW_PBE Ca_sv 06Sep2000               
   SHA256 =  a47365830e737f14e0e6c5cf1ed81b94e081eecf0a33df105380881bc9da05d5 Ca
   COPYR  = (c) Copyright 06Sep2000 Georg Kresse                                
   COPYR  = This file is part of the software VASP. Any use, copying, and all ot
   COPYR  = If you do not have a valid VASP license, you may not use, copy or di
   VRHFIN =Ca: 3s3p4s                                                           
   LEXCH  = PE                                                                  
   EATOM  =  1006.0909 eV,   73.9456 Ry                                         
                                                                                
   TITEL  = PAW_PBE Ca_sv 06Sep2000                                             
   LULTRA =        F    use ultrasoft PP ?                                      
   IUNSCR =        1    unscreen: 0-lin 1-nonlin 2-no                           
   RPACOR =    2.000    partial core radius                                     
   POMASS =   40.078; ZVAL   =   10.000    mass and valenz                      
   RCORE  =    2.300    outmost cutoff radius                                   
   RWIGS  =    2.500; RWIGS  =    1.323    wigner-seitz radius (au A)           
   ENMAX  =  266.622; ENMIN  =  199.967 eV                                      
   RCLOC  =    1.808    cutoff for local pot                                    
   LCOR   =        T    correct aug charges                                     
   LPAW   =        T    paw PP                                                  
   EAUG   =  420.852                                                            
   RMAX   =    2.359    core radius for proj-oper                               
   RAUG   =    1.300    factor for augmentation sphere                          
   RDEP   =    2.392    radius for radial grids                                 
   RDEPT  =    1.987    core radius for aug-charge                              
                                                                                
   Atomic configuration                                                         
    7 entries                                                                   
     n  l   j            E        occ.                                          
     1  0  0.50     -3949.1705   2.0000                                         
     2  0  0.50      -414.3434   2.0000                                         
     2  1  1.50      -334.7047   6.0000                                         
     3  0  0.50       -47.0896   2.0000                                         
     4  0  0.50        -3.7663   2.0000                                         
     3  1  1.50       -28.0061   6.0000                                         
     3  2  1.50        -4.0817   0.0000                                         
   Description                                                                  
     l       E           TYP  RCUT    TYP  RCUT                                 
     0    -47.0896403     23  2.300                                             
     0     -3.7663320     23  2.300                                             
     1    -28.0060855     23  2.300                                             
     1      6.8029130     23  2.300                                             
     2     -4.0817478     23  2.300                                             
     2      0.4464412     23  2.300                                             
  local pseudopotential read in
  partial core-charges read in
  partial kinetic energy density read in
  atomic valenz-charges read in
  non local Contribution for L=           0  read in
    real space projection operators read in
  non local Contribution for L=           0  read in
    real space projection operators read in
  non local Contribution for L=           1  read in
    real space projection operators read in
  non local Contribution for L=           1  read in
    real space projection operators read in
  non local Contribution for L=           2  read in
    real space projection operators read in
  non local Contribution for L=           2  read in
    real space projection operators read in
    PAW grid and wavefunctions read in
 
   number of l-projection  operators is LMAX  =           6
   number of lm-projection operators is LMMAX =          18
 
 POTCAR:    PAW_PBE Si 05Jan2001                  
   SHA256 =  79d9987ad8750f624c4d6acb2a16d13abf6a777132adc04dc6c8399be72b42bb Si
   COPYR  = (c) Copyright 05Jan2001 Georg Kresse                                
   COPYR  = This file is part of the software VASP. Any use, copying, and all ot
   COPYR  = If you do not have a valid VASP license, you may not use, copy or di
   VRHFIN =Si: s2p2                                                             
   LEXCH  = PE                                                                  
   EATOM  =   103.0669 eV,    7.5752 Ry                                         
                                                                                
   TITEL  = PAW_PBE Si 05Jan2001                                                
   LULTRA =        F    use ultrasoft PP ?                                      
   IUNSCR =        1    unscreen: 0-lin 1-nonlin 2-no                           
   RPACOR =    1.500    partial core radius                                     
   POMASS =   28.085; ZVAL   =    4.000    mass and valenz                      
   RCORE  =    1.900    outmost cutoff radius                                   
   RWIGS  =    2.480; RWIGS  =    1.312    wigner-seitz radius (au A)           
   ENMAX  =  245.345; ENMIN  =  184.009 eV                                      
   ICORE  =        2    local potential                                         
   LCOR   =        T    correct aug charges                                     
   LPAW   =        T    paw PP                                                  
   EAUG   =  322.069                                                            
   DEXC   =    0.000                                                            
   RMAX   =    1.950    core radius for proj-oper                               
   RAUG   =    1.300    factor for augmentation sphere                          
   RDEP   =    1.993    radius for radial grids                                 
   RDEPT  =    1.837    core radius for aug-charge                              
                                                                                
   Atomic configuration                                                         
    6 entries                                                                   
     n  l   j            E        occ.                                          
     1  0  0.50     -1785.8828   2.0000                                         
     2  0  0.50      -139.4969   2.0000                                         
     2  1  1.50       -95.5546   6.0000                                         
     3  0  0.50       -10.8127   2.0000                                         
     3  1  0.50        -4.0811   2.0000                                         
     3  2  1.50        -4.0817   0.0000                                         
   Description                                                                  
     l       E           TYP  RCUT    TYP  RCUT                                 
     0    -10.8127223     23  1.900                                             
     0     -7.6451159     23  1.900                                             
     1     -4.0811372     23  1.900                                             
     1      2.4879257     23  1.900                                             
     2     -4.0817478      7  1.900                                             
  local pseudopotential read in
  partial core-charges read in
  partial kinetic energy density read in
  atomic valenz-charges read in
  non local Contribution for L=           0  read in
    real space projection operators read in
  non local Contribution for L=           0  read in
    real space projection operators read in
  non local Contribution for L=           1  read in
    real space projection operators read in
  non local Contribution for L=           1  read in
    real space projection operators read in
    PAW grid and wavefunctions read in
 
   number of l-projection  operators is LMAX  =           4
   number of lm-projection operators is LMMAX =           8
 
 POTCAR:    PAW_PBE O 08Apr2002                   
   SHA256 =  818f92134a0a090dccd8ba1447fa70422a3b330e708bb4f08108d8ae51209ddf O/
   COPYR  = (c) Copyright 08Apr2002 Georg Kresse                                
   COPYR  = This file is part of the software VASP. Any use, copying, and all ot
   COPYR  = If you do not have a valid VASP license, you may not use, copy or di
   VRHFIN =O: s2p4                                                              
   LEXCH  = PE                                                                  
   EATOM  =   432.3788 eV,   31.7789 Ry                                         
                                                                                
   TITEL  = PAW_PBE O 08Apr2002                                                 
   LULTRA =        F    use ultrasoft PP ?                                      
   IUNSCR =        1    unscreen: 0-lin 1-nonlin 2-no                           
   RPACOR =    1.200    partial core radius                                     
   POMASS =   16.000; ZVAL   =    6.000    mass and valenz                      
   RCORE  =    1.520    outmost cutoff radius                                   
   RWIGS  =    1.550; RWIGS  =    0.820    wigner-seitz radius (au A)           
   ENMAX  =  400.000; ENMIN  =  300.000 eV                                      
   ICORE  =        2    local potential                                         
   LCOR   =        T    correct aug charges                                     
   LPAW   =        T    paw PP                                                  
   EAUG   =  605.392                                                            
   DEXC   =    0.000                                                            
   RMAX   =    1.553    core radius for proj-oper                               
   RAUG   =    1.300    factor for augmentation sphere                          
   RDEP   =    1.550    radius for radial grids                                 
   RDEPT  =    1.329    core radius for aug-charge                              
                                                                                
   Atomic configuration                                                         
    4 entries                                                                   
     n  l   j            E        occ.                                          
     1  0  0.50      -514.6923   2.0000                                         
     2  0  0.50       -23.9615   2.0000                                         
     2  1  0.50        -9.0305   4.0000                                         
     3  2  1.50        -9.5241   0.0000                                         
   Description                                                                  
     l       E           TYP  RCUT    TYP  RCUT                                 
     0    -23.9615318     23  1.200                                             
     0     -9.5240782     23  1.200                                             
     1     -9.0304911     23  1.520                                             
     1      8.1634956     23  1.520                                             
     2     -9.5240782      7  1.500                                             
  local pseudopotential read in
  partial core-charges read in
  partial kinetic energy density read in
  kinetic energy density of atom read in
  atomic valenz-charges read in
  non local Contribution for L=           0  read in
    real space projection operators read in
  non local Contribution for L=           0  read in
    real space projection operators read in
  non local Contribution for L=           1  read in
    real space projection operators read in
  non local Contribution for L=           1  read in
    real space projection operators read in
    PAW grid and wavefunctions read in
 
   number of l-projection  operators is LMAX  =           4
   number of lm-projection operators is LMMAX =           8
 
 Optimization of the real space projectors (new method)

 maximal supplied QI-value         = 16.25
 optimisation between [QCUT,QGAM] = [ 12.51, 25.03] = [ 43.85,175.40] Ry 
 Optimized for a Real-space Cutoff    1.47 Angstroem

   l    n(q)    QCUT    max X(q) W(low)/X(q) W(high)/X(q)  e(spline) 
   0     11    12.514    11.817    0.25E-04    0.32E-05    0.87E-07
   0     11    12.514     8.461    0.39E-04    0.59E-05    0.18E-06
   1     11    12.514     3.957    0.97E-05    0.57E-05    0.28E-07
   1     11    12.514     4.314    0.42E-04    0.14E-04    0.23E-06
   2     10    12.514    14.565    0.79E-04    0.50E-03    0.16E-05
   2     10    12.514    14.552    0.75E-04    0.48E-03    0.15E-05
 Optimization of the real space projectors (new method)

 maximal supplied QI-value         = 19.84
 optimisation between [QCUT,QGAM] = [ 12.50, 25.00] = [ 43.76,175.03] Ry 
 Optimized for a Real-space Cutoff    1.16 Angstroem

   l    n(q)    QCUT    max X(q) W(low)/X(q) W(high)/X(q)  e(spline) 
   0      9    12.501   159.560    0.10E-03    0.83E-04    0.71E-07
   0      9    12.501   115.863    0.99E-04    0.81E-04    0.70E-07
   1      8    12.501    88.339    0.20E-03    0.25E-03    0.76E-07
   1      8    12.501    48.592    0.20E-03    0.24E-03    0.75E-07
 Optimization of the real space projectors (new method)

 maximal supplied QI-value         = 24.76
 optimisation between [QCUT,QGAM] = [ 12.38, 25.00] = [ 42.90,175.06] Ry 
 Optimized for a Real-space Cutoff    1.16 Angstroem

   l    n(q)    QCUT    max X(q) W(low)/X(q) W(high)/X(q)  e(spline) 
   0      9    12.378    20.381    0.16E-03    0.67E-05    0.31E-06
   0      9    12.378    15.268    0.17E-03    0.81E-05    0.33E-06
   1      8    12.378     5.964    0.20E-03    0.16E-03    0.30E-06
   1      8    12.378     5.382    0.18E-03    0.14E-03    0.26E-06
  PAW_PBE Ca_sv 06Sep2000               :
 energy of atom  1       EATOM=-1006.0909
 kinetic energy error for atom=    0.0012 (will be added to EATOM!!)
  PAW_PBE Si 05Jan2001                  :
 energy of atom  2       EATOM= -103.0669
 kinetic energy error for atom=    0.0003 (will be added to EATOM!!)
  PAW_PBE O 08Apr2002                   :
 energy of atom  3       EATOM= -432.3788
 kinetic energy error for atom=    0.0168 (will be added to EATOM!!)
 
 
 POSCAR: Ca Si  O                                
  positions in direct lattice
  No initial velocities read in
 exchange correlation table for  LEXCH =        8
   RHO(1)=    0.500       N(1)  =     2000
   RHO(2)=  100.500       N(2)  =     4000
 


--------------------------------------------------------------------------------------------------------


 ion  position               nearest neighbor table
   1  0.543  0.230  0.647-  89 2.08  94 2.12 101 2.22 127 2.27  70 2.27  90 2.34 114 2.36  28 2.62
                            45 2.66  22 2.90  41 2.92  33 3.02  53 3.09
   2  0.600  0.223  0.087- 110 1.94  91 2.02  60 2.16 108 2.16  98 2.16  55 2.20  86 2.37  17 2.58
                            15 2.72  37 2.74  35 2.80  19 2.83  32 2.98  38 3.05  40 3.14
   3  0.111  0.122  0.997- 103 2.15  74 2.20  65 2.25  80 2.30  78 2.31 126 2.48 117 2.52  38 2.60
                             9 2.94  22 2.99  40 3.00  52 3.04  49 3.09  14 3.13
   4  0.518  0.793  0.384-  82 2.02  88 2.09  71 2.14 132 2.20  99 2.24 107 2.27 119 2.43 133 2.49
                            77 2.53   8 2.64  23 2.66  30 2.90  42 2.96  46 3.01  29 3.04  53 3.05
   5  0.219  0.533  0.248- 122 1.99  59 2.01 106 2.20  84 2.24 105 2.28  82 2.47   8 2.75  15 2.80
                            25 2.89  24 2.90   6 2.91  51 2.92   7 2.95  42 2.96  12 3.06
   6  0.972  0.397  0.219- 109 1.95 106 2.00  84 2.16  72 2.21  75 2.27  60 2.35   7 2.45  64 2.53
                            40 2.70   5 2.91  34 3.01  35 3.03  51 3.04  36 3.13
   7  0.993  0.515  0.426-  66 1.96  59 2.06 109 2.18 134 2.24  63 2.28  75 2.35  62 2.40   6 2.45
                            10 2.53  12 2.77  30 2.79  36 2.88   5 2.95  24 3.14
   8  0.468  0.543  0.348- 112 1.95 133 2.11  86 2.13 105 2.22  82 2.28 107 2.34 122 2.38   4 2.64
                             5 2.75  32 2.78  28 2.96  30 3.04  19 3.08
   9  0.928  0.132  0.778-  81 2.06  65 2.07  56 2.08 127 2.12 102 2.20  45 2.42  78 2.56  44 2.78
                            40 2.84   3 2.94  39 2.97  17 2.98  13 2.99  26 3.02
  10  0.990  0.732  0.542-  69 2.03 125 2.19  66 2.21 120 2.25  63 2.26  59 2.38 131 2.50  62 2.50
                             7 2.53  54 2.76  42 2.76  47 2.77  44 2.80  39 2.96  30 3.07  11 3.10
  11  0.174  0.890  0.722- 128 2.02 102 2.07 130 2.17  73 2.18  83 2.20  78 2.27 120 2.32 125 2.36
                            44 2.69  52 2.72  39 2.80  47 2.85  31 3.05  10 3.10  53 3.15  21 3.16
  12  0.228  0.428  0.527- 112 2.13 105 2.14  66 2.27  96 2.34  76 2.45  85 2.45  58 2.48   7 2.77
                            31 2.86  13 2.90  51 2.97   5 3.06  33 3.08
  13  0.126  0.345  0.777-  58 1.88  85 2.08  96 2.16 123 2.17 117 2.31  56 2.44  33 2.52  67 2.56
                            83 2.56  31 2.74  47 2.84  12 2.90   9 2.99  20 3.07  25 3.15
  14  0.900  0.909  0.054-  92 2.06  93 2.08 115 2.10  78 2.23 113 2.25  65 2.42  68 2.46 135 2.47
                            39 2.73  24 2.75  48 2.92  35 2.93  49 2.93  17 2.99  52 2.99  43 3.11
  15  0.371  0.355  0.108-  55 2.01 122 2.05 103 2.05  79 2.12 123 2.15  84 2.21  86 2.34  50 2.50
                            51 2.72   2 2.72  32 2.77   5 2.80  38 2.85
  16  0.457  0.907  0.929- 128 1.94  97 2.01  95 2.14 110 2.18  74 2.22 135 2.40  27 2.61  46 2.63
                            38 2.73  22 2.76  37 2.79  17 2.81  53 3.01  52 3.08
  17  0.687  0.055  0.920- 113 1.91  98 2.08  97 2.09  91 2.10 135 2.23  65 2.33 127 2.34 110 2.47
                             2 2.58  37 2.62  16 2.81   9 2.98  14 2.99
  18  0.649  0.467  0.860- 116 2.03  87 2.06  55 2.10  98 2.28  89 2.41 101 2.41 124 2.46  50 2.57
                            28 2.81  20 2.82  19 2.87  27 2.95  33 3.08
  19  0.674  0.484  0.138-  87 1.89  55 1.95  86 1.98  64 1.99 107 2.25  75 2.26  60 2.51  48 2.68
                            34 2.75  50 2.75   2 2.83  18 2.87   8 3.08  43 3.10
  20  0.892  0.528  0.748-  67 1.93  56 2.04 111 2.09  66 2.19  62 2.20 125 2.42  47 2.52  43 2.76
                            18 2.82  29 3.04  13 3.07  45 3.12  10 3.14
  21  0.391  0.679  0.668- 124 2.10 120 2.11 112 2.21 100 2.29  71 2.31  96 2.39 128 2.40  42 2.68
                            53 2.79  47 2.98  33 3.08  29 3.11  11 3.16
  22  0.351  0.134  0.831-  83 1.93 103 1.97  58 2.06 101 2.21  74 2.40 114 2.47  31 2.66  16 2.76
                            38 2.77  33 2.85   1 2.90   3 2.99  53 3.06
  23  0.330  0.970  0.374-  71 1.99 129 2.13  57 2.18  99 2.27  61 2.30 126 2.49   4 2.66  42 2.74
                            49 2.99  53 3.06  38 3.08
  24  0.025  0.737  0.218-  93 2.02 106 2.05  63 2.07 115 2.14  92 2.30 118 2.32  59 2.32  57 2.35
                            68 2.37  14 2.75  43 2.81  49 2.83   5 2.90  54 2.96  52 3.02   7 3.14
  25  0.191  0.573  0.971-  67 1.94 130 2.01 123 2.15 106 2.28 118 2.28  47 2.42  96 2.52 122 2.55
                           115 2.56  52 2.67  50 2.75   5 2.89  43 2.90  33 3.03  13 3.15
  26  0.748  0.954  0.628- 127 2.04 131 2.06  69 2.17 132 2.18 100 2.38 121 2.44 113 2.46 102 2.50
                            81 2.51  39 2.70  41 2.81  44 2.84  54 2.84  29 2.88  53 2.90   9 3.02
  27  0.639  0.753  0.841- 100 1.98 116 2.01 111 2.08 131 2.28  87 2.33 135 2.38 113 2.41  16 2.61
                            29 2.62  48 2.87  18 2.95  39 3.02
  28  0.606  0.471  0.590-  89 1.54 133 1.66  90 1.72  70 1.77 116 1.93  29 2.32  62 2.34   1 2.62
                            18 2.81  30 2.89  34 2.94  45 2.94   8 2.96
  29  0.686  0.682  0.600- 116 1.49 133 1.67 131 1.69 100 1.72  62 1.73  88 1.81  30 2.19  28 2.32
                            27 2.62  26 2.88   4 3.04  20 3.04  21 3.11
  30  0.747  0.628  0.403-  63 1.64 133 1.65  88 1.66 107 1.68  62 1.78  75 1.83  29 2.19  54 2.49
                             7 2.79  28 2.89   4 2.90  34 2.96   8 3.04  10 3.07
  31  0.222  0.161  0.608-  83 1.65  76 1.65  58 1.66  73 1.74  85 1.75 114 1.95  22 2.66  13 2.74
                            44 2.78  12 2.86  36 2.96  11 3.05
  32  0.473  0.272  0.343-  61 1.55  86 1.71  79 1.72 105 1.79 108 1.96  90 1.98  41 2.63  34 2.66
                            51 2.67  15 2.77   8 2.78   2 2.98
  33  0.362  0.409  0.795- 123 1.65 101 1.66  70 1.72 124 1.79  96 1.83  58 1.84  13 2.52  50 2.72
                            22 2.85   1 3.02  25 3.03  18 3.08  21 3.08  12 3.08
  34  0.721  0.343  0.361-  75 1.58  90 1.70  72 1.79 108 1.87  86 2.15  94 2.24 134 2.34  32 2.66
                            19 2.75  35 2.85  28 2.94  41 2.95  30 2.96  45 2.99   6 3.01  36 3.08
  35  0.829  0.138  0.209-  91 1.61  60 1.63  72 1.66  80 1.69 108 2.21  92 2.37  65 2.47 121 2.48
                             2 2.80  49 2.80  40 2.84  34 2.85  14 2.93  37 2.94   6 3.03  41 3.09
  36  0.976  0.240  0.481-  85 1.64 109 1.64  81 1.66 134 1.70 104 1.86  72 1.99  45 2.38  44 2.56
                             7 2.88  31 2.96  34 3.08  51 3.12   6 3.13
  37  0.611  0.964  0.146- 135 1.54  91 1.56  99 1.63  77 1.75 110 1.87 119 1.98  48 2.36  17 2.62
                             2 2.74  16 2.79  35 2.94  41 3.04  38 3.07  46 3.14   4 3.15  14 3.16
  38  0.341  0.079  0.095- 103 1.51 110 1.60 129 1.63  79 1.89  74 2.07 126 2.14   3 2.60  16 2.73
                            22 2.77  15 2.85  51 3.01   2 3.05  37 3.07  23 3.08  46 3.13
  39  0.916  0.843  0.797- 125 1.55 113 1.56 102 1.61 131 1.84  78 1.84 111 2.26  26 2.70  14 2.73
                            11 2.80  10 2.96   9 2.97  27 3.02  47 3.14  44 3.15
  40  0.880  0.301  0.991- 117 1.50  60 1.69  65 1.76  64 1.94  98 2.05  56 2.35   6 2.70  35 2.84
                             9 2.84   3 3.00   2 3.14
  41  0.622  0.079  0.419- 121 1.51  94 1.63 132 1.66 108 1.78  61 1.84  99 1.95  32 2.63  26 2.81
                             1 2.92  34 2.95  37 3.04  54 3.06  35 3.09  53 3.11   4 3.15
  42  0.246  0.731  0.457-  59 1.55  71 1.57 112 1.68 120 1.75  82 1.95  57 2.03  21 2.68  23 2.74
                            10 2.76   4 2.96   5 2.96
  43  0.913  0.610  0.003-  64 1.57 111 1.69 115 1.75  68 1.81  67 1.91 106 1.94  20 2.76  24 2.81
                            25 2.90  48 3.03  19 3.10  14 3.11
  44  0.009  0.004  0.553-  73 1.45 102 1.61  81 1.62  69 1.62 104 1.73  36 2.56  11 2.69  31 2.78
                             9 2.78  10 2.80  26 2.84  49 2.95  54 3.05  39 3.15
  45  0.800  0.264  0.630-  89 1.54 134 1.65 127 1.72  56 1.79  94 1.81  81 1.90  36 2.38   9 2.42
                             1 2.66  28 2.94  34 2.99  20 3.12
  46  0.368  0.778  0.132- 118 1.55 119 1.56 129 1.73  82 1.81  95 1.90 122 2.31  52 2.61  16 2.63
                            50 2.85   4 3.01  38 3.13  37 3.14
  47  0.120  0.620  0.751-  96 1.58 125 1.62  67 1.67 120 1.76  66 1.85 130 1.88  25 2.42  20 2.52
                            10 2.77  13 2.84  11 2.85  21 2.98  39 3.14
  48  0.676  0.745  0.118-  68 1.55 135 1.57 119 1.72  77 1.76 107 1.86  87 1.98  37 2.36  19 2.68
                            27 2.87  14 2.92  43 3.03
  49  0.060  0.006  0.270- 126 1.58 104 1.69  93 1.70  92 1.75  80 1.83  57 1.88  35 2.80  24 2.83
                            14 2.93  44 2.95  23 2.99  51 3.02   3 3.09  54 3.12
  50  0.457  0.554  0.996-  95 1.61  55 1.64 122 1.66 124 1.69  87 1.70  15 2.50  18 2.57  33 2.72
                            25 2.75  19 2.75  46 2.85
  51  0.218  0.253  0.297-  84 1.62  76 1.71  79 1.80 105 1.82 126 1.84 109 1.93  32 2.67  15 2.72
                             5 2.92  12 2.97  38 3.01  49 3.02   6 3.04  36 3.12
  52  0.171  0.832  0.981- 130 1.55  74 1.60 118 1.67 115 1.85  78 1.98  93 2.01  46 2.61  25 2.67
                            11 2.72  14 2.99  24 3.02   3 3.04  16 3.08
  53  0.466  0.939  0.638- 114 1.58 132 1.69 128 1.72  97 1.80 100 1.90  71 2.11  21 2.79  26 2.90
                            16 3.01   4 3.05  22 3.06  23 3.06   1 3.09  41 3.11  11 3.15
  54  0.818  0.858  0.378-  69 1.54  88 1.60 121 1.71  92 1.74  77 1.80  63 1.83  30 2.49  10 2.76
                            26 2.84  24 2.96  44 3.05  41 3.06  49 3.12   4 3.15
  55  0.537  0.418  0.024-  50 1.64  19 1.95  15 2.01  18 2.10   2 2.20
  56  0.889  0.330  0.764-  45 1.79  20 2.04   9 2.08  40 2.35  13 2.44
  57  0.142  0.871  0.363-  49 1.88  42 2.03  23 2.18  24 2.35
  58  0.280  0.276  0.707-  31 1.66  33 1.84  13 1.88  22 2.06  12 2.48
  59  0.142  0.645  0.389-  42 1.55   5 2.01   7 2.06  24 2.32  10 2.38
  60  0.799  0.274  0.132-  35 1.63  40 1.69   2 2.16   6 2.35  19 2.51
  61  0.456  0.147  0.426-  32 1.55  41 1.84  23 2.30
  62  0.807  0.572  0.556-  29 1.73  30 1.78  20 2.20  28 2.34   7 2.40  10 2.50
  63  0.883  0.694  0.353-  30 1.64  54 1.83  24 2.07  10 2.26   7 2.28
  64  0.836  0.481  0.031-  43 1.57  40 1.94  19 1.99   6 2.53
  65  0.893  0.131  0.977-  40 1.76   9 2.07   3 2.25  17 2.33  14 2.42  35 2.47
  66  0.051  0.536  0.606-  47 1.85   7 1.96  20 2.19  10 2.21  12 2.27
  67  0.031  0.555  0.871-  47 1.67  43 1.91  20 1.93  25 1.94  13 2.56
  68  0.819  0.695  0.125-  48 1.55  43 1.81  24 2.37  14 2.46
  69  0.903  0.903  0.493-  54 1.54  44 1.62  10 2.03  26 2.17
  70  0.451  0.431  0.654-  33 1.72  28 1.77   1 2.27
  71  0.353  0.830  0.505-  42 1.57  23 1.99  53 2.11   4 2.14  21 2.31
  72  0.861  0.246  0.325-  35 1.66  34 1.79  36 1.99   6 2.21
  73  0.150  0.018  0.554-  44 1.45  31 1.74  11 2.18
  74  0.250  0.964  0.956-  52 1.60  38 2.07   3 2.20  16 2.22  22 2.40
  75  0.792  0.474  0.323-  34 1.58  30 1.83  19 2.26   6 2.27   7 2.35
  76  0.242  0.201  0.454-  31 1.65  51 1.71  12 2.45
  77  0.708  0.860  0.241-  37 1.75  48 1.76  54 1.80   4 2.53
  78  0.038  0.938  0.889-  39 1.84  52 1.98  14 2.23  11 2.27   3 2.31   9 2.56
  79  0.371  0.193  0.236-  32 1.72  51 1.80  38 1.89  15 2.12
  80  0.992  0.147  0.186-  35 1.69  49 1.83   3 2.30
  81  0.913  0.127  0.577-  44 1.62  36 1.66  45 1.90   9 2.06  26 2.51
  82  0.352  0.727  0.300-  46 1.81  42 1.95   4 2.02   8 2.28   5 2.47
  83  0.183  0.102  0.753-  31 1.65  22 1.93  11 2.20  13 2.56
  84  0.167  0.335  0.172-  51 1.62   6 2.16  15 2.21   5 2.24
  85  0.080  0.255  0.601-  36 1.64  31 1.75  13 2.08  12 2.45
  86  0.550  0.383  0.246-  32 1.71  19 1.98   8 2.13  34 2.15  15 2.34   2 2.37
  87  0.615  0.600  0.007-  50 1.70  19 1.89  48 1.98  18 2.06  27 2.33
  88  0.709  0.777  0.453-  54 1.60  30 1.66  29 1.81   4 2.09
  89  0.693  0.366  0.653-  45 1.54  28 1.54   1 2.08  18 2.41
  90  0.594  0.359  0.466-  34 1.70  28 1.72  32 1.98   1 2.34
  91  0.717  0.070  0.123-  37 1.56  35 1.61   2 2.02  17 2.10
  92  0.911  0.927  0.254-  54 1.74  49 1.75  14 2.06  24 2.30  35 2.37
  93  0.084  0.908  0.139-  49 1.70  52 2.01  24 2.02  14 2.08
  94  0.694  0.188  0.512-  41 1.63  45 1.81   1 2.12  34 2.24
  95  0.424  0.705  0.971-  50 1.61  46 1.90  16 2.14
  96  0.236  0.520  0.736-  47 1.58  33 1.83  13 2.16  12 2.34  21 2.39  25 2.52
  97  0.552  0.992  0.781-  53 1.80  16 2.01  17 2.09
  98  0.705  0.257  0.907-  40 2.05  17 2.08   2 2.16  18 2.28
  99  0.531  0.985  0.282-  37 1.63  41 1.95   4 2.24  23 2.27
 100  0.581  0.796  0.662-  29 1.72  53 1.90  27 1.98  21 2.29  26 2.38
 101  0.479  0.307  0.839-  33 1.66  22 2.21   1 2.22  18 2.41
 102  0.981  0.942  0.694-  44 1.61  39 1.61  11 2.07   9 2.20  26 2.50
 103  0.307  0.194  0.008-  38 1.51  22 1.97  15 2.05   3 2.15
 104  0.994  0.078  0.402-  49 1.69  44 1.73  36 1.86
 105  0.332  0.375  0.355-  32 1.79  51 1.82  12 2.14   8 2.22   5 2.28
 106  0.040  0.558  0.133-  43 1.94   6 2.00  24 2.05   5 2.20  25 2.28
 107  0.651  0.655  0.273-  30 1.68  48 1.86  19 2.25   4 2.27   8 2.34
 108  0.639  0.195  0.292-  41 1.78  34 1.87  32 1.96   2 2.16  35 2.21
 109  0.059  0.321  0.370-  36 1.64  51 1.93   6 1.95   7 2.18
 110  0.492  0.071  0.060-  38 1.60  37 1.87   2 1.94  16 2.18  17 2.47
 111  0.818  0.664  0.880-  43 1.69  27 2.08  20 2.09  39 2.26
 112  0.338  0.597  0.476-  42 1.68   8 1.95  12 2.13  21 2.21
 113  0.801  0.922  0.859-  39 1.56  17 1.91  14 2.25  27 2.41  26 2.46
 114  0.387  0.067  0.603-  53 1.58  31 1.95   1 2.36  22 2.47
 115  0.015  0.746  0.010-  43 1.75  52 1.85  14 2.10  24 2.14  25 2.56
 116  0.648  0.603  0.716-  29 1.49  28 1.93  27 2.01  18 2.03
 117  0.018  0.348  0.974-  40 1.50  13 2.31   3 2.52
 118  0.223  0.745  0.108-  46 1.55  52 1.67  25 2.28  24 2.32
 119  0.519  0.794  0.147-  46 1.56  48 1.72  37 1.98   4 2.43
 120  0.193  0.692  0.614-  42 1.75  47 1.76  21 2.11  10 2.25  11 2.32
 121  0.749  0.008  0.396-  41 1.51  54 1.71  26 2.44  35 2.48
 122  0.376  0.553  0.136-  50 1.66   5 1.99  15 2.05  46 2.31   8 2.38  25 2.55
 123  0.272  0.385  0.925-  33 1.65  15 2.15  25 2.15  13 2.17
 124  0.432  0.565  0.833-  50 1.69  33 1.79  21 2.10  18 2.46
 125  0.010  0.733  0.754-  39 1.55  47 1.62  10 2.19  11 2.36  20 2.42
 126  0.180  0.093  0.227-  49 1.58  51 1.84  38 2.14   3 2.48  23 2.49
 127  0.732  0.133  0.711-  45 1.72  26 2.04   9 2.12   1 2.27  17 2.34
 128  0.366  0.891  0.764-  53 1.72  16 1.94  11 2.02  21 2.40
 129  0.336  0.939  0.168-  38 1.63  46 1.73  23 2.13
 130  0.200  0.738  0.866-  52 1.55  47 1.88  25 2.01  11 2.17
 131  0.797  0.768  0.685-  29 1.69  39 1.84  26 2.06  27 2.28  10 2.50
 132  0.570  0.957  0.512-  41 1.66  53 1.69  26 2.18   4 2.20
 133  0.612  0.593  0.485-  30 1.65  28 1.66  29 1.67   8 2.11   4 2.49
 134  0.874  0.363  0.528-  45 1.65  36 1.70   7 2.24  34 2.34
 135  0.662  0.874  0.037-  37 1.54  48 1.57  17 2.23  27 2.38  16 2.40  14 2.47
 

IMPORTANT INFORMATION: All symmetrisations will be switched off!
NOSYMM: (Re-)initialisation of all symmetry stuff for point group C_1.

 
 

Automatic generation of k-mesh.
 generate k-points for:    3    3    3
Space group operators:
 irot       det(A)        alpha          n_x          n_y          n_z        tau_x        tau_y        tau_z
    1     1.000000     0.000001     1.000000     0.000000     0.000000     0.000000     0.000000     0.000000
 
 Subroutine IBZKPT returns following result:
 ===========================================
 
 Found     14 irreducible k-points:
 
 Following reciprocal coordinates:
            Coordinates               Weight
  0.000000  0.000000  0.000000      1.000000
  0.333333  0.000000  0.000000      2.000000
  0.000000  0.333333  0.000000      2.000000
  0.333333  0.333333  0.000000      2.000000
 -0.333333  0.333333  0.000000      2.000000
  0.000000  0.000000  0.333333      2.000000
  0.333333  0.000000  0.333333      2.000000
 -0.333333  0.000000  0.333333      2.000000
  0.000000  0.333333  0.333333      2.000000
  0.333333  0.333333  0.333333      2.000000
 -0.333333  0.333333  0.333333      2.000000
  0.000000 -0.333333  0.333333      2.000000
  0.333333 -0.333333  0.333333      2.000000
 -0.333333 -0.333333  0.333333      2.000000
 
 Following cartesian coordinates:
            Coordinates               Weight
  0.000000  0.000000  0.000000      1.000000
  0.032480  0.000000  0.000000      2.000000
  0.000000  0.032480  0.000000      2.000000
  0.032480  0.032480  0.000000      2.000000
 -0.032480  0.032480  0.000000      2.000000
  0.000000  0.000000  0.032480      2.000000
  0.032480  0.000000  0.032480      2.000000
 -0.032480  0.000000  0.032480      2.000000
  0.000000  0.032480  0.032480      2.000000
  0.032480  0.032480  0.032480      2.000000
 -0.032480  0.032480  0.032480      2.000000
  0.000000 -0.032480  0.032480      2.000000
  0.032480 -0.032480  0.032480      2.000000
 -0.032480 -0.032480  0.032480      2.000000
 


--------------------------------------------------------------------------------------------------------




 Dimension of arrays:
   k-points           NKPTS =     14   k-points in BZ     NKDIM =     14   number of bands    NBANDS=    520
   number of dos      NEDOS =    301   number of ions     NIONS =    135
   non local maximal  LDIM  =      6   non local SUM 2l+1 LMDIM =     18
   total plane-waves  NPLWV = 592704
   max r-space proj   IRMAX =   7356   max aug-charges    IRDMAX= 209463
   dimension x,y,z NGX =    84 NGY =   84 NGZ =   84
   dimension x,y,z NGXF=   168 NGYF=  168 NGZF=  168
   support grid    NGXF=   336 NGYF=  336 NGZF=  336
   ions per type =              27  27  81
   NGX,Y,Z   is equivalent  to a cutoff of  13.61, 13.61, 13.61 a.u.
   NGXF,Y,Z  is equivalent  to a cutoff of  27.21, 27.21, 27.21 a.u.

 SYSTEM =  unknown system                          
 POSCAR =  Ca Si  O                                

 Startparameter for this run:
   NWRITE =      2    write-flag & timer
   PREC   = a         normal or accurate (medium, high low for compatibility)
   ISTART =      0    job   : 0-new  1-cont  2-samecut
   ICHARG =      2    charge: 1-file 2-atom 10-const
   ISPIN  =      1    spin polarized calculation?
   LNONCOLLINEAR =      F non collinear calculations
   LSORBIT =      F    spin-orbit coupling
   INIWAV =      1    electr: 0-lowe 1-rand  2-diag
   LASPH  =      F    aspherical Exc in radial PAW
   METAGGA=      F    non-selfconsistent MetaGGA calc.

 Electronic Relaxation 1
   ENCUT  =  600.0 eV  44.10 Ry    6.64 a.u.  20.50 20.50 20.50*2*pi/ulx,y,z
   ENINI  =  600.0     initial cutoff
   ENAUG  =  605.4 eV  augmentation charge cutoff
   NELM   =     60;   NELMIN=  2; NELMDL= -5     # of ELM steps 
   EDIFF  = 0.1E-05   stopping-criterion for ELM
   LREAL  =      T    real-space projection
   NLSPLINE    = F    spline interpolate recip. space projectors
   LCOMPAT=      F    compatible to vasp.4.4
   GGA_COMPAT  = T    GGA compatible to vasp.4.4-vasp.4.6
   LMAXPAW     = -100 max onsite density
   LMAXMIX     =    2 max onsite mixed and CHGCAR
   VOSKOWN=      0    Vosko Wilk Nusair interpolation
   ROPT   =   -0.00025  -0.00025  -0.00025
 Ionic relaxation
   EDIFFG = -.1E-01   stopping-criterion for IOM
   NSW    =      1    number of steps for IOM
   NBLOCK =      1;   KBLOCK =      1    inner block; outer block 
   IBRION =     -1    ionic relax: 0-MD 1-quasi-New 2-CG
   NFREE  =      0    steps in history (QN), initial steepest desc. (CG)
   ISIF   =      2    stress and relaxation
   IWAVPR =     10    prediction:  0-non 1-charg 2-wave 3-comb
   ISYM   =      0    0-nonsym 1-usesym 2-fastsym
   LCORR  =      T    Harris-Foulkes like correction to forces

   POTIM  = 1.0000    time-step for ionic-motion
   TEIN   =    0.0    initial temperature
   TEBEG  =    0.0;   TEEND  =   0.0 temperature during run
   SMASS  =  -3.00    Nose mass-parameter (am)
   estimated Nose-frequenzy (Omega)   =  0.10E-29 period in steps =****** mass=  -0.241E-26a.u.
   SCALEE = 1.0000    scale energy and forces
   NPACO  =    256;   APACO  = 16.0  distance and # of slots for P.C.
   PSTRESS=    0.0 pullay stress

  Mass of Ions in am
   POMASS =  40.08 28.09 16.00
  Ionic Valenz
   ZVAL   =  10.00  4.00  6.00
  Atomic Wigner-Seitz radii
   RWIGS  =  -1.00 -1.00 -1.00
  virtual crystal weights 
   VCA    =   1.00  1.00  1.00
   NELECT =     864.0000    total number of electrons
   NUPDOWN=      -1.0000    fix difference up-down

 DOS related values:
   EMIN   =  10.00;   EMAX   =-10.00  energy-range for DOS
   EFERMI =   0.00
   ISMEAR =     0;   SIGMA  =   0.05  broadening in eV -4-tet -1-fermi 0-gaus

 Electronic relaxation 2 (details)
   IALGO  =     38    algorithm
   LDIAG  =      T    sub-space diagonalisation (order eigenvalues)
   LSUBROT=      F    optimize rotation matrix (better conditioning)
   TURBO    =      0    0=normal 1=particle mesh
   IRESTART =      0    0=no restart 2=restart with 2 vectors
   NREBOOT  =      0    no. of reboots
   NMIN     =      0    reboot dimension
   EREF     =   0.00    reference energy to select bands
   IMIX   =      4    mixing-type and parameters
     AMIX     =   0.40;   BMIX     =  1.00
     AMIX_MAG =   1.60;   BMIX_MAG =  1.00
     AMIN     =   0.10
     WC   =   100.;   INIMIX=   1;  MIXPRE=   1;  MAXMIX= -45

 Intra band minimization:
   WEIMIN = 0.0000     energy-eigenvalue tresh-hold
   EBREAK =  0.48E-09  absolut break condition
   DEPER  =   0.30     relativ break condition  

   TIME   =   0.40     timestep for ELM

  volume/ion in A,a.u.               =       8.01        54.03
  Fermi-wavevector in a.u.,A,eV,Ry     =   1.519301  2.871062 31.405975  2.308274
  Thomas-Fermi vector in A             =   2.628305
 
 Write flags
   LWAVE        =      F    write WAVECAR
   LDOWNSAMPLE  =      F    k-point downsampling of WAVECAR
   LCHARG       =      F    write CHGCAR
   LVTOT        =      F    write LOCPOT, total local potential
   LVHAR        =      F    write LOCPOT, Hartree potential only
   LELF         =      F    write electronic localiz. function (ELF)
   LORBIT       =      0    0 simple, 1 ext, 2 COOP (PROOUT), +10 PAW based schemes


 Dipole corrections
   LMONO  =      F    monopole corrections only (constant potential shift)
   LDIPOL =      F    correct potential (dipole corrections)
   IDIPOL =      0    1-x, 2-y, 3-z, 4-all directions 
   EPSILON=  1.0000000 bulk dielectric constant

 Exchange correlation treatment:
   GGA     =    --    GGA type
   LEXCH   =     8    internal setting for exchange type
   VOSKOWN=      0    Vosko Wilk Nusair interpolation
   LHFCALC =     F    Hartree Fock is set to
   LHFONE  =     F    Hartree Fock one center treatment
   AEXX    =    0.0000 exact exchange contribution

 Linear response parameters
   LEPSILON=     F    determine dielectric tensor
   LRPA    =     F    only Hartree local field effects (RPA)
   LNABLA  =     F    use nabla operator in PAW spheres
   LVEL    =     F    velocity operator in full k-point grid
   LINTERFAST=   F  fast interpolation
   KINTER  =     0    interpolate to denser k-point grid
   CSHIFT  =0.1000    complex shift for real part using Kramers Kronig
   OMEGAMAX=  -1.0    maximum frequency
   DEG_THRESHOLD= 0.2000000E-02 threshold for treating states as degnerate
   RTIME   =   -0.100 relaxation time in fs
  (WPLASMAI=    0.000 imaginary part of plasma frequency in eV, 0.658/RTIME)
   DFIELD  = 0.0000000 0.0000000 0.0000000 field for delta impulse in time
 
 Orbital magnetization related:
   ORBITALMAG=     F  switch on orbital magnetization
   LCHIMAG   =     F  perturbation theory with respect to B field
   DQ        =  0.001000  dq finite difference perturbation B field
   LLRAUG    =     F  two centre corrections for induced B field



--------------------------------------------------------------------------------------------------------


 Static calculation
 charge density and potential will be updated during run
 non-spin polarized calculation
 Variant of blocked Davidson
 Davidson routine will perform the subspace rotation
 perform sub-space diagonalisation
    after iterative eigenvector-optimisation
 modified Broyden-mixing scheme, WC =      100.0
 initial mixing is a Kerker type mixing with AMIX =  0.4000 and BMIX =      1.0000
 Hartree-type preconditioning will be used
 using additional bands           88
 real space projection scheme for non local part
 use partial core corrections
 calculate Harris-corrections to forces 
   (improved forces if not selfconsistent)
 use gradient corrections 
 use of overlap-Matrix (Vanderbilt PP)
 Gauss-broadening in eV      SIGMA  =   0.05


--------------------------------------------------------------------------------------------------------


  energy-cutoff  :      600.00
  volume of cell :     1080.95
      direct lattice vectors                 reciprocal lattice vectors
    10.262875590  0.000000000  0.000000000     0.097438578  0.000000000  0.000000000
     0.000000000 10.262875590  0.000000000     0.000000000  0.097438578  0.000000000
     0.000000000  0.000000000 10.262875590     0.000000000  0.000000000  0.097438578

  length of vectors
    10.262875590 10.262875590 10.262875590     0.097438578  0.097438578  0.097438578


 
 k-points in units of 2pi/SCALE and weight: read from INCAR                         
   0.00000000  0.00000000  0.00000000       0.037
   0.03247953  0.00000000  0.00000000       0.074
   0.00000000  0.03247953  0.00000000       0.074
   0.03247953  0.03247953  0.00000000       0.074
  -0.03247953  0.03247953  0.00000000       0.074
   0.00000000  0.00000000  0.03247953       0.074
   0.03247953  0.00000000  0.03247953       0.074
  -0.03247953  0.00000000  0.03247953       0.074
   0.00000000  0.03247953  0.03247953       0.074
   0.03247953  0.03247953  0.03247953       0.074
  -0.03247953  0.03247953  0.03247953       0.074
   0.00000000 -0.03247953  0.03247953       0.074
   0.03247953 -0.03247953  0.03247953       0.074
  -0.03247953 -0.03247953  0.03247953       0.074
 
 k-points in reciprocal lattice and weights: read from INCAR                         
   0.00000000  0.00000000  0.00000000       0.037
   0.33333333  0.00000000  0.00000000       0.074
   0.00000000  0.33333333  0.00000000       0.074
   0.33333333  0.33333333  0.00000000       0.074
  -0.33333333  0.33333333  0.00000000       0.074
   0.00000000  0.00000000  0.33333333       0.074
   0.33333333  0.00000000  0.33333333       0.074
  -0.33333333  0.00000000  0.33333333       0.074
   0.00000000  0.33333333  0.33333333       0.074
   0.33333333  0.33333333  0.33333333       0.074
  -0.33333333  0.33333333  0.33333333       0.074
   0.00000000 -0.33333333  0.33333333       0.074
   0.33333333 -0.33333333  0.33333333       0.074
  -0.33333333 -0.33333333  0.33333333       0.074
 
 position of ions in fractional coordinates (direct lattice) 
   0.54321857  0.22976976  0.64734385
   0.60042564  0.22343651  0.08677452
   0.11109454  0.12177082  0.99697844
   0.51829074  0.79314963  0.38380711
   0.21868851  0.53330367  0.24802783
   0.97164291  0.39712865  0.21891534
   0.99295839  0.51497391  0.42578592
   0.46752492  0.54341580  0.34776159
   0.92778520  0.13186976  0.77763821
   0.99023791  0.73218985  0.54173498
   0.17428857  0.89035868  0.72174490
   0.22764361  0.42800344  0.52690766
   0.12622516  0.34463305  0.77689292
   0.89999754  0.90876674  0.05438769
   0.37107218  0.35522635  0.10768485
   0.45692721  0.90699928  0.92926310
   0.68709667  0.05529050  0.92049850
   0.64896962  0.46667118  0.85994199
   0.67381014  0.48434887  0.13756633
   0.89233435  0.52817897  0.74799649
   0.39135527  0.67933492  0.66786759
   0.35081980  0.13407605  0.83120988
   0.33001521  0.97041484  0.37395450
   0.02536061  0.73742823  0.21804951
   0.19093098  0.57297909  0.97096255
   0.74755206  0.95368419  0.62774259
   0.63941887  0.75347677  0.84111452
   0.60647105  0.47059026  0.58985695
   0.68641369  0.68150255  0.60040276
   0.74653474  0.62759412  0.40307474
   0.22199161  0.16122946  0.60839056
   0.47257527  0.27240624  0.34324402
   0.36223240  0.40930218  0.79458961
   0.72083327  0.34307179  0.36082020
   0.82937061  0.13819850  0.20851785
   0.97552835  0.24043955  0.48094537
   0.61114539  0.96365472  0.14635859
   0.34064874  0.07941436  0.09497030
   0.91599969  0.84337340  0.79702386
   0.88047360  0.30125925  0.99115585
   0.62241591  0.07942127  0.41929184
   0.24597349  0.73075513  0.45703107
   0.91273746  0.60999678  0.00308434
   0.00901279  0.00373970  0.55276446
   0.79974910  0.26356946  0.63024566
   0.36830434  0.77835967  0.13194007
   0.11955184  0.61994446  0.75089497
   0.67606701  0.74496898  0.11792776
   0.06036559  0.00593847  0.27022319
   0.45672814  0.55352038  0.99576417
   0.21769625  0.25274936  0.29737859
   0.17102055  0.83218099  0.98071727
   0.46600444  0.93864887  0.63788896
   0.81813327  0.85779178  0.37788621
   0.53664228  0.41765010  0.02354876
   0.88926781  0.33048410  0.76394681
   0.14216093  0.87106634  0.36315348
   0.28037473  0.27558669  0.70683721
   0.14150366  0.64519882  0.38872282
   0.79914745  0.27433462  0.13211349
   0.45646021  0.14747647  0.42573828
   0.80715531  0.57245477  0.55621969
   0.88306999  0.69358351  0.35342661
   0.83550064  0.48079369  0.03108635
   0.89342707  0.13120847  0.97663721
   0.05125706  0.53602397  0.60626115
   0.03148173  0.55540434  0.87117747
   0.81860601  0.69488844  0.12535674
   0.90259917  0.90289314  0.49325894
   0.45126484  0.43103428  0.65371521
   0.35290055  0.82966612  0.50470806
   0.86067965  0.24587551  0.32536170
   0.14994563  0.01803178  0.55373446
   0.25038142  0.96421205  0.95586698
   0.79231167  0.47435052  0.32316359
   0.24179090  0.20139947  0.45360946
   0.70790373  0.86016655  0.24093391
   0.03783725  0.93761563  0.88945543
   0.37066410  0.19342530  0.23625102
   0.99242098  0.14722609  0.18591546
   0.91289701  0.12698228  0.57735962
   0.35243289  0.72686089  0.30007206
   0.18275388  0.10241233  0.75274934
   0.16713051  0.33486173  0.17223895
   0.08024986  0.25545237  0.60101021
   0.55048688  0.38300864  0.24595949
   0.61549345  0.59972581  0.00698510
   0.70886951  0.77689169  0.45337403
   0.69325513  0.36621611  0.65278803
   0.59361899  0.35894227  0.46607492
   0.71706385  0.06953339  0.12259507
   0.91057556  0.92708529  0.25361114
   0.08381301  0.90787796  0.13876785
   0.69360241  0.18761006  0.51155598
   0.42362462  0.70500294  0.97104006
   0.23561603  0.52017708  0.73560124
   0.55231991  0.99208436  0.78135957
   0.70516745  0.25703147  0.90731117
   0.53094277  0.98545730  0.28224691
   0.58125398  0.79613110  0.66213104
   0.47888439  0.30666024  0.83870006
   0.98136419  0.94200593  0.69416848
   0.30717518  0.19389694  0.00823903
   0.99400673  0.07814695  0.40211693
   0.33210545  0.37507370  0.35483187
   0.03990506  0.55771116  0.13285678
   0.65141320  0.65528067  0.27293519
   0.63929254  0.19510908  0.29164527
   0.05854967  0.32065209  0.37003462
   0.49183805  0.07080215  0.05985124
   0.81777540  0.66413591  0.87957225
   0.33785145  0.59664124  0.47642040
   0.80138997  0.92192827  0.85874645
   0.38685884  0.06654671  0.60335512
   0.01540488  0.74571897  0.00954710
   0.64819434  0.60300793  0.71610317
   0.01799092  0.34750646  0.97424504
   0.22261257  0.74515016  0.10849458
   0.51862660  0.79426043  0.14704722
   0.19289325  0.69193893  0.61410100
   0.74940037  0.00844982  0.39626221
   0.37575121  0.55318529  0.13550927
   0.27166045  0.38468301  0.92530210
   0.43183767  0.56478447  0.83311227
   0.00971063  0.73300860  0.75426884
   0.17977308  0.09254044  0.22710609
   0.73175393  0.13292086  0.71119672
   0.36634089  0.89070306  0.76371620
   0.33551292  0.93916047  0.16842080
   0.19964852  0.73798515  0.86597568
   0.79736927  0.76825857  0.68528923
   0.56958388  0.95714394  0.51173471
   0.61237485  0.59333948  0.48492408
   0.87432092  0.36283522  0.52807064
   0.66200700  0.87394490  0.03746658
 
 position of ions in cartesian coordinates  (Angst):
   5.57498457  2.35809850  6.64360935
   6.16209362  2.29310112  0.89055610
   1.14014943  1.24971879 10.23186569
   5.31915334  8.13999602  3.93896464
   2.24437299  5.47322926  2.54547873
   9.97185031  4.07568189  2.24670090
  10.19060840  5.28511321  4.36978794
   4.79815010  5.57700870  3.56903389
   9.52174404  1.35336294  7.98080424
  10.16268843  7.51437329  5.55975869
   1.78870196  9.13764041  7.40717813
   2.33627802  4.39254607  5.40758777
   1.29543307  3.53692607  7.97315536
   9.23656282  9.32656002  0.55817414
   3.80826764  3.64564380  1.10515625
   4.68938710  9.30842073  9.53691156
   7.05158763  0.56743951  9.44696158
   6.66029449  4.78938826  8.82547770
   6.91522960  4.97081215  1.41182612
   9.15791637  5.42063507  7.67659488
   4.01643041  6.97192975  6.85424194
   3.60041995  1.37600584  8.53060362
   3.38690506  9.95924681  3.83784846
   0.26027279  7.56813415  2.23781501
   1.95950089  5.88041315  9.96486786
   7.67203380  9.78754215  6.44244407
   6.56227629  7.73283832  8.63225371
   6.22413691  4.82960933  6.05362847
   7.04457835  6.99417589  6.16185884
   7.66159311  6.44092041  4.13670590
   2.27827230  1.65467786  6.24383665
   4.84998125  2.79567134  3.52267065
   3.71754607  4.20061738  8.15477428
   7.39782212  3.52090308  3.70305284
   8.51172739  1.41831404  2.13999273
  10.01172614  2.46760114  4.93588249
   6.27210911  9.88986847  1.50206003
   3.49603560  0.81501973  0.97466836
   9.40079090  8.65543623  8.17975675
   9.03619099  3.09178619 10.17210923
   6.38777706  0.81509057  4.30314004
   2.52439535  7.49964894  4.69045300
   9.36731095  6.26032110  0.03165418
   0.09249716  0.03838008  5.67295291
   8.20772555  2.70498057  6.46813278
   3.77986160  7.98820846  1.35408454
   1.22694571  6.36241289  7.70634164
   6.93839157  7.64552397  1.21027794
   0.61952456  0.06094573  2.77326702
   4.68734404  5.68071080 10.21940379
   2.23418958  2.59393523  3.05195950
   1.75516267  8.54057002 10.06497932
   4.78254561  9.63323659  6.54657503
   8.39639994  8.80341036  3.87819921
   5.50749298  4.28629104  0.24167799
   9.12644489  3.39171718  7.84029104
   1.45897996  8.93964552  3.72699899
   2.87745102  2.82831192  7.25418236
   1.45223444  6.62159527  3.98941398
   8.20155085  2.81546208  1.35586435
   4.68459439  1.51353270  4.36929896
   8.28373453  5.87503207  5.70841344
   9.06283749  7.11816131  3.62717329
   8.57463913  4.93432587  0.31903531
   9.16913091  1.34657622 10.02310619
   0.52604478  5.50114734  6.22198276
   0.32309306  5.70004561  8.94078604
   8.40125163  7.13155360  1.28652063
   9.26326304  9.26627998  5.06225509
   4.63127493  4.42365124  6.70899786
   3.62177448  8.51476022  5.17975606
   8.83304818  2.52338979  3.33914663
   1.53887337  0.18505790  5.68290790
   2.56963334  9.89558835  9.80994389
   8.13139605  4.86820037  3.31658772
   2.48146996  2.06693772  4.65533748
   7.26512788  8.82778230  2.47267475
   0.38831898  9.62263252  9.12837038
   3.80407952  1.98509977  2.42461485
  10.18509300  1.51096306  1.90802719
   9.36894846  1.30320339  5.92536996
   3.61697487  7.45968285  3.07960219
   1.87558037  1.05104496  7.72537285
   1.71523967  3.43664426  1.76766691
   0.82359438  2.62167593  6.16809303
   5.64957839  3.93077007  2.52425166
   6.31673275  6.15491137  0.07168726
   7.27503962  7.97314277  4.65292122
   7.11479116  3.75843035  6.69948229
   6.09223789  3.68377984  4.78326895
   7.35913713  0.71361250  1.25817794
   9.34512364  9.51456096  2.60277960
   0.86016251  9.31743855  1.42415723
   7.11835523  1.92541875  5.25003538
   4.34760675  7.23535742  9.96566336
   2.41809799  5.33851266  7.54938402
   5.66839056 10.18163835  8.01899608
   7.23704578  2.63788205  9.31162162
   5.44899958 10.11362566  2.89666492
   5.96533727  8.17059448  6.79536850
   4.91473089  3.14721593  8.60747438
  10.07161861  9.66768969  7.12416477
   3.15250066  1.98994014  0.08455614
  10.20136738  0.80201238  4.12687600
   3.40835692  3.84933476  3.64159531
   0.40954064  5.72372023  1.36349259
   6.68537263  6.72506399  2.80109989
   6.56097985  2.00238018  2.99311910
   0.60088797  3.29081248  3.79761927
   5.04767270  0.72663365  0.61424579
   8.39272722  6.81594423  9.02694054
   3.46732740  6.12325485  4.88944331
   8.22456561  9.46163509  8.81320794
   3.97028410  0.68296058  6.19215854
   0.15809835  7.65322103  0.09798073
   6.65233782  6.18859534  7.34927776
   0.18463855  3.56641559  9.99855566
   2.28464515  7.64738341  1.11346639
   5.32260023  8.15139603  1.50912733
   1.97963940  7.10128318  6.30244214
   7.69100276  0.08671947  4.06678977
   3.85628789  5.67727181  1.39071476
   2.78801743  3.94795389  9.49626034
   4.43189633  5.79631270  8.55012763
   0.09965902  7.52277611  7.74096729
   1.84498878  0.94973107  2.33076153
   7.50989951  1.36415021  7.29892342
   3.75971098  9.14117468  7.83792433
   3.44332738  9.63848709  1.72848172
   2.04896795  7.57384974  8.88740063
   8.18330162  7.88454217  7.03303809
   5.84556852  9.82304921  5.25186968
   6.28472689  6.08936923  4.97671550
   8.97304686  3.72373270  5.41952325
   6.79409551  8.96918778  0.38451489
 


--------------------------------------------------------------------------------------------------------


 k-point  1 :   0.0000 0.0000 0.0000  plane waves:   36137
 k-point  2 :   0.3333 0.0000 0.0000  plane waves:   36093
 k-point  3 :   0.0000 0.3333 0.0000  plane waves:   36093
 k-point  4 :   0.3333 0.3333 0.0000  plane waves:   36091
 k-point  5 :  -0.3333 0.3333 0.0000  plane waves:   36091
 k-point  6 :   0.0000 0.0000 0.3333  plane waves:   36093
 k-point  7 :   0.3333 0.0000 0.3333  plane waves:   36091
 k-point  8 :  -0.3333 0.0000 0.3333  plane waves:   36091
 k-point  9 :   0.0000 0.3333 0.3333  plane waves:   36091
 k-point 10 :   0.3333 0.3333 0.3333  plane waves:   36060
 k-point 11 :  -0.3333 0.3333 0.3333  plane waves:   36060
 k-point 12 :   0.0000-0.3333 0.3333  plane waves:   36091
 k-point 13 :   0.3333-0.3333 0.3333  plane waves:   36060
 k-point 14 :  -0.3333-0.3333 0.3333  plane waves:   36060

 maximum and minimum number of plane-waves per node :      3039     2965

 maximum number of plane-waves:     36137
 maximum index in each direction: 
   IXMAX=   20   IYMAX=   20   IZMAX=   20
   IXMIN=  -20   IYMIN=  -20   IZMIN=  -20


 real space projection operators:
  total allocation   :      50461.97 KBytes
  max/ min on nodes  :       4279.19       4153.08


 parallel 3D FFT for wavefunctions:
    minimum data exchange during FFTs selected (reduces bandwidth)
 parallel 3D FFT for charge:
    minimum data exchange during FFTs selected (reduces bandwidth)


 total amount of memory used by VASP MPI-rank0   169925. kBytes
=======================================================================

   base      :      30000. kBytes
   nonlr-proj:      22162. kBytes
   fftplans  :      16051. kBytes
   grid      :       9274. kBytes
   one-center:        186. kBytes
   wavefun   :      92252. kBytes
 
     INWAV:  cpu time    0.0001: real time    0.0004
 Broyden mixing: mesh for mixing (old mesh)
   NGX = 41   NGY = 41   NGZ = 41
  (NGX  =168   NGY  =168   NGZ  =168)
  gives a total of  68921 points

 initial charge density was supplied:
 charge density of overlapping atoms calculated
 number of electron     864.0000000 magnetization 
 keeping initial charge density in first step


--------------------------------------------------------------------------------------------------------


 Maximum index for non-local projection operator          667
 Maximum index for augmentation-charges         4725 (set IRDMAX)


--------------------------------------------------------------------------------------------------------


 First call to EWALD:  gamma=   0.173
 Maximum number of real-space cells 3x 3x 3
 Maximum number of reciprocal cells 3x 3x 3

    FEWALD:  cpu time    0.0050: real time    0.0050


--------------------------------------- Iteration      1(   1)  ---------------------------------------


    POTLOK:  cpu time    0.0736: real time    0.0779
    SETDIJ:  cpu time    0.2868: real time    0.2880
     EDDAV:  cpu time   43.1285: real time   43.3373
       DOS:  cpu time    0.0039: real time    0.0039
    --------------------------------------------
      LOOP:  cpu time   43.4927: real time   43.7071

 eigenvalue-minimisations  : 14560
 total energy-change (2. order) : 0.1061359E+05  (-0.4981122E+05)
 number of electron     864.0000000 magnetization 
 augmentation part      864.0000000 magnetization 

 Free energy of the ion-electron system (eV)
  ---------------------------------------------------
  alpha Z        PSCENC =      4420.68831078
  Ewald energy   TEWEN  =    -58234.41543577
  -Hartree energ DENC   =    -11239.10309904
  -exchange      EXHF   =         0.00000000
  -V(xc)+E(xc)   XCENC  =      3304.94092790
  PAW double counting   =     50594.51003143   -49994.65612350
  entropy T*S    EENTRO =        -0.02777588
  eigenvalues    EBANDS =      6793.11259974
  atomic energy  EATOM  =     64968.54023382
  Solvation  Ediel_sol  =         0.00000000
  ---------------------------------------------------
  free energy    TOTEN  =     10613.58966949 eV

  energy without entropy =    10613.61744536  energy(sigma->0) =    10613.60355743


--------------------------------------------------------------------------------------------------------




--------------------------------------- Iteration      1(   2)  ---------------------------------------


     EDDAV:  cpu time   46.5989: real time   46.7953
       DOS:  cpu time    0.0016: real time    0.0016
    --------------------------------------------
      LOOP:  cpu time   46.6005: real time   46.7969

 eigenvalue-minimisations  : 16280
 total energy-change (2. order) :-0.1031316E+05  (-0.9876127E+04)
 number of electron     864.0000000 magnetization 
 augmentation part      864.0000000 magnetization 

 Free energy of the ion-electron system (eV)
  ---------------------------------------------------
  alpha Z        PSCENC =      4420.68831078
  Ewald energy   TEWEN  =    -58234.41543577
  -Hartree energ DENC   =    -11239.10309904
  -exchange      EXHF   =         0.00000000
  -V(xc)+E(xc)   XCENC  =      3304.94092790
  PAW double counting   =     50594.51003143   -49994.65612350
  entropy T*S    EENTRO =        -0.00000000
  eigenvalues    EBANDS =     -3520.07456613
  atomic energy  EATOM  =     64968.54023382
  Solvation  Ediel_sol  =         0.00000000
  ---------------------------------------------------
  free energy    TOTEN  =       300.43027949 eV

  energy without entropy =      300.43027949  energy(sigma->0) =      300.43027949


--------------------------------------------------------------------------------------------------------




--------------------------------------- Iteration      1(   3)  ---------------------------------------


     EDDAV:  cpu time   48.3047: real time   48.5726
       DOS:  cpu time    0.0016: real time    0.0016
    --------------------------------------------
      LOOP:  cpu time   48.3063: real time   48.5742

 eigenvalue-minimisations  : 16944
 total energy-change (2. order) :-0.1209227E+04  (-0.1197764E+04)
 number of electron     864.0000000 magnetization 
 augmentation part      864.0000000 magnetization 

 Free energy of the ion-electron system (eV)
  ---------------------------------------------------
  alpha Z        PSCENC =      4420.68831078
  Ewald energy   TEWEN  =    -58234.41543577
  -Hartree energ DENC   =    -11239.10309904
  -exchange      EXHF   =         0.00000000
  -V(xc)+E(xc)   XCENC  =      3304.94092790
  PAW double counting   =     50594.51003143   -49994.65612350
  entropy T*S    EENTRO =        -0.00000000
  eigenvalues    EBANDS =     -4729.30187398
  atomic energy  EATOM  =     64968.54023382
  Solvation  Ediel_sol  =         0.00000000
  ---------------------------------------------------
  free energy    TOTEN  =      -908.79702837 eV

  energy without entropy =     -908.79702837  energy(sigma->0) =     -908.79702837


--------------------------------------------------------------------------------------------------------




--------------------------------------- Iteration      1(   4)  ---------------------------------------


     EDDAV:  cpu time   57.5152: real time   57.8160
       DOS:  cpu time    0.0015: real time    0.0015
    --------------------------------------------
      LOOP:  cpu time   57.5168: real time   57.8175

 eigenvalue-minimisations  : 21248
 total energy-change (2. order) :-0.6465115E+02  (-0.6442613E+02)
 number of electron     864.0000000 magnetization 
 augmentation part      864.0000000 magnetization 

 Free energy of the ion-electron system (eV)
  ---------------------------------------------------
  alpha Z        PSCENC =      4420.68831078
  Ewald energy   TEWEN  =    -58234.41543577
  -Hartree energ DENC   =    -11239.10309904
  -exchange      EXHF   =         0.00000000
  -V(xc)+E(xc)   XCENC  =      3304.94092790
  PAW double counting   =     50594.51003143   -49994.65612350
  entropy T*S    EENTRO =        -0.00000000
  eigenvalues    EBANDS =     -4793.95302144
  atomic energy  EATOM  =     64968.54023382
  Solvation  Ediel_sol  =         0.00000000
  ---------------------------------------------------
  free energy    TOTEN  =      -973.44817582 eV

  energy without entropy =     -973.44817582  energy(sigma->0) =     -973.44817582


--------------------------------------------------------------------------------------------------------




--------------------------------------- Iteration      1(   5)  ---------------------------------------


     EDDAV:  cpu time   61.8372: real time   62.1154
       DOS:  cpu time    0.0015: real time    0.0015
    CHARGE:  cpu time    1.2856: real time    1.2892
    MIXING:  cpu time    0.0041: real time    0.0041
    --------------------------------------------
      LOOP:  cpu time   63.1285: real time   63.4102

 eigenvalue-minimisations  : 23248
 total energy-change (2. order) :-0.4455207E+01  (-0.4452568E+01)
 number of electron     864.0000007 magnetization 
 augmentation part      134.2823471 magnetization 

 Broyden mixing:
  rms(total) = 0.90898E+01    rms(broyden)= 0.90892E+01
  rms(prec ) = 0.10753E+02
  weight for this iteration     100.00

 Free energy of the ion-electron system (eV)
  ---------------------------------------------------
  alpha Z        PSCENC =      4420.68831078
  Ewald energy   TEWEN  =    -58234.41543577
  -Hartree energ DENC   =    -11239.10309904
  -exchange      EXHF   =         0.00000000
  -V(xc)+E(xc)   XCENC  =      3304.94092790
  PAW double counting   =     50594.51003143   -49994.65612350
  entropy T*S    EENTRO =        -0.00000000
  eigenvalues    EBANDS =     -4798.40822846
  atomic energy  EATOM  =     64968.54023382
  Solvation  Ediel_sol  =         0.00000000
  ---------------------------------------------------
  free energy    TOTEN  =      -977.90338284 eV

  energy without entropy =     -977.90338284  energy(sigma->0) =     -977.90338284


--------------------------------------------------------------------------------------------------------




--------------------------------------- Iteration      1(   6)  ---------------------------------------


    POTLOK:  cpu time    0.0711: real time    0.0791
    SETDIJ:  cpu time    0.2876: real time    0.2887
     EDDAV:  cpu time   49.1413: real time   49.3569
       DOS:  cpu time    0.0015: real time    0.0015
    CHARGE:  cpu time    1.2639: real time    1.2675
    MIXING:  cpu time    0.0029: real time    0.0030
    --------------------------------------------
      LOOP:  cpu time   50.7683: real time   50.9966

 eigenvalue-minimisations  : 17328
 total energy-change (2. order) : 0.1334987E+03  (-0.5125119E+02)
 number of electron     864.0000007 magnetization 
 augmentation part      123.8933374 magnetization 

 Broyden mixing:
  rms(total) = 0.39051E+01    rms(broyden)= 0.39043E+01
  rms(prec ) = 0.41261E+01
  weight for this iteration     100.00

 eigenvalues of (default mixing * dielectric matrix)
  average eigenvalue GAMMA=   1.2114
  1.2114

 Free energy of the ion-electron system (eV)
  ---------------------------------------------------
  alpha Z        PSCENC =      4420.68831078
  Ewald energy   TEWEN  =    -58234.41543577
  -Hartree energ DENC   =    -12304.42136123
  -exchange      EXHF   =         0.00000000
  -V(xc)+E(xc)   XCENC  =      3382.85869689
  PAW double counting   =     70604.69727725   -70137.53333220
  entropy T*S    EENTRO =        -0.00000000
  eigenvalues    EBANDS =     -3544.81905241
  atomic energy  EATOM  =     64968.54023382
  Solvation  Ediel_sol  =         0.00000000
  ---------------------------------------------------
  free energy    TOTEN  =      -844.40466288 eV

  energy without entropy =     -844.40466288  energy(sigma->0) =     -844.40466288


--------------------------------------------------------------------------------------------------------




--------------------------------------- Iteration      1(   7)  ---------------------------------------


    POTLOK:  cpu time    0.0705: real time    0.0771
    SETDIJ:  cpu time    0.2842: real time    0.2879
     EDDAV:  cpu time   50.8188: real time   51.0581
       DOS:  cpu time    0.0015: real time    0.0015
    CHARGE:  cpu time    1.2558: real time    1.2595
    MIXING:  cpu time    0.0035: real time    0.0035
    --------------------------------------------
      LOOP:  cpu time   52.4344: real time   52.6876

 eigenvalue-minimisations  : 18080
 total energy-change (2. order) :-0.1452559E+01  (-0.7417027E+01)
 number of electron     864.0000007 magnetization 
 augmentation part      121.1893452 magnetization 

 Broyden mixing:
  rms(total) = 0.17184E+01    rms(broyden)= 0.17184E+01
  rms(prec ) = 0.18695E+01
  weight for this iteration     100.00

 eigenvalues of (default mixing * dielectric matrix)
  average eigenvalue GAMMA=   1.3028
  1.3028  1.3028

 Free energy of the ion-electron system (eV)
  ---------------------------------------------------
  alpha Z        PSCENC =      4420.68831078
  Ewald energy   TEWEN  =    -58234.41543577
  -Hartree energ DENC   =    -12462.77849662
  -exchange      EXHF   =         0.00000000
  -V(xc)+E(xc)   XCENC  =      3394.94947730
  PAW double counting   =     92458.13383238   -92054.14783224
  entropy T*S    EENTRO =        -0.00000000
  eigenvalues    EBANDS =     -3336.82731146
  atomic energy  EATOM  =     64968.54023382
  Solvation  Ediel_sol  =         0.00000000
  ---------------------------------------------------
  free energy    TOTEN  =      -845.85722181 eV

  energy without entropy =     -845.85722181  energy(sigma->0) =     -845.85722181


--------------------------------------------------------------------------------------------------------




--------------------------------------- Iteration      1(   8)  ---------------------------------------


    POTLOK:  cpu time    0.0709: real time    0.0788
    SETDIJ:  cpu time    0.2846: real time    0.2872
     EDDAV:  cpu time   52.0797: real time   52.2910
       DOS:  cpu time    0.0015: real time    0.0015
    CHARGE:  cpu time    1.2529: real time    1.2566
    MIXING:  cpu time    0.0030: real time    0.0030
    --------------------------------------------
      LOOP:  cpu time   53.6928: real time   53.9182

 eigenvalue-minimisations  : 18736
 total energy-change (2. order) : 0.7759264E+00  (-0.1142749E+01)
 number of electron     864.0000007 magnetization 
 augmentation part      121.4124760 magnetization 

 Broyden mixing:
  rms(total) = 0.70434E+00    rms(broyden)= 0.70424E+00
  rms(prec ) = 0.81553E+00
  weight for this iteration     100.00

 eigenvalues of (default mixing * dielectric matrix)
  average eigenvalue GAMMA=   1.3972
  2.1173  1.0371  1.0371

 Free energy of the ion-electron system (eV)
  ---------------------------------------------------
  alpha Z        PSCENC =      4420.68831078
  Ewald energy   TEWEN  =    -58234.41543577
  -Hartree energ DENC   =    -12412.93739743
  -exchange      EXHF   =         0.00000000
  -V(xc)+E(xc)   XCENC  =      3392.17189411
  PAW double counting   =    102822.13127358  -102444.98707681
  entropy T*S    EENTRO =        -0.00000000
  eigenvalues    EBANDS =     -3356.27309766
  atomic energy  EATOM  =     64968.54023382
  Solvation  Ediel_sol  =         0.00000000
  ---------------------------------------------------
  free energy    TOTEN  =      -845.08129537 eV

  energy without entropy =     -845.08129537  energy(sigma->0) =     -845.08129537


--------------------------------------------------------------------------------------------------------




--------------------------------------- Iteration      1(   9)  ---------------------------------------


    POTLOK:  cpu time    0.0720: real time    0.0791
    SETDIJ:  cpu time    0.2872: real time    0.2880
     EDDAV:  cpu time   49.3646: real time   49.6027
       DOS:  cpu time    0.0015: real time    0.0015
    CHARGE:  cpu time    1.2532: real time    1.2568
    MIXING:  cpu time    0.0036: real time    0.0036
    --------------------------------------------
      LOOP:  cpu time   50.9820: real time   51.2318

 eigenvalue-minimisations  : 17360
 total energy-change (2. order) : 0.2509071E+00  (-0.2525388E+00)
 number of electron     864.0000007 magnetization 
 augmentation part      120.7026984 magnetization 

 Broyden mixing:
  rms(total) = 0.21413E+00    rms(broyden)= 0.21410E+00
  rms(prec ) = 0.24835E+00
  weight for this iteration     100.00

 eigenvalues of (default mixing * dielectric matrix)
  average eigenvalue GAMMA=   1.3938
  2.2140  1.3918  0.9848  0.9848

 Free energy of the ion-electron system (eV)
  ---------------------------------------------------
  alpha Z        PSCENC =      4420.68831078
  Ewald energy   TEWEN  =    -58234.41543577
  -Hartree energ DENC   =    -12475.89916213
  -exchange      EXHF   =         0.00000000
  -V(xc)+E(xc)   XCENC  =      3397.29886794
  PAW double counting   =    110565.40711585  -110206.01848735
  entropy T*S    EENTRO =        -0.00000000
  eigenvalues    EBANDS =     -3280.43183140
  atomic energy  EATOM  =     64968.54023382
  Solvation  Ediel_sol  =         0.00000000
  ---------------------------------------------------
  free energy    TOTEN  =      -844.83038826 eV

  energy without entropy =     -844.83038826  energy(sigma->0) =     -844.83038826


--------------------------------------------------------------------------------------------------------




--------------------------------------- Iteration      1(  10)  ---------------------------------------


    POTLOK:  cpu time    0.0717: real time    0.0800
    SETDIJ:  cpu time    0.2865: real time    0.2875
     EDDAV:  cpu time   56.5963: real time   56.8751
       DOS:  cpu time    0.0015: real time    0.0015
    CHARGE:  cpu time    1.2487: real time    1.2524
    MIXING:  cpu time    0.0035: real time    0.0035
    --------------------------------------------
      LOOP:  cpu time   58.2081: real time   58.5000

 eigenvalue-minimisations  : 20800
 total energy-change (2. order) :-0.5873723E-01  (-0.8981056E-01)
 number of electron     864.0000007 magnetization 
 augmentation part      120.5093833 magnetization 

 Broyden mixing:
  rms(total) = 0.16281E+00    rms(broyden)= 0.16279E+00
  rms(prec ) = 0.18095E+00
  weight for this iteration     100.00

 eigenvalues of (default mixing * dielectric matrix)
  average eigenvalue GAMMA=   1.3619
  2.2881  1.5507  1.2134  0.8786  0.8786

 Free energy of the ion-electron system (eV)
  ---------------------------------------------------
  alpha Z        PSCENC =      4420.68831078
  Ewald energy   TEWEN  =    -58234.41543577
  -Hartree energ DENC   =    -12480.55771740
  -exchange      EXHF   =         0.00000000
  -V(xc)+E(xc)   XCENC  =      3397.79795430
  PAW double counting   =    111420.67620571  -111060.63373770
  entropy T*S    EENTRO =        -0.00000000
  eigenvalues    EBANDS =     -3276.98493924
  atomic energy  EATOM  =     64968.54023382
  Solvation  Ediel_sol  =         0.00000000
  ---------------------------------------------------
  free energy    TOTEN  =      -844.88912549 eV

  energy without entropy =     -844.88912549  energy(sigma->0) =     -844.88912549


--------------------------------------------------------------------------------------------------------




--------------------------------------- Iteration      1(  11)  ---------------------------------------


    POTLOK:  cpu time    0.0721: real time    0.0784
    SETDIJ:  cpu time    0.2863: real time    0.2872
     EDDAV:  cpu time   51.0173: real time   51.2793
       DOS:  cpu time    0.0014: real time    0.0014
    CHARGE:  cpu time    1.2593: real time    1.2682
    MIXING:  cpu time    0.0034: real time    0.0034
    --------------------------------------------
      LOOP:  cpu time   52.6398: real time   52.9179

 eigenvalue-minimisations  : 18248
 total energy-change (2. order) : 0.2378484E-02  (-0.1258548E-01)
 number of electron     864.0000007 magnetization 
 augmentation part      120.4499719 magnetization 

 Broyden mixing:
  rms(total) = 0.82271E-01    rms(broyden)= 0.82263E-01
  rms(prec ) = 0.92578E-01
  weight for this iteration     100.00

 eigenvalues of (default mixing * dielectric matrix)
  average eigenvalue GAMMA=   1.4214
  2.2808  2.2808  1.0421  1.0421  0.9413  0.9413

 Free energy of the ion-electron system (eV)
  ---------------------------------------------------
  alpha Z        PSCENC =      4420.68831078
  Ewald energy   TEWEN  =    -58234.41543577
  -Hartree energ DENC   =    -12489.15340409
  -exchange      EXHF   =         0.00000000
  -V(xc)+E(xc)   XCENC  =      3398.42899222
  PAW double counting   =    111238.08109242  -110876.11320730
  entropy T*S    EENTRO =        -0.00000000
  eigenvalues    EBANDS =     -3270.94332909
  atomic energy  EATOM  =     64968.54023382
  Solvation  Ediel_sol  =         0.00000000
  ---------------------------------------------------
  free energy    TOTEN  =      -844.88674701 eV

  energy without entropy =     -844.88674701  energy(sigma->0) =     -844.88674701


--------------------------------------------------------------------------------------------------------




--------------------------------------- Iteration      1(  12)  ---------------------------------------


    POTLOK:  cpu time    0.0716: real time    0.0783
    SETDIJ:  cpu time    0.2829: real time    0.2869
     EDDAV:  cpu time   51.3341: real time   51.5282
       DOS:  cpu time    0.0015: real time    0.0015
    CHARGE:  cpu time    1.2733: real time    1.2871
    MIXING:  cpu time    0.0030: real time    0.0030
    --------------------------------------------
      LOOP:  cpu time   52.9664: real time   53.1849

 eigenvalue-minimisations  : 18344
 total energy-change (2. order) : 0.1825774E-02  (-0.4027682E-02)
 number of electron     864.0000007 magnetization 
 augmentation part      120.4872474 magnetization 

 Broyden mixing:
  rms(total) = 0.17821E-01    rms(broyden)= 0.17806E-01
  rms(prec ) = 0.21971E-01
  weight for this iteration     100.00

 eigenvalues of (default mixing * dielectric matrix)
  average eigenvalue GAMMA=   1.4114
  2.4691  2.4691  1.0346  1.0359  1.0359  0.9177  0.9177

 Free energy of the ion-electron system (eV)
  ---------------------------------------------------
  alpha Z        PSCENC =      4420.68831078
  Ewald energy   TEWEN  =    -58234.41543577
  -Hartree energ DENC   =    -12488.02907055
  -exchange      EXHF   =         0.00000000
  -V(xc)+E(xc)   XCENC  =      3398.34174883
  PAW double counting   =    110935.16502887  -110570.76309723
  entropy T*S    EENTRO =        -0.00000000
  eigenvalues    EBANDS =     -3274.41263998
  atomic energy  EATOM  =     64968.54023382
  Solvation  Ediel_sol  =         0.00000000
  ---------------------------------------------------
  free energy    TOTEN  =      -844.88492124 eV

  energy without entropy =     -844.88492124  energy(sigma->0) =     -844.88492124


--------------------------------------------------------------------------------------------------------




--------------------------------------- Iteration      1(  13)  ---------------------------------------


    POTLOK:  cpu time    0.0725: real time    0.0780
    SETDIJ:  cpu time    0.2869: real time    0.2878
     EDDAV:  cpu time   56.3390: real time   56.5529
       DOS:  cpu time    0.0014: real time    0.0014
    CHARGE:  cpu time    1.2524: real time    1.2559
    MIXING:  cpu time    0.0034: real time    0.0034
    --------------------------------------------
      LOOP:  cpu time   57.9556: real time   58.1793

 eigenvalue-minimisations  : 20768
 total energy-change (2. order) :-0.5605677E-03  (-0.7611771E-03)
 number of electron     864.0000007 magnetization 
 augmentation part      120.4908401 magnetization 

 Broyden mixing:
  rms(total) = 0.13322E-01    rms(broyden)= 0.13321E-01
  rms(prec ) = 0.15286E-01
  weight for this iteration     100.00

 eigenvalues of (default mixing * dielectric matrix)
  average eigenvalue GAMMA=   1.3502
  2.5931  2.4521  1.2442  0.9128  0.9128  0.9932  0.9179  0.7760

 Free energy of the ion-electron system (eV)
  ---------------------------------------------------
  alpha Z        PSCENC =      4420.68831078
  Ewald energy   TEWEN  =    -58234.41543577
  -Hartree energ DENC   =    -12489.39365117
  -exchange      EXHF   =         0.00000000
  -V(xc)+E(xc)   XCENC  =      3398.42947183
  PAW double counting   =    110832.72957481  -110467.50327353
  entropy T*S    EENTRO =        -0.00000000
  eigenvalues    EBANDS =     -3273.96071257
  atomic energy  EATOM  =     64968.54023382
  Solvation  Ediel_sol  =         0.00000000
  ---------------------------------------------------
  free energy    TOTEN  =      -844.88548180 eV

  energy without entropy =     -844.88548180  energy(sigma->0) =     -844.88548180


--------------------------------------------------------------------------------------------------------




--------------------------------------- Iteration      1(  14)  ---------------------------------------


    POTLOK:  cpu time    0.0706: real time    0.0772
    SETDIJ:  cpu time    0.2862: real time    0.2870
     EDDAV:  cpu time   51.6584: real time   51.8875
       DOS:  cpu time    0.0014: real time    0.0014
    CHARGE:  cpu time    1.2771: real time    1.2940
    MIXING:  cpu time    0.0031: real time    0.0031
    --------------------------------------------
      LOOP:  cpu time   53.2967: real time   53.5503

 eigenvalue-minimisations  : 18488
 total energy-change (2. order) :-0.6049390E-04  (-0.1592742E-03)
 number of electron     864.0000007 magnetization 
 augmentation part      120.4914332 magnetization 

 Broyden mixing:
  rms(total) = 0.93489E-02    rms(broyden)= 0.93483E-02
  rms(prec ) = 0.10354E-01
  weight for this iteration     100.00

 eigenvalues of (default mixing * dielectric matrix)
  average eigenvalue GAMMA=   1.3752
  2.7440  2.3498  1.6671  0.9953  0.9953  0.9059  0.9059  0.9069  0.9069

 Free energy of the ion-electron system (eV)
  ---------------------------------------------------
  alpha Z        PSCENC =      4420.68831078
  Ewald energy   TEWEN  =    -58234.41543577
  -Hartree energ DENC   =    -12489.84880391
  -exchange      EXHF   =         0.00000000
  -V(xc)+E(xc)   XCENC  =      3398.45995944
  PAW double counting   =    110836.09168076  -110470.75398140
  entropy T*S    EENTRO =        -0.00000000
  eigenvalues    EBANDS =     -3273.64750602
  atomic energy  EATOM  =     64968.54023382
  Solvation  Ediel_sol  =         0.00000000
  ---------------------------------------------------
  free energy    TOTEN  =      -844.88554230 eV

  energy without entropy =     -844.88554230  energy(sigma->0) =     -844.88554230


--------------------------------------------------------------------------------------------------------




[...]
   0.126E+02 -.339E+02 -.351E+02   -.322E+02 0.498E+02 0.410E+02   0.191E+02 -.168E+02 -.103E+01   -.306E-03 0.636E-03 -.545E-03
   -.540E+01 -.379E+02 -.676E+02   0.760E+01 0.371E+02 0.858E+02   -.376E+01 0.522E+01 -.138E+02   -.252E-03 -.930E-03 -.357E-03
   0.808E+02 -.259E+02 0.449E+01   -.910E+02 0.139E+02 0.105E+01   0.754E+01 0.159E+02 -.754E+01   -.341E-03 -.735E-03 -.291E-05
   -.821E+02 0.107E+02 -.561E+02   0.894E+02 -.402E+01 0.415E+02   -.403E+01 -.781E+01 0.160E+02   -.648E-03 0.327E-03 -.197E-03
   0.187E+01 -.624E+02 -.423E+02   -.785E+01 0.625E+02 0.319E+02   0.577E+01 0.764E-01 0.137E+02   -.430E-03 -.140E-03 0.523E-04
   -.119E+03 -.945E+02 -.162E+01   0.125E+03 0.884E+02 -.545E+01   -.355E+01 0.984E+01 0.449E+01   -.902E-03 -.712E-04 0.849E-03
   -.157E+02 -.541E+01 0.330E+02   0.214E+02 0.100E+02 -.293E+02   -.338E+01 -.372E+01 -.408E+01   -.635E-03 -.794E-03 -.116E-03
   0.487E+02 -.290E+02 0.360E+02   -.521E+02 0.421E+02 -.524E+02   0.214E+00 -.740E+01 0.188E+02   0.678E-03 0.884E-04 0.459E-03
   -.709E+02 0.226E+02 0.990E+01   0.838E+02 -.273E+02 -.191E+02   -.991E+01 0.204E+01 0.985E+01   -.273E-03 -.249E-03 -.588E-03
   0.115E+02 -.968E+02 0.632E+02   -.310E+01 0.103E+03 -.588E+02   -.726E+01 -.526E+01 -.723E+01   0.188E-03 0.197E-03 0.161E-03
   -.100E+02 -.680E+02 0.769E+02   0.471E+01 0.674E+02 -.888E+02   0.747E+01 0.411E+01 0.140E+02   -.371E-03 -.788E-03 0.234E-03
   0.515E+02 -.663E+02 -.629E+01   -.675E+02 0.683E+02 0.178E+02   0.163E+02 -.251E+00 -.105E+02   0.172E-03 0.116E-03 0.444E-03
   0.123E+03 -.252E+02 0.410E+02   -.126E+03 0.338E+02 -.345E+02   -.859E+00 -.810E+01 -.110E+02   0.446E-03 0.345E-03 -.665E-04
   -.544E+02 0.551E+02 -.149E+02   0.732E+02 -.671E+02 0.273E+02   -.187E+02 0.113E+02 -.130E+02   0.111E-03 -.394E-03 -.308E-03
   -.146E+02 -.357E+02 0.156E+02   0.209E+02 0.411E+02 -.646E+01   -.859E+01 -.408E+01 -.130E+02   -.140E-03 0.382E-03 -.244E-03
   0.470E+02 -.363E+02 0.255E+01   -.548E+02 0.662E+02 -.201E+02   0.591E+01 -.295E+02 0.179E+02   0.610E-03 -.396E-03 0.315E-03
   -.597E+02 -.339E+02 0.567E+02   0.460E+02 0.381E+02 -.618E+02   0.169E+02 -.262E+01 0.482E+01   -.589E-03 -.117E-03 0.170E-03
   -.112E+02 0.299E+02 -.781E+02   0.783E+01 -.172E+02 0.835E+02   0.517E+01 -.123E+02 -.630E+01   0.197E-03 0.213E-04 0.149E-03
   0.110E+02 0.683E+02 0.329E+02   -.626E+01 -.715E+02 -.330E+02   -.463E+01 0.313E+01 -.766E+00   0.142E-03 0.259E-04 0.862E-03
   0.206E+02 0.599E+02 0.469E+02   -.308E+02 -.580E+02 -.546E+02   0.817E+01 -.473E+01 0.723E+01   -.357E-03 0.182E-03 0.285E-03
   -.325E+00 0.839E+01 -.333E+02   0.933E+00 -.132E+02 0.194E+02   -.589E+00 0.616E+01 0.156E+02   -.355E-03 -.438E-03 -.210E-03
   -.894E+02 0.575E+02 -.272E+02   0.947E+02 -.530E+02 0.160E+02   -.842E+00 -.374E+01 0.140E+02   -.499E-03 0.643E-04 -.115E-03
   0.553E+02 -.954E+01 0.278E+02   -.447E+02 0.160E+02 -.363E+02   -.823E+01 -.107E+02 0.658E+01   0.441E-03 0.571E-03 0.290E-03
   0.972E-01 0.729E+01 -.685E+02   -.102E+02 -.799E+00 0.576E+02   0.110E+02 -.619E+01 0.134E+02   -.490E-03 -.155E-03 -.315E-03
   -.427E+02 0.615E+02 -.619E+02   0.490E+02 -.739E+02 0.655E+02   -.506E+01 0.115E+02 -.143E+01   0.101E-03 0.145E-03 -.638E-03
   -.330E+01 0.115E+02 -.698E+01   -.139E+02 -.559E+00 0.168E+02   0.176E+02 -.126E+02 -.112E+02   -.405E-03 0.696E-03 0.185E-04
   0.282E+02 -.437E+02 0.205E+02   -.321E+02 0.599E+02 -.319E+02   0.579E+00 -.139E+02 0.131E+02   0.850E-03 0.682E-04 -.674E-03
   0.101E+02 0.354E+02 0.547E+02   -.886E+01 -.292E+02 -.557E+02   -.201E+01 -.806E+01 -.111E+01   -.343E-03 0.443E-03 0.103E-02
   0.748E+02 0.109E+03 0.853E+00   -.802E+02 -.118E+03 0.291E+02   0.210E+01 0.631E+00 -.294E+02   0.374E-03 0.542E-03 -.159E-03
   -.623E+02 0.141E+02 -.155E+02   0.954E+02 0.198E+01 0.131E+02   -.286E+02 -.169E+02 0.259E+01   -.611E-03 -.723E-03 0.200E-03
   -.359E+02 0.401E+01 -.411E+02   0.140E+02 -.167E+02 0.572E+02   0.208E+02 0.105E+02 -.176E+02   0.106E-03 0.327E-04 0.836E-03
   0.637E+02 0.456E+02 0.201E+01   -.559E+02 -.440E+02 0.452E+01   -.701E+01 -.171E+01 -.453E+01   0.243E-03 0.536E-03 0.676E-03
   -.375E+02 -.516E+02 0.212E+02   0.398E+02 0.471E+02 -.208E+02   -.295E+01 0.980E+01 -.524E+00   0.446E-03 0.951E-04 -.707E-03
   -.445E+02 -.825E+02 0.451E+02   0.667E+02 0.859E+02 -.472E+02   -.180E+02 -.476E+01 0.238E+00   -.651E-03 0.262E-03 0.459E-03
   -.120E+02 -.591E+02 0.570E+01   0.669E+01 0.644E+02 0.106E+02   0.679E+01 -.376E+01 -.177E+02   0.940E-04 -.844E-03 0.727E-03
   0.461E+02 0.303E+02 -.472E+02   -.590E+02 -.411E+02 0.664E+02   0.131E+02 0.130E+02 -.198E+02   0.382E-03 -.344E-03 -.981E-05
   0.774E+01 -.375E+01 0.337E+02   -.716E+01 0.196E+02 -.476E+02   0.373E+00 -.205E+02 0.153E+02   0.426E-03 -.247E-03 -.999E-04
   0.176E+01 0.512E+01 -.244E+02   -.116E+01 -.886E+01 0.230E+02   0.287E+00 0.239E+01 -.106E+01   -.244E-03 0.383E-03 -.692E-03
   -.306E+02 -.242E+02 -.242E+02   0.422E+02 0.267E+02 0.137E+02   -.556E+01 0.889E+00 0.117E+02   -.318E-04 -.579E-04 0.505E-03
   0.872E+02 -.472E+02 -.569E+02   -.100E+03 0.366E+02 0.671E+02   0.133E+02 0.125E+02 -.837E+01   0.156E-03 0.314E-04 -.481E-03
   0.121E+02 0.298E+02 0.497E+02   -.230E+02 -.333E+02 -.382E+02   0.113E+02 0.851E+00 -.157E+02   0.390E-03 0.815E-03 -.391E-03
   0.460E+02 -.304E+01 -.659E+01   -.548E+02 -.133E+01 0.219E+02   0.939E+01 0.242E+01 -.167E+02   0.560E-03 0.348E-03 0.957E-03
   -.112E+03 -.780E+01 0.233E+02   0.125E+03 0.175E+01 -.380E+02   -.111E+02 0.387E+01 0.105E+02   -.265E-03 0.325E-03 0.241E-03
   -.422E+02 0.248E+02 -.251E+00   0.489E+02 -.252E+02 0.573E+01   -.451E+01 -.367E-01 -.684E+01   -.592E-03 0.625E-03 -.476E-03
   0.698E+02 -.497E+02 -.335E+02   -.635E+02 0.368E+02 0.285E+02   -.786E+01 0.135E+02 0.658E+01   0.282E-03 0.369E-03 -.509E-03
   0.108E+03 0.791E+02 -.253E+02   -.131E+03 -.768E+02 0.935E+01   0.180E+02 -.339E+01 0.172E+02   -.177E-03 0.164E-03 -.616E-03
   0.588E+01 -.207E+02 0.244E+00   -.746E+01 0.515E+02 -.238E+01   0.219E+01 -.327E+02 0.345E+00   -.564E-04 -.214E-03 -.111E-03
   -.206E+02 0.375E+02 0.840E+02   0.315E+02 -.335E+02 -.115E+03   -.863E+01 -.352E+01 0.212E+02   0.318E-04 0.726E-03 0.615E-03
 -----------------------------------------------------------------------------------------------
   0.118E+03 0.926E+02 0.134E+02   -.551E-12 0.924E-13 -.512E-12   -.118E+03 -.926E+02 -.134E+02   -.272E-02 0.879E-03 0.124E-03
 
 
 POSITION                                       TOTAL-FORCE (eV/Angst)
 -----------------------------------------------------------------------------------
      5.57498      2.35810      6.64361        -3.197229     -3.556510      1.492869
      6.16209      2.29310      0.89056        -0.873254      6.701481     -1.727639
      1.14015      1.24972     10.23187        -3.144524      0.694169      0.779448
      5.31915      8.14000      3.93896         1.896629      1.745801     -1.390196
      2.24437      5.47323      2.54548        -0.745097      0.268444     -0.717236
      9.97185      4.07568      2.24670        -1.994650     -2.425008     -6.076026
     10.19061      5.28511      4.36979        -2.299616     -0.775807      0.276584
      4.79815      5.57701      3.56903         0.102449      0.041596     -2.931576
      9.52174      1.35336      7.98080         2.719739     -2.121650      4.228496
     10.16269      7.51437      5.55976         0.766276     -0.414367      1.079889
      1.78870      9.13764      7.40718         1.383640      0.709041      0.562635
      2.33628      4.39255      5.40759         0.563922     -0.431640      1.766115
      1.29543      3.53693      7.97316        -8.100464      1.292045      4.432053
      9.23656      9.32656      0.55817        -1.660645      1.452919     -1.626379
      3.80827      3.64564      1.10516        -1.850057     -1.776937     -0.288028
      4.68939      9.30842      9.53691        -0.769831     -1.644880      1.124644
      7.05159      0.56744      9.44696        -0.269479      3.941865     -3.477941
      6.66029      4.78939      8.82548         1.836373     -5.549238     -0.013659
      6.91523      4.97081      1.41183         4.062672     -0.376261      3.987935
      9.15792      5.42064      7.67659        -4.337566     -0.708276     -3.430808
      4.01643      6.97193      6.85424         0.352580     -0.563609      1.326437
      3.60042      1.37601      8.53060         5.004971     -2.156124     -0.614502
      3.38691      9.95925      3.83785        -1.179333      5.122981     -0.943154
      0.26027      7.56813      2.23782         1.524612      0.908005      1.112175
      1.95950      5.88041      9.96487         2.473056     -2.608254      5.401133
      7.67203      9.78754      6.44244        -1.734155      1.756320     -0.127482
      6.56228      7.73284      8.63225         0.574963      2.090352      4.346215
      6.22414      4.82961      6.05363        -4.507212     -1.426830      2.117015
      7.04458      6.99418      6.16186         4.697574     10.224659      1.031274
      7.66159      6.44092      4.13671         3.059534     -3.236937     -6.836058
      2.27827      1.65468      6.24384         0.242133     -2.993223     -1.750755
      4.84998      2.79567      3.52267         0.283531      0.874557     -1.688488
      3.71755      4.20062      8.15477         2.739048      0.171690      0.388700
      7.39782      3.52090      3.70305         0.043116     -7.319449      0.465424
      8.51173      1.41831      2.13999         3.829623      0.211299      1.423201
     10.01173      2.46760      4.93588         0.862519     -1.653606     -4.503927
      6.27211      9.88987      1.50206        -4.634326     -0.892886      9.159465
      3.49604      0.81502      0.97467        -1.922311     -3.435218      6.363507
      9.40079      8.65544      8.17976        -0.056188     -1.332452      2.486897
      9.03619      3.09179     10.17211        -7.837373     -3.457919     -2.721251
      6.38778      0.81509      4.30314        -5.828048      1.249469     -2.426143
      2.52440      7.49965      4.69045         0.644773     -0.265633     -1.782216
      9.36731      6.26032      0.03165         2.783917      4.082657      0.620988
      0.09250      0.03838      5.67295        -6.759626      0.067647     -4.386110
      8.20773      2.70498      6.46813        -0.059691     -4.276233      2.373162
      3.77986      7.98821      1.35408        -0.212783     -1.415221      3.746460
      1.22695      6.36241      7.70634        -0.230110      3.125894     -3.226222
      6.93839      7.64552      1.21028        -2.268433     -4.225607      5.194417
      0.61952      0.06095      2.77327        -2.140300     -2.206169     -0.951521
      4.68734      5.68071     10.21940         1.923631      2.128766     -0.613724
      2.23419      2.59394      3.05196        -1.600818     -2.932693      1.115147
      1.75516      8.54057     10.06498        -8.377088      2.961340      3.735677
      4.78255      9.63324      6.54658         0.747653     -0.571931      3.560477
      8.39640      8.80341      3.87820        -0.940226      5.191580     -9.229040
      5.50749      4.28629      0.24168        -2.841636     -1.785329     -2.074299
      9.12644      3.39172      7.84029         0.445800     -1.498457     -0.920893
      1.45898      8.93965      3.72700        -0.810127     -0.366450      1.506515
      2.87745      2.82831      7.25418         6.193317      3.556078     -4.055587
      1.45223      6.62160      3.98941        -4.778969     -1.690408     -0.629752
      8.20155      2.81546      1.35586        -0.220032      4.036066     -1.183622
      4.68459      1.51353      4.36930         4.087889      0.252567      2.957437
      8.28373      5.87503      5.70841        -0.117118      1.605556     -3.225371
      9.06284      7.11816      3.62717        -0.146995      0.812260      1.555545
      8.57464      4.93433      0.31904         0.572354     -4.488135     -2.386775
      9.16913      1.34658     10.02311         0.545563      0.728913      0.071601
      0.52604      5.50115      6.22198        -0.884044     -1.527840      3.156715
      0.32309      5.70005      8.94079         0.786404     -2.202231      0.588825
      8.40125      7.13155      1.28652         3.485575     -1.555614     -2.385655
      9.26326      9.26628      5.06226         2.742483     -1.783123      2.271760
      4.63127      4.42365      6.70900         2.699632      2.106394     -5.075789
      3.62177      8.51476      5.17976         2.350722      1.561936      4.987039
      8.83305      2.52339      3.33915        -3.032226      0.856337      5.822688
      1.53887      0.18506      5.68291         7.720086     -0.418902     -0.418336
      2.56963      9.89559      9.80994         3.282280      1.478763      0.806323
      8.13140      4.86820      3.31659        -0.523042      2.248126      1.353659
      2.48147      2.06694      4.65534         0.176532     -0.057443     -0.825945
      7.26513      8.82778      2.47267         0.660742     -1.132519     -0.203669
      0.38832      9.62263      9.12837         0.484125     -1.852915      1.665357
      3.80408      1.98510      2.42461         0.570115     -0.847563     -2.082859
     10.18509      1.51096      1.90803        -3.494773     -2.000952     -0.786969
      9.36895      1.30320      5.92537        -3.556525      2.103379      0.724795
      3.61697      7.45968      3.07960        -1.608953      0.398615     -2.406743
      1.87558      1.05104      7.72537        -4.739051     -0.922577      1.734660
      1.71524      3.43664      1.76767         1.429595      0.665063      0.126207
      0.82359      2.62168      6.16809         0.814694      0.878111     -0.694908
      5.64958      3.93077      2.52425        -1.284865     -1.686219      2.182931
      6.31673      6.15491      0.07169         0.689764      8.895136     -0.148638
      7.27504      7.97314      4.65292        -0.503459     -0.819059      4.872623
      7.11479      3.75843      6.69948        -1.556988      4.413408      4.375546
      6.09224      3.68378      4.78327        -2.675403      3.897884     -2.000632
      7.35914      0.71361      1.25818         3.284467     -1.163015      1.359815
      9.34512      9.51456      2.60278        -0.216082      0.123300      3.246069
      0.86016      9.31744      1.42416         2.450730      3.758531     -2.582936
      7.11836      1.92542      5.25004         2.271737      0.921201     -0.470364
      4.34761      7.23536      9.96566        -3.110619      5.645235      2.383748
      2.41810      5.33851      7.54938         2.977423     -2.632147      0.637941
      5.66839     10.18164      8.01900         1.132591      1.406148     -2.850582
      7.23705      2.63788      9.31162         2.139584      3.533825      2.106938
      5.44900     10.11363      2.89666         0.257939      1.813063      0.979971
      5.96534      8.17059      6.79537        -4.234775      0.425403     -4.487635
      4.91473      3.14722      8.60747         0.033250     -0.727430     -0.561563
     10.07162      9.66769      7.12416        -2.217610      1.383854     -3.821080
      3.15250      1.98994      0.08456        -1.903564      0.379610      0.316180
     10.20137      0.80201      4.12688         3.131250      1.519377     -0.329805
      3.40836      3.84933      3.64160         1.765154      0.397309     -0.878564
      0.40954      5.72372      1.36349         0.118492     -0.069452     -0.863892
      6.68537      6.72506      2.80110        -2.057867     -2.809493     -0.441299
      6.56098      2.00238      2.99312         0.018295      1.378391      1.735820
      0.60089      3.29081      3.79762         4.524967      0.677447      2.842843
      5.04767      0.72663      0.61425         2.399334     -4.242656     -1.854276
      8.39273      6.81594      9.02694         0.907256      0.303352      2.526717
      3.46733      6.12325      4.88944         1.241165     -0.817774      2.156549
      8.22457      9.46164      8.81321         0.388914     -1.605612     -1.353432
      3.97028      0.68296      6.19216        -3.331235      2.275249      1.672112
      0.15810      7.65322      0.09798        -0.814117     -1.840597     -2.068191
      6.65234      6.18860      7.34928        -3.304268     -8.611410      0.497013
      0.18464      3.56642      9.99856         4.482808     -0.792095      0.219725
      2.28465      7.64738      1.11347        -1.131356     -2.194143     -1.449794
      5.32260      8.15140      1.50913         0.804020     -0.161489      2.001384
      1.97964      7.10128      6.30244        -0.665105      5.201542     -0.110554
      7.69100      0.08672      4.06679         4.214663     -1.374563     -1.880654
      3.85629      5.67727      1.39071         1.465015      1.499977     -1.397743
      2.78802      3.94795      9.49626         0.198240      2.292369     -0.557301
      4.43190      5.79631      8.55013         0.958201     -4.664638      1.424628
      0.09966      7.52278      7.74097         0.891718     -1.353361     -2.511081
      1.84499      0.94973      2.33076         6.085645      3.317102      1.204895
      7.50990      1.36415      7.29892         0.479294      1.943283      1.850894
      3.75971      9.14117      7.83792         0.365443     -2.727127     -4.205569
      3.44333      9.63849      1.72848         0.641566     -1.948999     -1.371881
      2.04897      7.57385      8.88740         2.359491     -2.176957     -4.271980
      8.18330      7.88454      7.03304         2.204796     -0.420359     -1.361572
      5.84557      9.82305      5.25187        -1.574484      0.682536      1.598641
      6.28473      6.08937      4.97672        -5.062317     -1.076575      1.226767
      8.97305      3.72373      5.41952         0.609477     -1.977251     -1.787892
      6.79410      8.96919      0.38451         2.268509      0.386182     -9.991155
 -----------------------------------------------------------------------------------
    total drift:                                0.029385     -0.010046      0.005095


--------------------------------------------------------------------------------------------------------



  FREE ENERGIE OF THE ION-ELECTRON SYSTEM (eV)
  ---------------------------------------------------
  free  energy   TOTEN  =      -844.88551673 eV

  energy  without entropy=     -844.88551673  energy(sigma->0) =     -844.88551673
 


--------------------------------------------------------------------------------------------------------


    POTLOK:  cpu time    0.3567: real time    0.3683


--------------------------------------------------------------------------------------------------------


     LOOP+:  cpu time  994.2776: real time  998.9818
    4ORBIT:  cpu time    0.0000: real time    0.0000

 total amount of memory used by VASP MPI-rank0   169925. kBytes
=======================================================================

   base      :      30000. kBytes
   nonlr-proj:      22162. kBytes
   fftplans  :      16051. kBytes
   grid      :       9274. kBytes
   one-center:        186. kBytes
   wavefun   :      92252. kBytes
 
  
  
 General timing and accounting informations for this job:
 ========================================================
  
                  Total CPU time used (sec):     1015.141
                            User time (sec):     1011.424
                          System time (sec):        3.717
                         Elapsed time (sec):     1020.074
  
                   Maximum memory used (kb):      287140.
                   Average memory used (kb):           0.
  
                          Minor page faults:       184217
                          Major page faults:            0
                 Voluntary context switches:          429
